 Entering Gaussian System, Link 0=g09
 Initial command:
 /home/steboss/Software/g09/l1.exe /home/steboss/projects/phi_psi_scan/alanine/MP2/285/5514/Gau-18305.inp -scrdir=/home/steboss/projects/phi_psi_scan/alanine/MP2/285/5514/
 Entering Link 1 = /home/steboss/Software/g09/l1.exe PID=     18341.
  
 Copyright (c) 1988,1990,1992,1993,1995,1998,2003,2009, Gaussian, Inc.
                  All Rights Reserved.
  
 This is part of the Gaussian(R) 09 program.  It is based on
 the Gaussian(R) 03 system (copyright 2003, Gaussian, Inc.),
 the Gaussian(R) 98 system (copyright 1998, Gaussian, Inc.),
 the Gaussian(R) 94 system (copyright 1995, Gaussian, Inc.),
 the Gaussian 92(TM) system (copyright 1992, Gaussian, Inc.),
 the Gaussian 90(TM) system (copyright 1990, Gaussian, Inc.),
 the Gaussian 88(TM) system (copyright 1988, Gaussian, Inc.),
 the Gaussian 86(TM) system (copyright 1986, Carnegie Mellon
 University), and the Gaussian 82(TM) system (copyright 1983,
 Carnegie Mellon University). Gaussian is a federally registered
 trademark of Gaussian, Inc.
  
 This software contains proprietary and confidential information,
 including trade secrets, belonging to Gaussian, Inc.
  
 This software is provided under written license and may be
 used, copied, transmitted, or stored only in accord with that
 written license.
  
 The following legend is applicable only to US Government
 contracts under FAR:
  
                    RESTRICTED RIGHTS LEGEND
  
 Use, reproduction and disclosure by the US Government is
 subject to restrictions as set forth in subparagraphs (a)
 and (c) of the Commercial Computer Software - Restricted
 Rights clause in FAR 52.227-19.
  
 Gaussian, Inc.
 340 Quinnipiac St., Bldg. 40, Wallingford CT 06492
  
  
 ---------------------------------------------------------------
 Warning -- This program may not be used in any manner that
 competes with the business of Gaussian, Inc. or will provide
 assistance to any competitor of Gaussian, Inc.  The licensee
 of this program is prohibited from giving any competitor of
 Gaussian, Inc. access to this program.  By using this program,
 the user acknowledges that Gaussian, Inc. is engaged in the
 business of creating and licensing software in the field of
 computational chemistry and represents and warrants to the
 licensee that it is not a competitor of Gaussian, Inc. and that
 it will not use this program in any manner prohibited above.
 ---------------------------------------------------------------
  

 Cite this work as:
 Gaussian 09, Revision A.02,
 M. J. Frisch, G. W. Trucks, H. B. Schlegel, G. E. Scuseria, 
 M. A. Robb, J. R. Cheeseman, G. Scalmani, V. Barone, B. Mennucci, 
 G. A. Petersson, H. Nakatsuji, M. Caricato, X. Li, H. P. Hratchian, 
 A. F. Izmaylov, J. Bloino, G. Zheng, J. L. Sonnenberg, M. Hada, 
 M. Ehara, K. Toyota, R. Fukuda, J. Hasegawa, M. Ishida, T. Nakajima, 
 Y. Honda, O. Kitao, H. Nakai, T. Vreven, J. A. Montgomery, Jr., 
 J. E. Peralta, F. Ogliaro, M. Bearpark, J. J. Heyd, E. Brothers, 
 K. N. Kudin, V. N. Staroverov, R. Kobayashi, J. Normand, 
 K. Raghavachari, A. Rendell, J. C. Burant, S. S. Iyengar, J. Tomasi, 
 M. Cossi, N. Rega, J. M. Millam, M. Klene, J. E. Knox, J. B. Cross, 
 V. Bakken, C. Adamo, J. Jaramillo, R. Gomperts, R. E. Stratmann, 
 O. Yazyev, A. J. Austin, R. Cammi, C. Pomelli, J. W. Ochterski, 
 R. L. Martin, K. Morokuma, V. G. Zakrzewski, G. A. Voth, 
 P. Salvador, J. J. Dannenberg, S. Dapprich, A. D. Daniels, 
 O. Farkas, J. B. Foresman, J. V. Ortiz, J. Cioslowski, 
 and D. J. Fox, Gaussian, Inc., Wallingford CT, 2009.
 
 ******************************************
 Gaussian 09:  EM64L-G09RevA.02 11-Jun-2009
                13-Feb-2017 
 ******************************************
 %chk=structure_90.chk
 %NProcShared=8
 Will use up to    8 processors via shared memory.
 -------------------
 #SP MP2/aug-cc-pVDZ
 -------------------
 1/38=1/1;
 2/12=2,17=6,18=5,40=1/2;
 3/5=16,7=10,11=9,16=1,25=1,30=1/1,2,3;
 4//1;
 5/5=2,38=5/2;
 8/10=1/1;
 9/16=-3/6;
 6/7=2,8=2,9=2,10=2/1;
 99/5=1,9=1/99;
 -------------------------------
 Single Point calculation at MP2
 -------------------------------
 Symbolic Z-matrix:
 Charge =  0 Multiplicity = 1
 H                    -3.8906   -0.9486    0.0668 
 C                    -3.0661   -0.7121    0.7456 
 H                    -2.9005   -1.5913    1.3767 
 H                    -3.3558    0.1313    1.3796 
 C                    -1.8168   -0.455    -0.0791 
 O                    -1.4228   -1.2624   -0.9222 
 N                    -1.1785    0.7283    0.1515 
 H                    -1.4392    1.2761    0.9606 
 C                     0.0905    1.0623   -0.5055 
 H                    -0.0174    0.754    -1.5496 
 C                     0.3479    2.5628   -0.4161 
 H                     0.5279    2.8577    0.6223 
 H                     1.2426    2.8266   -0.9876 
 H                    -0.5018    3.1234   -0.819 
 C                     1.2515    0.2645    0.1407 
 O                     1.9032    0.7164    1.0767 
 N                     1.4843   -0.9421   -0.4462 
 H                     0.7161   -1.3137   -0.999 
 C                     2.4472   -1.8758    0.1148 
 H                     3.2758   -1.3051    0.5374 
 H                     2.0121   -2.493     0.9126 
 H                     2.8221   -2.5326   -0.6752 
 
                          Input orientation:                          
 ---------------------------------------------------------------------
 Center     Atomic      Atomic             Coordinates (Angstroms)
 Number     Number       Type             X           Y           Z
 ---------------------------------------------------------------------
      1          1           0       -3.890600   -0.948600    0.066800
      2          6           0       -3.066100   -0.712100    0.745600
      3          1           0       -2.900500   -1.591300    1.376700
      4          1           0       -3.355800    0.131300    1.379600
      5          6           0       -1.816800   -0.455000   -0.079100
      6          8           0       -1.422800   -1.262400   -0.922200
      7          7           0       -1.178500    0.728300    0.151500
      8          1           0       -1.439200    1.276100    0.960600
      9          6           0        0.090500    1.062300   -0.505500
     10          1           0       -0.017400    0.754000   -1.549600
     11          6           0        0.347900    2.562800   -0.416100
     12          1           0        0.527900    2.857700    0.622300
     13          1           0        1.242600    2.826600   -0.987600
     14          1           0       -0.501800    3.123400   -0.819000
     15          6           0        1.251500    0.264500    0.140700
     16          8           0        1.903200    0.716400    1.076700
     17          7           0        1.484300   -0.942100   -0.446200
     18          1           0        0.716100   -1.313700   -0.999000
     19          6           0        2.447200   -1.875800    0.114800
     20          1           0        3.275800   -1.305100    0.537400
     21          1           0        2.012100   -2.493000    0.912600
     22          1           0        2.822100   -2.532600   -0.675200
 ---------------------------------------------------------------------
                    Distance matrix (angstroms):
                    1          2          3          4          5
     1  H    0.000000
     2  C    1.093847   0.000000
     3  H    1.763292   1.094853   0.000000
     4  H    1.782032   1.094169   1.781757   0.000000
     5  C    2.136720   1.518875   2.141247   2.200017   0.000000
     6  O    2.677056   2.405166   2.752583   3.313182   1.232050
     7  N    3.189773   2.447599   3.137984   2.570073   1.364112
     8  H    3.428926   2.577977   3.245076   2.271450   2.054328
     9  C    4.496710   3.831171   4.419316   4.036997   2.474229
    10  H    4.529158   4.088027   4.730320   4.484739   2.619521
    11  C    5.525215   4.871336   5.569810   4.780599   3.729157
    12  H    5.858297   5.067101   5.667155   4.805194   4.118684
    13  H    6.458609   5.838773   6.501771   5.832115   4.577576
    14  H    5.371200   4.871824   5.727413   4.683142   3.883507
    15  C    5.283774   4.467809   4.712833   4.772822   3.159186
    16  O    6.112302   5.181137   5.337697   5.300111   4.067733
    17  N    5.399330   4.709504   4.792796   5.283209   3.356976
    18  H    4.742458   4.208395   4.335990   4.932153   2.828279
    19  C    6.405444   5.669972   5.501929   6.269209   4.498663
    20  H    7.190678   6.372966   6.239633   6.837446   5.199742
    21  H    6.159742   5.384014   5.016183   5.993279   4.449426
    22  H    6.936855   6.324855   6.151788   7.034559   5.117729
                    6          7          8          9         10
     6  O    0.000000
     7  N    2.274951   0.000000
     8  H    3.160568   1.011282   0.000000
     9  C    2.804986   1.467503   2.129587   0.000000
    10  H    2.536661   2.059746   2.931758   1.094000   0.000000
    11  C    4.245429   2.453051   2.597042   1.525040   2.165646
    12  H    4.813100   2.769079   2.546642   2.164882   3.072467
    13  H    4.881450   3.400314   3.659451   2.161599   2.489802
    14  H    4.482648   2.671385   2.730973   2.167310   2.526356
    15  C    3.257769   2.473889   2.989220   1.549832   2.169523
    16  O    4.355861   3.217610   3.390926   2.430820   3.253855
    17  N    2.963174   3.199685   3.930184   2.442092   2.519792
    18  H    2.140893   3.013789   3.897745   2.506051   2.261983
    19  C    4.053212   4.464122   5.074836   3.817229   3.969928
    20  H    4.920274   4.911662   5.391931   4.103457   4.409153
    21  H    4.084043   4.597388   5.110762   4.282956   4.552396
    22  H    4.437746   5.227017   5.944806   4.518157   4.430471
                   11         12         13         14         15
    11  C    0.000000
    12  H    1.094368   0.000000
    13  H    1.093934   1.761687   0.000000
    14  H    1.094802   1.791152   1.777483   0.000000
    15  C    2.531541   2.734999   2.799553   3.488323   0.000000
    16  O    2.838416   2.585168   3.025008   3.895042   1.226794
    17  N    3.684649   4.061388   3.815053   4.540029   1.361812
    18  H    3.937334   4.479354   4.173657   4.604730   2.018981
    19  C    4.938632   5.132961   4.977842   5.878825   2.451786
    20  H    4.943927   4.988694   4.850822   5.976763   2.592066
    21  H    5.485993   5.560316   5.700968   6.392345   2.962794
    22  H    5.670265   6.000183   5.595841   6.561961   3.310022
                   16         17         18         19         20
    16  O    0.000000
    17  N    2.290267   0.000000
    18  H    3.136725   1.016762   0.000000
    19  C    2.817923   1.453855   2.133826   0.000000
    20  H    2.502266   2.075743   2.985408   1.091269   0.000000
    21  H    3.215437   2.128427   2.593179   1.098514   1.774491
    22  H    3.803884   2.090895   2.454750   1.093634   1.784096
                   21         22
    21  H    0.000000
    22  H    1.782913   0.000000
 Stoichiometry    C6H12N2O2
 Framework group  C1[X(C6H12N2O2)]
 Deg. of freedom    60
 Full point group                 C1      NOp   1
 Largest Abelian subgroup         C1      NOp   1
 Largest concise Abelian subgroup C1      NOp   1
                         Standard orientation:                         
 ---------------------------------------------------------------------
 Center     Atomic      Atomic             Coordinates (Angstroms)
 Number     Number       Type             X           Y           Z
 ---------------------------------------------------------------------
      1          1           0       -3.890605   -0.948602    0.066786
      2          6           0       -3.066104   -0.712102    0.745586
      3          1           0       -2.900505   -1.591302    1.376686
      4          1           0       -3.355804    0.131298    1.379586
      5          6           0       -1.816804   -0.455003   -0.079114
      6          8           0       -1.422805   -1.262404   -0.922214
      7          7           0       -1.178503    0.728296    0.151486
      8          1           0       -1.439203    1.276096    0.960586
      9          6           0        0.090497    1.062295   -0.505514
     10          1           0       -0.017403    0.753995   -1.549614
     11          6           0        0.347899    2.562795   -0.416114
     12          1           0        0.527899    2.857694    0.622286
     13          1           0        1.242599    2.826594   -0.987614
     14          1           0       -0.501801    3.123395   -0.819014
     15          6           0        1.251496    0.264494    0.140686
     16          8           0        1.903197    0.716393    1.076686
     17          7           0        1.484295   -0.942106   -0.446214
     18          1           0        0.716095   -1.313706   -0.999014
     19          6           0        2.447194   -1.875807    0.114786
     20          1           0        3.275795   -1.305108    0.537386
     21          1           0        2.012094   -2.493007    0.912586
     22          1           0        2.822094   -2.532608   -0.675214
 ---------------------------------------------------------------------
 Rotational constants (GHZ):      1.6605710      0.9959020      0.7283678
 Standard basis: Aug-CC-pVDZ (5D, 7F)
 There are   338 symmetry adapted basis functions of A   symmetry.
 Integral buffers will be    131072 words long.
 Raffenetti 1 integral format.
 Two-electron integral symmetry is turned on.
   338 basis functions,   562 primitive gaussians,   358 cartesian basis functions
    39 alpha electrons       39 beta electrons
       nuclear repulsion energy       561.2113867963 Hartrees.
 NAtoms=   22 NActive=   22 NUniq=   22 SFac= 7.50D-01 NAtFMM=   80 NAOKFM=F Big=F
 One-electron integrals computed using PRISM.
 NBasis=   338 RedAO= T  NBF=   338
 NBsUse=   338 1.00D-06 NBFU=   338
 Harris functional with IExCor=  205 diagonalized for initial guess.
 ExpMin= 2.97D-02 ExpMax= 1.17D+04 ExpMxC= 4.01D+02 IAcc=3 IRadAn=         0 AccDes= 0.00D+00
 HarFok:  IExCor=  205 AccDes= 0.00D+00 IRadAn=         0 IDoV= 1
 ScaDFX=  1.000000  1.000000  1.000000  1.000000
 FoFCou: FMM=F IPFlag=           0 FMFlag=      100000 FMFlg1=           0
         NFxFlg=           0 DoJE=T BraDBF=F KetDBF=T FulRan=T
         Omega=  0.000000  0.000000  1.000000  0.000000  0.000000 ICntrl=     500 IOpCl=  0
         NMat0=    1 NMatS0=    1 NMatT0=    0 NMatD0=    1 NMtDS0=    0 NMtDT0=    0
         I1Cent=           4 NGrid=           0.
 Petite list used in FoFCou.
 Initial guess orbital symmetries:
       Occupied  (A) (A) (A) (A) (A) (A) (A) (A) (A) (A) (A) (A)
                 (A) (A) (A) (A) (A) (A) (A) (A) (A) (A) (A) (A)
                 (A) (A) (A) (A) (A) (A) (A) (A) (A) (A) (A) (A)
                 (A) (A) (A)
       Virtual   (A) (A) (A) (A) (A) (A) (A) (A) (A) (A) (A) (A)
                 (A) (A) (A) (A) (A) (A) (A) (A) (A) (A) (A) (A)
                 (A) (A) (A) (A) (A) (A) (A) (A) (A) (A) (A) (A)
                 (A) (A) (A) (A) (A) (A) (A) (A) (A) (A) (A) (A)
                 (A) (A) (A) (A) (A) (A) (A) (A) (A) (A) (A) (A)
                 (A) (A) (A) (A) (A) (A) (A) (A) (A) (A) (A) (A)
                 (A) (A) (A) (A) (A) (A) (A) (A) (A) (A) (A) (A)
                 (A) (A) (A) (A) (A) (A) (A) (A) (A) (A) (A) (A)
                 (A) (A) (A) (A) (A) (A) (A) (A) (A) (A) (A) (A)
                 (A) (A) (A) (A) (A) (A) (A) (A) (A) (A) (A) (A)
                 (A) (A) (A) (A) (A) (A) (A) (A) (A) (A) (A) (A)
                 (A) (A) (A) (A) (A) (A) (A) (A) (A) (A) (A) (A)
                 (A) (A) (A) (A) (A) (A) (A) (A) (A) (A) (A) (A)
                 (A) (A) (A) (A) (A) (A) (A) (A) (A) (A) (A) (A)
                 (A) (A) (A) (A) (A) (A) (A) (A) (A) (A) (A) (A)
                 (A) (A) (A) (A) (A) (A) (A) (A) (A) (A) (A) (A)
                 (A) (A) (A) (A) (A) (A) (A) (A) (A) (A) (A) (A)
                 (A) (A) (A) (A) (A) (A) (A) (A) (A) (A) (A) (A)
                 (A) (A) (A) (A) (A) (A) (A) (A) (A) (A) (A) (A)
                 (A) (A) (A) (A) (A) (A) (A) (A) (A) (A) (A) (A)
                 (A) (A) (A) (A) (A) (A) (A) (A) (A) (A) (A) (A)
                 (A) (A) (A) (A) (A) (A) (A) (A) (A) (A) (A) (A)
                 (A) (A) (A) (A) (A) (A) (A) (A) (A) (A) (A) (A)
                 (A) (A) (A) (A) (A) (A) (A) (A) (A) (A) (A) (A)
                 (A) (A) (A) (A) (A) (A) (A) (A) (A) (A) (A)
 The electronic state of the initial guess is 1-A.
 Requested convergence on RMS density matrix=1.00D-08 within 128 cycles.
 Requested convergence on MAX density matrix=1.00D-06.
 Requested convergence on             energy=1.00D-06.
 No special actions if energy rises.
 Initial convergence to 1.0D-05 achieved.  Increase integral accuracy.
 SCF Done:  E(RHF) =  -492.928874718     A.U. after   14 cycles
             Convg  =    0.8633D-08             -V/T =  2.0017
 ExpMin= 2.97D-02 ExpMax= 1.17D+04 ExpMxC= 4.01D+02 IAcc=3 IRadAn=         5 AccDes= 0.00D+00
 HarFok:  IExCor=  205 AccDes= 0.00D+00 IRadAn=         5 IDoV=-2
 ScaDFX=  1.000000  1.000000  1.000000  1.000000
 Range of M.O.s used for correlation:    11   338
 NBasis=   338 NAE=    39 NBE=    39 NFC=    10 NFV=     0
 NROrb=    328 NOA=    29 NOB=    29 NVA=   299 NVB=   299

 **** Warning!!: The largest alpha MO coefficient is  0.59610122D+02

 Disk-based method using OVN memory for 29 occupieds at a time.
 Estimated scratch disk usage=  1389758146 words.
 Actual    scratch disk usage=  1376449371 words.
 JobTyp=1 Pass  1:  I=   1 to  29 NPSUse=  8 ParTrn=T ParDer=T DoDerP=F.
 Spin components of T(2) and E(2):
     alpha-alpha T2 =       0.6802469780D-01 E2=     -0.2060893758D+00
     alpha-beta  T2 =       0.3766317044D+00 E2=     -0.1190650973D+01
     beta-beta   T2 =       0.6802469780D-01 E2=     -0.2060893758D+00
 ANorm=    0.1229911013D+01
 E2 =    -0.1602829725D+01 EUMP2 =    -0.49453170444280D+03

 **********************************************************************

            Population analysis using the SCF density.

 **********************************************************************

 Orbital symmetries:
       Occupied  (A) (A) (A) (A) (A) (A) (A) (A) (A) (A) (A) (A)
                 (A) (A) (A) (A) (A) (A) (A) (A) (A) (A) (A) (A)
                 (A) (A) (A) (A) (A) (A) (A) (A) (A) (A) (A) (A)
                 (A) (A) (A)
       Virtual   (A) (A) (A) (A) (A) (A) (A) (A) (A) (A) (A) (A)
                 (A) (A) (A) (A) (A) (A) (A) (A) (A) (A) (A) (A)
                 (A) (A) (A) (A) (A) (A) (A) (A) (A) (A) (A) (A)
                 (A) (A) (A) (A) (A) (A) (A) (A) (A) (A) (A) (A)
                 (A) (A) (A) (A) (A) (A) (A) (A) (A) (A) (A) (A)
                 (A) (A) (A) (A) (A) (A) (A) (A) (A) (A) (A) (A)
                 (A) (A) (A) (A) (A) (A) (A) (A) (A) (A) (A) (A)
                 (A) (A) (A) (A) (A) (A) (A) (A) (A) (A) (A) (A)
                 (A) (A) (A) (A) (A) (A) (A) (A) (A) (A) (A) (A)
                 (A) (A) (A) (A) (A) (A) (A) (A) (A) (A) (A) (A)
                 (A) (A) (A) (A) (A) (A) (A) (A) (A) (A) (A) (A)
                 (A) (A) (A) (A) (A) (A) (A) (A) (A) (A) (A) (A)
                 (A) (A) (A) (A) (A) (A) (A) (A) (A) (A) (A) (A)
                 (A) (A) (A) (A) (A) (A) (A) (A) (A) (A) (A) (A)
                 (A) (A) (A) (A) (A) (A) (A) (A) (A) (A) (A) (A)
                 (A) (A) (A) (A) (A) (A) (A) (A) (A) (A) (A) (A)
                 (A) (A) (A) (A) (A) (A) (A) (A) (A) (A) (A) (A)
                 (A) (A) (A) (A) (A) (A) (A) (A) (A) (A) (A) (A)
                 (A) (A) (A) (A) (A) (A) (A) (A) (A) (A) (A) (A)
                 (A) (A) (A) (A) (A) (A) (A) (A) (A) (A) (A) (A)
                 (A) (A) (A) (A) (A) (A) (A) (A) (A) (A) (A) (A)
                 (A) (A) (A) (A) (A) (A) (A) (A) (A) (A) (A) (A)
                 (A) (A) (A) (A) (A) (A) (A) (A) (A) (A) (A) (A)
                 (A) (A) (A) (A) (A) (A) (A) (A) (A) (A) (A) (A)
                 (A) (A) (A) (A) (A) (A) (A) (A) (A) (A) (A)
 The electronic state is 1-A.
 Alpha  occ. eigenvalues --  -20.54324 -20.52812 -15.61093 -15.58184 -11.37683
 Alpha  occ. eigenvalues --  -11.35208 -11.29374 -11.25928 -11.25696 -11.23653
 Alpha  occ. eigenvalues --   -1.39738  -1.37821  -1.25033  -1.22212  -1.05970
 Alpha  occ. eigenvalues --   -0.99960  -0.95520  -0.87118  -0.81176  -0.77506
 Alpha  occ. eigenvalues --   -0.72277  -0.69002  -0.67197  -0.64016  -0.62009
 Alpha  occ. eigenvalues --   -0.61445  -0.59910  -0.59146  -0.57797  -0.55210
 Alpha  occ. eigenvalues --   -0.54076  -0.53560  -0.52462  -0.51494  -0.51359
 Alpha  occ. eigenvalues --   -0.44624  -0.43662  -0.39704  -0.38175
 Alpha virt. eigenvalues --    0.02793   0.04085   0.04186   0.04790   0.05733
 Alpha virt. eigenvalues --    0.06089   0.06375   0.06991   0.07213   0.08170
 Alpha virt. eigenvalues --    0.09167   0.09827   0.11478   0.11721   0.12310
 Alpha virt. eigenvalues --    0.13209   0.13654   0.14745   0.14972   0.15581
 Alpha virt. eigenvalues --    0.15793   0.15835   0.16266   0.16839   0.17515
 Alpha virt. eigenvalues --    0.17675   0.17845   0.17957   0.18651   0.19392
 Alpha virt. eigenvalues --    0.19786   0.20242   0.20807   0.20972   0.22781
 Alpha virt. eigenvalues --    0.23447   0.24217   0.24660   0.25470   0.26904
 Alpha virt. eigenvalues --    0.27266   0.28946   0.29166   0.29989   0.30704
 Alpha virt. eigenvalues --    0.31586   0.32187   0.32442   0.32957   0.33298
 Alpha virt. eigenvalues --    0.34242   0.35040   0.35688   0.35856   0.36621
 Alpha virt. eigenvalues --    0.37510   0.37824   0.38780   0.39551   0.39653
 Alpha virt. eigenvalues --    0.40350   0.41225   0.41932   0.42334   0.42817
 Alpha virt. eigenvalues --    0.43216   0.43760   0.44404   0.45051   0.46425
 Alpha virt. eigenvalues --    0.46949   0.47045   0.47885   0.48689   0.49668
 Alpha virt. eigenvalues --    0.49866   0.50523   0.51077   0.51778   0.52227
 Alpha virt. eigenvalues --    0.53340   0.53678   0.54495   0.55771   0.55974
 Alpha virt. eigenvalues --    0.56586   0.56718   0.57972   0.58543   0.59090
 Alpha virt. eigenvalues --    0.59609   0.60045   0.60525   0.61372   0.61606
 Alpha virt. eigenvalues --    0.63291   0.63798   0.63972   0.65077   0.65401
 Alpha virt. eigenvalues --    0.66123   0.66418   0.67247   0.68098   0.68950
 Alpha virt. eigenvalues --    0.69564   0.70284   0.70751   0.70795   0.71405
 Alpha virt. eigenvalues --    0.72494   0.72991   0.74215   0.74374   0.75223
 Alpha virt. eigenvalues --    0.75917   0.76717   0.77626   0.78049   0.79008
 Alpha virt. eigenvalues --    0.79786   0.80000   0.81280   0.83819   0.84479
 Alpha virt. eigenvalues --    0.85095   0.85641   0.86750   0.87193   0.87740
 Alpha virt. eigenvalues --    0.89531   0.89872   0.90704   0.91660   0.92986
 Alpha virt. eigenvalues --    0.93852   0.95634   0.96402   0.97008   1.00015
 Alpha virt. eigenvalues --    1.01082   1.01535   1.02995   1.04665   1.05878
 Alpha virt. eigenvalues --    1.06533   1.06961   1.08838   1.09208   1.11086
 Alpha virt. eigenvalues --    1.13034   1.13741   1.14476   1.15123   1.15407
 Alpha virt. eigenvalues --    1.16950   1.17131   1.19143   1.20101   1.22249
 Alpha virt. eigenvalues --    1.22728   1.24345   1.25336   1.26850   1.28422
 Alpha virt. eigenvalues --    1.29442   1.33539   1.36545   1.37589   1.38374
 Alpha virt. eigenvalues --    1.40213   1.41679   1.43628   1.44925   1.46875
 Alpha virt. eigenvalues --    1.48782   1.50809   1.52437   1.53026   1.54542
 Alpha virt. eigenvalues --    1.56504   1.56799   1.60136   1.61320   1.63911
 Alpha virt. eigenvalues --    1.66501   1.68379   1.70340   1.71036   1.72900
 Alpha virt. eigenvalues --    1.75274   1.76281   1.77987   1.78885   1.82456
 Alpha virt. eigenvalues --    1.82842   1.83928   1.86810   1.87555   1.88525
 Alpha virt. eigenvalues --    1.89223   1.91702   1.92721   1.93046   1.94471
 Alpha virt. eigenvalues --    1.94758   1.95906   1.97880   1.99414   2.00105
 Alpha virt. eigenvalues --    2.00947   2.03654   2.06147   2.07735   2.09146
 Alpha virt. eigenvalues --    2.11562   2.13274   2.14812   2.15768   2.17088
 Alpha virt. eigenvalues --    2.17916   2.20083   2.21607   2.22536   2.24260
 Alpha virt. eigenvalues --    2.25156   2.27547   2.28380   2.28836   2.30209
 Alpha virt. eigenvalues --    2.31161   2.32646   2.35559   2.36291   2.37565
 Alpha virt. eigenvalues --    2.38021   2.39673   2.43452   2.44659   2.46306
 Alpha virt. eigenvalues --    2.47545   2.49111   2.49535   2.51318   2.52536
 Alpha virt. eigenvalues --    2.53344   2.55907   2.56834   2.59285   2.60787
 Alpha virt. eigenvalues --    2.62865   2.64086   2.64997   2.67307   2.69117
 Alpha virt. eigenvalues --    2.70778   2.72415   2.76571   2.77644   2.80267
 Alpha virt. eigenvalues --    2.82335   2.83064   2.85719   2.86228   2.89507
 Alpha virt. eigenvalues --    2.90883   2.92599   2.93337   2.94457   2.95843
 Alpha virt. eigenvalues --    3.00823   3.02998   3.04225   3.05338   3.07209
 Alpha virt. eigenvalues --    3.12572   3.13363   3.17895   3.20475   3.23411
 Alpha virt. eigenvalues --    3.34869   3.35380   3.44190   3.48916   3.52142
 Alpha virt. eigenvalues --    3.60902   3.65666   3.73347   3.82663   3.85436
 Alpha virt. eigenvalues --    3.87588   3.91620   3.95858   3.99697   4.00408
 Alpha virt. eigenvalues --    4.04505   4.10774   4.20371   4.25426
          Condensed to atoms (all electrons):
              1          2          3          4          5          6
     1  H    0.729494   0.430211  -0.053510  -0.081777  -0.113815   0.017443
     2  C    0.430211   4.531713   0.318161   0.300155   0.204539  -0.040871
     3  H   -0.053510   0.318161   0.735821  -0.065745  -0.067346   0.015797
     4  H   -0.081777   0.300155  -0.065745   1.086071   0.155991  -0.009523
     5  C   -0.113815   0.204539  -0.067346   0.155991   5.583454   0.149796
     6  O    0.017443  -0.040871   0.015797  -0.009523   0.149796   8.772582
     7  N    0.043980  -0.041550   0.055137  -0.208640   0.092952  -0.116019
     8  H   -0.004211  -0.048077  -0.004544   0.008295  -0.106221  -0.005285
     9  C   -0.009077   0.006011   0.014796  -0.025475  -0.443167   0.117452
    10  H   -0.001083  -0.008255   0.001148  -0.003642  -0.014697  -0.002782
    11  C    0.001830  -0.018788  -0.000714  -0.003656  -0.016791  -0.012410
    12  H   -0.000091  -0.005402  -0.000435  -0.000917  -0.027561   0.000913
    13  H    0.000012  -0.000433   0.000092  -0.000665   0.009096  -0.000814
    14  H    0.000155   0.010229   0.000121   0.003108   0.017411   0.001010
    15  C   -0.003441  -0.030304   0.001129  -0.015610  -0.109045   0.019932
    16  O    0.000149   0.004688   0.000820   0.000406   0.036270  -0.003631
    17  N    0.000411   0.001368  -0.001370   0.004272   0.047876  -0.010464
    18  H   -0.001527  -0.013933  -0.002198   0.002784  -0.005492   0.010019
    19  C    0.000016   0.000928   0.000619  -0.000448   0.003793  -0.005149
    20  H   -0.000125   0.000642   0.000159  -0.000059  -0.008543  -0.000273
    21  H   -0.000148  -0.000963   0.000378   0.000181   0.003568   0.001571
    22  H    0.000112  -0.000669  -0.000218  -0.000119   0.001782   0.000218
              7          8          9         10         11         12
     1  H    0.043980  -0.004211  -0.009077  -0.001083   0.001830  -0.000091
     2  C   -0.041550  -0.048077   0.006011  -0.008255  -0.018788  -0.005402
     3  H    0.055137  -0.004544   0.014796   0.001148  -0.000714  -0.000435
     4  H   -0.208640   0.008295  -0.025475  -0.003642  -0.003656  -0.000917
     5  C    0.092952  -0.106221  -0.443167  -0.014697  -0.016791  -0.027561
     6  O   -0.116019  -0.005285   0.117452  -0.002782  -0.012410   0.000913
     7  N    7.487069   0.370268  -0.340537   0.056081  -0.047137  -0.001439
     8  H    0.370268   0.939613  -0.122645  -0.002135   0.015137   0.014908
     9  C   -0.340537  -0.122645   7.807807  -0.428484   0.162052  -0.167294
    10  H    0.056081  -0.002135  -0.428484   1.580873  -0.021298   0.060860
    11  C   -0.047137   0.015137   0.162052  -0.021298   4.413185   0.477449
    12  H   -0.001439   0.014908  -0.167294   0.060860   0.477449   0.971851
    13  H    0.091579   0.006372  -0.094716  -0.060095   0.209168  -0.133002
    14  H   -0.109868  -0.015388   0.314761  -0.057051   0.170031  -0.213378
    15  C    0.091045   0.016517  -0.726656   0.144575   0.025444   0.047188
    16  O    0.025977  -0.007964  -0.036996  -0.014554  -0.044500  -0.010785
    17  N    0.028515  -0.000881   0.067705  -0.023563  -0.026803  -0.012362
    18  H   -0.020568   0.001565   0.001341   0.041800   0.004215   0.001249
    19  C    0.004952   0.001267  -0.051813   0.018181  -0.000903  -0.000520
    20  H   -0.002478  -0.000675   0.015455   0.004187  -0.003781  -0.000987
    21  H   -0.000101   0.000166   0.006233  -0.000519   0.004470   0.000128
    22  H    0.000728   0.000171  -0.013402  -0.000748   0.001337   0.000532
             13         14         15         16         17         18
     1  H    0.000012   0.000155  -0.003441   0.000149   0.000411  -0.001527
     2  C   -0.000433   0.010229  -0.030304   0.004688   0.001368  -0.013933
     3  H    0.000092   0.000121   0.001129   0.000820  -0.001370  -0.002198
     4  H   -0.000665   0.003108  -0.015610   0.000406   0.004272   0.002784
     5  C    0.009096   0.017411  -0.109045   0.036270   0.047876  -0.005492
     6  O   -0.000814   0.001010   0.019932  -0.003631  -0.010464   0.010019
     7  N    0.091579  -0.109868   0.091045   0.025977   0.028515  -0.020568
     8  H    0.006372  -0.015388   0.016517  -0.007964  -0.000881   0.001565
     9  C   -0.094716   0.314761  -0.726656  -0.036996   0.067705   0.001341
    10  H   -0.060095  -0.057051   0.144575  -0.014554  -0.023563   0.041800
    11  C    0.209168   0.170031   0.025444  -0.044500  -0.026803   0.004215
    12  H   -0.133002  -0.213378   0.047188  -0.010785  -0.012362   0.001249
    13  H    1.174380  -0.180386   0.008762   0.016181  -0.003724   0.003506
    14  H   -0.180386   1.138876  -0.090316   0.008534   0.018047  -0.002506
    15  C    0.008762  -0.090316   5.348283   0.203970   0.094863  -0.085642
    16  O    0.016181   0.008534   0.203970   8.780801  -0.153095   0.006691
    17  N   -0.003724   0.018047   0.094863  -0.153095   7.150443   0.260366
    18  H    0.003506  -0.002506  -0.085642   0.006691   0.260366   0.919736
    19  C    0.000567   0.000041  -0.077964   0.029402   0.205284  -0.112785
    20  H   -0.000636   0.000408   0.054496  -0.018527  -0.058472   0.001641
    21  H    0.000238   0.000173  -0.031002   0.006912   0.086746  -0.012189
    22  H   -0.000128  -0.000245  -0.021301   0.010516  -0.134647   0.019809
             19         20         21         22
     1  H    0.000016  -0.000125  -0.000148   0.000112
     2  C    0.000928   0.000642  -0.000963  -0.000669
     3  H    0.000619   0.000159   0.000378  -0.000218
     4  H   -0.000448  -0.000059   0.000181  -0.000119
     5  C    0.003793  -0.008543   0.003568   0.001782
     6  O   -0.005149  -0.000273   0.001571   0.000218
     7  N    0.004952  -0.002478  -0.000101   0.000728
     8  H    0.001267  -0.000675   0.000166   0.000171
     9  C   -0.051813   0.015455   0.006233  -0.013402
    10  H    0.018181   0.004187  -0.000519  -0.000748
    11  C   -0.000903  -0.003781   0.004470   0.001337
    12  H   -0.000520  -0.000987   0.000128   0.000532
    13  H    0.000567  -0.000636   0.000238  -0.000128
    14  H    0.000041   0.000408   0.000173  -0.000245
    15  C   -0.077964   0.054496  -0.031002  -0.021301
    16  O    0.029402  -0.018527   0.006912   0.010516
    17  N    0.205284  -0.058472   0.086746  -0.134647
    18  H   -0.112785   0.001641  -0.012189   0.019809
    19  C    4.094158   0.415833   0.277526   0.442621
    20  H    0.415833   1.001929  -0.104670  -0.170322
    21  H    0.277526  -0.104670   1.004291  -0.163397
    22  H    0.442621  -0.170322  -0.163397   1.185623
 Mulliken atomic charges:
              1
     1  H    0.044991
     2  C    0.400600
     3  H    0.051900
     4  H   -0.144986
     5  C    0.606149
     6  O   -0.899510
     7  N   -0.459945
     8  H   -0.056250
     9  C   -0.053352
    10  H   -0.268800
    11  C    0.712464
    12  H   -0.000905
    13  H   -0.045355
    14  H   -0.013768
    15  C    1.135078
    16  O   -0.841266
    17  N   -0.540515
    18  H   -0.017881
    19  C    0.754394
    20  H   -0.125201
    21  H   -0.079592
    22  H   -0.158250
 Sum of Mulliken atomic charges =   0.00000
 Mulliken charges with hydrogens summed into heavy atoms:
              1
     2  C    0.352505
     5  C    0.606149
     6  O   -0.899510
     7  N   -0.516195
     9  C   -0.322153
    11  C    0.652437
    15  C    1.135078
    16  O   -0.841266
    17  N   -0.558397
    19  C    0.391352
 Sum of Mulliken charges with hydrogens summed into heavy atoms =   0.00000
 Electronic spatial extent (au):  <R**2>=           1695.5444
 Charge=              0.0000 electrons
 Dipole moment (field-independent basis, Debye):
    X=             -2.7857    Y=              0.6118    Z=              0.1810  Tot=              2.8579
 Quadrupole moment (field-independent basis, Debye-Ang):
   XX=            -59.4110   YY=            -59.4036   ZZ=            -63.9565
   XY=             -7.0542   XZ=             -9.8457   YZ=             -4.1499
 Traceless Quadrupole moment (field-independent basis, Debye-Ang):
   XX=              1.5127   YY=              1.5201   ZZ=             -3.0328
   XY=             -7.0542   XZ=             -9.8457   YZ=             -4.1499
 Octapole moment (field-independent basis, Debye-Ang**2):
  XXX=            -26.3190  YYY=              0.8265  ZZZ=             -1.1918  XYY=              7.4922
  XXY=            -12.4692  XXZ=              1.3651  XZZ=             -6.3475  YZZ=              0.3814
  YYZ=              3.4143  XYZ=             -1.0076
 Hexadecapole moment (field-independent basis, Debye-Ang**3):
 XXXX=          -1195.2087 YYYY=           -751.9364 ZZZZ=           -224.0200 XXXY=            -10.4245
 XXXZ=            -21.2606 YYYX=            -15.3132 YYYZ=              1.7137 ZZZX=             -8.5625
 ZZZY=              3.1115 XXYY=           -328.6471 XXZZ=           -258.8621 YYZZ=           -157.5301
 XXYZ=            -12.0754 YYXZ=            -18.0242 ZZXY=            -10.2648
 N-N= 5.612113867963D+02 E-N=-2.277699304805D+03  KE= 4.920814785286D+02
 1\1\GINC-NODE010\SP\RMP2-FC\Aug-CC-pVDZ\C6H12N2O2\MANAGER\13-Feb-2017\
 0\\#SP MP2/aug-cc-pVDZ\\Single Point calculation at MP2\\0,1\H,0,-3.89
 06,-0.9486,0.0668\C,0,-3.0661,-0.7121,0.7456\H,0,-2.9005,-1.5913,1.376
 7\H,0,-3.3558,0.1313,1.3796\C,0,-1.8168,-0.455,-0.0791\O,0,-1.4228,-1.
 2624,-0.9222\N,0,-1.1785,0.7283,0.1515\H,0,-1.4392,1.2761,0.9606\C,0,0
 .0905,1.0623,-0.5055\H,0,-0.0174,0.754,-1.5496\C,0,0.3479,2.5628,-0.41
 61\H,0,0.5279,2.8577,0.6223\H,0,1.2426,2.8266,-0.9876\H,0,-0.5018,3.12
 34,-0.819\C,0,1.2515,0.2645,0.1407\O,0,1.9032,0.7164,1.0767\N,0,1.4843
 ,-0.9421,-0.4462\H,0,0.7161,-1.3137,-0.999\C,0,2.4472,-1.8758,0.1148\H
 ,0,3.2758,-1.3051,0.5374\H,0,2.0121,-2.493,0.9126\H,0,2.8221,-2.5326,-
 0.6752\\Version=EM64L-G09RevA.02\State=1-A\HF=-492.9288747\MP2=-494.53
 17044\RMSD=8.633e-09\PG=C01 [X(C6H12N2O2)]\\@


 I LOVE MANKIND - IT'S PEOPLE I CAN'T STAND.
     -- LINUS OF PEANUTS
 Job cpu time:  0 days 13 hours 28 minutes 24.5 seconds.
 File lengths (MBytes):  RWF=  10618 Int=      0 D2E=      0 Chk=      7 Scr=      2
 Normal termination of Gaussian 09 at Mon Feb 13 14:38:57 2017.
