 Entering Gaussian System, Link 0=g09
 Initial command:
 /home/steboss/local//g09/l1.exe /tmp/Gau-15528.inp -scrdir=/tmp/
 Entering Link 1 = /home/steboss/local//g09/l1.exe PID=     15530.
  
 Copyright (c) 1988,1990,1992,1993,1995,1998,2003,2009, Gaussian, Inc.
                  All Rights Reserved.
  
 This is part of the Gaussian(R) 09 program.  It is based on
 the Gaussian(R) 03 system (copyright 2003, Gaussian, Inc.),
 the Gaussian(R) 98 system (copyright 1998, Gaussian, Inc.),
 the Gaussian(R) 94 system (copyright 1995, Gaussian, Inc.),
 the Gaussian 92(TM) system (copyright 1992, Gaussian, Inc.),
 the Gaussian 90(TM) system (copyright 1990, Gaussian, Inc.),
 the Gaussian 88(TM) system (copyright 1988, Gaussian, Inc.),
 the Gaussian 86(TM) system (copyright 1986, Carnegie Mellon
 University), and the Gaussian 82(TM) system (copyright 1983,
 Carnegie Mellon University). Gaussian is a federally registered
 trademark of Gaussian, Inc.
  
 This software contains proprietary and confidential information,
 including trade secrets, belonging to Gaussian, Inc.
  
 This software is provided under written license and may be
 used, copied, transmitted, or stored only in accord with that
 written license.
  
 The following legend is applicable only to US Government
 contracts under FAR:
  
                    RESTRICTED RIGHTS LEGEND
  
 Use, reproduction and disclosure by the US Government is
 subject to restrictions as set forth in subparagraphs (a)
 and (c) of the Commercial Computer Software - Restricted
 Rights clause in FAR 52.227-19.
  
 Gaussian, Inc.
 340 Quinnipiac St., Bldg. 40, Wallingford CT 06492
  
  
 ---------------------------------------------------------------
 Warning -- This program may not be used in any manner that
 competes with the business of Gaussian, Inc. or will provide
 assistance to any competitor of Gaussian, Inc.  The licensee
 of this program is prohibited from giving any competitor of
 Gaussian, Inc. access to this program.  By using this program,
 the user acknowledges that Gaussian, Inc. is engaged in the
 business of creating and licensing software in the field of
 computational chemistry and represents and warrants to the
 licensee that it is not a competitor of Gaussian, Inc. and that
 it will not use this program in any manner prohibited above.
 ---------------------------------------------------------------
  

 Cite this work as:
 Gaussian 09, Revision A.02,
 M. J. Frisch, G. W. Trucks, H. B. Schlegel, G. E. Scuseria, 
 M. A. Robb, J. R. Cheeseman, G. Scalmani, V. Barone, B. Mennucci, 
 G. A. Petersson, H. Nakatsuji, M. Caricato, X. Li, H. P. Hratchian, 
 A. F. Izmaylov, J. Bloino, G. Zheng, J. L. Sonnenberg, M. Hada, 
 M. Ehara, K. Toyota, R. Fukuda, J. Hasegawa, M. Ishida, T. Nakajima, 
 Y. Honda, O. Kitao, H. Nakai, T. Vreven, J. A. Montgomery, Jr., 
 J. E. Peralta, F. Ogliaro, M. Bearpark, J. J. Heyd, E. Brothers, 
 K. N. Kudin, V. N. Staroverov, R. Kobayashi, J. Normand, 
 K. Raghavachari, A. Rendell, J. C. Burant, S. S. Iyengar, J. Tomasi, 
 M. Cossi, N. Rega, J. M. Millam, M. Klene, J. E. Knox, J. B. Cross, 
 V. Bakken, C. Adamo, J. Jaramillo, R. Gomperts, R. E. Stratmann, 
 O. Yazyev, A. J. Austin, R. Cammi, C. Pomelli, J. W. Ochterski, 
 R. L. Martin, K. Morokuma, V. G. Zakrzewski, G. A. Voth, 
 P. Salvador, J. J. Dannenberg, S. Dapprich, A. D. Daniels, 
 O. Farkas, J. B. Foresman, J. V. Ortiz, J. Cioslowski, 
 and D. J. Fox, Gaussian, Inc., Wallingford CT, 2009.
 
 ******************************************
 Gaussian 09:  EM64L-G09RevA.02 11-Jun-2009
                16-Jan-2017 
 ******************************************
 %chk=structure_150.chk
 %NProcShared=8
 Will use up to    8 processors via shared memory.
 -------------------
 #SP MP2/aug-cc-pVDZ
 -------------------
 1/38=1/1;
 2/12=2,17=6,18=5,40=1/2;
 3/5=16,7=10,11=9,16=1,25=1,30=1/1,2,3;
 4//1;
 5/5=2,38=5/2;
 8/10=1/1;
 9/16=-3/6;
 6/7=2,8=2,9=2,10=2/1;
 99/5=1,9=1/99;
 ------------------
 Phi Psi fixed scan
 ------------------
 Symbolic Z-matrix:
 Charge =  0 Multiplicity = 1
 H                     7.1958   -1.367    -1.2309 
 C                     6.1334   -1.5529   -1.4156 
 H                     6.0066   -2.6345   -1.5283 
 H                     5.841    -1.0614   -2.3485 
 C                     5.3357   -1.0891   -0.2052 
 O                     5.5717   -1.5023    0.9274 
 N                     4.3505   -0.1854   -0.4639 
 H                     4.094     0.0802   -1.4081 
 C                     3.4396    0.2739    0.5649 
 H                     3.173    -0.584     1.1963 
 C                     4.0772    1.3583    1.4554 
 H                     4.3425    2.2362    0.857 
 H                     3.3954    1.6749    2.2526 
 H                     4.9822    0.9501    1.9119 
 C                     2.1807    0.7993   -0.1556 
 O                     2.1936    1.0302   -1.3599 
 N                     1.1259    1.0332    0.6788 
 H                     1.2119    0.6315    1.6033 
 C                    -0.2393    1.3819    0.299 
 H                    -0.6546    1.9276    1.1575 
 C                    -0.3525    2.2994   -0.9284 
 H                    -0.0375    1.7897   -1.8376 
 H                    -1.3932    2.6249   -1.0325 
 H                     0.275     3.1855   -0.7965 
 C                    -1.0781    0.0925    0.1181 
 O                    -0.5818   -0.9708   -0.2349 
 N                    -2.4008    0.2394    0.3986 
 H                    -2.814     1.1433    0.6073 
 C                    -3.3655   -0.814     0.1409 
 H                    -3.0869   -1.3167   -0.7942 
 C                    -3.387    -1.8607    1.2713 
 H                    -3.6748   -1.3947    2.2194 
 H                    -4.0927   -2.6707    1.0547 
 H                    -2.3878   -2.2914    1.3728 
 C                    -4.7335   -0.1276   -0.0232 
 O                    -4.909     1.0377    0.3274 
 N                    -5.7104   -0.9087   -0.5523 
 H                    -5.4717   -1.8469   -0.8414 
 C                    -7.076    -0.4486   -0.7465 
 H                    -7.1321    0.5759   -0.3775 
 H                    -7.3489   -0.4631   -1.8078 
 H                    -7.7838   -1.0722   -0.1888 
 
                          Input orientation:                          
 ---------------------------------------------------------------------
 Center     Atomic      Atomic             Coordinates (Angstroms)
 Number     Number       Type             X           Y           Z
 ---------------------------------------------------------------------
      1          1           0        7.195800   -1.367000   -1.230900
      2          6           0        6.133400   -1.552900   -1.415600
      3          1           0        6.006600   -2.634500   -1.528300
      4          1           0        5.841000   -1.061400   -2.348500
      5          6           0        5.335700   -1.089100   -0.205200
      6          8           0        5.571700   -1.502300    0.927400
      7          7           0        4.350500   -0.185400   -0.463900
      8          1           0        4.094000    0.080200   -1.408100
      9          6           0        3.439600    0.273900    0.564900
     10          1           0        3.173000   -0.584000    1.196300
     11          6           0        4.077200    1.358300    1.455400
     12          1           0        4.342500    2.236200    0.857000
     13          1           0        3.395400    1.674900    2.252600
     14          1           0        4.982200    0.950100    1.911900
     15          6           0        2.180700    0.799300   -0.155600
     16          8           0        2.193600    1.030200   -1.359900
     17          7           0        1.125900    1.033200    0.678800
     18          1           0        1.211900    0.631500    1.603300
     19          6           0       -0.239300    1.381900    0.299000
     20          1           0       -0.654600    1.927600    1.157500
     21          6           0       -0.352500    2.299400   -0.928400
     22          1           0       -0.037500    1.789700   -1.837600
     23          1           0       -1.393200    2.624900   -1.032500
     24          1           0        0.275000    3.185500   -0.796500
     25          6           0       -1.078100    0.092500    0.118100
     26          8           0       -0.581800   -0.970800   -0.234900
     27          7           0       -2.400800    0.239400    0.398600
     28          1           0       -2.814000    1.143300    0.607300
     29          6           0       -3.365500   -0.814000    0.140900
     30          1           0       -3.086900   -1.316700   -0.794200
     31          6           0       -3.387000   -1.860700    1.271300
     32          1           0       -3.674800   -1.394700    2.219400
     33          1           0       -4.092700   -2.670700    1.054700
     34          1           0       -2.387800   -2.291400    1.372800
     35          6           0       -4.733500   -0.127600   -0.023200
     36          8           0       -4.909000    1.037700    0.327400
     37          7           0       -5.710400   -0.908700   -0.552300
     38          1           0       -5.471700   -1.846900   -0.841400
     39          6           0       -7.076000   -0.448600   -0.746500
     40          1           0       -7.132100    0.575900   -0.377500
     41          1           0       -7.348900   -0.463100   -1.807800
     42          1           0       -7.783800   -1.072200   -0.188800
 ---------------------------------------------------------------------
                    Distance matrix (angstroms):
                    1          2          3          4          5
     1  H    0.000000
     2  C    1.094243   0.000000
     3  H    1.763292   1.094823   0.000000
     4  H    1.782668   1.094245   1.781795   0.000000
     5  C    2.142256   1.522007   2.142186   2.202233   0.000000
     6  O    2.704490   2.409920   2.738882   3.316389   1.228500
     7  N    3.174933   2.440189   3.142245   2.557476   1.361697
     8  H    3.427383   2.612704   3.322963   2.289020   2.087115
     9  C    4.475097   3.810005   4.407921   4.004703   2.458865
    10  H    4.763120   4.065065   4.433654   4.462257   2.626138
    11  C    4.936510   4.576646   5.344858   4.841032   3.214216
    12  H    5.048138   4.767527   5.672971   4.836827   3.629371
    13  H    5.985897   5.600985   6.299563   5.885441   4.176750
    14  H    4.488448   4.320015   5.072842   4.789016   2.960644
    15  C    5.567796   4.769097   5.320977   4.654977   3.677301
    16  O    5.548442   4.711426   5.291253   4.319218   3.962014
    17  N    6.800853   6.012444   6.491883   5.981978   4.796669
    18  H    6.916195   6.173048   6.592634   6.317531   4.820463
    19  C    8.073274   7.222479   7.647337   7.067462   6.118879
    20  H    8.842377   8.050569   8.508693   7.963603   6.844058
    21  C    8.397073   7.559397   8.071022   7.188261   6.660373
    22  H    7.915394   7.030723   7.496690   6.553362   6.310586
    23  H    9.473413   8.616872   9.091983   8.225224   7.730221
    24  H    8.295266   7.560196   8.201169   7.171138   6.650754
    25  C    8.509252   7.554158   7.767891   7.435694   6.529742
    26  O    7.851118   6.843011   6.917210   6.762239   5.918757
    27  N    9.865623   8.907089   9.091569   8.784413   7.872923
    28  H   10.482208   9.561254   9.830338   9.407788   8.488897
    29  C   10.664366   9.653899   9.692095   9.540333   8.712425
    30  H   10.292092   9.244234   9.217768   9.065783   8.446237
    31  C   10.885789   9.897080   9.832408   9.944738   8.880367
    32  H   11.405055  10.461312  10.455231  10.560646   9.336016
    33  H   11.591110  10.579460  10.424445  10.623089   9.642797
    34  H    9.973924   8.996188   8.888197   9.114501   7.974212
    35  C   12.054163  11.048067  11.131021  10.867339  10.116640
    36  O   12.439335  11.475359  11.665290  11.275157  10.476680
    37  N   12.932151  11.892682  11.883562  11.691214  11.053024
    38  H   12.682570  11.623015  11.525776  11.439648  10.852599
    39  C   14.309521  13.272356  13.286978  13.030381  12.439998
    40  H   14.484194  13.475271  13.574109  13.223725  12.579664
    41  H   14.584175  13.531958  13.533753  13.214529  12.800753
    42  H   15.018698  13.979434  13.943105  13.794912  13.119521
                    6          7          8          9         10
     6  O    0.000000
     7  N    2.271843   0.000000
     8  H    3.184724   1.013829   0.000000
     9  C    2.798597   1.448836   2.087699   0.000000
    10  H    2.582507   2.074042   2.841180   1.098059   0.000000
    11  C    3.270374   2.478188   3.135834   1.541249   2.158064
    12  H    3.936022   2.758439   3.137000   2.179718   3.071870
    13  H    4.072719   3.428163   4.053620   2.193875   2.503570
    14  H    2.707585   2.707920   3.545141   2.156680   2.477650
    15  C    4.239001   2.402648   2.397202   1.542723   2.173893
    16  O    4.801756   2.633005   2.125169   2.414407   3.177896
    17  N    5.124032   3.631638   3.751397   2.437769   2.659654
    18  H    4.900796   3.845966   4.204636   2.483707   2.342862
    19  C    6.517762   4.909655   4.835918   3.851321   4.039022
    20  H    7.112241   5.669633   5.704769   4.455151   4.578227
    21  C    7.279633   5.339307   4.992627   4.551112   5.025684
    22  H    7.067221   5.004260   4.491787   4.489976   5.014610
    23  H    8.329755   6.419594   6.060193   5.606678   6.009557
    24  H    7.280270   5.299367   4.960010   4.510601   5.155462
    25  C    6.886087   5.466777   5.392593   4.543363   4.437569
    26  O    6.284823   4.999688   4.933975   4.284929   4.036889
    27  N    8.177647   6.819414   6.743288   5.842869   5.690480
    28  H    8.798956   7.364983   7.274097   6.313887   6.258966
    29  C    8.998104   7.765151   7.670928   6.904541   6.627122
    30  H    8.830046   7.530196   7.341221   6.853639   6.609485
    31  C    8.972459   8.104718   8.179953   7.187349   6.683501
    32  H    9.336948   8.547979   8.699905   7.492415   6.971107
    33  H    9.735604   8.931433   8.980807   8.102229   7.560738
    34  H    8.010911   7.294751   7.441211   6.418104   5.819696
    35  C   10.439856   9.094867   8.937890   8.204062   8.013003
    36  O   10.800772   9.373392   9.218610   8.386830   8.288765
    37  N   11.394194  10.087254   9.891237   9.293502   9.059681
    38  H   11.189463   9.968887   9.774328   9.267510   8.970952
    39  C   12.801427  11.433024  11.202064  10.621658  10.432392
    40  H   12.938633  11.508134  11.284200  10.617917  10.488913
    41  H   13.247761  11.779607  11.462761  11.070890  10.943017
    42  H   13.408962  12.169771  11.995701  11.328934  11.054787
                   11         12         13         14         15
    11  C    0.000000
    12  H    1.095069   0.000000
    13  H    1.095726   1.777570   0.000000
    14  H    1.092723   1.782157   1.777455   0.000000
    15  C    2.550395   2.786291   2.835771   3.485068   0.000000
    16  O    3.403162   3.314642   3.861362   4.299695   1.226303
    17  N    3.069034   3.438820   2.835358   4.049505   1.365114
    18  H    2.959739   3.596204   2.505583   3.796301   2.015058
    19  C    4.468779   4.694048   4.136840   5.481967   2.530313
    20  H    4.775225   5.015630   4.203047   5.770454   3.322080
    21  C    5.117657   5.023412   4.955352   6.192491   3.043784
    22  H    5.287789   5.161844   5.341134   6.321477   2.954730
    23  H    6.141596   6.051409   5.884307   7.219430   4.107862
    24  H    4.781886   4.492192   4.616906   5.872834   3.120320
    25  C    5.474280   5.875741   5.203103   6.378121   3.345782
    26  O    5.476139   5.977108   5.385676   6.265517   3.281912
    27  N    6.658322   7.047655   6.252512   7.569931   4.648738
    28  H    6.946520   7.243775   6.445639   7.906962   5.064324
    29  C    7.863878   8.320444   7.507574   8.713931   5.783683
    30  H    7.971239   8.399139   7.762272   8.807482   5.712519
    31  C    8.130814   8.757934   7.711314   8.851806   6.333319
    32  H    8.261732   8.905991   7.707871   8.974201   6.688882
    33  H    9.118150   9.760602   8.740186   9.808098   7.270576
    34  H    7.424511   8.127863   7.067601   8.069377   5.723602
    35  C    9.056632   9.419983   8.631760   9.964982   6.977309
    36  O    9.062393   9.343828   8.548420  10.017692   7.110131
    37  N   10.245353  10.627197   9.872084  11.129201   8.083569
    38  H   10.331026  10.764515  10.030024  11.166373   8.126003
    39  C   11.511174  11.838982  11.097480  12.426731   9.359109
    40  H   11.385081  11.659633  10.906580  12.334409   9.318122
    41  H   12.021719  12.291306  11.683230  12.957211   9.753804
    42  H   12.218594  12.612944  11.767816  13.094785  10.138781
                   16         17         18         19         20
    16  O    0.000000
    17  N    2.301367   0.000000
    18  H    3.146943   1.011662   0.000000
    19  C    2.965577   1.459319   2.090521   0.000000
    20  H    3.905749   2.049216   2.315693   1.098765   0.000000
    21  C    2.877444   2.524286   3.411560   1.536597   2.140205
    22  H    2.404755   2.873684   3.839560   2.184510   3.061120
    23  H    3.938958   3.436266   4.208044   2.156253   2.414096
    24  H    2.940028   2.744619   3.627635   2.172003   2.502915
    25  C    3.710497   2.461080   2.782165   1.548826   2.151115
    26  O    3.601732   2.786952   3.027161   2.436709   3.216333
    27  N    4.982590   3.625775   3.828400   2.446898   2.544634
    28  H    5.381331   3.942087   4.178735   2.604047   2.362383
    29  C    6.046244   4.886119   5.018035   3.823624   3.987333
    30  H    5.806172   5.043753   5.293692   4.072635   4.500078
    31  C    6.813488   5.393698   5.241294   4.622536   4.672278
    32  H    7.289009   5.595969   5.325871   4.816649   4.613775
    33  H    7.684043   6.410457   6.272501   5.642990   5.742427
    34  H    6.284099   4.886787   4.642662   4.388876   4.566213
    35  C    7.149264   6.014385   6.210436   4.751867   4.717555
    36  O    7.300272   6.045124   6.265647   4.682454   4.425032
    37  N    8.178311   7.212599   7.411954   5.992036   6.043933
    38  H    8.203863   7.357602   7.535883   6.253293   6.437927
    39  C    9.406838   8.455671   8.682019   7.154318   7.106752
    40  H    9.388300   8.337833   8.576071   6.972659   6.792741
    41  H    9.669016   8.957920   9.280143   7.641272   7.702084
    42  H   10.263531   9.196097   9.329353   7.948587   7.850912
                   21         22         23         24         25
    21  C    0.000000
    22  H    1.088882   0.000000
    23  H    1.095374   1.784283   0.000000
    24  H    1.093767   1.769125   1.775629   0.000000
    25  C    2.547953   2.790717   2.799325   3.497717   0.000000
    26  O    3.350780   3.238097   3.771418   4.280693   1.225369
    27  N    3.193754   3.604054   2.958702   4.155439   1.360072
    28  H    3.123127   3.755572   2.627310   3.960196   2.087306
    29  C    4.462604   4.665758   4.134352   5.488894   2.460581
    30  H    4.535541   4.476298   4.296698   5.618913   2.617902
    31  C    5.599402   5.848917   5.422485   6.568879   3.236646
    32  H    5.881556   6.311070   5.651348   6.758314   3.656512
    33  H    6.528681   6.686196   6.299769   7.536499   4.195272
    34  H    5.523895   5.699645   5.562796   6.464735   2.995424
    35  C    5.089487   5.387068   4.444384   6.054725   3.664745
    36  O    4.891893   5.383701   4.090157   5.722766   3.951329
    37  N    6.256233   6.412110   5.599566   7.255834   4.786443
    38  H    6.588291   6.614212   6.055384   7.638824   4.897513
    39  C    7.265676   7.465987   6.467025   8.200389   6.084006
    40  H    7.016902   7.344287   6.128817   7.864522   6.093456
    41  H    7.573266   7.650658   6.753310   8.512277   6.583367
    42  H    8.193834   8.421056   7.431026   9.134636   6.813012
                   26         27         28         29         30
    26  O    0.000000
    27  N    2.274790   0.000000
    28  H    3.187701   1.015542   0.000000
    29  C    2.813325   1.451450   2.086314   0.000000
    30  H    2.589979   2.077246   2.844341   1.097605   0.000000
    31  C    3.306011   2.478834   3.129415   1.540729   2.156916
    32  H    3.971137   2.758382   3.127505   2.180147   3.071400
    33  H    4.108424   3.429530   4.047448   2.193441   2.502675
    34  H    2.755053   2.711860   3.544686   2.157820   2.476827
    35  C    4.241747   2.398769   2.386880   1.539317   2.172485
    36  O    4.803635   2.633139   2.116251   2.417844   3.181389
    37  N    5.138788   3.629848   3.734235   2.447049   2.666033
    38  H    5.004649   3.914163   4.254809   2.543202   2.443483
    39  C    6.535217   4.862314   4.746742   3.832598   4.082743
    40  H    6.731942   4.806325   4.465172   4.048189   4.485445
    41  H    6.966019   5.463094   5.383173   4.448375   4.463257
    42  H    7.202861   5.571537   5.499193   4.438101   4.742063
                   31         32         33         34         35
    31  C    0.000000
    32  H    1.094933   0.000000
    33  H    1.095914   1.777454   0.000000
    34  H    1.092797   1.782462   1.775314   0.000000
    35  C    2.548024   2.784895   2.835463   3.483268   0.000000
    36  O    3.407074   3.319561   3.866205   4.304906   1.229490
    37  N    3.103226   3.473066   2.881674   4.081365   1.358086
    38  H    2.968108   3.577965   2.485052   3.822395   2.042152
    39  C    4.435568   4.610838   4.133053   5.465031   2.472551
    40  H    4.762493   4.751850   4.672212   5.813204   2.524623
    41  H    5.208723   5.530391   4.865207   6.170203   3.183972
    42  H    4.699519   4.773606   4.210192   5.748205   3.197503
                   36         37         38         39         40
    36  O    0.000000
    37  N    2.281356   0.000000
    38  H    3.162853   1.010334   0.000000
    39  C    2.838704   1.454053   2.130265   0.000000
    40  H    2.377460   2.062965   2.973565   1.090371   0.000000
    41  H    3.572757   2.111758   2.524423   1.095921   1.781090
    42  H    3.603140   2.111363   2.524253   1.095850   1.782289
                   41         42
    41  H    0.000000
    42  H    1.783620   0.000000
 Stoichiometry    C12H22N4O4
 Framework group  C1[X(C12H22N4O4)]
 Deg. of freedom   120
 Full point group                 C1      NOp   1
 Largest Abelian subgroup         C1      NOp   1
 Largest concise Abelian subgroup C1      NOp   1
                         Standard orientation:                         
 ---------------------------------------------------------------------
 Center     Atomic      Atomic             Coordinates (Angstroms)
 Number     Number       Type             X           Y           Z
 ---------------------------------------------------------------------
      1          1           0        7.195799   -1.367000   -1.230898
      2          6           0        6.133399   -1.552900   -1.415598
      3          1           0        6.006599   -2.634500   -1.528298
      4          1           0        5.840999   -1.061400   -2.348498
      5          6           0        5.335699   -1.089099   -0.205198
      6          8           0        5.571699   -1.502299    0.927402
      7          7           0        4.350500   -0.185399   -0.463898
      8          1           0        4.094000    0.080201   -1.408098
      9          6           0        3.439600    0.273902    0.564902
     10          1           0        3.173000   -0.583998    1.196302
     11          6           0        4.077201    1.358301    1.455402
     12          1           0        4.342501    2.236201    0.857002
     13          1           0        3.395401    1.674902    2.252602
     14          1           0        4.982200    0.950101    1.911902
     15          6           0        2.180700    0.799302   -0.155598
     16          8           0        2.193600    1.030202   -1.359898
     17          7           0        1.125900    1.033203    0.678802
     18          1           0        1.211900    0.631503    1.603302
     19          6           0       -0.239299    1.381903    0.299002
     20          1           0       -0.654599    1.927604    1.157502
     21          6           0       -0.352499    2.299403   -0.928398
     22          1           0       -0.037499    1.789703   -1.837598
     23          1           0       -1.393199    2.624904   -1.032498
     24          1           0        0.275002    3.185503   -0.796498
     25          6           0       -1.078100    0.092504    0.118102
     26          8           0       -0.581800   -0.970796   -0.234898
     27          7           0       -2.400800    0.239404    0.398602
     28          1           0       -2.813999    1.143305    0.607302
     29          6           0       -3.365500   -0.813995    0.140902
     30          1           0       -3.086901   -1.316695   -0.794198
     31          6           0       -3.387001   -1.860695    1.271302
     32          1           0       -3.674801   -1.394695    2.219402
     33          1           0       -4.092701   -2.670695    1.054702
     34          1           0       -2.387801   -2.291396    1.372802
     35          6           0       -4.733500   -0.127595   -0.023198
     36          8           0       -4.909000    1.037706    0.327402
     37          7           0       -5.710400   -0.908694   -0.552298
     38          1           0       -5.471701   -1.846894   -0.841398
     39          6           0       -7.076000   -0.448593   -0.746498
     40          1           0       -7.132100    0.575907   -0.377498
     41          1           0       -7.348900   -0.463093   -1.807798
     42          1           0       -7.783801   -1.072193   -0.188798
 ---------------------------------------------------------------------
 Rotational constants (GHZ):      0.8560283      0.1054133      0.1013238
 Standard basis: Aug-CC-pVDZ (5D, 7F)
 There are   658 symmetry adapted basis functions of A   symmetry.
 Integral buffers will be    131072 words long.
 Raffenetti 1 integral format.
 Two-electron integral symmetry is turned on.
   658 basis functions,  1102 primitive gaussians,   698 cartesian basis functions
    77 alpha electrons       77 beta electrons
       nuclear repulsion energy      1580.7054029782 Hartrees.
 NAtoms=   42 NActive=   42 NUniq=   42 SFac= 7.50D-01 NAtFMM=   80 NAOKFM=F Big=F
 One-electron integrals computed using PRISM.
 PrsmSu:  requested number of processors reduced to:   7 ShMem   1 Linda.
 NBasis=   658 RedAO= T  NBF=   658
 NBsUse=   658 1.00D-06 NBFU=   658
 Harris functional with IExCor=  205 diagonalized for initial guess.
 ExpMin= 2.97D-02 ExpMax= 1.17D+04 ExpMxC= 4.01D+02 IAcc=3 IRadAn=         0 AccDes= 0.00D+00
 HarFok:  IExCor=  205 AccDes= 0.00D+00 IRadAn=         0 IDoV= 1
 ScaDFX=  1.000000  1.000000  1.000000  1.000000
 FoFCou: FMM=F IPFlag=           0 FMFlag=      100000 FMFlg1=           0
         NFxFlg=           0 DoJE=T BraDBF=F KetDBF=T FulRan=T
         Omega=  0.000000  0.000000  1.000000  0.000000  0.000000 ICntrl=     500 IOpCl=  0
         NMat0=    1 NMatS0=    1 NMatT0=    0 NMatD0=    1 NMtDS0=    0 NMtDT0=    0
         I1Cent=           4 NGrid=           0.
 Petite list used in FoFCou.
 Initial guess orbital symmetries:
       Occupied  (A) (A) (A) (A) (A) (A) (A) (A) (A) (A) (A) (A)
                 (A) (A) (A) (A) (A) (A) (A) (A) (A) (A) (A) (A)
                 (A) (A) (A) (A) (A) (A) (A) (A) (A) (A) (A) (A)
                 (A) (A) (A) (A) (A) (A) (A) (A) (A) (A) (A) (A)
                 (A) (A) (A) (A) (A) (A) (A) (A) (A) (A) (A) (A)
                 (A) (A) (A) (A) (A) (A) (A) (A) (A) (A) (A) (A)
                 (A) (A) (A) (A) (A)
       Virtual   (A) (A) (A) (A) (A) (A) (A) (A) (A) (A) (A) (A)
                 (A) (A) (A) (A) (A) (A) (A) (A) (A) (A) (A) (A)
                 (A) (A) (A) (A) (A) (A) (A) (A) (A) (A) (A) (A)
                 (A) (A) (A) (A) (A) (A) (A) (A) (A) (A) (A) (A)
                 (A) (A) (A) (A) (A) (A) (A) (A) (A) (A) (A) (A)
                 (A) (A) (A) (A) (A) (A) (A) (A) (A) (A) (A) (A)
                 (A) (A) (A) (A) (A) (A) (A) (A) (A) (A) (A) (A)
                 (A) (A) (A) (A) (A) (A) (A) (A) (A) (A) (A) (A)
                 (A) (A) (A) (A) (A) (A) (A) (A) (A) (A) (A) (A)
                 (A) (A) (A) (A) (A) (A) (A) (A) (A) (A) (A) (A)
                 (A) (A) (A) (A) (A) (A) (A) (A) (A) (A) (A) (A)
                 (A) (A) (A) (A) (A) (A) (A) (A) (A) (A) (A) (A)
                 (A) (A) (A) (A) (A) (A) (A) (A) (A) (A) (A) (A)
                 (A) (A) (A) (A) (A) (A) (A) (A) (A) (A) (A) (A)
                 (A) (A) (A) (A) (A) (A) (A) (A) (A) (A) (A) (A)
                 (A) (A) (A) (A) (A) (A) (A) (A) (A) (A) (A) (A)
                 (A) (A) (A) (A) (A) (A) (A) (A) (A) (A) (A) (A)
                 (A) (A) (A) (A) (A) (A) (A) (A) (A) (A) (A) (A)
                 (A) (A) (A) (A) (A) (A) (A) (A) (A) (A) (A) (A)
                 (A) (A) (A) (A) (A) (A) (A) (A) (A) (A) (A) (A)
                 (A) (A) (A) (A) (A) (A) (A) (A) (A) (A) (A) (A)
                 (A) (A) (A) (A) (A) (A) (A) (A) (A) (A) (A) (A)
                 (A) (A) (A) (A) (A) (A) (A) (A) (A) (A) (A) (A)
                 (A) (A) (A) (A) (A) (A) (A) (A) (A) (A) (A) (A)
                 (A) (A) (A) (A) (A) (A) (A) (A) (A) (A) (A) (A)
                 (A) (A) (A) (A) (A) (A) (A) (A) (A) (A) (A) (A)
                 (A) (A) (A) (A) (A) (A) (A) (A) (A) (A) (A) (A)
                 (A) (A) (A) (A) (A) (A) (A) (A) (A) (A) (A) (A)
                 (A) (A) (A) (A) (A) (A) (A) (A) (A) (A) (A) (A)
                 (A) (A) (A) (A) (A) (A) (A) (A) (A) (A) (A) (A)
                 (A) (A) (A) (A) (A) (A) (A) (A) (A) (A) (A) (A)
                 (A) (A) (A) (A) (A) (A) (A) (A) (A) (A) (A) (A)
                 (A) (A) (A) (A) (A) (A) (A) (A) (A) (A) (A) (A)
                 (A) (A) (A) (A) (A) (A) (A) (A) (A) (A) (A) (A)
                 (A) (A) (A) (A) (A) (A) (A) (A) (A) (A) (A) (A)
                 (A) (A) (A) (A) (A) (A) (A) (A) (A) (A) (A) (A)
                 (A) (A) (A) (A) (A) (A) (A) (A) (A) (A) (A) (A)
                 (A) (A) (A) (A) (A) (A) (A) (A) (A) (A) (A) (A)
                 (A) (A) (A) (A) (A) (A) (A) (A) (A) (A) (A) (A)
                 (A) (A) (A) (A) (A) (A) (A) (A) (A) (A) (A) (A)
                 (A) (A) (A) (A) (A) (A) (A) (A) (A) (A) (A) (A)
                 (A) (A) (A) (A) (A) (A) (A) (A) (A) (A) (A) (A)
                 (A) (A) (A) (A) (A) (A) (A) (A) (A) (A) (A) (A)
                 (A) (A) (A) (A) (A) (A) (A) (A) (A) (A) (A) (A)
                 (A) (A) (A) (A) (A) (A) (A) (A) (A) (A) (A) (A)
                 (A) (A) (A) (A) (A) (A) (A) (A) (A) (A) (A) (A)
                 (A) (A) (A) (A) (A) (A) (A) (A) (A) (A) (A) (A)
                 (A) (A) (A) (A) (A) (A) (A) (A) (A) (A) (A) (A)
                 (A) (A) (A) (A) (A)
 The electronic state of the initial guess is 1-A.
 Requested convergence on RMS density matrix=1.00D-08 within 128 cycles.
 Requested convergence on MAX density matrix=1.00D-06.
 Requested convergence on             energy=1.00D-06.
 No special actions if energy rises.
 Initial convergence to 1.0D-05 achieved.  Increase integral accuracy.
 SCF Done:  E(RHF) =  -984.690937034     A.U. after   16 cycles
             Convg  =    0.1709D-08             -V/T =  2.0017
 ExpMin= 2.97D-02 ExpMax= 1.17D+04 ExpMxC= 4.01D+02 IAcc=3 IRadAn=         5 AccDes= 0.00D+00
 HarFok:  IExCor=  205 AccDes= 0.00D+00 IRadAn=         5 IDoV=-2
 ScaDFX=  1.000000  1.000000  1.000000  1.000000
 Range of M.O.s used for correlation:    21   658
 NBasis=   658 NAE=    77 NBE=    77 NFC=    20 NFV=     0
 NROrb=    638 NOA=    57 NOB=    57 NVA=   581 NVB=   581

 **** Warning!!: The largest alpha MO coefficient is  0.96240284D+02

 Disk-based method using OVN memory for 57 occupieds at a time.
 Estimated scratch disk usage= 19657270300 words.
 Actual    scratch disk usage= 19655698972 words.
 GetIJB would need an additional    27480314 words of memory to use all   8 processors.
 JobTyp=1 Pass  1:  I=   1 to  57 NPSUse=  1 ParTrn=F ParDer=F DoDerP=F.
 Spin components of T(2) and E(2):
     alpha-alpha T2 =       0.1369159883D+00 E2=     -0.4149917827D+00
     alpha-beta  T2 =       0.7457458785D+00 E2=     -0.2361467975D+01
     beta-beta   T2 =       0.1369159883D+00 E2=     -0.4149917827D+00
 ANorm=    0.1421118523D+01
 E2 =    -0.3191451540D+01 EUMP2 =    -0.98788238857422D+03

 **********************************************************************

            Population analysis using the SCF density.

 **********************************************************************

 Orbital symmetries:
       Occupied  (A) (A) (A) (A) (A) (A) (A) (A) (A) (A) (A) (A)
                 (A) (A) (A) (A) (A) (A) (A) (A) (A) (A) (A) (A)
                 (A) (A) (A) (A) (A) (A) (A) (A) (A) (A) (A) (A)
                 (A) (A) (A) (A) (A) (A) (A) (A) (A) (A) (A) (A)
                 (A) (A) (A) (A) (A) (A) (A) (A) (A) (A) (A) (A)
                 (A) (A) (A) (A) (A) (A) (A) (A) (A) (A) (A) (A)
                 (A) (A) (A) (A) (A)
       Virtual   (A) (A) (A) (A) (A) (A) (A) (A) (A) (A) (A) (A)
                 (A) (A) (A) (A) (A) (A) (A) (A) (A) (A) (A) (A)
                 (A) (A) (A) (A) (A) (A) (A) (A) (A) (A) (A) (A)
                 (A) (A) (A) (A) (A) (A) (A) (A) (A) (A) (A) (A)
                 (A) (A) (A) (A) (A) (A) (A) (A) (A) (A) (A) (A)
                 (A) (A) (A) (A) (A) (A) (A) (A) (A) (A) (A) (A)
                 (A) (A) (A) (A) (A) (A) (A) (A) (A) (A) (A) (A)
                 (A) (A) (A) (A) (A) (A) (A) (A) (A) (A) (A) (A)
                 (A) (A) (A) (A) (A) (A) (A) (A) (A) (A) (A) (A)
                 (A) (A) (A) (A) (A) (A) (A) (A) (A) (A) (A) (A)
                 (A) (A) (A) (A) (A) (A) (A) (A) (A) (A) (A) (A)
                 (A) (A) (A) (A) (A) (A) (A) (A) (A) (A) (A) (A)
                 (A) (A) (A) (A) (A) (A) (A) (A) (A) (A) (A) (A)
                 (A) (A) (A) (A) (A) (A) (A) (A) (A) (A) (A) (A)
                 (A) (A) (A) (A) (A) (A) (A) (A) (A) (A) (A) (A)
                 (A) (A) (A) (A) (A) (A) (A) (A) (A) (A) (A) (A)
                 (A) (A) (A) (A) (A) (A) (A) (A) (A) (A) (A) (A)
                 (A) (A) (A) (A) (A) (A) (A) (A) (A) (A) (A) (A)
                 (A) (A) (A) (A) (A) (A) (A) (A) (A) (A) (A) (A)
                 (A) (A) (A) (A) (A) (A) (A) (A) (A) (A) (A) (A)
                 (A) (A) (A) (A) (A) (A) (A) (A) (A) (A) (A) (A)
                 (A) (A) (A) (A) (A) (A) (A) (A) (A) (A) (A) (A)
                 (A) (A) (A) (A) (A) (A) (A) (A) (A) (A) (A) (A)
                 (A) (A) (A) (A) (A) (A) (A) (A) (A) (A) (A) (A)
                 (A) (A) (A) (A) (A) (A) (A) (A) (A) (A) (A) (A)
                 (A) (A) (A) (A) (A) (A) (A) (A) (A) (A) (A) (A)
                 (A) (A) (A) (A) (A) (A) (A) (A) (A) (A) (A) (A)
                 (A) (A) (A) (A) (A) (A) (A) (A) (A) (A) (A) (A)
                 (A) (A) (A) (A) (A) (A) (A) (A) (A) (A) (A) (A)
                 (A) (A) (A) (A) (A) (A) (A) (A) (A) (A) (A) (A)
                 (A) (A) (A) (A) (A) (A) (A) (A) (A) (A) (A) (A)
                 (A) (A) (A) (A) (A) (A) (A) (A) (A) (A) (A) (A)
                 (A) (A) (A) (A) (A) (A) (A) (A) (A) (A) (A) (A)
                 (A) (A) (A) (A) (A) (A) (A) (A) (A) (A) (A) (A)
                 (A) (A) (A) (A) (A) (A) (A) (A) (A) (A) (A) (A)
                 (A) (A) (A) (A) (A) (A) (A) (A) (A) (A) (A) (A)
                 (A) (A) (A) (A) (A) (A) (A) (A) (A) (A) (A) (A)
                 (A) (A) (A) (A) (A) (A) (A) (A) (A) (A) (A) (A)
                 (A) (A) (A) (A) (A) (A) (A) (A) (A) (A) (A) (A)
                 (A) (A) (A) (A) (A) (A) (A) (A) (A) (A) (A) (A)
                 (A) (A) (A) (A) (A) (A) (A) (A) (A) (A) (A) (A)
                 (A) (A) (A) (A) (A) (A) (A) (A) (A) (A) (A) (A)
                 (A) (A) (A) (A) (A) (A) (A) (A) (A) (A) (A) (A)
                 (A) (A) (A) (A) (A) (A) (A) (A) (A) (A) (A) (A)
                 (A) (A) (A) (A) (A) (A) (A) (A) (A) (A) (A) (A)
                 (A) (A) (A) (A) (A) (A) (A) (A) (A) (A) (A) (A)
                 (A) (A) (A) (A) (A) (A) (A) (A) (A) (A) (A) (A)
                 (A) (A) (A) (A) (A) (A) (A) (A) (A) (A) (A) (A)
                 (A) (A) (A) (A) (A)
 The electronic state is 1-A.
 Alpha  occ. eigenvalues --  -20.55163 -20.54021 -20.53883 -20.51724 -15.61414
 Alpha  occ. eigenvalues --  -15.60321 -15.59822 -15.58139 -11.37936 -11.36868
 Alpha  occ. eigenvalues --  -11.36512 -11.35155 -11.30465 -11.30351 -11.28756
 Alpha  occ. eigenvalues --  -11.28240 -11.24516 -11.23654 -11.23615 -11.23096
 Alpha  occ. eigenvalues --   -1.40690  -1.39727  -1.38903  -1.37046  -1.25242
 Alpha  occ. eigenvalues --   -1.24875  -1.24512  -1.22803  -1.07591  -1.04975
 Alpha  occ. eigenvalues --   -1.02386  -0.97970  -0.97053  -0.91898  -0.89986
 Alpha  occ. eigenvalues --   -0.86966  -0.81837  -0.79463  -0.78704  -0.77550
 Alpha  occ. eigenvalues --   -0.74655  -0.72374  -0.69181  -0.68320  -0.66586
 Alpha  occ. eigenvalues --   -0.65764  -0.65282  -0.64303  -0.63266  -0.62502
 Alpha  occ. eigenvalues --   -0.61462  -0.61082  -0.60182  -0.59921  -0.58335
 Alpha  occ. eigenvalues --   -0.57150  -0.56834  -0.56260  -0.55966  -0.55326
 Alpha  occ. eigenvalues --   -0.54633  -0.54181  -0.54082  -0.53627  -0.52746
 Alpha  occ. eigenvalues --   -0.52488  -0.51779  -0.50335  -0.48649  -0.44663
 Alpha  occ. eigenvalues --   -0.44090  -0.42581  -0.41510  -0.41342  -0.40110
 Alpha  occ. eigenvalues --   -0.39689  -0.38088
 Alpha virt. eigenvalues --    0.02417   0.03126   0.03829   0.03991   0.04335
 Alpha virt. eigenvalues --    0.04772   0.04927   0.05742   0.06048   0.06284
 Alpha virt. eigenvalues --    0.06432   0.06825   0.07110   0.07267   0.07787
 Alpha virt. eigenvalues --    0.08179   0.08676   0.08758   0.09709   0.09894
 Alpha virt. eigenvalues --    0.10489   0.11299   0.11396   0.12426   0.12573
 Alpha virt. eigenvalues --    0.13038   0.13268   0.13306   0.13554   0.14005
 Alpha virt. eigenvalues --    0.14430   0.14502   0.14931   0.15213   0.15298
 Alpha virt. eigenvalues --    0.15701   0.15730   0.16171   0.16502   0.16685
 Alpha virt. eigenvalues --    0.16889   0.17153   0.17316   0.17518   0.17719
 Alpha virt. eigenvalues --    0.18055   0.18576   0.18717   0.18901   0.19150
 Alpha virt. eigenvalues --    0.19258   0.19668   0.19958   0.20047   0.20584
 Alpha virt. eigenvalues --    0.20797   0.21124   0.21486   0.21654   0.21803
 Alpha virt. eigenvalues --    0.22107   0.22484   0.23005   0.23486   0.23911
 Alpha virt. eigenvalues --    0.24306   0.24610   0.24821   0.25438   0.25974
 Alpha virt. eigenvalues --    0.26580   0.26834   0.27051   0.27563   0.28007
 Alpha virt. eigenvalues --    0.28740   0.28798   0.29378   0.29979   0.30358
 Alpha virt. eigenvalues --    0.30736   0.31215   0.31634   0.31773   0.31991
 Alpha virt. eigenvalues --    0.32289   0.32604   0.32653   0.33254   0.33387
 Alpha virt. eigenvalues --    0.33840   0.34255   0.34491   0.34803   0.35176
 Alpha virt. eigenvalues --    0.35672   0.35836   0.36010   0.36446   0.36746
 Alpha virt. eigenvalues --    0.37093   0.37587   0.38101   0.38301   0.38518
 Alpha virt. eigenvalues --    0.38730   0.38999   0.39963   0.40165   0.40287
 Alpha virt. eigenvalues --    0.40859   0.41084   0.41306   0.41456   0.41896
 Alpha virt. eigenvalues --    0.42148   0.42324   0.42883   0.42996   0.43284
 Alpha virt. eigenvalues --    0.43451   0.44075   0.44404   0.44578   0.44722
 Alpha virt. eigenvalues --    0.45434   0.45541   0.46201   0.46548   0.46620
 Alpha virt. eigenvalues --    0.47017   0.47324   0.47501   0.47965   0.48069
 Alpha virt. eigenvalues --    0.48325   0.48663   0.48887   0.49155   0.49524
 Alpha virt. eigenvalues --    0.49673   0.49824   0.50262   0.50881   0.51117
 Alpha virt. eigenvalues --    0.51680   0.51724   0.52562   0.52966   0.53276
 Alpha virt. eigenvalues --    0.53710   0.54127   0.54299   0.54476   0.55106
 Alpha virt. eigenvalues --    0.55711   0.56069   0.56289   0.56402   0.56728
 Alpha virt. eigenvalues --    0.57208   0.57958   0.58063   0.58351   0.58821
 Alpha virt. eigenvalues --    0.59037   0.59376   0.59516   0.60104   0.60510
 Alpha virt. eigenvalues --    0.60934   0.61437   0.61481   0.61868   0.62311
 Alpha virt. eigenvalues --    0.62672   0.63141   0.63342   0.63561   0.63801
 Alpha virt. eigenvalues --    0.63987   0.64250   0.64558   0.64983   0.65223
 Alpha virt. eigenvalues --    0.65328   0.65969   0.66260   0.66799   0.67082
 Alpha virt. eigenvalues --    0.67602   0.67681   0.68102   0.68416   0.68701
 Alpha virt. eigenvalues --    0.69165   0.69377   0.69714   0.69903   0.70776
 Alpha virt. eigenvalues --    0.71001   0.71834   0.72166   0.72509   0.72825
 Alpha virt. eigenvalues --    0.72997   0.73288   0.73751   0.74196   0.74388
 Alpha virt. eigenvalues --    0.74845   0.75363   0.75691   0.76116   0.76437
 Alpha virt. eigenvalues --    0.76909   0.77037   0.77379   0.77800   0.78302
 Alpha virt. eigenvalues --    0.78659   0.79095   0.79580   0.80507   0.80945
 Alpha virt. eigenvalues --    0.81137   0.81206   0.82055   0.82700   0.83048
 Alpha virt. eigenvalues --    0.83258   0.83728   0.84443   0.84611   0.84708
 Alpha virt. eigenvalues --    0.85783   0.86404   0.87039   0.87131   0.88233
 Alpha virt. eigenvalues --    0.88370   0.88866   0.89504   0.90041   0.90414
 Alpha virt. eigenvalues --    0.90616   0.90960   0.91544   0.91829   0.92922
 Alpha virt. eigenvalues --    0.93121   0.93428   0.93860   0.94413   0.94916
 Alpha virt. eigenvalues --    0.95403   0.95845   0.96219   0.96967   0.97336
 Alpha virt. eigenvalues --    0.97413   0.98265   0.98382   0.98628   0.99877
 Alpha virt. eigenvalues --    0.99994   1.00833   1.01059   1.01415   1.02353
 Alpha virt. eigenvalues --    1.02741   1.03303   1.03851   1.04275   1.05976
 Alpha virt. eigenvalues --    1.06627   1.06810   1.07252   1.07317   1.08467
 Alpha virt. eigenvalues --    1.08845   1.09537   1.10365   1.10602   1.11012
 Alpha virt. eigenvalues --    1.11608   1.11973   1.12071   1.13190   1.14329
 Alpha virt. eigenvalues --    1.15055   1.15453   1.15596   1.16272   1.16618
 Alpha virt. eigenvalues --    1.17643   1.18216   1.18960   1.19271   1.20072
 Alpha virt. eigenvalues --    1.20550   1.20941   1.21421   1.21624   1.23287
 Alpha virt. eigenvalues --    1.23830   1.23983   1.25229   1.25587   1.26245
 Alpha virt. eigenvalues --    1.27649   1.27981   1.28524   1.29484   1.29872
 Alpha virt. eigenvalues --    1.31248   1.31621   1.32840   1.33321   1.34745
 Alpha virt. eigenvalues --    1.35076   1.36261   1.36548   1.37252   1.37934
 Alpha virt. eigenvalues --    1.38800   1.39942   1.40744   1.41261   1.42424
 Alpha virt. eigenvalues --    1.42671   1.44855   1.45544   1.46375   1.47146
 Alpha virt. eigenvalues --    1.48699   1.49224   1.50712   1.50857   1.51993
 Alpha virt. eigenvalues --    1.52460   1.53470   1.55496   1.56391   1.56612
 Alpha virt. eigenvalues --    1.57473   1.57607   1.58643   1.59854   1.60204
 Alpha virt. eigenvalues --    1.60822   1.64085   1.64194   1.64541   1.65024
 Alpha virt. eigenvalues --    1.65752   1.67385   1.68987   1.69750   1.70369
 Alpha virt. eigenvalues --    1.71410   1.71900   1.73018   1.74007   1.74865
 Alpha virt. eigenvalues --    1.75491   1.76028   1.76676   1.77508   1.77832
 Alpha virt. eigenvalues --    1.78859   1.80225   1.81993   1.82665   1.83306
 Alpha virt. eigenvalues --    1.83577   1.84840   1.85239   1.86635   1.87595
 Alpha virt. eigenvalues --    1.87684   1.88516   1.89444   1.89729   1.89972
 Alpha virt. eigenvalues --    1.90196   1.90790   1.91108   1.91845   1.92783
 Alpha virt. eigenvalues --    1.93660   1.94194   1.94918   1.95684   1.96599
 Alpha virt. eigenvalues --    1.97621   1.97913   1.98071   1.99077   1.99680
 Alpha virt. eigenvalues --    2.00385   2.01180   2.02612   2.02981   2.03897
 Alpha virt. eigenvalues --    2.04305   2.05214   2.05693   2.06484   2.06907
 Alpha virt. eigenvalues --    2.07528   2.08436   2.09003   2.10000   2.10492
 Alpha virt. eigenvalues --    2.11070   2.12431   2.13048   2.14052   2.15069
 Alpha virt. eigenvalues --    2.15396   2.16078   2.16282   2.17312   2.17730
 Alpha virt. eigenvalues --    2.19422   2.20302   2.20636   2.21397   2.21946
 Alpha virt. eigenvalues --    2.22792   2.23529   2.24080   2.24697   2.25562
 Alpha virt. eigenvalues --    2.26544   2.26774   2.27884   2.29359   2.29724
 Alpha virt. eigenvalues --    2.30812   2.31663   2.31971   2.33007   2.33584
 Alpha virt. eigenvalues --    2.33706   2.33902   2.35063   2.36036   2.37118
 Alpha virt. eigenvalues --    2.37713   2.38249   2.38956   2.39706   2.40895
 Alpha virt. eigenvalues --    2.41612   2.41838   2.42718   2.44367   2.44813
 Alpha virt. eigenvalues --    2.46037   2.46914   2.47810   2.48771   2.49287
 Alpha virt. eigenvalues --    2.50218   2.51339   2.52065   2.52293   2.53469
 Alpha virt. eigenvalues --    2.53949   2.54174   2.55920   2.56053   2.56427
 Alpha virt. eigenvalues --    2.57398   2.58096   2.59079   2.60820   2.61412
 Alpha virt. eigenvalues --    2.62243   2.62790   2.63572   2.64721   2.65597
 Alpha virt. eigenvalues --    2.66147   2.67013   2.67699   2.68095   2.68997
 Alpha virt. eigenvalues --    2.69816   2.70686   2.72665   2.73210   2.74078
 Alpha virt. eigenvalues --    2.74937   2.75649   2.76476   2.76680   2.76978
 Alpha virt. eigenvalues --    2.79308   2.79902   2.81562   2.82794   2.83382
 Alpha virt. eigenvalues --    2.84716   2.85194   2.87617   2.88363   2.88473
 Alpha virt. eigenvalues --    2.89100   2.89980   2.91467   2.92422   2.93327
 Alpha virt. eigenvalues --    2.94746   2.95768   2.96897   2.98248   2.99897
 Alpha virt. eigenvalues --    3.00695   3.01351   3.01935   3.02935   3.04647
 Alpha virt. eigenvalues --    3.05060   3.06829   3.08072   3.08602   3.09403
 Alpha virt. eigenvalues --    3.09902   3.13227   3.15269   3.16387   3.18012
 Alpha virt. eigenvalues --    3.20665   3.21206   3.22034   3.23726   3.27063
 Alpha virt. eigenvalues --    3.28179   3.28865   3.30516   3.35312   3.37821
 Alpha virt. eigenvalues --    3.40864   3.43637   3.48119   3.49576   3.54205
 Alpha virt. eigenvalues --    3.59405   3.60762   3.63185   3.66638   3.70201
 Alpha virt. eigenvalues --    3.73011   3.78376   3.82997   3.83758   3.84020
 Alpha virt. eigenvalues --    3.84847   3.86020   3.87062   3.88402   3.89896
 Alpha virt. eigenvalues --    3.90425   3.98317   3.99510   4.00947   4.01449
 Alpha virt. eigenvalues --    4.05196   4.05432   4.08293   4.11492   4.13590
 Alpha virt. eigenvalues --    4.16746   4.23195   4.23869   4.26524   4.30014
 Alpha virt. eigenvalues --    4.30995
          Condensed to atoms (all electrons):
              1          2          3          4          5          6
     1  H    0.748109   0.383526  -0.059385  -0.076926  -0.090061   0.022707
     2  C    0.383526   4.588689   0.372047   0.340181   0.146526  -0.062169
     3  H   -0.059385   0.372047   0.740596  -0.074155  -0.091903   0.020634
     4  H   -0.076926   0.340181  -0.074155   1.105555   0.133625  -0.013459
     5  C   -0.090061   0.146526  -0.091903   0.133625   5.706341   0.204762
     6  O    0.022707  -0.062169   0.020634  -0.013459   0.204762   8.754963
     7  N    0.033789  -0.062421   0.066418  -0.219475   0.018958  -0.116528
     8  H   -0.002371  -0.058967  -0.005339  -0.007659  -0.187163  -0.003409
     9  C    0.019374  -0.024243  -0.040381   0.000183  -0.092334   0.023317
    10  H    0.001769   0.001764  -0.004081   0.000080   0.083950  -0.003187
    11  C   -0.003067  -0.006562   0.001175  -0.009677  -0.070719   0.033995
    12  H   -0.000325   0.008239   0.000366   0.000671   0.026405  -0.004532
    13  H    0.000527  -0.001146   0.000030  -0.001857  -0.053288   0.005074
    14  H   -0.001035   0.008500  -0.000831   0.003336   0.043543   0.018811
    15  C   -0.011444  -0.011789   0.030199  -0.018899  -0.245148  -0.011980
    16  O    0.000400   0.003233  -0.000460  -0.000212  -0.021679   0.000147
    17  N   -0.000663   0.003809  -0.000260   0.006382   0.037560   0.004743
    18  H   -0.000079  -0.000409  -0.000203  -0.000010  -0.010180   0.000873
    19  C   -0.000307  -0.004969  -0.000735   0.000081   0.003957   0.002537
    20  H   -0.000004  -0.000287  -0.000006  -0.000116   0.000958  -0.000135
    21  C    0.000034   0.000311   0.000126  -0.000121  -0.000438  -0.000311
    22  H    0.000004  -0.000170  -0.000008  -0.000127  -0.000793   0.000112
    23  H   -0.000001   0.000120   0.000023   0.000035   0.000615  -0.000024
    24  H    0.000006  -0.000268  -0.000014  -0.000030  -0.000782  -0.000036
    25  C    0.000090   0.004606   0.000663   0.001109   0.002277  -0.000734
    26  O    0.000005  -0.000431  -0.000113  -0.000037   0.000955   0.000002
    27  N   -0.000004  -0.000248  -0.000036  -0.000061  -0.001584   0.000000
    28  H   -0.000001   0.000019  -0.000004   0.000024  -0.000311   0.000030
    29  C    0.000000   0.000145   0.000011   0.000056  -0.000499   0.000070
    30  H   -0.000001   0.000004   0.000005   0.000011   0.000176  -0.000012
    31  C    0.000000   0.000011   0.000005  -0.000001   0.000060  -0.000010
    32  H    0.000000   0.000001   0.000001  -0.000001   0.000030  -0.000005
    33  H    0.000000  -0.000003  -0.000001  -0.000001  -0.000030  -0.000001
    34  H    0.000005   0.000060   0.000005   0.000005   0.000086   0.000046
    35  C   -0.000001  -0.000003  -0.000001  -0.000007  -0.000198   0.000001
    36  O    0.000000   0.000000   0.000000   0.000000   0.000002   0.000000
    37  N    0.000000   0.000000   0.000000   0.000000  -0.000001   0.000000
    38  H    0.000000   0.000000   0.000000   0.000000   0.000002   0.000000
    39  C    0.000000   0.000000   0.000000   0.000000  -0.000001   0.000000
    40  H    0.000000   0.000000   0.000000   0.000000   0.000000   0.000000
    41  H    0.000000   0.000000   0.000000   0.000000   0.000000   0.000000
    42  H    0.000000   0.000000   0.000000   0.000000   0.000000   0.000000
              7          8          9         10         11         12
     1  H    0.033789  -0.002371   0.019374   0.001769  -0.003067  -0.000325
     2  C   -0.062421  -0.058967  -0.024243   0.001764  -0.006562   0.008239
     3  H    0.066418  -0.005339  -0.040381  -0.004081   0.001175   0.000366
     4  H   -0.219475  -0.007659   0.000183   0.000080  -0.009677   0.000671
     5  C    0.018958  -0.187163  -0.092334   0.083950  -0.070719   0.026405
     6  O   -0.116528  -0.003409   0.023317  -0.003187   0.033995  -0.004532
     7  N    8.044883   0.253372  -1.797462  -0.186091   0.288370  -0.142570
     8  H    0.253372   0.961815   0.268614   0.010971  -0.024822   0.002540
     9  C   -1.797462   0.268614  12.534825   0.175797  -0.739863   0.246573
    10  H   -0.186091   0.010971   0.175797   1.364660  -0.054704   0.080654
    11  C    0.288370  -0.024822  -0.739863  -0.054704   4.471643   0.211628
    12  H   -0.142570   0.002540   0.246573   0.080654   0.211628   1.130850
    13  H    0.136171   0.004312  -0.436785  -0.092317   0.380993  -0.164193
    14  H    0.048898  -0.016737  -0.165732  -0.039182   0.405453  -0.214723
    15  C    0.801058  -0.177375  -3.528569  -0.161465   0.178343  -0.114612
    16  O   -0.128246   0.088554   0.347377  -0.003556  -0.045796   0.018580
    17  N    0.063725  -0.021654  -0.168845  -0.065471   0.089800  -0.038251
    18  H    0.002022   0.003341  -0.133133   0.017065   0.009788   0.006534
    19  C    0.030500   0.009226  -0.075496   0.003198   0.033093  -0.027169
    20  H    0.005225   0.000233  -0.064846   0.004744   0.003851   0.001702
    21  C    0.008909  -0.002536  -0.046817  -0.000091  -0.004112  -0.003320
    22  H    0.001323  -0.000936  -0.014247   0.003381  -0.000044  -0.000178
    23  H   -0.000014  -0.000340   0.026342  -0.000754  -0.000277   0.000343
    24  H    0.000874   0.000420  -0.040781  -0.001547   0.000621  -0.001128
    25  C    0.014406  -0.019880  -0.163860   0.012647   0.019268   0.009979
    26  O   -0.003075   0.001766   0.017037   0.005611  -0.001052  -0.000089
    27  N    0.003556   0.000592  -0.046479  -0.000122   0.001009  -0.000373
    28  H   -0.000368  -0.000407  -0.002847  -0.000577   0.000880  -0.000203
    29  C   -0.001330  -0.000915   0.002081   0.000487   0.001788   0.000204
    30  H    0.000111  -0.000130   0.002291   0.000154  -0.000075   0.000016
    31  C    0.000288  -0.000006  -0.001521  -0.000643  -0.000221   0.000024
    32  H    0.000019   0.000017   0.000283   0.000041  -0.000100   0.000010
    33  H    0.000008   0.000016  -0.000354   0.000011  -0.000019  -0.000003
    34  H    0.000234  -0.000137  -0.002883  -0.001120   0.000678   0.000053
    35  C   -0.000214   0.000026  -0.004591  -0.000517  -0.000022   0.000022
    36  O    0.000004   0.000003   0.000179   0.000031   0.000011   0.000000
    37  N   -0.000002   0.000002   0.000029  -0.000049   0.000006   0.000002
    38  H    0.000002  -0.000001   0.000007  -0.000018   0.000003   0.000000
    39  C    0.000000   0.000000  -0.000041  -0.000012   0.000000   0.000000
    40  H   -0.000001   0.000000  -0.000009   0.000000   0.000000   0.000000
    41  H    0.000000   0.000000  -0.000008   0.000000   0.000000   0.000000
    42  H    0.000000   0.000000   0.000002   0.000000   0.000000   0.000000
             13         14         15         16         17         18
     1  H    0.000527  -0.001035  -0.011444   0.000400  -0.000663  -0.000079
     2  C   -0.001146   0.008500  -0.011789   0.003233   0.003809  -0.000409
     3  H    0.000030  -0.000831   0.030199  -0.000460  -0.000260  -0.000203
     4  H   -0.001857   0.003336  -0.018899  -0.000212   0.006382  -0.000010
     5  C   -0.053288   0.043543  -0.245148  -0.021679   0.037560  -0.010180
     6  O    0.005074   0.018811  -0.011980   0.000147   0.004743   0.000873
     7  N    0.136171   0.048898   0.801058  -0.128246   0.063725   0.002022
     8  H    0.004312  -0.016737  -0.177375   0.088554  -0.021654   0.003341
     9  C   -0.436785  -0.165732  -3.528569   0.347377  -0.168845  -0.133133
    10  H   -0.092317  -0.039182  -0.161465  -0.003556  -0.065471   0.017065
    11  C    0.380993   0.405453   0.178343  -0.045796   0.089800   0.009788
    12  H   -0.164193  -0.214723  -0.114612   0.018580  -0.038251   0.006534
    13  H    1.261537  -0.151579   0.226177  -0.013481  -0.032448  -0.000003
    14  H   -0.151579   1.055022   0.013571  -0.005222   0.071393  -0.005573
    15  C    0.226177   0.013571   9.049029  -0.101580  -0.469880  -0.010610
    16  O   -0.013481  -0.005222  -0.101580   8.843556  -0.110571   0.004379
    17  N   -0.032448   0.071393  -0.469880  -0.110571   8.956558   0.107178
    18  H   -0.000003  -0.005573  -0.010610   0.004379   0.107178   1.064980
    19  C    0.017679   0.012392  -0.072155   0.003261  -1.488334   0.103942
    20  H    0.000285  -0.001316   0.071868  -0.002513  -0.496447   0.029016
    21  C   -0.000365   0.001343  -0.003509  -0.042117   0.046450  -0.046061
    22  H    0.000249   0.000187   0.147386  -0.069724  -0.232778  -0.006679
    23  H   -0.000760   0.000081  -0.120327   0.005195   0.253035  -0.000995
    24  H    0.000349   0.000229   0.075557   0.026398   0.004908   0.006010
    25  C   -0.007845   0.002908  -0.494984   0.084294   0.970337  -0.114073
    26  O   -0.000171   0.000045   0.030210  -0.011077  -0.174281   0.027026
    27  N    0.000721   0.000000   0.051045   0.001012  -0.150164   0.031269
    28  H   -0.000057   0.000161  -0.016355   0.003102   0.007298   0.003949
    29  C   -0.000148   0.000146  -0.048112   0.010817   0.102741   0.011141
    30  H   -0.000050  -0.000007  -0.006741   0.001706   0.011659   0.001614
    31  C    0.000132  -0.000048  -0.008374  -0.000746  -0.007899  -0.004893
    32  H    0.000034  -0.000022   0.000311  -0.000073   0.000783  -0.000709
    33  H   -0.000014  -0.000001   0.001143  -0.000040  -0.000210   0.000751
    34  H    0.000092   0.000070  -0.005556   0.000178  -0.000102  -0.000935
    35  C    0.000045  -0.000023  -0.010386  -0.001811  -0.020885   0.001075
    36  O    0.000009   0.000001   0.001297   0.000018  -0.000155  -0.000430
    37  N   -0.000001   0.000000   0.000318   0.000040   0.000517  -0.000067
    38  H    0.000005   0.000000  -0.000263  -0.000002  -0.000133  -0.000050
    39  C    0.000000   0.000000  -0.000197  -0.000005  -0.000232   0.000046
    40  H   -0.000001   0.000000   0.000049  -0.000001   0.000016   0.000030
    41  H    0.000000   0.000000  -0.000006  -0.000002  -0.000050  -0.000003
    42  H    0.000000   0.000000  -0.000018   0.000000  -0.000009  -0.000002
             19         20         21         22         23         24
     1  H   -0.000307  -0.000004   0.000034   0.000004  -0.000001   0.000006
     2  C   -0.004969  -0.000287   0.000311  -0.000170   0.000120  -0.000268
     3  H   -0.000735  -0.000006   0.000126  -0.000008   0.000023  -0.000014
     4  H    0.000081  -0.000116  -0.000121  -0.000127   0.000035  -0.000030
     5  C    0.003957   0.000958  -0.000438  -0.000793   0.000615  -0.000782
     6  O    0.002537  -0.000135  -0.000311   0.000112  -0.000024  -0.000036
     7  N    0.030500   0.005225   0.008909   0.001323  -0.000014   0.000874
     8  H    0.009226   0.000233  -0.002536  -0.000936  -0.000340   0.000420
     9  C   -0.075496  -0.064846  -0.046817  -0.014247   0.026342  -0.040781
    10  H    0.003198   0.004744  -0.000091   0.003381  -0.000754  -0.001547
    11  C    0.033093   0.003851  -0.004112  -0.000044  -0.000277   0.000621
    12  H   -0.027169   0.001702  -0.003320  -0.000178   0.000343  -0.001128
    13  H    0.017679   0.000285  -0.000365   0.000249  -0.000760   0.000349
    14  H    0.012392  -0.001316   0.001343   0.000187   0.000081   0.000229
    15  C   -0.072155   0.071868  -0.003509   0.147386  -0.120327   0.075557
    16  O    0.003261  -0.002513  -0.042117  -0.069724   0.005195   0.026398
    17  N   -1.488334  -0.496447   0.046450  -0.232778   0.253035   0.004908
    18  H    0.103942   0.029016  -0.046061  -0.006679  -0.000995   0.006010
    19  C   11.387016  -0.001143   0.017005   0.333900  -0.496506  -0.074186
    20  H   -0.001143   1.850754  -0.001547   0.123298  -0.134883  -0.039201
    21  C    0.017005  -0.001547   4.313803   0.341179   0.290354   0.198786
    22  H    0.333900   0.123298   0.341179   1.089717  -0.287828  -0.186734
    23  H   -0.496506  -0.134883   0.290354  -0.287828   1.507712  -0.225568
    24  H   -0.074186  -0.039201   0.198786  -0.186734  -0.225568   1.197812
    25  C   -3.487671  -0.016103   0.089671  -0.301643   0.430680   0.056697
    26  O    0.342867  -0.001422  -0.028769   0.035685  -0.032234   0.001573
    27  N    0.595304  -0.052818  -0.003980   0.004320  -0.091885   0.042431
    28  H   -0.213649   0.018409  -0.020787  -0.005843   0.006685  -0.000180
    29  C   -0.753165   0.013755   0.015050  -0.024706  -0.031885   0.017643
    30  H   -0.080849   0.000597  -0.011516  -0.005185   0.004062   0.002185
    31  C    0.037350   0.004028  -0.005441   0.000966   0.004930  -0.001842
    32  H    0.007042   0.004444  -0.003137  -0.000070  -0.000040  -0.000293
    33  H    0.008429  -0.001713   0.000329  -0.000167  -0.000393   0.000191
    34  H   -0.007328   0.001667   0.002528   0.000233   0.001918  -0.000395
    35  C    0.061593  -0.018692   0.019564   0.001969   0.024855  -0.003741
    36  O    0.016571   0.003568   0.000881   0.000295  -0.007006   0.000236
    37  N   -0.000556   0.002543   0.000445   0.000140   0.000558  -0.000114
    38  H    0.000094  -0.000008  -0.000156   0.000136   0.000034  -0.000072
    39  C    0.002502  -0.000033   0.000667  -0.000016   0.000958   0.000039
    40  H    0.000423  -0.000160   0.000079  -0.000018   0.000094   0.000027
    41  H    0.000491   0.000054   0.000016   0.000020  -0.000153  -0.000002
    42  H   -0.000039   0.000012   0.000011   0.000008   0.000086  -0.000003
             25         26         27         28         29         30
     1  H    0.000090   0.000005  -0.000004  -0.000001   0.000000  -0.000001
     2  C    0.004606  -0.000431  -0.000248   0.000019   0.000145   0.000004
     3  H    0.000663  -0.000113  -0.000036  -0.000004   0.000011   0.000005
     4  H    0.001109  -0.000037  -0.000061   0.000024   0.000056   0.000011
     5  C    0.002277   0.000955  -0.001584  -0.000311  -0.000499   0.000176
     6  O   -0.000734   0.000002   0.000000   0.000030   0.000070  -0.000012
     7  N    0.014406  -0.003075   0.003556  -0.000368  -0.001330   0.000111
     8  H   -0.019880   0.001766   0.000592  -0.000407  -0.000915  -0.000130
     9  C   -0.163860   0.017037  -0.046479  -0.002847   0.002081   0.002291
    10  H    0.012647   0.005611  -0.000122  -0.000577   0.000487   0.000154
    11  C    0.019268  -0.001052   0.001009   0.000880   0.001788  -0.000075
    12  H    0.009979  -0.000089  -0.000373  -0.000203   0.000204   0.000016
    13  H   -0.007845  -0.000171   0.000721  -0.000057  -0.000148  -0.000050
    14  H    0.002908   0.000045   0.000000   0.000161   0.000146  -0.000007
    15  C   -0.494984   0.030210   0.051045  -0.016355  -0.048112  -0.006741
    16  O    0.084294  -0.011077   0.001012   0.003102   0.010817   0.001706
    17  N    0.970337  -0.174281  -0.150164   0.007298   0.102741   0.011659
    18  H   -0.114073   0.027026   0.031269   0.003949   0.011141   0.001614
    19  C   -3.487671   0.342867   0.595304  -0.213649  -0.753165  -0.080849
    20  H   -0.016103  -0.001422  -0.052818   0.018409   0.013755   0.000597
    21  C    0.089671  -0.028769  -0.003980  -0.020787   0.015050  -0.011516
    22  H   -0.301643   0.035685   0.004320  -0.005843  -0.024706  -0.005185
    23  H    0.430680  -0.032234  -0.091885   0.006685  -0.031885   0.004062
    24  H    0.056697   0.001573   0.042431  -0.000180   0.017643   0.002185
    25  C    8.112659   0.059845  -0.382478   0.072097   0.120049   0.237877
    26  O    0.059845   8.718353  -0.157385  -0.003326  -0.049894  -0.012544
    27  N   -0.382478  -0.157385   8.379373   0.144192  -1.510577  -0.231518
    28  H    0.072097  -0.003326   0.144192   1.025341   0.163757   0.021311
    29  C    0.120049  -0.049894  -1.510577   0.163757  10.288265   0.112043
    30  H    0.237877  -0.012544  -0.231518   0.021311   0.112043   1.361443
    31  C   -0.075330   0.010808   0.197924  -0.015669  -0.360859  -0.038247
    32  H    0.087995  -0.006019  -0.155960   0.001015   0.261275   0.083001
    33  H   -0.044139   0.005335   0.195585   0.002852  -0.461528  -0.094353
    34  H    0.039490   0.020771  -0.023840  -0.007223  -0.051514  -0.024331
    35  C   -0.138745   0.053354   0.544481  -0.133450  -1.833450  -0.154060
    36  O   -0.001273  -0.001358  -0.073039   0.055238   0.211077  -0.020015
    37  N    0.013781   0.004432  -0.089649  -0.000046   0.228257  -0.040896
    38  H    0.012955  -0.000322   0.010338   0.004119  -0.118071   0.031412
    39  C   -0.002560   0.001998   0.013628  -0.009598  -0.065418  -0.008236
    40  H    0.000743   0.000266  -0.001186  -0.001194   0.032166   0.002357
    41  H   -0.001568   0.000057   0.002564   0.000188  -0.000084  -0.001434
    42  H    0.002798   0.000024   0.004732  -0.000458  -0.035079  -0.003585
             31         32         33         34         35         36
     1  H    0.000000   0.000000   0.000000   0.000005  -0.000001   0.000000
     2  C    0.000011   0.000001  -0.000003   0.000060  -0.000003   0.000000
     3  H    0.000005   0.000001  -0.000001   0.000005  -0.000001   0.000000
     4  H   -0.000001  -0.000001  -0.000001   0.000005  -0.000007   0.000000
     5  C    0.000060   0.000030  -0.000030   0.000086  -0.000198   0.000002
     6  O   -0.000010  -0.000005  -0.000001   0.000046   0.000001   0.000000
     7  N    0.000288   0.000019   0.000008   0.000234  -0.000214   0.000004
     8  H   -0.000006   0.000017   0.000016  -0.000137   0.000026   0.000003
     9  C   -0.001521   0.000283  -0.000354  -0.002883  -0.004591   0.000179
    10  H   -0.000643   0.000041   0.000011  -0.001120  -0.000517   0.000031
    11  C   -0.000221  -0.000100  -0.000019   0.000678  -0.000022   0.000011
    12  H    0.000024   0.000010  -0.000003   0.000053   0.000022   0.000000
    13  H    0.000132   0.000034  -0.000014   0.000092   0.000045   0.000009
    14  H   -0.000048  -0.000022  -0.000001   0.000070  -0.000023   0.000001
    15  C   -0.008374   0.000311   0.001143  -0.005556  -0.010386   0.001297
    16  O   -0.000746  -0.000073  -0.000040   0.000178  -0.001811   0.000018
    17  N   -0.007899   0.000783  -0.000210  -0.000102  -0.020885  -0.000155
    18  H   -0.004893  -0.000709   0.000751  -0.000935   0.001075  -0.000430
    19  C    0.037350   0.007042   0.008429  -0.007328   0.061593   0.016571
    20  H    0.004028   0.004444  -0.001713   0.001667  -0.018692   0.003568
    21  C   -0.005441  -0.003137   0.000329   0.002528   0.019564   0.000881
    22  H    0.000966  -0.000070  -0.000167   0.000233   0.001969   0.000295
    23  H    0.004930  -0.000040  -0.000393   0.001918   0.024855  -0.007006
    24  H   -0.001842  -0.000293   0.000191  -0.000395  -0.003741   0.000236
    25  C   -0.075330   0.087995  -0.044139   0.039490  -0.138745  -0.001273
    26  O    0.010808  -0.006019   0.005335   0.020771   0.053354  -0.001358
    27  N    0.197924  -0.155960   0.195585  -0.023840   0.544481  -0.073039
    28  H   -0.015669   0.001015   0.002852  -0.007223  -0.133450   0.055238
    29  C   -0.360859   0.261275  -0.461528  -0.051514  -1.833450   0.211077
    30  H   -0.038247   0.083001  -0.094353  -0.024331  -0.154060  -0.020015
    31  C    4.347418   0.223373   0.324138   0.388858   0.121180  -0.023997
    32  H    0.223373   1.107979  -0.197387  -0.169526  -0.207628   0.014497
    33  H    0.324138  -0.197387   1.320469  -0.159158   0.247578  -0.013563
    34  H    0.388858  -0.169526  -0.159158   0.997777   0.035065  -0.001208
    35  C    0.121180  -0.207628   0.247578   0.035065   6.158792   0.158356
    36  O   -0.023997   0.014497  -0.013563  -0.001208   0.158356   8.755035
    37  N   -0.014703   0.005734  -0.045363   0.020075  -0.056093  -0.203932
    38  H   -0.018821   0.005722  -0.001369  -0.002315   0.052782   0.008320
    39  C    0.006532  -0.010431   0.008441   0.006146  -0.091653  -0.002501
    40  H   -0.012606  -0.002510   0.002499  -0.000021  -0.027300   0.002113
    41  H    0.002205   0.000448  -0.000339   0.000118  -0.026116   0.010323
    42  H    0.013732  -0.001109   0.001136   0.001087   0.000252   0.010709
             37         38         39         40         41         42
     1  H    0.000000   0.000000   0.000000   0.000000   0.000000   0.000000
     2  C    0.000000   0.000000   0.000000   0.000000   0.000000   0.000000
     3  H    0.000000   0.000000   0.000000   0.000000   0.000000   0.000000
     4  H    0.000000   0.000000   0.000000   0.000000   0.000000   0.000000
     5  C   -0.000001   0.000002  -0.000001   0.000000   0.000000   0.000000
     6  O    0.000000   0.000000   0.000000   0.000000   0.000000   0.000000
     7  N   -0.000002   0.000002   0.000000  -0.000001   0.000000   0.000000
     8  H    0.000002  -0.000001   0.000000   0.000000   0.000000   0.000000
     9  C    0.000029   0.000007  -0.000041  -0.000009  -0.000008   0.000002
    10  H   -0.000049  -0.000018  -0.000012   0.000000   0.000000   0.000000
    11  C    0.000006   0.000003   0.000000   0.000000   0.000000   0.000000
    12  H    0.000002   0.000000   0.000000   0.000000   0.000000   0.000000
    13  H   -0.000001   0.000005   0.000000  -0.000001   0.000000   0.000000
    14  H    0.000000   0.000000   0.000000   0.000000   0.000000   0.000000
    15  C    0.000318  -0.000263  -0.000197   0.000049  -0.000006  -0.000018
    16  O    0.000040  -0.000002  -0.000005  -0.000001  -0.000002   0.000000
    17  N    0.000517  -0.000133  -0.000232   0.000016  -0.000050  -0.000009
    18  H   -0.000067  -0.000050   0.000046   0.000030  -0.000003  -0.000002
    19  C   -0.000556   0.000094   0.002502   0.000423   0.000491  -0.000039
    20  H    0.002543  -0.000008  -0.000033  -0.000160   0.000054   0.000012
    21  C    0.000445  -0.000156   0.000667   0.000079   0.000016   0.000011
    22  H    0.000140   0.000136  -0.000016  -0.000018   0.000020   0.000008
    23  H    0.000558   0.000034   0.000958   0.000094  -0.000153   0.000086
    24  H   -0.000114  -0.000072   0.000039   0.000027  -0.000002  -0.000003
    25  C    0.013781   0.012955  -0.002560   0.000743  -0.001568   0.002798
    26  O    0.004432  -0.000322   0.001998   0.000266   0.000057   0.000024
    27  N   -0.089649   0.010338   0.013628  -0.001186   0.002564   0.004732
    28  H   -0.000046   0.004119  -0.009598  -0.001194   0.000188  -0.000458
    29  C    0.228257  -0.118071  -0.065418   0.032166  -0.000084  -0.035079
    30  H   -0.040896   0.031412  -0.008236   0.002357  -0.001434  -0.003585
    31  C   -0.014703  -0.018821   0.006532  -0.012606   0.002205   0.013732
    32  H    0.005734   0.005722  -0.010431  -0.002510   0.000448  -0.001109
    33  H   -0.045363  -0.001369   0.008441   0.002499  -0.000339   0.001136
    34  H    0.020075  -0.002315   0.006146  -0.000021   0.000118   0.001087
    35  C   -0.056093   0.052782  -0.091653  -0.027300  -0.026116   0.000252
    36  O   -0.203932   0.008320  -0.002501   0.002113   0.010323   0.010709
    37  N    7.280337   0.206213   0.283528  -0.027639  -0.042901  -0.050510
    38  H    0.206213   1.033453  -0.118360  -0.003296   0.009601   0.005832
    39  C    0.283528  -0.118360   4.113458   0.469997   0.354504   0.338575
    40  H   -0.027639  -0.003296   0.469997   0.950940  -0.118850  -0.121644
    41  H   -0.042901   0.009601   0.354504  -0.118850   1.040087  -0.143209
    42  H   -0.050510   0.005832   0.338575  -0.121644  -0.143209   1.075187
 Mulliken atomic charges:
              1
     1  H    0.035331
     2  C    0.372295
     3  H    0.045610
     4  H   -0.168504
     5  C    0.456323
     6  O   -0.876292
     7  N   -0.165328
     8  H   -0.075039
     9  C   -0.072186
    10  H   -0.151514
    11  C    0.828736
    12  H   -0.033724
    13  H   -0.077912
    14  H   -0.084059
    15  C    0.972771
    16  O   -0.883334
    17  N   -0.259171
    18  H   -0.096933
    19  C   -0.246194
    20  H   -0.307619
    21  C    0.877589
    22  H    0.053383
    23  H   -0.126845
    24  H   -0.056078
    25  C    0.792964
    26  O   -0.854426
    27  N   -0.250690
    28  H   -0.098113
    29  C   -0.245788
    30  H   -0.140251
    31  C    0.907916
    32  H   -0.049033
    33  H   -0.098763
    34  H   -0.059654
    35  C    1.248596
    36  O   -0.900298
    37  N   -0.474434
    38  H   -0.117774
    39  C    0.708273
    40  H   -0.145365
    41  H   -0.085951
    42  H   -0.098516
 Sum of Mulliken atomic charges =   0.00000
 Mulliken charges with hydrogens summed into heavy atoms:
              1
     2  C    0.284732
     5  C    0.456323
     6  O   -0.876292
     7  N   -0.240368
     9  C   -0.223700
    11  C    0.633041
    15  C    0.972771
    16  O   -0.883334
    17  N   -0.356103
    19  C   -0.553814
    21  C    0.748049
    25  C    0.792964
    26  O   -0.854426
    27  N   -0.348802
    29  C   -0.386039
    31  C    0.700466
    35  C    1.248596
    36  O   -0.900298
    37  N   -0.592208
    39  C    0.378441
 Sum of Mulliken charges with hydrogens summed into heavy atoms =   0.00000
 Electronic spatial extent (au):  <R**2>=          10529.5132
 Charge=              0.0000 electrons
 Dipole moment (field-independent basis, Debye):
    X=             -5.8670    Y=              0.0670    Z=             -0.4587  Tot=              5.8853
 Quadrupole moment (field-independent basis, Debye-Ang):
   XX=           -112.8935   YY=           -122.5967   ZZ=           -120.5299
   XY=             23.5449   XZ=             -4.5685   YZ=              7.8591
 Traceless Quadrupole moment (field-independent basis, Debye-Ang):
   XX=              5.7799   YY=             -3.9233   ZZ=             -1.8565
   XY=             23.5449   XZ=             -4.5685   YZ=              7.8591
 Octapole moment (field-independent basis, Debye-Ang**2):
  XXX=           -232.2942  YYY=             -3.6248  ZZZ=              1.4913  XYY=            -28.7200
  XXY=            -57.4914  XXZ=           -143.6426  XZZ=            -11.2722  YZZ=             -2.1326
  YYZ=            -10.1934  XYZ=             32.2868
 Hexadecapole moment (field-independent basis, Debye-Ang**3):
 XXXX=         -11203.1833 YYYY=          -1176.0897 ZZZZ=           -670.7488 XXXY=            742.6327
 XXXZ=           -281.9181 YYYX=             48.9870 YYYZ=             20.7951 ZZZX=             -2.6910
 ZZZY=             12.5266 XXYY=          -2244.5309 XXZZ=          -2115.2331 YYZZ=           -322.2857
 XXYZ=            214.6812 YYXZ=            -28.5627 ZZXY=              9.6772
 N-N= 1.580705402978D+03 E-N=-5.469383054585D+03  KE= 9.830538795402D+02
 1\1\GINC-TACHIKOMA\SP\RMP2-FC\Aug-CC-pVDZ\C12H22N4O4\STEBOSS\16-Jan-20
 17\0\\#SP MP2/aug-cc-pVDZ\\Phi Psi fixed scan\\0,1\H,0,7.1958,-1.367,-
 1.2309\C,0,6.1334,-1.5529,-1.4156\H,0,6.0066,-2.6345,-1.5283\H,0,5.841
 ,-1.0614,-2.3485\C,0,5.3357,-1.0891,-0.2052\O,0,5.5717,-1.5023,0.9274\
 N,0,4.3505,-0.1854,-0.4639\H,0,4.094,0.0802,-1.4081\C,0,3.4396,0.2739,
 0.5649\H,0,3.173,-0.584,1.1963\C,0,4.0772,1.3583,1.4554\H,0,4.3425,2.2
 362,0.857\H,0,3.3954,1.6749,2.2526\H,0,4.9822,0.9501,1.9119\C,0,2.1807
 ,0.7993,-0.1556\O,0,2.1936,1.0302,-1.3599\N,0,1.1259,1.0332,0.6788\H,0
 ,1.2119,0.6315,1.6033\C,0,-0.2393,1.3819,0.299\H,0,-0.6546,1.9276,1.15
 75\C,0,-0.3525,2.2994,-0.9284\H,0,-0.0375,1.7897,-1.8376\H,0,-1.3932,2
 .6249,-1.0325\H,0,0.275,3.1855,-0.7965\C,0,-1.0781,0.0925,0.1181\O,0,-
 0.5818,-0.9708,-0.2349\N,0,-2.4008,0.2394,0.3986\H,0,-2.814,1.1433,0.6
 073\C,0,-3.3655,-0.814,0.1409\H,0,-3.0869,-1.3167,-0.7942\C,0,-3.387,-
 1.8607,1.2713\H,0,-3.6748,-1.3947,2.2194\H,0,-4.0927,-2.6707,1.0547\H,
 0,-2.3878,-2.2914,1.3728\C,0,-4.7335,-0.1276,-0.0232\O,0,-4.909,1.0377
 ,0.3274\N,0,-5.7104,-0.9087,-0.5523\H,0,-5.4717,-1.8469,-0.8414\C,0,-7
 .076,-0.4486,-0.7465\H,0,-7.1321,0.5759,-0.3775\H,0,-7.3489,-0.4631,-1
 .8078\H,0,-7.7838,-1.0722,-0.1888\\Version=EM64L-G09RevA.02\State=1-A\
 HF=-984.690937\MP2=-987.8823886\RMSD=1.709e-09\PG=C01 [X(C12H22N4O4)]\
 \@


 Statistics are no substitute for judgment.
                            -- Henry Clay
 Job cpu time:  0 days 13 hours 23 minutes 21.1 seconds.
 File lengths (MBytes):  RWF= 150196 Int=      0 D2E=      0 Chk=     19 Scr=      1
 Normal termination of Gaussian 09 at Mon Jan 16 19:14:45 2017.
