 Entering Gaussian System, Link 0=g09
 Initial command:
 /home/steboss/Software/g09/l1.exe /home/steboss/projects/phi_psi_scan/alanine/MP2/285/5511/Gau-17667.inp -scrdir=/home/steboss/projects/phi_psi_scan/alanine/MP2/285/5511/
 Entering Link 1 = /home/steboss/Software/g09/l1.exe PID=     17671.
  
 Copyright (c) 1988,1990,1992,1993,1995,1998,2003,2009, Gaussian, Inc.
                  All Rights Reserved.
  
 This is part of the Gaussian(R) 09 program.  It is based on
 the Gaussian(R) 03 system (copyright 2003, Gaussian, Inc.),
 the Gaussian(R) 98 system (copyright 1998, Gaussian, Inc.),
 the Gaussian(R) 94 system (copyright 1995, Gaussian, Inc.),
 the Gaussian 92(TM) system (copyright 1992, Gaussian, Inc.),
 the Gaussian 90(TM) system (copyright 1990, Gaussian, Inc.),
 the Gaussian 88(TM) system (copyright 1988, Gaussian, Inc.),
 the Gaussian 86(TM) system (copyright 1986, Carnegie Mellon
 University), and the Gaussian 82(TM) system (copyright 1983,
 Carnegie Mellon University). Gaussian is a federally registered
 trademark of Gaussian, Inc.
  
 This software contains proprietary and confidential information,
 including trade secrets, belonging to Gaussian, Inc.
  
 This software is provided under written license and may be
 used, copied, transmitted, or stored only in accord with that
 written license.
  
 The following legend is applicable only to US Government
 contracts under FAR:
  
                    RESTRICTED RIGHTS LEGEND
  
 Use, reproduction and disclosure by the US Government is
 subject to restrictions as set forth in subparagraphs (a)
 and (c) of the Commercial Computer Software - Restricted
 Rights clause in FAR 52.227-19.
  
 Gaussian, Inc.
 340 Quinnipiac St., Bldg. 40, Wallingford CT 06492
  
  
 ---------------------------------------------------------------
 Warning -- This program may not be used in any manner that
 competes with the business of Gaussian, Inc. or will provide
 assistance to any competitor of Gaussian, Inc.  The licensee
 of this program is prohibited from giving any competitor of
 Gaussian, Inc. access to this program.  By using this program,
 the user acknowledges that Gaussian, Inc. is engaged in the
 business of creating and licensing software in the field of
 computational chemistry and represents and warrants to the
 licensee that it is not a competitor of Gaussian, Inc. and that
 it will not use this program in any manner prohibited above.
 ---------------------------------------------------------------
  

 Cite this work as:
 Gaussian 09, Revision A.02,
 M. J. Frisch, G. W. Trucks, H. B. Schlegel, G. E. Scuseria, 
 M. A. Robb, J. R. Cheeseman, G. Scalmani, V. Barone, B. Mennucci, 
 G. A. Petersson, H. Nakatsuji, M. Caricato, X. Li, H. P. Hratchian, 
 A. F. Izmaylov, J. Bloino, G. Zheng, J. L. Sonnenberg, M. Hada, 
 M. Ehara, K. Toyota, R. Fukuda, J. Hasegawa, M. Ishida, T. Nakajima, 
 Y. Honda, O. Kitao, H. Nakai, T. Vreven, J. A. Montgomery, Jr., 
 J. E. Peralta, F. Ogliaro, M. Bearpark, J. J. Heyd, E. Brothers, 
 K. N. Kudin, V. N. Staroverov, R. Kobayashi, J. Normand, 
 K. Raghavachari, A. Rendell, J. C. Burant, S. S. Iyengar, J. Tomasi, 
 M. Cossi, N. Rega, J. M. Millam, M. Klene, J. E. Knox, J. B. Cross, 
 V. Bakken, C. Adamo, J. Jaramillo, R. Gomperts, R. E. Stratmann, 
 O. Yazyev, A. J. Austin, R. Cammi, C. Pomelli, J. W. Ochterski, 
 R. L. Martin, K. Morokuma, V. G. Zakrzewski, G. A. Voth, 
 P. Salvador, J. J. Dannenberg, S. Dapprich, A. D. Daniels, 
 O. Farkas, J. B. Foresman, J. V. Ortiz, J. Cioslowski, 
 and D. J. Fox, Gaussian, Inc., Wallingford CT, 2009.
 
 ******************************************
 Gaussian 09:  EM64L-G09RevA.02 11-Jun-2009
                13-Feb-2017 
 ******************************************
 %chk=structure_45.chk
 %NProcShared=8
 Will use up to    8 processors via shared memory.
 -------------------
 #SP MP2/aug-cc-pVDZ
 -------------------
 1/38=1/1;
 2/12=2,17=6,18=5,40=1/2;
 3/5=16,7=10,11=9,16=1,25=1,30=1/1,2,3;
 4//1;
 5/5=2,38=5/2;
 8/10=1/1;
 9/16=-3/6;
 6/7=2,8=2,9=2,10=2/1;
 99/5=1,9=1/99;
 -------------------------------
 Single Point calculation at MP2
 -------------------------------
 Symbolic Z-matrix:
 Charge =  0 Multiplicity = 1
 H                     3.1904   -1.4656   -1.1454 
 C                     3.184    -0.494    -0.6417 
 H                     3.3669    0.2924   -1.38 
 H                     4.0037   -0.4984    0.0833 
 C                     1.8736   -0.3401    0.1119 
 O                     1.5456   -1.1365    0.9958 
 N                     1.105     0.7235   -0.2384 
 H                     1.3912    1.2781   -1.0337 
 C                    -0.1697    1.0957    0.3906 
 H                    -0.0232    0.9559    1.4706 
 C                    -0.4687    2.5641    0.1025 
 H                    -0.5876    2.7365   -0.9735 
 H                    -1.4084    2.8508    0.5763 
 H                     0.338     3.2001    0.4813 
 C                    -1.3793    0.1969    0.0008 
 O                    -2.4624    0.6955   -0.2912 
 N                    -1.1395   -1.1387    0.0122 
 H                    -0.2739   -1.4545    0.4461 
 C                    -2.2033   -2.0956   -0.2385 
 H                    -2.905    -1.6618   -0.953 
 H                    -1.7775   -3.0131   -0.6551 
 H                    -2.7582   -2.3477    0.6755 
 
                          Input orientation:                          
 ---------------------------------------------------------------------
 Center     Atomic      Atomic             Coordinates (Angstroms)
 Number     Number       Type             X           Y           Z
 ---------------------------------------------------------------------
      1          1           0        3.190400   -1.465600   -1.145400
      2          6           0        3.184000   -0.494000   -0.641700
      3          1           0        3.366900    0.292400   -1.380000
      4          1           0        4.003700   -0.498400    0.083300
      5          6           0        1.873600   -0.340100    0.111900
      6          8           0        1.545600   -1.136500    0.995800
      7          7           0        1.105000    0.723500   -0.238400
      8          1           0        1.391200    1.278100   -1.033700
      9          6           0       -0.169700    1.095700    0.390600
     10          1           0       -0.023200    0.955900    1.470600
     11          6           0       -0.468700    2.564100    0.102500
     12          1           0       -0.587600    2.736500   -0.973500
     13          1           0       -1.408400    2.850800    0.576300
     14          1           0        0.338000    3.200100    0.481300
     15          6           0       -1.379300    0.196900    0.000800
     16          8           0       -2.462400    0.695500   -0.291200
     17          7           0       -1.139500   -1.138700    0.012200
     18          1           0       -0.273900   -1.454500    0.446100
     19          6           0       -2.203300   -2.095600   -0.238500
     20          1           0       -2.905000   -1.661800   -0.953000
     21          1           0       -1.777500   -3.013100   -0.655100
     22          1           0       -2.758200   -2.347700    0.675500
 ---------------------------------------------------------------------
                    Distance matrix (angstroms):
                    1          2          3          4          5
     1  H    0.000000
     2  C    1.094423   0.000000
     3  H    1.782345   1.094059   0.000000
     4  H    1.762565   1.094327   1.781046   0.000000
     5  C    2.140448   1.519456   2.203580   2.136165   0.000000
     6  O    2.720002   2.403865   3.317124   2.698534   1.234146
     7  N    3.156533   2.442785   2.570076   3.162118   1.358198
     8  H    3.282908   2.551105   2.234931   3.350940   2.040510
     9  C    4.495534   3.852284   4.035821   4.478041   2.512821
    10  H    4.799411   4.104894   4.478720   4.500613   2.668995
    11  C    5.584331   4.821621   4.697899   5.420483   3.731064
    12  H    5.653360   4.977066   4.666577   5.715019   4.086694
    13  H    6.537929   5.810452   5.759862   6.383652   4.600982
    14  H    5.705357   4.796584   4.592754   5.222515   3.876537
    15  C    4.995982   4.659813   4.943900   5.428346   3.298798
    16  O    6.111805   5.780968   5.943796   6.586053   4.476143
    17  N    4.493878   4.419941   4.928885   5.183391   3.118729
    18  H    3.812397   3.750059   4.431899   4.398137   2.442403
    19  C    5.505576   5.634775   6.167065   6.417278   4.452603
    20  H    6.101591   6.207784   6.583157   7.082200   5.071087
    21  H    5.226393   5.564398   6.157651   6.347537   4.589526
    22  H    6.283281   6.362465   6.979402   7.035190   5.079535
                    6          7          8          9         10
     6  O    0.000000
     7  N    2.275297   0.000000
     8  H    3.158006   1.010937   0.000000
     9  C    2.879451   1.469365   2.120922   0.000000
    10  H    2.657952   2.060953   2.894108   1.098820   0.000000
    11  C    4.306951   2.445517   2.530608   1.525975   2.157887
    12  H    4.840332   2.730831   2.458903   2.174312   3.076152
    13  H    4.980026   3.392097   3.592109   2.156209   2.511812
    14  H    4.530906   2.690689   2.664308   2.166676   2.479035
    15  C    3.364970   2.550739   3.148786   1.556572   2.139019
    16  O    4.590932   3.567901   3.967488   2.425177   3.020173
    17  N    2.859587   2.927178   3.652297   2.465003   2.785750
    18  H    1.927141   2.667131   3.525545   2.552931   2.631060
    19  C    4.061726   4.346513   4.993458   3.836104   4.121348
    20  H    4.886881   4.720213   5.206425   4.109858   4.585953
    21  H    4.158136   4.737576   5.347747   4.534396   4.832094
    22  H    4.482443   5.019143   5.769342   4.317233   4.361901
                   11         12         13         14         15
    11  C    0.000000
    12  H    1.096191   0.000000
    13  H    1.090743   1.757458   0.000000
    14  H    1.094875   1.785526   1.783521   0.000000
    15  C    2.538340   2.832952   2.715738   3.492737   0.000000
    16  O    2.760707   2.854135   2.551233   3.835625   1.227588
    17  N    3.764154   4.036505   4.038146   4.607412   1.357005
    18  H    4.037964   4.436006   4.454172   4.694780   2.036498
    19  C    4.983766   5.147806   5.075691   5.917834   2.447815
    20  H    4.990778   4.971499   4.994210   6.017669   2.586940
    21  H    5.778588   5.880063   6.003158   6.661126   3.300435
    22  H    5.449396   5.768864   5.371797   6.356277   2.971797
                   16         17         18         19         20
    16  O    0.000000
    17  N    2.281755   0.000000
    18  H    3.155256   1.018461   0.000000
    19  C    2.803596   1.452645   2.145290   0.000000
    20  H    2.488119   2.078999   2.987163   1.091364   0.000000
    21  H    3.788829   2.089428   2.429545   1.093923   1.784940
    22  H    3.206723   2.126461   2.649939   1.098574   1.773139
                   21         22
    21  H    0.000000
    22  H    1.781860   0.000000
 Stoichiometry    C6H12N2O2
 Framework group  C1[X(C6H12N2O2)]
 Deg. of freedom    60
 Full point group                 C1      NOp   1
 Largest Abelian subgroup         C1      NOp   1
 Largest concise Abelian subgroup C1      NOp   1
                         Standard orientation:                         
 ---------------------------------------------------------------------
 Center     Atomic      Atomic             Coordinates (Angstroms)
 Number     Number       Type             X           Y           Z
 ---------------------------------------------------------------------
      1          1           0        3.190431   -1.465534   -1.145392
      2          6           0        3.184010   -0.493934   -0.641692
      3          1           0        3.366892    0.292470   -1.379992
      4          1           0        4.003710   -0.498316    0.083308
      5          6           0        1.873606   -0.340063    0.111908
      6          8           0        1.545624   -1.136470    0.995808
      7          7           0        1.104983    0.723520   -0.238392
      8          1           0        1.391171    1.278127   -1.033692
      9          6           0       -0.169725    1.095692    0.390608
     10          1           0       -0.023222    0.955896    1.470608
     11          6           0       -0.468758    2.564086    0.102508
     12          1           0       -0.587661    2.736483   -0.973492
     13          1           0       -1.408464    2.850765    0.576308
     14          1           0        0.337928    3.200104    0.481308
     15          6           0       -1.379306    0.196866    0.000808
     16          8           0       -2.462417    0.695442   -0.291192
     17          7           0       -1.139476   -1.138729    0.012208
     18          1           0       -0.273869   -1.454510    0.446108
     19          6           0       -2.203255   -2.095652   -0.238492
     20          1           0       -2.904965   -1.661868   -0.952992
     21          1           0       -1.777435   -3.013143   -0.655092
     22          1           0       -2.758150   -2.347764    0.675508
 ---------------------------------------------------------------------
 Rotational constants (GHZ):      1.7385090      0.9794412      0.6870921
 Standard basis: Aug-CC-pVDZ (5D, 7F)
 There are   338 symmetry adapted basis functions of A   symmetry.
 Integral buffers will be    131072 words long.
 Raffenetti 1 integral format.
 Two-electron integral symmetry is turned on.
   338 basis functions,   562 primitive gaussians,   358 cartesian basis functions
    39 alpha electrons       39 beta electrons
       nuclear repulsion energy       559.9575535516 Hartrees.
 NAtoms=   22 NActive=   22 NUniq=   22 SFac= 7.50D-01 NAtFMM=   80 NAOKFM=F Big=F
 One-electron integrals computed using PRISM.
 NBasis=   338 RedAO= T  NBF=   338
 NBsUse=   338 1.00D-06 NBFU=   338
 Harris functional with IExCor=  205 diagonalized for initial guess.
 ExpMin= 2.97D-02 ExpMax= 1.17D+04 ExpMxC= 4.01D+02 IAcc=3 IRadAn=         0 AccDes= 0.00D+00
 HarFok:  IExCor=  205 AccDes= 0.00D+00 IRadAn=         0 IDoV= 1
 ScaDFX=  1.000000  1.000000  1.000000  1.000000
 FoFCou: FMM=F IPFlag=           0 FMFlag=      100000 FMFlg1=           0
         NFxFlg=           0 DoJE=T BraDBF=F KetDBF=T FulRan=T
         Omega=  0.000000  0.000000  1.000000  0.000000  0.000000 ICntrl=     500 IOpCl=  0
         NMat0=    1 NMatS0=    1 NMatT0=    0 NMatD0=    1 NMtDS0=    0 NMtDT0=    0
         I1Cent=           4 NGrid=           0.
 Petite list used in FoFCou.
 Initial guess orbital symmetries:
       Occupied  (A) (A) (A) (A) (A) (A) (A) (A) (A) (A) (A) (A)
                 (A) (A) (A) (A) (A) (A) (A) (A) (A) (A) (A) (A)
                 (A) (A) (A) (A) (A) (A) (A) (A) (A) (A) (A) (A)
                 (A) (A) (A)
       Virtual   (A) (A) (A) (A) (A) (A) (A) (A) (A) (A) (A) (A)
                 (A) (A) (A) (A) (A) (A) (A) (A) (A) (A) (A) (A)
                 (A) (A) (A) (A) (A) (A) (A) (A) (A) (A) (A) (A)
                 (A) (A) (A) (A) (A) (A) (A) (A) (A) (A) (A) (A)
                 (A) (A) (A) (A) (A) (A) (A) (A) (A) (A) (A) (A)
                 (A) (A) (A) (A) (A) (A) (A) (A) (A) (A) (A) (A)
                 (A) (A) (A) (A) (A) (A) (A) (A) (A) (A) (A) (A)
                 (A) (A) (A) (A) (A) (A) (A) (A) (A) (A) (A) (A)
                 (A) (A) (A) (A) (A) (A) (A) (A) (A) (A) (A) (A)
                 (A) (A) (A) (A) (A) (A) (A) (A) (A) (A) (A) (A)
                 (A) (A) (A) (A) (A) (A) (A) (A) (A) (A) (A) (A)
                 (A) (A) (A) (A) (A) (A) (A) (A) (A) (A) (A) (A)
                 (A) (A) (A) (A) (A) (A) (A) (A) (A) (A) (A) (A)
                 (A) (A) (A) (A) (A) (A) (A) (A) (A) (A) (A) (A)
                 (A) (A) (A) (A) (A) (A) (A) (A) (A) (A) (A) (A)
                 (A) (A) (A) (A) (A) (A) (A) (A) (A) (A) (A) (A)
                 (A) (A) (A) (A) (A) (A) (A) (A) (A) (A) (A) (A)
                 (A) (A) (A) (A) (A) (A) (A) (A) (A) (A) (A) (A)
                 (A) (A) (A) (A) (A) (A) (A) (A) (A) (A) (A) (A)
                 (A) (A) (A) (A) (A) (A) (A) (A) (A) (A) (A) (A)
                 (A) (A) (A) (A) (A) (A) (A) (A) (A) (A) (A) (A)
                 (A) (A) (A) (A) (A) (A) (A) (A) (A) (A) (A) (A)
                 (A) (A) (A) (A) (A) (A) (A) (A) (A) (A) (A) (A)
                 (A) (A) (A) (A) (A) (A) (A) (A) (A) (A) (A) (A)
                 (A) (A) (A) (A) (A) (A) (A) (A) (A) (A) (A)
 The electronic state of the initial guess is 1-A.
 Requested convergence on RMS density matrix=1.00D-08 within 128 cycles.
 Requested convergence on MAX density matrix=1.00D-06.
 Requested convergence on             energy=1.00D-06.
 No special actions if energy rises.
 Initial convergence to 1.0D-05 achieved.  Increase integral accuracy.
 SCF Done:  E(RHF) =  -492.926910806     A.U. after   14 cycles
             Convg  =    0.8215D-08             -V/T =  2.0017
 ExpMin= 2.97D-02 ExpMax= 1.17D+04 ExpMxC= 4.01D+02 IAcc=3 IRadAn=         5 AccDes= 0.00D+00
 HarFok:  IExCor=  205 AccDes= 0.00D+00 IRadAn=         5 IDoV=-2
 ScaDFX=  1.000000  1.000000  1.000000  1.000000
 Range of M.O.s used for correlation:    11   338
 NBasis=   338 NAE=    39 NBE=    39 NFC=    10 NFV=     0
 NROrb=    328 NOA=    29 NOB=    29 NVA=   299 NVB=   299

 **** Warning!!: The largest alpha MO coefficient is  0.66448870D+02

 Disk-based method using OVN memory for 29 occupieds at a time.
 Estimated scratch disk usage=  1388092698 words.
 Actual    scratch disk usage=  1375109002 words.
 JobTyp=1 Pass  1:  I=   1 to  29 NPSUse=  8 ParTrn=T ParDer=T DoDerP=F.
 Spin components of T(2) and E(2):
     alpha-alpha T2 =       0.6809358681D-01 E2=     -0.2063341415D+00
     alpha-beta  T2 =       0.3765117072D+00 E2=     -0.1190728785D+01
     beta-beta   T2 =       0.6809358681D-01 E2=     -0.2063341415D+00
 ANorm=    0.1229918242D+01
 E2 =    -0.1603397068D+01 EUMP2 =    -0.49453030787356D+03

 **********************************************************************

            Population analysis using the SCF density.

 **********************************************************************

 Orbital symmetries:
       Occupied  (A) (A) (A) (A) (A) (A) (A) (A) (A) (A) (A) (A)
                 (A) (A) (A) (A) (A) (A) (A) (A) (A) (A) (A) (A)
                 (A) (A) (A) (A) (A) (A) (A) (A) (A) (A) (A) (A)
                 (A) (A) (A)
       Virtual   (A) (A) (A) (A) (A) (A) (A) (A) (A) (A) (A) (A)
                 (A) (A) (A) (A) (A) (A) (A) (A) (A) (A) (A) (A)
                 (A) (A) (A) (A) (A) (A) (A) (A) (A) (A) (A) (A)
                 (A) (A) (A) (A) (A) (A) (A) (A) (A) (A) (A) (A)
                 (A) (A) (A) (A) (A) (A) (A) (A) (A) (A) (A) (A)
                 (A) (A) (A) (A) (A) (A) (A) (A) (A) (A) (A) (A)
                 (A) (A) (A) (A) (A) (A) (A) (A) (A) (A) (A) (A)
                 (A) (A) (A) (A) (A) (A) (A) (A) (A) (A) (A) (A)
                 (A) (A) (A) (A) (A) (A) (A) (A) (A) (A) (A) (A)
                 (A) (A) (A) (A) (A) (A) (A) (A) (A) (A) (A) (A)
                 (A) (A) (A) (A) (A) (A) (A) (A) (A) (A) (A) (A)
                 (A) (A) (A) (A) (A) (A) (A) (A) (A) (A) (A) (A)
                 (A) (A) (A) (A) (A) (A) (A) (A) (A) (A) (A) (A)
                 (A) (A) (A) (A) (A) (A) (A) (A) (A) (A) (A) (A)
                 (A) (A) (A) (A) (A) (A) (A) (A) (A) (A) (A) (A)
                 (A) (A) (A) (A) (A) (A) (A) (A) (A) (A) (A) (A)
                 (A) (A) (A) (A) (A) (A) (A) (A) (A) (A) (A) (A)
                 (A) (A) (A) (A) (A) (A) (A) (A) (A) (A) (A) (A)
                 (A) (A) (A) (A) (A) (A) (A) (A) (A) (A) (A) (A)
                 (A) (A) (A) (A) (A) (A) (A) (A) (A) (A) (A) (A)
                 (A) (A) (A) (A) (A) (A) (A) (A) (A) (A) (A) (A)
                 (A) (A) (A) (A) (A) (A) (A) (A) (A) (A) (A) (A)
                 (A) (A) (A) (A) (A) (A) (A) (A) (A) (A) (A) (A)
                 (A) (A) (A) (A) (A) (A) (A) (A) (A) (A) (A) (A)
                 (A) (A) (A) (A) (A) (A) (A) (A) (A) (A) (A)
 The electronic state is 1-A.
 Alpha  occ. eigenvalues --  -20.54561 -20.52477 -15.61500 -15.57642 -11.38056
 Alpha  occ. eigenvalues --  -11.35165 -11.29826 -11.26025 -11.25754 -11.23693
 Alpha  occ. eigenvalues --   -1.40014  -1.37629  -1.25465  -1.21820  -1.06175
 Alpha  occ. eigenvalues --   -1.00143  -0.95396  -0.87336  -0.81637  -0.77584
 Alpha  occ. eigenvalues --   -0.72411  -0.69327  -0.67442  -0.63754  -0.62048
 Alpha  occ. eigenvalues --   -0.61389  -0.59824  -0.59240  -0.58158  -0.54808
 Alpha  occ. eigenvalues --   -0.54359  -0.53279  -0.53057  -0.52271  -0.50320
 Alpha  occ. eigenvalues --   -0.44923  -0.43843  -0.39534  -0.37878
 Alpha virt. eigenvalues --    0.02498   0.04045   0.04401   0.04457   0.05827
 Alpha virt. eigenvalues --    0.06170   0.06365   0.06724   0.07200   0.07946
 Alpha virt. eigenvalues --    0.09269   0.09957   0.11259   0.11859   0.12537
 Alpha virt. eigenvalues --    0.12674   0.13715   0.14879   0.15218   0.15316
 Alpha virt. eigenvalues --    0.16022   0.16368   0.16486   0.16716   0.17203
 Alpha virt. eigenvalues --    0.17686   0.18299   0.18513   0.18643   0.19030
 Alpha virt. eigenvalues --    0.19744   0.20033   0.20475   0.20758   0.22098
 Alpha virt. eigenvalues --    0.23325   0.24709   0.25232   0.25655   0.27026
 Alpha virt. eigenvalues --    0.27272   0.28424   0.28964   0.30148   0.31047
 Alpha virt. eigenvalues --    0.31154   0.31908   0.32078   0.33274   0.33920
 Alpha virt. eigenvalues --    0.34216   0.34589   0.35643   0.36437   0.36711
 Alpha virt. eigenvalues --    0.37793   0.38027   0.38464   0.39716   0.39997
 Alpha virt. eigenvalues --    0.40414   0.41295   0.41923   0.42097   0.43006
 Alpha virt. eigenvalues --    0.43348   0.43938   0.44674   0.45510   0.46017
 Alpha virt. eigenvalues --    0.46389   0.47153   0.47376   0.47969   0.49516
 Alpha virt. eigenvalues --    0.50270   0.50569   0.51026   0.52101   0.52347
 Alpha virt. eigenvalues --    0.52653   0.53528   0.53791   0.55149   0.55328
 Alpha virt. eigenvalues --    0.56653   0.57235   0.57452   0.58059   0.59085
 Alpha virt. eigenvalues --    0.59520   0.60238   0.60966   0.61185   0.62029
 Alpha virt. eigenvalues --    0.62415   0.63346   0.64187   0.65272   0.65456
 Alpha virt. eigenvalues --    0.65743   0.66717   0.67160   0.67715   0.67899
 Alpha virt. eigenvalues --    0.69112   0.70081   0.70813   0.71146   0.71291
 Alpha virt. eigenvalues --    0.72064   0.72428   0.73560   0.74452   0.74859
 Alpha virt. eigenvalues --    0.75825   0.77822   0.78684   0.79116   0.79399
 Alpha virt. eigenvalues --    0.80722   0.81676   0.82237   0.82967   0.83666
 Alpha virt. eigenvalues --    0.84160   0.85966   0.86163   0.88277   0.89180
 Alpha virt. eigenvalues --    0.89649   0.90776   0.91562   0.92443   0.93104
 Alpha virt. eigenvalues --    0.94453   0.94719   0.96021   0.98673   0.98954
 Alpha virt. eigenvalues --    1.01169   1.01399   1.03009   1.04149   1.05095
 Alpha virt. eigenvalues --    1.06760   1.08802   1.09974   1.10857   1.11747
 Alpha virt. eigenvalues --    1.12442   1.13402   1.14958   1.16532   1.16870
 Alpha virt. eigenvalues --    1.17650   1.18031   1.18873   1.19897   1.22782
 Alpha virt. eigenvalues --    1.23575   1.24191   1.25916   1.27568   1.29718
 Alpha virt. eigenvalues --    1.31137   1.32696   1.33692   1.37288   1.39592
 Alpha virt. eigenvalues --    1.40361   1.43087   1.43450   1.46571   1.47830
 Alpha virt. eigenvalues --    1.48395   1.49753   1.51401   1.53266   1.57107
 Alpha virt. eigenvalues --    1.57956   1.59975   1.60806   1.63269   1.64463
 Alpha virt. eigenvalues --    1.66784   1.68667   1.70392   1.71657   1.73342
 Alpha virt. eigenvalues --    1.75447   1.76161   1.76544   1.78394   1.80792
 Alpha virt. eigenvalues --    1.83620   1.84218   1.85181   1.85941   1.87967
 Alpha virt. eigenvalues --    1.88105   1.89065   1.90498   1.92613   1.93872
 Alpha virt. eigenvalues --    1.94193   1.95250   1.99143   2.00235   2.00665
 Alpha virt. eigenvalues --    2.03140   2.04677   2.06925   2.08402   2.09296
 Alpha virt. eigenvalues --    2.11615   2.12308   2.14498   2.16130   2.16693
 Alpha virt. eigenvalues --    2.18735   2.19411   2.21058   2.22352   2.23333
 Alpha virt. eigenvalues --    2.25591   2.26793   2.28505   2.29553   2.30228
 Alpha virt. eigenvalues --    2.31236   2.32861   2.33439   2.36605   2.37657
 Alpha virt. eigenvalues --    2.38783   2.38947   2.41295   2.42820   2.44817
 Alpha virt. eigenvalues --    2.45844   2.47559   2.49019   2.49727   2.51074
 Alpha virt. eigenvalues --    2.55217   2.56135   2.58046   2.59917   2.61005
 Alpha virt. eigenvalues --    2.63232   2.64103   2.65098   2.66792   2.69192
 Alpha virt. eigenvalues --    2.71894   2.74194   2.75591   2.79053   2.81278
 Alpha virt. eigenvalues --    2.83893   2.84208   2.86602   2.88377   2.89739
 Alpha virt. eigenvalues --    2.90564   2.92032   2.94439   2.95701   2.97825
 Alpha virt. eigenvalues --    2.98676   3.01215   3.04009   3.09513   3.10699
 Alpha virt. eigenvalues --    3.11607   3.15289   3.17450   3.21836   3.25449
 Alpha virt. eigenvalues --    3.34082   3.41257   3.47743   3.51173   3.57543
 Alpha virt. eigenvalues --    3.61832   3.64130   3.76893   3.82994   3.85283
 Alpha virt. eigenvalues --    3.86785   3.88763   3.95675   3.98567   4.04220
 Alpha virt. eigenvalues --    4.08707   4.15267   4.21136   4.22213
          Condensed to atoms (all electrons):
              1          2          3          4          5          6
     1  H    0.719776   0.331450  -0.071258  -0.047599  -0.081019   0.019237
     2  C    0.331450   4.520016   0.335729   0.414307   0.231211  -0.038453
     3  H   -0.071258   0.335729   1.103605  -0.076807   0.154198  -0.009819
     4  H   -0.047599   0.414307  -0.076807   0.721122  -0.104886   0.008648
     5  C   -0.081019   0.231211   0.154198  -0.104886   5.611721   0.142146
     6  O    0.019237  -0.038453  -0.009819   0.008648   0.142146   8.835543
     7  N    0.063376  -0.064699  -0.220329   0.045682   0.036780  -0.120050
     8  H   -0.001809  -0.057851   0.006633  -0.005570  -0.085825  -0.011540
     9  C    0.013255  -0.052614  -0.047301  -0.008468  -0.322742   0.072260
    10  H    0.001054   0.008339  -0.002370  -0.001115   0.018256   0.006855
    11  C   -0.001655  -0.011173  -0.002731   0.003551  -0.016670  -0.005174
    12  H   -0.000610  -0.003152  -0.000783   0.000057  -0.029600   0.001609
    13  H   -0.000002   0.001058  -0.000223   0.000155  -0.000305  -0.000464
    14  H    0.000110   0.003998   0.001636   0.000234   0.025662   0.000485
    15  C   -0.000814  -0.007031  -0.017696   0.000943  -0.238566   0.062866
    16  O    0.000256   0.000874   0.000389   0.000095   0.017400  -0.004682
    17  N    0.003786   0.000356   0.005033  -0.002410   0.050785  -0.083239
    18  H   -0.000725   0.005388   0.004761  -0.003331   0.036071   0.050704
    19  C    0.000124  -0.004350  -0.000816   0.000144   0.014735   0.003907
    20  H    0.000105  -0.000572  -0.000252  -0.000081  -0.007720   0.001888
    21  H   -0.000115  -0.000849  -0.000187   0.000082   0.018096  -0.001627
    22  H   -0.000150  -0.000179  -0.000040   0.000050  -0.009077  -0.000072
              7          8          9         10         11         12
     1  H    0.063376  -0.001809   0.013255   0.001054  -0.001655  -0.000610
     2  C   -0.064699  -0.057851  -0.052614   0.008339  -0.011173  -0.003152
     3  H   -0.220329   0.006633  -0.047301  -0.002370  -0.002731  -0.000783
     4  H    0.045682  -0.005570  -0.008468  -0.001115   0.003551   0.000057
     5  C    0.036780  -0.085825  -0.322742   0.018256  -0.016670  -0.029600
     6  O   -0.120050  -0.011540   0.072260   0.006855  -0.005174   0.001609
     7  N    7.529440   0.359126  -0.433439   0.055565   0.017407  -0.035509
     8  H    0.359126   0.955932  -0.126136   0.004506   0.009229   0.013118
     9  C   -0.433439  -0.126136   7.571179  -0.109075   0.061185  -0.104948
    10  H    0.055565   0.004506  -0.109075   1.151115  -0.065916   0.069178
    11  C    0.017407   0.009229   0.061185  -0.065916   4.347066   0.361685
    12  H   -0.035509   0.013118  -0.104948   0.069178   0.361685   1.063106
    13  H    0.045980  -0.000354  -0.037216  -0.015490   0.308624  -0.143792
    14  H   -0.053981  -0.011425   0.209561  -0.088241   0.226240  -0.209732
    15  C    0.202269  -0.014276  -0.558544   0.038613   0.021789   0.029535
    16  O   -0.000505   0.000880  -0.096894  -0.007415  -0.014009   0.025421
    17  N   -0.103426   0.019082   0.085901   0.018297  -0.016582   0.013238
    18  H    0.063841  -0.004483  -0.159468   0.009430   0.018437  -0.001765
    19  C   -0.010352   0.004355   0.003022   0.007504  -0.004290   0.003544
    20  H   -0.000809   0.000230   0.014252   0.003330  -0.005225   0.000354
    21  H   -0.000604   0.000302  -0.031239  -0.002581   0.001475  -0.000505
    22  H   -0.002321  -0.000403   0.028540  -0.000297   0.004239   0.000786
             13         14         15         16         17         18
     1  H   -0.000002   0.000110  -0.000814   0.000256   0.003786  -0.000725
     2  C    0.001058   0.003998  -0.007031   0.000874   0.000356   0.005388
     3  H   -0.000223   0.001636  -0.017696   0.000389   0.005033   0.004761
     4  H    0.000155   0.000234   0.000943   0.000095  -0.002410  -0.003331
     5  C   -0.000305   0.025662  -0.238566   0.017400   0.050785   0.036071
     6  O   -0.000464   0.000485   0.062866  -0.004682  -0.083239   0.050704
     7  N    0.045980  -0.053981   0.202269  -0.000505  -0.103426   0.063841
     8  H   -0.000354  -0.011425  -0.014276   0.000880   0.019082  -0.004483
     9  C   -0.037216   0.209561  -0.558544  -0.096894   0.085901  -0.159468
    10  H   -0.015490  -0.088241   0.038613  -0.007415   0.018297   0.009430
    11  C    0.308624   0.226240   0.021789  -0.014009  -0.016582   0.018437
    12  H   -0.143792  -0.209732   0.029535   0.025421   0.013238  -0.001765
    13  H    1.107807  -0.184734   0.013148  -0.014499  -0.018715   0.000193
    14  H   -0.184734   1.170534  -0.076432   0.010618   0.008657   0.001049
    15  C    0.013148  -0.076432   5.552584   0.305146   0.011981  -0.011359
    16  O   -0.014499   0.010618   0.305146   8.737688  -0.163744   0.013921
    17  N   -0.018715   0.008657   0.011981  -0.163744   7.228947   0.180328
    18  H    0.000193   0.001049  -0.011359   0.013921   0.180328   1.054240
    19  C   -0.004793  -0.000051  -0.148140   0.007372   0.244643  -0.176534
    20  H   -0.001437   0.000128   0.024298  -0.017134  -0.060028   0.006845
    21  H    0.000566   0.000013  -0.009981   0.009186  -0.126449   0.007904
    22  H    0.000069  -0.000058  -0.027271   0.003406   0.119415  -0.021895
             19         20         21         22
     1  H    0.000124   0.000105  -0.000115  -0.000150
     2  C   -0.004350  -0.000572  -0.000849  -0.000179
     3  H   -0.000816  -0.000252  -0.000187  -0.000040
     4  H    0.000144  -0.000081   0.000082   0.000050
     5  C    0.014735  -0.007720   0.018096  -0.009077
     6  O    0.003907   0.001888  -0.001627  -0.000072
     7  N   -0.010352  -0.000809  -0.000604  -0.002321
     8  H    0.004355   0.000230   0.000302  -0.000403
     9  C    0.003022   0.014252  -0.031239   0.028540
    10  H    0.007504   0.003330  -0.002581  -0.000297
    11  C   -0.004290  -0.005225   0.001475   0.004239
    12  H    0.003544   0.000354  -0.000505   0.000786
    13  H   -0.004793  -0.001437   0.000566   0.000069
    14  H   -0.000051   0.000128   0.000013  -0.000058
    15  C   -0.148140   0.024298  -0.009981  -0.027271
    16  O    0.007372  -0.017134   0.009186   0.003406
    17  N    0.244643  -0.060028  -0.126449   0.119415
    18  H   -0.176534   0.006845   0.007904  -0.021895
    19  C    4.181955   0.456591   0.424905   0.246233
    20  H    0.456591   1.014948  -0.199134  -0.099497
    21  H    0.424905  -0.199134   1.237004  -0.157603
    22  H    0.246233  -0.099497  -0.157603   0.977635
 Mulliken atomic charges:
              1
     1  H    0.053229
     2  C    0.388195
     3  H   -0.161371
     4  H    0.055195
     5  C    0.539349
     6  O   -0.931029
     7  N   -0.373443
     8  H   -0.053722
     9  C    0.028929
    10  H   -0.099547
    11  C    0.762497
    12  H   -0.051236
    13  H   -0.055576
    14  H   -0.034273
    15  C    0.846941
    16  O   -0.813770
    17  N   -0.415856
    18  H   -0.073553
    19  C    0.750289
    20  H   -0.131080
    21  H   -0.168660
    22  H   -0.061510
 Sum of Mulliken atomic charges =   0.00000
 Mulliken charges with hydrogens summed into heavy atoms:
              1
     2  C    0.335249
     5  C    0.539349
     6  O   -0.931029
     7  N   -0.427164
     9  C   -0.070618
    11  C    0.621412
    15  C    0.846941
    16  O   -0.813770
    17  N   -0.489409
    19  C    0.389039
 Sum of Mulliken charges with hydrogens summed into heavy atoms =   0.00000
 Electronic spatial extent (au):  <R**2>=           1729.8144
 Charge=              0.0000 electrons
 Dipole moment (field-independent basis, Debye):
    X=              3.8519    Y=              0.7519    Z=             -1.6793  Tot=              4.2688
 Quadrupole moment (field-independent basis, Debye-Ang):
   XX=            -64.7626   YY=            -58.4300   ZZ=            -61.7017
   XY=              8.0873   XZ=             -7.2743   YZ=              2.8331
 Traceless Quadrupole moment (field-independent basis, Debye-Ang):
   XX=             -3.1312   YY=              3.2014   ZZ=             -0.0702
   XY=              8.0873   XZ=             -7.2743   YZ=              2.8331
 Octapole moment (field-independent basis, Debye-Ang**2):
  XXX=             50.3362  YYY=             -2.7113  ZZZ=             -2.0588  XYY=             -6.4491
  XXY=            -14.1409  XXZ=             -5.2622  XZZ=             -1.8858  YZZ=              5.2396
  YYZ=             -5.0030  XYZ=              1.3584
 Hexadecapole moment (field-independent basis, Debye-Ang**3):
 XXXX=          -1324.4056 YYYY=           -770.2266 ZZZZ=           -161.8787 XXXY=             30.1472
 XXXZ=            -18.2219 YYYX=              8.9049 YYYZ=              4.8488 ZZZX=             -5.0725
 ZZZY=             -3.8624 XXYY=           -350.9827 XXZZ=           -246.6748 YYZZ=           -156.3989
 XXYZ=             12.1083 YYXZ=            -12.6641 ZZXY=              7.2160
 N-N= 5.599575535516D+02 E-N=-2.275130076085D+03  KE= 4.920763963283D+02
 1\1\GINC-NODE010\SP\RMP2-FC\Aug-CC-pVDZ\C6H12N2O2\MANAGER\13-Feb-2017\
 0\\#SP MP2/aug-cc-pVDZ\\Single Point calculation at MP2\\0,1\H,0,3.190
 4,-1.4656,-1.1454\C,0,3.184,-0.494,-0.6417\H,0,3.3669,0.2924,-1.38\H,0
 ,4.0037,-0.4984,0.0833\C,0,1.8736,-0.3401,0.1119\O,0,1.5456,-1.1365,0.
 9958\N,0,1.105,0.7235,-0.2384\H,0,1.3912,1.2781,-1.0337\C,0,-0.1697,1.
 0957,0.3906\H,0,-0.0232,0.9559,1.4706\C,0,-0.4687,2.5641,0.1025\H,0,-0
 .5876,2.7365,-0.9735\H,0,-1.4084,2.8508,0.5763\H,0,0.338,3.2001,0.4813
 \C,0,-1.3793,0.1969,0.0008\O,0,-2.4624,0.6955,-0.2912\N,0,-1.1395,-1.1
 387,0.0122\H,0,-0.2739,-1.4545,0.4461\C,0,-2.2033,-2.0956,-0.2385\H,0,
 -2.905,-1.6618,-0.953\H,0,-1.7775,-3.0131,-0.6551\H,0,-2.7582,-2.3477,
 0.6755\\Version=EM64L-G09RevA.02\State=1-A\HF=-492.9269108\MP2=-494.53
 03079\RMSD=8.215e-09\PG=C01 [X(C6H12N2O2)]\\@


 The earth never tires,
 The earth is rude, silent, incomprehensible at first,
 Nature is rude and incomprehensible at first,
 Be not discouraged, keep on,
 There are divine things well envelop'd,
 I swear to you there are divine things more beautiful than words can tell.
                                 -- Walt Whitman
 Job cpu time:  0 days 14 hours 35 minutes  9.5 seconds.
 File lengths (MBytes):  RWF=  10608 Int=      0 D2E=      0 Chk=      7 Scr=      2
 Normal termination of Gaussian 09 at Mon Feb 13 14:42:09 2017.
