 Entering Gaussian System, Link 0=g09
 Initial command:
 /home/steboss/Software/g09/l1.exe /home/steboss/projects/phi_psi_scan/alanine/MP2/285/5503/Gau-969.inp -scrdir=/home/steboss/projects/phi_psi_scan/alanine/MP2/285/5503/
 Entering Link 1 = /home/steboss/Software/g09/l1.exe PID=       971.
  
 Copyright (c) 1988,1990,1992,1993,1995,1998,2003,2009, Gaussian, Inc.
                  All Rights Reserved.
  
 This is part of the Gaussian(R) 09 program.  It is based on
 the Gaussian(R) 03 system (copyright 2003, Gaussian, Inc.),
 the Gaussian(R) 98 system (copyright 1998, Gaussian, Inc.),
 the Gaussian(R) 94 system (copyright 1995, Gaussian, Inc.),
 the Gaussian 92(TM) system (copyright 1992, Gaussian, Inc.),
 the Gaussian 90(TM) system (copyright 1990, Gaussian, Inc.),
 the Gaussian 88(TM) system (copyright 1988, Gaussian, Inc.),
 the Gaussian 86(TM) system (copyright 1986, Carnegie Mellon
 University), and the Gaussian 82(TM) system (copyright 1983,
 Carnegie Mellon University). Gaussian is a federally registered
 trademark of Gaussian, Inc.
  
 This software contains proprietary and confidential information,
 including trade secrets, belonging to Gaussian, Inc.
  
 This software is provided under written license and may be
 used, copied, transmitted, or stored only in accord with that
 written license.
  
 The following legend is applicable only to US Government
 contracts under FAR:
  
                    RESTRICTED RIGHTS LEGEND
  
 Use, reproduction and disclosure by the US Government is
 subject to restrictions as set forth in subparagraphs (a)
 and (c) of the Commercial Computer Software - Restricted
 Rights clause in FAR 52.227-19.
  
 Gaussian, Inc.
 340 Quinnipiac St., Bldg. 40, Wallingford CT 06492
  
  
 ---------------------------------------------------------------
 Warning -- This program may not be used in any manner that
 competes with the business of Gaussian, Inc. or will provide
 assistance to any competitor of Gaussian, Inc.  The licensee
 of this program is prohibited from giving any competitor of
 Gaussian, Inc. access to this program.  By using this program,
 the user acknowledges that Gaussian, Inc. is engaged in the
 business of creating and licensing software in the field of
 computational chemistry and represents and warrants to the
 licensee that it is not a competitor of Gaussian, Inc. and that
 it will not use this program in any manner prohibited above.
 ---------------------------------------------------------------
  

 Cite this work as:
 Gaussian 09, Revision A.02,
 M. J. Frisch, G. W. Trucks, H. B. Schlegel, G. E. Scuseria, 
 M. A. Robb, J. R. Cheeseman, G. Scalmani, V. Barone, B. Mennucci, 
 G. A. Petersson, H. Nakatsuji, M. Caricato, X. Li, H. P. Hratchian, 
 A. F. Izmaylov, J. Bloino, G. Zheng, J. L. Sonnenberg, M. Hada, 
 M. Ehara, K. Toyota, R. Fukuda, J. Hasegawa, M. Ishida, T. Nakajima, 
 Y. Honda, O. Kitao, H. Nakai, T. Vreven, J. A. Montgomery, Jr., 
 J. E. Peralta, F. Ogliaro, M. Bearpark, J. J. Heyd, E. Brothers, 
 K. N. Kudin, V. N. Staroverov, R. Kobayashi, J. Normand, 
 K. Raghavachari, A. Rendell, J. C. Burant, S. S. Iyengar, J. Tomasi, 
 M. Cossi, N. Rega, J. M. Millam, M. Klene, J. E. Knox, J. B. Cross, 
 V. Bakken, C. Adamo, J. Jaramillo, R. Gomperts, R. E. Stratmann, 
 O. Yazyev, A. J. Austin, R. Cammi, C. Pomelli, J. W. Ochterski, 
 R. L. Martin, K. Morokuma, V. G. Zakrzewski, G. A. Voth, 
 P. Salvador, J. J. Dannenberg, S. Dapprich, A. D. Daniels, 
 O. Farkas, J. B. Foresman, J. V. Ortiz, J. Cioslowski, 
 and D. J. Fox, Gaussian, Inc., Wallingford CT, 2009.
 
 ******************************************
 Gaussian 09:  EM64L-G09RevA.02 11-Jun-2009
                13-Feb-2017 
 ******************************************
 %chk=structure_255.chk
 %NProcShared=8
 Will use up to    8 processors via shared memory.
 -------------------
 #SP MP2/aug-cc-pVDZ
 -------------------
 1/38=1/1;
 2/12=2,17=6,18=5,40=1/2;
 3/5=16,7=10,11=9,16=1,25=1,30=1/1,2,3;
 4//1;
 5/5=2,38=5/2;
 8/10=1/1;
 9/16=-3/6;
 6/7=2,8=2,9=2,10=2/1;
 99/5=1,9=1/99;
 -------------------------------
 Single Point calculation at MP2
 -------------------------------
 Symbolic Z-matrix:
 Charge =  0 Multiplicity = 1
 H                    -3.8939   -1.0972    0.6932 
 C                    -2.9086   -0.849     1.0914 
 H                    -2.4232   -1.7804    1.4082 
 H                    -3.0199   -0.2042    1.9702 
 C                    -2.0819   -0.2027   -0.0107 
 O                    -2.2958   -0.3942   -1.194 
 N                    -1.0977    0.667     0.4444 
 H                    -0.9011    0.6051    1.438 
 C                     0.0721    0.9796   -0.3814 
 H                    -0.3056    1.0199   -1.4067 
 C                     0.6429    2.3448    0.0081 
 H                     0.9415    2.3853    1.0648 
 H                     1.5132    2.6005   -0.6063 
 H                    -0.1182    3.116    -0.1406 
 C                     1.0569   -0.2195   -0.3785 
 O                     0.787    -1.2581   -0.9638 
 N                     2.1865   -0.0689    0.3829 
 H                     2.402     0.8409    0.7615 
 C                     3.2013   -1.1054    0.4734 
 H                     2.7733   -2.0171    0.0549 
 H                     4.102    -0.8435   -0.0963 
 H                     3.4827   -1.2802    1.5177 
 
                          Input orientation:                          
 ---------------------------------------------------------------------
 Center     Atomic      Atomic             Coordinates (Angstroms)
 Number     Number       Type             X           Y           Z
 ---------------------------------------------------------------------
      1          1           0       -3.893900   -1.097200    0.693200
      2          6           0       -2.908600   -0.849000    1.091400
      3          1           0       -2.423200   -1.780400    1.408200
      4          1           0       -3.019900   -0.204200    1.970200
      5          6           0       -2.081900   -0.202700   -0.010700
      6          8           0       -2.295800   -0.394200   -1.194000
      7          7           0       -1.097700    0.667000    0.444400
      8          1           0       -0.901100    0.605100    1.438000
      9          6           0        0.072100    0.979600   -0.381400
     10          1           0       -0.305600    1.019900   -1.406700
     11          6           0        0.642900    2.344800    0.008100
     12          1           0        0.941500    2.385300    1.064800
     13          1           0        1.513200    2.600500   -0.606300
     14          1           0       -0.118200    3.116000   -0.140600
     15          6           0        1.056900   -0.219500   -0.378500
     16          8           0        0.787000   -1.258100   -0.963800
     17          7           0        2.186500   -0.068900    0.382900
     18          1           0        2.402000    0.840900    0.761500
     19          6           0        3.201300   -1.105400    0.473400
     20          1           0        2.773300   -2.017100    0.054900
     21          1           0        4.102000   -0.843500   -0.096300
     22          1           0        3.482700   -1.280200    1.517700
 ---------------------------------------------------------------------
                    Distance matrix (angstroms):
                    1          2          3          4          5
     1  H    0.000000
     2  C    1.091321   0.000000
     3  H    1.772271   1.097033   0.000000
     4  H    1.786632   1.095648   1.776598   0.000000
     5  C    2.139848   1.521762   2.149163   2.191760   0.000000
     6  O    2.570925   2.409444   2.951140   3.251551   1.217631
     7  N    3.315575   2.448719   2.945442   2.604210   1.390016
     8  H    3.522698   2.502917   2.829892   2.329703   2.036065
     9  C    4.604022   3.794402   4.128776   4.061018   2.484948
    10  H    4.665575   4.063115   4.499952   4.502144   2.568815
    11  C    5.735789   4.897658   5.327150   4.874766   3.730234
    12  H    5.970510   5.028387   5.365835   4.818501   4.122547
    13  H    6.678205   5.859484   6.224608   5.920616   4.597544
    14  H    5.718583   5.002537   5.629080   4.888667   3.858337
    15  C    5.140945   4.275753   4.211864   4.704989   3.160320
    16  O    4.968135   4.248373   4.025489   4.920523   3.202008
    17  N    6.174541   5.202939   5.022928   5.444670   4.288597
    18  H    6.587811   5.582747   5.529194   5.652450   4.668057
    19  C    7.098608   6.146425   5.741470   6.461881   5.381582
    20  H    6.760562   5.892604   5.375040   6.365230   5.183562
    21  H    8.038787   7.110497   6.761622   7.443157   6.217602
    22  H    7.424791   6.419999   5.928056   6.606538   5.870416
                    6          7          8          9         10
     6  O    0.000000
     7  N    2.290402   0.000000
     8  H    3.141849   1.014753   0.000000
     9  C    2.855625   1.465639   2.097042   0.000000
    10  H    2.450677   2.044146   2.935813   1.093399   0.000000
    11  C    4.193223   2.456636   2.730404   1.530129   2.157932
    12  H    4.827827   2.737844   2.589124   2.196211   3.086728
    13  H    4.880789   3.414556   3.740271   2.180520   2.539088
    14  H    4.262992   2.701712   3.067496   2.158334   2.455965
    15  C    3.454874   2.470900   2.795246   1.551670   2.109434
    16  O    3.209824   3.039923   3.477045   2.420242   2.564999
    17  N    4.762714   3.366200   3.331784   2.480765   3.255567
    18  H    5.236294   3.518337   3.379900   2.598825   3.473360
    19  C    5.788276   4.650123   4.548181   3.856138   4.511100
    20  H    5.467114   4.726600   4.721241   4.057961   4.565005
    21  H    6.506816   5.441585   5.429874   4.432276   4.961486
    22  H    6.444329   5.091525   4.772673   4.510595   5.309783
                   11         12         13         14         15
    11  C    0.000000
    12  H    1.098825   0.000000
    13  H    1.095578   1.779249   0.000000
    14  H    1.093679   1.763484   1.773156   0.000000
    15  C    2.626117   2.980170   2.865746   3.544435   0.000000
    16  O    3.734467   4.172943   3.942584   4.542004   1.222339
    17  N    2.889485   2.835156   2.925328   3.966016   1.370550
    18  H    2.433877   2.147143   2.399382   3.513015   2.057509
    19  C    4.320393   4.200171   4.212971   5.405210   2.471640
    20  H    4.854582   4.874066   4.831901   5.894719   2.522941
    21  H    4.705479   4.664983   4.338562   5.787028   3.121161
    22  H    4.846027   4.483158   4.842534   5.919714   3.256557
                   16         17         18         19         20
    16  O    0.000000
    17  N    2.277366   0.000000
    18  H    3.160805   1.008719   0.000000
    19  C    2.813842   1.453390   2.123668   0.000000
    20  H    2.357799   2.060922   2.967374   1.090653   0.000000
    21  H    3.451619   2.121032   2.542248   1.097456   1.779225
    22  H    3.664032   2.105980   2.497762   1.095584   1.784952
                   21         22
    21  H    0.000000
    22  H    1.783041   0.000000
 Stoichiometry    C6H12N2O2
 Framework group  C1[X(C6H12N2O2)]
 Deg. of freedom    60
 Full point group                 C1      NOp   1
 Largest Abelian subgroup         C1      NOp   1
 Largest concise Abelian subgroup C1      NOp   1
                         Standard orientation:                         
 ---------------------------------------------------------------------
 Center     Atomic      Atomic             Coordinates (Angstroms)
 Number     Number       Type             X           Y           Z
 ---------------------------------------------------------------------
      1          1           0       -3.893893   -1.097235    0.693186
      2          6           0       -2.908595   -0.849027    1.091386
      3          1           0       -2.423188   -1.780423    1.408186
      4          1           0       -3.019901   -0.204228    1.970186
      5          6           0       -2.081901   -0.202720   -0.010714
      6          8           0       -2.295799   -0.394222   -1.194014
      7          7           0       -1.097708    0.666988    0.444386
      8          1           0       -0.901108    0.605090    1.437986
      9          6           0        0.072089    0.979598   -0.381414
     10          1           0       -0.305611    1.019895   -1.406714
     11          6           0        0.642878    2.344803    0.008086
     12          1           0        0.941477    2.385305    1.064786
     13          1           0        1.513176    2.600510   -0.606314
     14          1           0       -0.118229    3.115996   -0.140614
     15          6           0        1.056899   -0.219494   -0.378514
     16          8           0        0.787008   -1.258096   -0.963814
     17          7           0        2.186498   -0.068884    0.382886
     18          1           0        2.401990    0.840918    0.761486
     19          6           0        3.201307   -1.105376    0.473386
     20          1           0        2.773314   -2.017079    0.054886
     21          1           0        4.102004   -0.843468   -0.096314
     22          1           0        3.482708   -1.280173    1.517686
 ---------------------------------------------------------------------
 Rotational constants (GHZ):      2.0316905      0.8054985      0.7002648
 Standard basis: Aug-CC-pVDZ (5D, 7F)
 There are   338 symmetry adapted basis functions of A   symmetry.
 Integral buffers will be    131072 words long.
 Raffenetti 1 integral format.
 Two-electron integral symmetry is turned on.
   338 basis functions,   562 primitive gaussians,   358 cartesian basis functions
    39 alpha electrons       39 beta electrons
       nuclear repulsion energy       555.5179678781 Hartrees.
 NAtoms=   22 NActive=   22 NUniq=   22 SFac= 7.50D-01 NAtFMM=   80 NAOKFM=F Big=F
 One-electron integrals computed using PRISM.
 NBasis=   338 RedAO= T  NBF=   338
 NBsUse=   338 1.00D-06 NBFU=   338
 Harris functional with IExCor=  205 diagonalized for initial guess.
 ExpMin= 2.97D-02 ExpMax= 1.17D+04 ExpMxC= 4.01D+02 IAcc=3 IRadAn=         0 AccDes= 0.00D+00
 HarFok:  IExCor=  205 AccDes= 0.00D+00 IRadAn=         0 IDoV= 1
 ScaDFX=  1.000000  1.000000  1.000000  1.000000
 FoFCou: FMM=F IPFlag=           0 FMFlag=      100000 FMFlg1=           0
         NFxFlg=           0 DoJE=T BraDBF=F KetDBF=T FulRan=T
         Omega=  0.000000  0.000000  1.000000  0.000000  0.000000 ICntrl=     500 IOpCl=  0
         NMat0=    1 NMatS0=    1 NMatT0=    0 NMatD0=    1 NMtDS0=    0 NMtDT0=    0
         I1Cent=           4 NGrid=           0.
 Petite list used in FoFCou.
 Initial guess orbital symmetries:
       Occupied  (A) (A) (A) (A) (A) (A) (A) (A) (A) (A) (A) (A)
                 (A) (A) (A) (A) (A) (A) (A) (A) (A) (A) (A) (A)
                 (A) (A) (A) (A) (A) (A) (A) (A) (A) (A) (A) (A)
                 (A) (A) (A)
       Virtual   (A) (A) (A) (A) (A) (A) (A) (A) (A) (A) (A) (A)
                 (A) (A) (A) (A) (A) (A) (A) (A) (A) (A) (A) (A)
                 (A) (A) (A) (A) (A) (A) (A) (A) (A) (A) (A) (A)
                 (A) (A) (A) (A) (A) (A) (A) (A) (A) (A) (A) (A)
                 (A) (A) (A) (A) (A) (A) (A) (A) (A) (A) (A) (A)
                 (A) (A) (A) (A) (A) (A) (A) (A) (A) (A) (A) (A)
                 (A) (A) (A) (A) (A) (A) (A) (A) (A) (A) (A) (A)
                 (A) (A) (A) (A) (A) (A) (A) (A) (A) (A) (A) (A)
                 (A) (A) (A) (A) (A) (A) (A) (A) (A) (A) (A) (A)
                 (A) (A) (A) (A) (A) (A) (A) (A) (A) (A) (A) (A)
                 (A) (A) (A) (A) (A) (A) (A) (A) (A) (A) (A) (A)
                 (A) (A) (A) (A) (A) (A) (A) (A) (A) (A) (A) (A)
                 (A) (A) (A) (A) (A) (A) (A) (A) (A) (A) (A) (A)
                 (A) (A) (A) (A) (A) (A) (A) (A) (A) (A) (A) (A)
                 (A) (A) (A) (A) (A) (A) (A) (A) (A) (A) (A) (A)
                 (A) (A) (A) (A) (A) (A) (A) (A) (A) (A) (A) (A)
                 (A) (A) (A) (A) (A) (A) (A) (A) (A) (A) (A) (A)
                 (A) (A) (A) (A) (A) (A) (A) (A) (A) (A) (A) (A)
                 (A) (A) (A) (A) (A) (A) (A) (A) (A) (A) (A) (A)
                 (A) (A) (A) (A) (A) (A) (A) (A) (A) (A) (A) (A)
                 (A) (A) (A) (A) (A) (A) (A) (A) (A) (A) (A) (A)
                 (A) (A) (A) (A) (A) (A) (A) (A) (A) (A) (A) (A)
                 (A) (A) (A) (A) (A) (A) (A) (A) (A) (A) (A) (A)
                 (A) (A) (A) (A) (A) (A) (A) (A) (A) (A) (A) (A)
                 (A) (A) (A) (A) (A) (A) (A) (A) (A) (A) (A)
 The electronic state of the initial guess is 1-A.
 Requested convergence on RMS density matrix=1.00D-08 within 128 cycles.
 Requested convergence on MAX density matrix=1.00D-06.
 Requested convergence on             energy=1.00D-06.
 No special actions if energy rises.
 Initial convergence to 1.0D-05 achieved.  Increase integral accuracy.
 SCF Done:  E(RHF) =  -492.913123392     A.U. after   14 cycles
             Convg  =    0.8508D-08             -V/T =  2.0017
 ExpMin= 2.97D-02 ExpMax= 1.17D+04 ExpMxC= 4.01D+02 IAcc=3 IRadAn=         5 AccDes= 0.00D+00
 HarFok:  IExCor=  205 AccDes= 0.00D+00 IRadAn=         5 IDoV=-2
 ScaDFX=  1.000000  1.000000  1.000000  1.000000
 Range of M.O.s used for correlation:    11   338
 NBasis=   338 NAE=    39 NBE=    39 NFC=    10 NFV=     0
 NROrb=    328 NOA=    29 NOB=    29 NVA=   299 NVB=   299

 **** Warning!!: The largest alpha MO coefficient is  0.59011866D+02

 Disk-based method using OVN memory for 29 occupieds at a time.
 Estimated scratch disk usage=  1384043651 words.
 Actual    scratch disk usage=  1370874756 words.
 JobTyp=1 Pass  1:  I=   1 to  29 NPSUse=  8 ParTrn=T ParDer=T DoDerP=F.
 Spin components of T(2) and E(2):
     alpha-alpha T2 =       0.6804619021D-01 E2=     -0.2057948404D+00
     alpha-beta  T2 =       0.3776347032D+00 E2=     -0.1191107909D+01
     beta-beta   T2 =       0.6804619021D-01 E2=     -0.2057948404D+00
 ANorm=    0.1230336167D+01
 E2 =    -0.1602697590D+01 EUMP2 =    -0.49451582098233D+03

 **********************************************************************

            Population analysis using the SCF density.

 **********************************************************************

 Orbital symmetries:
       Occupied  (A) (A) (A) (A) (A) (A) (A) (A) (A) (A) (A) (A)
                 (A) (A) (A) (A) (A) (A) (A) (A) (A) (A) (A) (A)
                 (A) (A) (A) (A) (A) (A) (A) (A) (A) (A) (A) (A)
                 (A) (A) (A)
       Virtual   (A) (A) (A) (A) (A) (A) (A) (A) (A) (A) (A) (A)
                 (A) (A) (A) (A) (A) (A) (A) (A) (A) (A) (A) (A)
                 (A) (A) (A) (A) (A) (A) (A) (A) (A) (A) (A) (A)
                 (A) (A) (A) (A) (A) (A) (A) (A) (A) (A) (A) (A)
                 (A) (A) (A) (A) (A) (A) (A) (A) (A) (A) (A) (A)
                 (A) (A) (A) (A) (A) (A) (A) (A) (A) (A) (A) (A)
                 (A) (A) (A) (A) (A) (A) (A) (A) (A) (A) (A) (A)
                 (A) (A) (A) (A) (A) (A) (A) (A) (A) (A) (A) (A)
                 (A) (A) (A) (A) (A) (A) (A) (A) (A) (A) (A) (A)
                 (A) (A) (A) (A) (A) (A) (A) (A) (A) (A) (A) (A)
                 (A) (A) (A) (A) (A) (A) (A) (A) (A) (A) (A) (A)
                 (A) (A) (A) (A) (A) (A) (A) (A) (A) (A) (A) (A)
                 (A) (A) (A) (A) (A) (A) (A) (A) (A) (A) (A) (A)
                 (A) (A) (A) (A) (A) (A) (A) (A) (A) (A) (A) (A)
                 (A) (A) (A) (A) (A) (A) (A) (A) (A) (A) (A) (A)
                 (A) (A) (A) (A) (A) (A) (A) (A) (A) (A) (A) (A)
                 (A) (A) (A) (A) (A) (A) (A) (A) (A) (A) (A) (A)
                 (A) (A) (A) (A) (A) (A) (A) (A) (A) (A) (A) (A)
                 (A) (A) (A) (A) (A) (A) (A) (A) (A) (A) (A) (A)
                 (A) (A) (A) (A) (A) (A) (A) (A) (A) (A) (A) (A)
                 (A) (A) (A) (A) (A) (A) (A) (A) (A) (A) (A) (A)
                 (A) (A) (A) (A) (A) (A) (A) (A) (A) (A) (A) (A)
                 (A) (A) (A) (A) (A) (A) (A) (A) (A) (A) (A) (A)
                 (A) (A) (A) (A) (A) (A) (A) (A) (A) (A) (A) (A)
                 (A) (A) (A) (A) (A) (A) (A) (A) (A) (A) (A)
 The electronic state is 1-A.
 Alpha  occ. eigenvalues --  -20.52872 -20.52805 -15.60026 -15.59635 -11.35987
 Alpha  occ. eigenvalues --  -11.35831 -11.29305 -11.27098 -11.25250 -11.24380
 Alpha  occ. eigenvalues --   -1.38785  -1.37808  -1.24065  -1.23020  -1.05730
 Alpha  occ. eigenvalues --   -0.99162  -0.95780  -0.88687  -0.79409  -0.78833
 Alpha  occ. eigenvalues --   -0.72481  -0.67189  -0.65741  -0.64692  -0.62457
 Alpha  occ. eigenvalues --   -0.61297  -0.59124  -0.58649  -0.57467  -0.56518
 Alpha  occ. eigenvalues --   -0.55075  -0.54788  -0.52797  -0.50833  -0.50648
 Alpha  occ. eigenvalues --   -0.44479  -0.42073  -0.39501  -0.38386
 Alpha virt. eigenvalues --    0.02299   0.03623   0.03874   0.04588   0.05480
 Alpha virt. eigenvalues --    0.05910   0.06218   0.06635   0.07423   0.07959
 Alpha virt. eigenvalues --    0.08728   0.09192   0.11308   0.11687   0.12641
 Alpha virt. eigenvalues --    0.13285   0.14353   0.14658   0.14794   0.15103
 Alpha virt. eigenvalues --    0.15711   0.16085   0.16404   0.16538   0.17232
 Alpha virt. eigenvalues --    0.17753   0.17973   0.18206   0.18750   0.18932
 Alpha virt. eigenvalues --    0.19722   0.19997   0.20949   0.21458   0.21743
 Alpha virt. eigenvalues --    0.22599   0.24213   0.24663   0.25169   0.26836
 Alpha virt. eigenvalues --    0.27264   0.27964   0.28115   0.29320   0.29752
 Alpha virt. eigenvalues --    0.30557   0.31309   0.32803   0.33626   0.33777
 Alpha virt. eigenvalues --    0.34285   0.35213   0.35648   0.36156   0.37593
 Alpha virt. eigenvalues --    0.37873   0.38458   0.38967   0.39088   0.40358
 Alpha virt. eigenvalues --    0.40652   0.41073   0.41984   0.42074   0.43055
 Alpha virt. eigenvalues --    0.43162   0.43934   0.44150   0.45259   0.45605
 Alpha virt. eigenvalues --    0.46194   0.46473   0.47034   0.48668   0.49379
 Alpha virt. eigenvalues --    0.49640   0.49966   0.51070   0.51862   0.52278
 Alpha virt. eigenvalues --    0.53208   0.53629   0.53905   0.55111   0.55458
 Alpha virt. eigenvalues --    0.56125   0.56623   0.57252   0.57837   0.58337
 Alpha virt. eigenvalues --    0.58628   0.59298   0.60743   0.61244   0.62432
 Alpha virt. eigenvalues --    0.62812   0.63075   0.63766   0.64400   0.64970
 Alpha virt. eigenvalues --    0.65862   0.66188   0.66967   0.67552   0.67998
 Alpha virt. eigenvalues --    0.68607   0.69794   0.70045   0.71174   0.71867
 Alpha virt. eigenvalues --    0.72783   0.73021   0.73978   0.74256   0.74533
 Alpha virt. eigenvalues --    0.75260   0.76140   0.77284   0.78071   0.79973
 Alpha virt. eigenvalues --    0.80045   0.80738   0.81017   0.82619   0.83495
 Alpha virt. eigenvalues --    0.84504   0.84968   0.86316   0.87204   0.87700
 Alpha virt. eigenvalues --    0.88515   0.88665   0.89768   0.91593   0.92545
 Alpha virt. eigenvalues --    0.93124   0.94899   0.96586   0.97747   0.98755
 Alpha virt. eigenvalues --    1.00831   1.01955   1.03727   1.04639   1.05697
 Alpha virt. eigenvalues --    1.06482   1.07386   1.09562   1.10422   1.11039
 Alpha virt. eigenvalues --    1.11763   1.13697   1.14665   1.14991   1.16545
 Alpha virt. eigenvalues --    1.16755   1.17711   1.19712   1.20437   1.22298
 Alpha virt. eigenvalues --    1.23251   1.24536   1.27129   1.27902   1.30504
 Alpha virt. eigenvalues --    1.31898   1.32992   1.34351   1.35061   1.37075
 Alpha virt. eigenvalues --    1.38241   1.43091   1.44766   1.45398   1.45847
 Alpha virt. eigenvalues --    1.48771   1.49146   1.51832   1.53441   1.54116
 Alpha virt. eigenvalues --    1.57188   1.58342   1.60185   1.61613   1.64118
 Alpha virt. eigenvalues --    1.67299   1.67526   1.68769   1.70720   1.72024
 Alpha virt. eigenvalues --    1.72375   1.74945   1.75360   1.79758   1.80607
 Alpha virt. eigenvalues --    1.81607   1.82909   1.84817   1.86069   1.88120
 Alpha virt. eigenvalues --    1.89988   1.90199   1.91750   1.92850   1.93195
 Alpha virt. eigenvalues --    1.94044   1.95070   1.97679   1.99138   2.00673
 Alpha virt. eigenvalues --    2.02327   2.04133   2.04353   2.06894   2.08052
 Alpha virt. eigenvalues --    2.09066   2.12763   2.15463   2.15789   2.17882
 Alpha virt. eigenvalues --    2.19854   2.20462   2.21396   2.23684   2.24892
 Alpha virt. eigenvalues --    2.25376   2.27211   2.28200   2.29177   2.30685
 Alpha virt. eigenvalues --    2.31432   2.31980   2.32669   2.35237   2.36772
 Alpha virt. eigenvalues --    2.38851   2.40302   2.42698   2.44476   2.44987
 Alpha virt. eigenvalues --    2.45326   2.47019   2.49001   2.49818   2.51640
 Alpha virt. eigenvalues --    2.52238   2.53182   2.57283   2.57564   2.60126
 Alpha virt. eigenvalues --    2.61414   2.64866   2.65597   2.68453   2.70307
 Alpha virt. eigenvalues --    2.71515   2.72882   2.74058   2.76162   2.79785
 Alpha virt. eigenvalues --    2.82084   2.84618   2.85963   2.86914   2.87484
 Alpha virt. eigenvalues --    2.89208   2.91412   2.92702   2.97066   2.98265
 Alpha virt. eigenvalues --    3.00156   3.01751   3.03800   3.05829   3.07242
 Alpha virt. eigenvalues --    3.08417   3.12207   3.13158   3.18302   3.20147
 Alpha virt. eigenvalues --    3.27252   3.32011   3.43098   3.49118   3.52957
 Alpha virt. eigenvalues --    3.62299   3.67071   3.73301   3.83475   3.85450
 Alpha virt. eigenvalues --    3.86072   3.89319   3.94011   3.98617   4.03348
 Alpha virt. eigenvalues --    4.05446   4.08121   4.23346   4.24104
          Condensed to atoms (all electrons):
              1          2          3          4          5          6
     1  H    0.819794   0.357270  -0.057481  -0.099288  -0.055035   0.029320
     2  C    0.357270   4.517426   0.363662   0.337375   0.237072  -0.033243
     3  H   -0.057481   0.363662   0.735112  -0.079685  -0.075337   0.015249
     4  H   -0.099288   0.337375  -0.079685   0.995291   0.089564  -0.010747
     5  C   -0.055035   0.237072  -0.075337   0.089564   5.198857   0.197514
     6  O    0.029320  -0.033243   0.015249  -0.010747   0.197514   8.689181
     7  N    0.037716   0.001725   0.031429  -0.146133   0.155363  -0.119598
     8  H   -0.005625  -0.054267  -0.002938   0.012616  -0.103881   0.002030
     9  C    0.005297  -0.045666   0.012014  -0.028406  -0.427943   0.089601
    10  H    0.001522   0.000749   0.000087  -0.003414   0.058712  -0.042774
    11  C    0.000602   0.001414   0.003947  -0.002118   0.014124  -0.036873
    12  H   -0.000142  -0.002855  -0.000294   0.000502  -0.017695  -0.002115
    13  H    0.000095  -0.000163   0.000066  -0.000765  -0.003630  -0.000800
    14  H    0.000112   0.006196   0.000552   0.001549   0.020687   0.001374
    15  C   -0.004108   0.013113  -0.006760  -0.006061  -0.055443   0.057716
    16  O   -0.000002  -0.007194   0.000112  -0.000125   0.017594  -0.015396
    17  N    0.000386  -0.002213   0.000907   0.000332   0.036592  -0.007768
    18  H   -0.000122   0.001434   0.000249  -0.000090  -0.006710   0.000798
    19  C   -0.000143  -0.001944  -0.000731   0.000217   0.003671  -0.000735
    20  H   -0.000011  -0.000136  -0.000093   0.000201   0.001562  -0.000277
    21  H    0.000007   0.000050   0.000032  -0.000041   0.000818   0.000018
    22  H    0.000001   0.000187  -0.000266   0.000043  -0.001705   0.000143
              7          8          9         10         11         12
     1  H    0.037716  -0.005625   0.005297   0.001522   0.000602  -0.000142
     2  C    0.001725  -0.054267  -0.045666   0.000749   0.001414  -0.002855
     3  H    0.031429  -0.002938   0.012014   0.000087   0.003947  -0.000294
     4  H   -0.146133   0.012616  -0.028406  -0.003414  -0.002118   0.000502
     5  C    0.155363  -0.103881  -0.427943   0.058712   0.014124  -0.017695
     6  O   -0.119598   0.002030   0.089601  -0.042774  -0.036873  -0.002115
     7  N    7.477502   0.263301  -0.382130   0.114794  -0.018432  -0.040101
     8  H    0.263301   0.968103   0.104341  -0.012597  -0.033662   0.001687
     9  C   -0.382130   0.104341   7.537328  -0.361056   0.086555  -0.057895
    10  H    0.114794  -0.012597  -0.361056   1.331397  -0.018005   0.052422
    11  C   -0.018432  -0.033662   0.086555  -0.018005   4.451100   0.413660
    12  H   -0.040101   0.001687  -0.057895   0.052422   0.413660   1.061657
    13  H    0.090659   0.004123  -0.136500  -0.057739   0.286992  -0.164782
    14  H   -0.087003  -0.005771   0.172193  -0.044821   0.203670  -0.257057
    15  C    0.063451  -0.103552  -0.219754  -0.021690  -0.143628  -0.046820
    16  O    0.001388   0.002900  -0.016254   0.048212   0.021514   0.004960
    17  N    0.068817   0.017529  -0.253421   0.068042   0.042894   0.008411
    18  H   -0.008867   0.001070   0.011445  -0.004222   0.001343   0.022148
    19  C    0.015135   0.000179  -0.045078   0.008546  -0.023452  -0.003509
    20  H    0.000971  -0.002651  -0.026208   0.001845  -0.002215   0.001847
    21  H    0.001038   0.001155  -0.018977  -0.002795   0.005207  -0.002870
    22  H   -0.005049  -0.001152   0.033746   0.001171  -0.002351  -0.001017
             13         14         15         16         17         18
     1  H    0.000095   0.000112  -0.004108  -0.000002   0.000386  -0.000122
     2  C   -0.000163   0.006196   0.013113  -0.007194  -0.002213   0.001434
     3  H    0.000066   0.000552  -0.006760   0.000112   0.000907   0.000249
     4  H   -0.000765   0.001549  -0.006061  -0.000125   0.000332  -0.000090
     5  C   -0.003630   0.020687  -0.055443   0.017594   0.036592  -0.006710
     6  O   -0.000800   0.001374   0.057716  -0.015396  -0.007768   0.000798
     7  N    0.090659  -0.087003   0.063451   0.001388   0.068817  -0.008867
     8  H    0.004123  -0.005771  -0.103552   0.002900   0.017529   0.001070
     9  C   -0.136500   0.172193  -0.219754  -0.016254  -0.253421   0.011445
    10  H   -0.057739  -0.044821  -0.021690   0.048212   0.068042  -0.004222
    11  C    0.286992   0.203670  -0.143628   0.021514   0.042894   0.001343
    12  H   -0.164782  -0.257057  -0.046820   0.004960   0.008411   0.022148
    13  H    1.183138  -0.179144  -0.018673  -0.004575   0.019090   0.001870
    14  H   -0.179144   1.265232   0.067095  -0.000898  -0.026436   0.001001
    15  C   -0.018673   0.067095   5.188161   0.218892   0.150853  -0.080506
    16  O   -0.004575  -0.000898   0.218892   8.738965  -0.157368   0.018860
    17  N    0.019090  -0.026436   0.150853  -0.157368   7.169586   0.277898
    18  H    0.001870   0.001001  -0.080506   0.018860   0.277898   1.029993
    19  C    0.000392   0.001137  -0.078373  -0.022564   0.243820  -0.135805
    20  H   -0.000888   0.000231   0.016355  -0.015645  -0.038172  -0.003772
    21  H    0.000603   0.000843   0.018178   0.003975   0.011044  -0.006688
    22  H   -0.000776   0.000695  -0.038303   0.011650  -0.096282   0.010830
             19         20         21         22
     1  H   -0.000143  -0.000011   0.000007   0.000001
     2  C   -0.001944  -0.000136   0.000050   0.000187
     3  H   -0.000731  -0.000093   0.000032  -0.000266
     4  H    0.000217   0.000201  -0.000041   0.000043
     5  C    0.003671   0.001562   0.000818  -0.001705
     6  O   -0.000735  -0.000277   0.000018   0.000143
     7  N    0.015135   0.000971   0.001038  -0.005049
     8  H    0.000179  -0.002651   0.001155  -0.001152
     9  C   -0.045078  -0.026208  -0.018977   0.033746
    10  H    0.008546   0.001845  -0.002795   0.001171
    11  C   -0.023452  -0.002215   0.005207  -0.002351
    12  H   -0.003509   0.001847  -0.002870  -0.001017
    13  H    0.000392  -0.000888   0.000603  -0.000776
    14  H    0.001137   0.000231   0.000843   0.000695
    15  C   -0.078373   0.016355   0.018178  -0.038303
    16  O   -0.022564  -0.015645   0.003975   0.011650
    17  N    0.243820  -0.038172   0.011044  -0.096282
    18  H   -0.135805  -0.003772  -0.006688   0.010830
    19  C    4.121214   0.490988   0.299336   0.355741
    20  H    0.490988   0.973207  -0.106426  -0.143255
    21  H    0.299336  -0.106426   1.037490  -0.153346
    22  H    0.355741  -0.143255  -0.153346   1.158136
 Mulliken atomic charges:
              1
     1  H   -0.030162
     2  C    0.310009
     3  H    0.060168
     4  H   -0.060817
     5  C    0.715249
     6  O   -0.812619
     7  N   -0.515977
     8  H   -0.052939
     9  C   -0.033234
    10  H   -0.118386
    11  C    0.747715
    12  H    0.029859
    13  H   -0.018591
    14  H   -0.141438
    15  C    1.029858
    16  O   -0.849002
    17  N   -0.534543
    18  H   -0.132159
    19  C    0.771959
    20  H   -0.147459
    21  H   -0.088650
    22  H   -0.128841
 Sum of Mulliken atomic charges =   0.00000
 Mulliken charges with hydrogens summed into heavy atoms:
              1
     2  C    0.279197
     5  C    0.715249
     6  O   -0.812619
     7  N   -0.568916
     9  C   -0.151620
    11  C    0.617545
    15  C    1.029858
    16  O   -0.849002
    17  N   -0.666701
    19  C    0.407010
 Sum of Mulliken charges with hydrogens summed into heavy atoms =   0.00000
 Electronic spatial extent (au):  <R**2>=           1786.2557
 Charge=              0.0000 electrons
 Dipole moment (field-independent basis, Debye):
    X=              3.0375    Y=              3.2302    Z=              5.3237  Tot=              6.9284
 Quadrupole moment (field-independent basis, Debye-Ang):
   XX=            -56.0435   YY=            -61.3391   ZZ=            -63.5415
   XY=              2.2361   XZ=             -5.6694   YZ=             -4.9433
 Traceless Quadrupole moment (field-independent basis, Debye-Ang):
   XX=              4.2645   YY=             -1.0310   ZZ=             -3.2335
   XY=              2.2361   XZ=             -5.6694   YZ=             -4.9433
 Octapole moment (field-independent basis, Debye-Ang**2):
  XXX=             23.5163  YYY=              1.2898  ZZZ=              6.8846  XYY=              2.4456
  XXY=             -5.4455  XXZ=             23.2556  XZZ=              5.7803  YZZ=              6.2181
  YYZ=              3.3800  XYZ=              2.9935
 Hexadecapole moment (field-independent basis, Debye-Ang**3):
 XXXX=          -1447.8586 YYYY=           -545.4306 ZZZZ=           -266.0816 XXXY=             -0.8116
 XXXZ=            -29.5961 YYYX=              1.7397 YYYZ=             -7.4249 ZZZX=             -4.6734
 ZZZY=              1.0289 XXYY=           -336.0111 XXZZ=           -314.0218 YYZZ=           -139.2047
 XXYZ=             -9.8939 YYXZ=              4.8320 ZZXY=             -1.4731
 N-N= 5.555179678781D+02 E-N=-2.266343181071D+03  KE= 4.920542354080D+02
 1\1\GINC-NODE007\SP\RMP2-FC\Aug-CC-pVDZ\C6H12N2O2\MANAGER\13-Feb-2017\
 0\\#SP MP2/aug-cc-pVDZ\\Single Point calculation at MP2\\0,1\H,0,-3.89
 39,-1.0972,0.6932\C,0,-2.9086,-0.849,1.0914\H,0,-2.4232,-1.7804,1.4082
 \H,0,-3.0199,-0.2042,1.9702\C,0,-2.0819,-0.2027,-0.0107\O,0,-2.2958,-0
 .3942,-1.194\N,0,-1.0977,0.667,0.4444\H,0,-0.9011,0.6051,1.438\C,0,0.0
 721,0.9796,-0.3814\H,0,-0.3056,1.0199,-1.4067\C,0,0.6429,2.3448,0.0081
 \H,0,0.9415,2.3853,1.0648\H,0,1.5132,2.6005,-0.6063\H,0,-0.1182,3.116,
 -0.1406\C,0,1.0569,-0.2195,-0.3785\O,0,0.787,-1.2581,-0.9638\N,0,2.186
 5,-0.0689,0.3829\H,0,2.402,0.8409,0.7615\C,0,3.2013,-1.1054,0.4734\H,0
 ,2.7733,-2.0171,0.0549\H,0,4.102,-0.8435,-0.0963\H,0,3.4827,-1.2802,1.
 5177\\Version=EM64L-G09RevA.02\State=1-A\HF=-492.9131234\MP2=-494.5158
 21\RMSD=8.508e-09\PG=C01 [X(C6H12N2O2)]\\@


 IN THE LONG RUN, DIGGING FOR TRUTH HAS ALWAYS PROVED NOT ONLY 
 MORE INTERESTING BUT MORE PROFITABLE THAN DIGGING FOR GOLD.

                             -- GEORGE R. HARRISON
 Job cpu time:  0 days 17 hours 57 minutes 36.3 seconds.
 File lengths (MBytes):  RWF=  10575 Int=      0 D2E=      0 Chk=      7 Scr=      2
 Normal termination of Gaussian 09 at Mon Feb 13 14:08:19 2017.
