 Entering Gaussian System, Link 0=g09
 Initial command:
 /home/steboss/Software/g09/l1.exe /home/steboss/projects/phi_psi_scan/alanine/MP2/285/5492/Gau-11984.inp -scrdir=/home/steboss/projects/phi_psi_scan/alanine/MP2/285/5492/
 Entering Link 1 = /home/steboss/Software/g09/l1.exe PID=     11986.
  
 Copyright (c) 1988,1990,1992,1993,1995,1998,2003,2009, Gaussian, Inc.
                  All Rights Reserved.
  
 This is part of the Gaussian(R) 09 program.  It is based on
 the Gaussian(R) 03 system (copyright 2003, Gaussian, Inc.),
 the Gaussian(R) 98 system (copyright 1998, Gaussian, Inc.),
 the Gaussian(R) 94 system (copyright 1995, Gaussian, Inc.),
 the Gaussian 92(TM) system (copyright 1992, Gaussian, Inc.),
 the Gaussian 90(TM) system (copyright 1990, Gaussian, Inc.),
 the Gaussian 88(TM) system (copyright 1988, Gaussian, Inc.),
 the Gaussian 86(TM) system (copyright 1986, Carnegie Mellon
 University), and the Gaussian 82(TM) system (copyright 1983,
 Carnegie Mellon University). Gaussian is a federally registered
 trademark of Gaussian, Inc.
  
 This software contains proprietary and confidential information,
 including trade secrets, belonging to Gaussian, Inc.
  
 This software is provided under written license and may be
 used, copied, transmitted, or stored only in accord with that
 written license.
  
 The following legend is applicable only to US Government
 contracts under FAR:
  
                    RESTRICTED RIGHTS LEGEND
  
 Use, reproduction and disclosure by the US Government is
 subject to restrictions as set forth in subparagraphs (a)
 and (c) of the Commercial Computer Software - Restricted
 Rights clause in FAR 52.227-19.
  
 Gaussian, Inc.
 340 Quinnipiac St., Bldg. 40, Wallingford CT 06492
  
  
 ---------------------------------------------------------------
 Warning -- This program may not be used in any manner that
 competes with the business of Gaussian, Inc. or will provide
 assistance to any competitor of Gaussian, Inc.  The licensee
 of this program is prohibited from giving any competitor of
 Gaussian, Inc. access to this program.  By using this program,
 the user acknowledges that Gaussian, Inc. is engaged in the
 business of creating and licensing software in the field of
 computational chemistry and represents and warrants to the
 licensee that it is not a competitor of Gaussian, Inc. and that
 it will not use this program in any manner prohibited above.
 ---------------------------------------------------------------
  

 Cite this work as:
 Gaussian 09, Revision A.02,
 M. J. Frisch, G. W. Trucks, H. B. Schlegel, G. E. Scuseria, 
 M. A. Robb, J. R. Cheeseman, G. Scalmani, V. Barone, B. Mennucci, 
 G. A. Petersson, H. Nakatsuji, M. Caricato, X. Li, H. P. Hratchian, 
 A. F. Izmaylov, J. Bloino, G. Zheng, J. L. Sonnenberg, M. Hada, 
 M. Ehara, K. Toyota, R. Fukuda, J. Hasegawa, M. Ishida, T. Nakajima, 
 Y. Honda, O. Kitao, H. Nakai, T. Vreven, J. A. Montgomery, Jr., 
 J. E. Peralta, F. Ogliaro, M. Bearpark, J. J. Heyd, E. Brothers, 
 K. N. Kudin, V. N. Staroverov, R. Kobayashi, J. Normand, 
 K. Raghavachari, A. Rendell, J. C. Burant, S. S. Iyengar, J. Tomasi, 
 M. Cossi, N. Rega, J. M. Millam, M. Klene, J. E. Knox, J. B. Cross, 
 V. Bakken, C. Adamo, J. Jaramillo, R. Gomperts, R. E. Stratmann, 
 O. Yazyev, A. J. Austin, R. Cammi, C. Pomelli, J. W. Ochterski, 
 R. L. Martin, K. Morokuma, V. G. Zakrzewski, G. A. Voth, 
 P. Salvador, J. J. Dannenberg, S. Dapprich, A. D. Daniels, 
 O. Farkas, J. B. Foresman, J. V. Ortiz, J. Cioslowski, 
 and D. J. Fox, Gaussian, Inc., Wallingford CT, 2009.
 
 ******************************************
 Gaussian 09:  EM64L-G09RevA.02 11-Jun-2009
                13-Feb-2017 
 ******************************************
 %chk=structure_105.chk
 %NProcShared=8
 Will use up to    8 processors via shared memory.
 -------------------
 #SP MP2/aug-cc-pVDZ
 -------------------
 1/38=1/1;
 2/12=2,17=6,18=5,40=1/2;
 3/5=16,7=10,11=9,16=1,25=1,30=1/1,2,3;
 4//1;
 5/5=2,38=5/2;
 8/10=1/1;
 9/16=-3/6;
 6/7=2,8=2,9=2,10=2/1;
 99/5=1,9=1/99;
 -------------------------------
 Single Point calculation at MP2
 -------------------------------
 Symbolic Z-matrix:
 Charge =  0 Multiplicity = 1
 H                    -3.8794   -1.081     0.0341 
 C                    -3.0718   -0.7979    0.7154 
 H                    -2.878    -1.6563    1.3669 
 H                    -3.4004    0.0469    1.3282 
 C                    -1.8248   -0.5074   -0.1019 
 O                    -1.3896   -1.3056   -0.9303 
 N                    -1.2312    0.705     0.1192 
 H                    -1.481     1.2291    0.9474 
 C                     0.0474    1.0272   -0.517 
 H                    -0.032     0.6913   -1.5541 
 C                     0.2992    2.5325   -0.462 
 H                     0.4442    2.8538    0.5742 
 H                     1.209     2.7847   -1.0157 
 H                    -0.5404    3.0792   -0.9032 
 C                     1.1869    0.2657    0.1975 
 O                     1.6273    0.6425    1.2785 
 N                     1.6715   -0.8021   -0.499 
 H                     1.033    -1.1967   -1.1812 
 C                     2.6596   -1.6917    0.0918 
 H                     3.3306   -1.0946    0.711 
 H                     2.199    -2.4617    0.7251 
 H                     3.2324   -2.1803   -0.7015 
 
                          Input orientation:                          
 ---------------------------------------------------------------------
 Center     Atomic      Atomic             Coordinates (Angstroms)
 Number     Number       Type             X           Y           Z
 ---------------------------------------------------------------------
      1          1           0       -3.879400   -1.081000    0.034100
      2          6           0       -3.071800   -0.797900    0.715400
      3          1           0       -2.878000   -1.656300    1.366900
      4          1           0       -3.400400    0.046900    1.328200
      5          6           0       -1.824800   -0.507400   -0.101900
      6          8           0       -1.389600   -1.305600   -0.930300
      7          7           0       -1.231200    0.705000    0.119200
      8          1           0       -1.481000    1.229100    0.947400
      9          6           0        0.047400    1.027200   -0.517000
     10          1           0       -0.032000    0.691300   -1.554100
     11          6           0        0.299200    2.532500   -0.462000
     12          1           0        0.444200    2.853800    0.574200
     13          1           0        1.209000    2.784700   -1.015700
     14          1           0       -0.540400    3.079200   -0.903200
     15          6           0        1.186900    0.265700    0.197500
     16          8           0        1.627300    0.642500    1.278500
     17          7           0        1.671500   -0.802100   -0.499000
     18          1           0        1.033000   -1.196700   -1.181200
     19          6           0        2.659600   -1.691700    0.091800
     20          1           0        3.330600   -1.094600    0.711000
     21          1           0        2.199000   -2.461700    0.725100
     22          1           0        3.232400   -2.180300   -0.701500
 ---------------------------------------------------------------------
                    Distance matrix (angstroms):
                    1          2          3          4          5
     1  H    0.000000
     2  C    1.093862   0.000000
     3  H    1.763555   1.094925   0.000000
     4  H    1.782216   1.094161   1.781934   0.000000
     5  C    2.137497   1.519006   2.141629   2.198852   0.000000
     6  O    2.679481   2.407464   2.759611   3.312612   1.229947
     7  N    3.195309   2.449892   3.137586   2.569086   1.367903
     8  H    3.452970   2.587121   3.233129   2.286198   2.057829
     9  C    4.490877   3.818273   4.394112   4.031510   2.456102
    10  H    4.523927   4.075381   4.705654   4.479846   2.599980
    11  C    5.546548   4.882773   5.566464   4.803131   3.725861
    12  H    5.870935   5.071204   5.657419   4.819559   4.111343
    13  H    6.475919   5.844397   6.488670   5.851152   4.569124
    14  H    5.416153   4.905075   5.748277   4.727958   3.893002
    15  C    5.244778   4.419954   4.645965   4.729659   3.123725
    16  O    5.902773   4.947057   5.058658   5.063100   3.891628
    17  N    5.583410   4.896292   4.990911   5.457438   3.531098
    18  H    5.061819   4.539330   4.690412   5.243917   3.131620
    19  C    6.567709   5.834098   5.682618   6.424563   4.642190
    20  H    7.241718   6.409273   6.268367   6.854949   5.252024
    21  H    6.271424   5.527174   5.180396   6.165232   4.549086
    22  H    7.233759   6.607690   6.472236   7.285200   5.360353
                    6          7          8          9         10
     6  O    0.000000
     7  N    2.273555   0.000000
     8  H    3.155759   1.011433   0.000000
     9  C    2.770874   1.464029   2.126320   0.000000
    10  H    2.493955   2.058689   2.940465   1.093028   0.000000
    11  C    4.219285   2.453502   2.618086   1.527205   2.166193
    12  H    4.788210   2.762486   2.546630   2.164402   3.071292
    13  H    4.846707   3.401136   3.675562   2.164907   2.492444
    14  H    4.466357   2.675693   2.780705   2.169185   2.526699
    15  C    3.221687   2.458927   2.933970   1.545591   2.175995
    16  O    4.216109   3.085272   3.180449   2.422375   3.283181
    17  N    3.132070   3.328542   4.019465   2.446296   2.499078
    18  H    2.437991   3.230186   4.090922   2.521567   2.199505
    19  C    4.194017   4.569819   5.138842   3.819246   3.953781
    20  H    5.001867   4.939515   5.348548   4.097490   4.430259
    21  H    4.117641   4.707587   5.216687   4.283062   4.484810
    22  H    4.709600   5.377939   6.046405   4.523972   4.430499
                   11         12         13         14         15
    11  C    0.000000
    12  H    1.094518   0.000000
    13  H    1.094497   1.765638   0.000000
    14  H    1.094745   1.789680   1.777579   0.000000
    15  C    2.522168   2.718781   2.796016   3.480070   0.000000
    16  O    2.892281   2.604921   3.166599   3.923805   1.226577
    17  N    3.606124   4.002952   3.653220   4.485573   1.363872
    18  H    3.868158   4.453613   3.988723   4.564668   2.015716
    19  C    4.870529   5.079594   4.834145   5.830224   2.451822
    20  H    4.870438   4.892840   4.746751   5.917000   2.590280
    21  H    5.473617   5.599699   5.615621   6.391967   2.956589
    22  H    5.556213   5.894373   5.370670   6.475882   3.312882
                   16         17         18         19         20
    16  O    0.000000
    17  N    2.290923   0.000000
    18  H    3.128254   1.014292   0.000000
    19  C    2.814674   1.454914   2.124001   0.000000
    20  H    2.498160   2.074191   2.978223   1.090953   0.000000
    21  H    3.204551   2.128603   2.567832   1.098236   1.774734
    22  H    3.803281   2.092092   2.456612   1.093689   1.784249
                   21         22
    21  H    0.000000
    22  H    1.783897   0.000000
 Stoichiometry    C6H12N2O2
 Framework group  C1[X(C6H12N2O2)]
 Deg. of freedom    60
 Full point group                 C1      NOp   1
 Largest Abelian subgroup         C1      NOp   1
 Largest concise Abelian subgroup C1      NOp   1
                         Standard orientation:                         
 ---------------------------------------------------------------------
 Center     Atomic      Atomic             Coordinates (Angstroms)
 Number     Number       Type             X           Y           Z
 ---------------------------------------------------------------------
      1          1           0       -3.879398   -1.080998    0.034087
      2          6           0       -3.071797   -0.797900    0.715387
      3          1           0       -2.877998   -1.656300    1.366887
      4          1           0       -3.400396    0.046901    1.328187
      5          6           0       -1.824797   -0.507401   -0.101913
      6          8           0       -1.389598   -1.305602   -0.930313
      7          7           0       -1.231195    0.704998    0.119187
      8          1           0       -1.480994    1.229098    0.947387
      9          6           0        0.047405    1.027196   -0.517013
     10          1           0       -0.031995    0.691296   -1.554113
     11          6           0        0.299207    2.532496   -0.462013
     12          1           0        0.444208    2.853796    0.574187
     13          1           0        1.209008    2.784694   -1.015713
     14          1           0       -0.540392    3.079197   -0.903213
     15          6           0        1.186904    0.265694    0.197487
     16          8           0        1.627305    0.642494    1.278487
     17          7           0        1.671503   -0.802106   -0.499013
     18          1           0        1.033002   -1.196705   -1.181213
     19          6           0        2.659601   -1.691708    0.091787
     20          1           0        3.330602   -1.094609    0.710987
     21          1           0        2.199000   -2.461707    0.725087
     22          1           0        3.232401   -2.180308   -0.701513
 ---------------------------------------------------------------------
 Rotational constants (GHZ):      1.6938233      0.9623606      0.7350368
 Standard basis: Aug-CC-pVDZ (5D, 7F)
 There are   338 symmetry adapted basis functions of A   symmetry.
 Integral buffers will be    131072 words long.
 Raffenetti 1 integral format.
 Two-electron integral symmetry is turned on.
   338 basis functions,   562 primitive gaussians,   358 cartesian basis functions
    39 alpha electrons       39 beta electrons
       nuclear repulsion energy       560.4807443461 Hartrees.
 NAtoms=   22 NActive=   22 NUniq=   22 SFac= 7.50D-01 NAtFMM=   80 NAOKFM=F Big=F
 One-electron integrals computed using PRISM.
 NBasis=   338 RedAO= T  NBF=   338
 NBsUse=   338 1.00D-06 NBFU=   338
 Harris functional with IExCor=  205 diagonalized for initial guess.
 ExpMin= 2.97D-02 ExpMax= 1.17D+04 ExpMxC= 4.01D+02 IAcc=3 IRadAn=         0 AccDes= 0.00D+00
 HarFok:  IExCor=  205 AccDes= 0.00D+00 IRadAn=         0 IDoV= 1
 ScaDFX=  1.000000  1.000000  1.000000  1.000000
 FoFCou: FMM=F IPFlag=           0 FMFlag=      100000 FMFlg1=           0
         NFxFlg=           0 DoJE=T BraDBF=F KetDBF=T FulRan=T
         Omega=  0.000000  0.000000  1.000000  0.000000  0.000000 ICntrl=     500 IOpCl=  0
         NMat0=    1 NMatS0=    1 NMatT0=    0 NMatD0=    1 NMtDS0=    0 NMtDT0=    0
         I1Cent=           4 NGrid=           0.
 Petite list used in FoFCou.
 Initial guess orbital symmetries:
       Occupied  (A) (A) (A) (A) (A) (A) (A) (A) (A) (A) (A) (A)
                 (A) (A) (A) (A) (A) (A) (A) (A) (A) (A) (A) (A)
                 (A) (A) (A) (A) (A) (A) (A) (A) (A) (A) (A) (A)
                 (A) (A) (A)
       Virtual   (A) (A) (A) (A) (A) (A) (A) (A) (A) (A) (A) (A)
                 (A) (A) (A) (A) (A) (A) (A) (A) (A) (A) (A) (A)
                 (A) (A) (A) (A) (A) (A) (A) (A) (A) (A) (A) (A)
                 (A) (A) (A) (A) (A) (A) (A) (A) (A) (A) (A) (A)
                 (A) (A) (A) (A) (A) (A) (A) (A) (A) (A) (A) (A)
                 (A) (A) (A) (A) (A) (A) (A) (A) (A) (A) (A) (A)
                 (A) (A) (A) (A) (A) (A) (A) (A) (A) (A) (A) (A)
                 (A) (A) (A) (A) (A) (A) (A) (A) (A) (A) (A) (A)
                 (A) (A) (A) (A) (A) (A) (A) (A) (A) (A) (A) (A)
                 (A) (A) (A) (A) (A) (A) (A) (A) (A) (A) (A) (A)
                 (A) (A) (A) (A) (A) (A) (A) (A) (A) (A) (A) (A)
                 (A) (A) (A) (A) (A) (A) (A) (A) (A) (A) (A) (A)
                 (A) (A) (A) (A) (A) (A) (A) (A) (A) (A) (A) (A)
                 (A) (A) (A) (A) (A) (A) (A) (A) (A) (A) (A) (A)
                 (A) (A) (A) (A) (A) (A) (A) (A) (A) (A) (A) (A)
                 (A) (A) (A) (A) (A) (A) (A) (A) (A) (A) (A) (A)
                 (A) (A) (A) (A) (A) (A) (A) (A) (A) (A) (A) (A)
                 (A) (A) (A) (A) (A) (A) (A) (A) (A) (A) (A) (A)
                 (A) (A) (A) (A) (A) (A) (A) (A) (A) (A) (A) (A)
                 (A) (A) (A) (A) (A) (A) (A) (A) (A) (A) (A) (A)
                 (A) (A) (A) (A) (A) (A) (A) (A) (A) (A) (A) (A)
                 (A) (A) (A) (A) (A) (A) (A) (A) (A) (A) (A) (A)
                 (A) (A) (A) (A) (A) (A) (A) (A) (A) (A) (A) (A)
                 (A) (A) (A) (A) (A) (A) (A) (A) (A) (A) (A) (A)
                 (A) (A) (A) (A) (A) (A) (A) (A) (A) (A) (A)
 The electronic state of the initial guess is 1-A.
 Requested convergence on RMS density matrix=1.00D-08 within 128 cycles.
 Requested convergence on MAX density matrix=1.00D-06.
 Requested convergence on             energy=1.00D-06.
 No special actions if energy rises.
 Initial convergence to 1.0D-05 achieved.  Increase integral accuracy.
 SCF Done:  E(RHF) =  -492.928752939     A.U. after   14 cycles
             Convg  =    0.9193D-08             -V/T =  2.0017
 ExpMin= 2.97D-02 ExpMax= 1.17D+04 ExpMxC= 4.01D+02 IAcc=3 IRadAn=         5 AccDes= 0.00D+00
 HarFok:  IExCor=  205 AccDes= 0.00D+00 IRadAn=         5 IDoV=-2
 ScaDFX=  1.000000  1.000000  1.000000  1.000000
 Range of M.O.s used for correlation:    11   338
 NBasis=   338 NAE=    39 NBE=    39 NFC=    10 NFV=     0
 NROrb=    328 NOA=    29 NOB=    29 NVA=   299 NVB=   299

 **** Warning!!: The largest alpha MO coefficient is  0.61888446D+02

 Disk-based method using OVN memory for 29 occupieds at a time.
 Estimated scratch disk usage=  1387182175 words.
 Actual    scratch disk usage=  1374115473 words.
 JobTyp=1 Pass  1:  I=   1 to  29 NPSUse=  8 ParTrn=T ParDer=T DoDerP=F.
 Spin components of T(2) and E(2):
     alpha-alpha T2 =       0.6793561947D-01 E2=     -0.2058433413D+00
     alpha-beta  T2 =       0.3764912322D+00 E2=     -0.1190265368D+01
     beta-beta   T2 =       0.6793561947D-01 E2=     -0.2058433413D+00
 ANorm=    0.1229781473D+01
 E2 =    -0.1601952051D+01 EUMP2 =    -0.49453070498981D+03

 **********************************************************************

            Population analysis using the SCF density.

 **********************************************************************

 Orbital symmetries:
       Occupied  (A) (A) (A) (A) (A) (A) (A) (A) (A) (A) (A) (A)
                 (A) (A) (A) (A) (A) (A) (A) (A) (A) (A) (A) (A)
                 (A) (A) (A) (A) (A) (A) (A) (A) (A) (A) (A) (A)
                 (A) (A) (A)
       Virtual   (A) (A) (A) (A) (A) (A) (A) (A) (A) (A) (A) (A)
                 (A) (A) (A) (A) (A) (A) (A) (A) (A) (A) (A) (A)
                 (A) (A) (A) (A) (A) (A) (A) (A) (A) (A) (A) (A)
                 (A) (A) (A) (A) (A) (A) (A) (A) (A) (A) (A) (A)
                 (A) (A) (A) (A) (A) (A) (A) (A) (A) (A) (A) (A)
                 (A) (A) (A) (A) (A) (A) (A) (A) (A) (A) (A) (A)
                 (A) (A) (A) (A) (A) (A) (A) (A) (A) (A) (A) (A)
                 (A) (A) (A) (A) (A) (A) (A) (A) (A) (A) (A) (A)
                 (A) (A) (A) (A) (A) (A) (A) (A) (A) (A) (A) (A)
                 (A) (A) (A) (A) (A) (A) (A) (A) (A) (A) (A) (A)
                 (A) (A) (A) (A) (A) (A) (A) (A) (A) (A) (A) (A)
                 (A) (A) (A) (A) (A) (A) (A) (A) (A) (A) (A) (A)
                 (A) (A) (A) (A) (A) (A) (A) (A) (A) (A) (A) (A)
                 (A) (A) (A) (A) (A) (A) (A) (A) (A) (A) (A) (A)
                 (A) (A) (A) (A) (A) (A) (A) (A) (A) (A) (A) (A)
                 (A) (A) (A) (A) (A) (A) (A) (A) (A) (A) (A) (A)
                 (A) (A) (A) (A) (A) (A) (A) (A) (A) (A) (A) (A)
                 (A) (A) (A) (A) (A) (A) (A) (A) (A) (A) (A) (A)
                 (A) (A) (A) (A) (A) (A) (A) (A) (A) (A) (A) (A)
                 (A) (A) (A) (A) (A) (A) (A) (A) (A) (A) (A) (A)
                 (A) (A) (A) (A) (A) (A) (A) (A) (A) (A) (A) (A)
                 (A) (A) (A) (A) (A) (A) (A) (A) (A) (A) (A) (A)
                 (A) (A) (A) (A) (A) (A) (A) (A) (A) (A) (A) (A)
                 (A) (A) (A) (A) (A) (A) (A) (A) (A) (A) (A) (A)
                 (A) (A) (A) (A) (A) (A) (A) (A) (A) (A) (A)
 The electronic state is 1-A.
 Alpha  occ. eigenvalues --  -20.54040 -20.53007 -15.60599 -15.58709 -11.37272
 Alpha  occ. eigenvalues --  -11.35374 -11.29213 -11.26129 -11.25391 -11.23743
 Alpha  occ. eigenvalues --   -1.39485  -1.38012  -1.24656  -1.22540  -1.05815
 Alpha  occ. eigenvalues --   -0.99760  -0.95595  -0.87140  -0.80735  -0.77737
 Alpha  occ. eigenvalues --   -0.72359  -0.68553  -0.67026  -0.64021  -0.62081
 Alpha  occ. eigenvalues --   -0.61564  -0.59768  -0.58923  -0.57616  -0.55577
 Alpha  occ. eigenvalues --   -0.54098  -0.53697  -0.52214  -0.51636  -0.51084
 Alpha  occ. eigenvalues --   -0.44298  -0.43454  -0.39934  -0.38417
 Alpha virt. eigenvalues --    0.02979   0.03986   0.04221   0.04881   0.05745
 Alpha virt. eigenvalues --    0.06040   0.06337   0.07082   0.07271   0.08048
 Alpha virt. eigenvalues --    0.09100   0.09607   0.11448   0.11776   0.12373
 Alpha virt. eigenvalues --    0.13406   0.13713   0.14616   0.14853   0.15391
 Alpha virt. eigenvalues --    0.15679   0.15872   0.16436   0.17117   0.17655
 Alpha virt. eigenvalues --    0.17770   0.17940   0.18057   0.18695   0.19298
 Alpha virt. eigenvalues --    0.19682   0.20402   0.20568   0.20936   0.22504
 Alpha virt. eigenvalues --    0.23008   0.24350   0.25119   0.25607   0.26563
 Alpha virt. eigenvalues --    0.27456   0.28110   0.29426   0.30100   0.30686
 Alpha virt. eigenvalues --    0.31420   0.31946   0.32624   0.32935   0.33181
 Alpha virt. eigenvalues --    0.34088   0.34935   0.35566   0.36028   0.36764
 Alpha virt. eigenvalues --    0.37506   0.38171   0.38520   0.39648   0.39897
 Alpha virt. eigenvalues --    0.40246   0.41606   0.42112   0.42679   0.42988
 Alpha virt. eigenvalues --    0.43453   0.43747   0.44151   0.45183   0.46492
 Alpha virt. eigenvalues --    0.47003   0.47481   0.48305   0.48592   0.49588
 Alpha virt. eigenvalues --    0.49795   0.50166   0.51071   0.51653   0.52143
 Alpha virt. eigenvalues --    0.53300   0.53984   0.55010   0.55312   0.55983
 Alpha virt. eigenvalues --    0.56693   0.57151   0.57571   0.58470   0.58928
 Alpha virt. eigenvalues --    0.59705   0.60058   0.60396   0.61029   0.61579
 Alpha virt. eigenvalues --    0.63032   0.63409   0.63969   0.64310   0.65811
 Alpha virt. eigenvalues --    0.65929   0.66666   0.67572   0.67952   0.68036
 Alpha virt. eigenvalues --    0.69413   0.69779   0.70389   0.71274   0.71668
 Alpha virt. eigenvalues --    0.72695   0.73207   0.73878   0.74670   0.74908
 Alpha virt. eigenvalues --    0.75757   0.76028   0.77079   0.77967   0.78795
 Alpha virt. eigenvalues --    0.79420   0.80360   0.80848   0.82957   0.83651
 Alpha virt. eigenvalues --    0.84282   0.85049   0.85911   0.87203   0.87944
 Alpha virt. eigenvalues --    0.89066   0.90155   0.90491   0.91268   0.92783
 Alpha virt. eigenvalues --    0.93060   0.95318   0.96839   0.98027   0.99354
 Alpha virt. eigenvalues --    1.01579   1.02080   1.02632   1.04487   1.04952
 Alpha virt. eigenvalues --    1.05868   1.07391   1.08085   1.09273   1.11531
 Alpha virt. eigenvalues --    1.12483   1.13305   1.13552   1.14584   1.15690
 Alpha virt. eigenvalues --    1.16002   1.18356   1.19310   1.21212   1.22396
 Alpha virt. eigenvalues --    1.23852   1.24655   1.25546   1.27192   1.29106
 Alpha virt. eigenvalues --    1.29936   1.33879   1.35245   1.36661   1.37046
 Alpha virt. eigenvalues --    1.39982   1.41448   1.43451   1.44593   1.45457
 Alpha virt. eigenvalues --    1.49238   1.50293   1.52046   1.53472   1.55168
 Alpha virt. eigenvalues --    1.56670   1.57188   1.59907   1.61773   1.64963
 Alpha virt. eigenvalues --    1.66351   1.69407   1.69996   1.70366   1.71687
 Alpha virt. eigenvalues --    1.74455   1.75730   1.77124   1.78576   1.82363
 Alpha virt. eigenvalues --    1.83740   1.83917   1.87104   1.87510   1.88269
 Alpha virt. eigenvalues --    1.88662   1.90823   1.92329   1.92626   1.93667
 Alpha virt. eigenvalues --    1.94631   1.96331   1.97359   1.99839   2.00460
 Alpha virt. eigenvalues --    2.02062   2.03979   2.05249   2.07239   2.08951
 Alpha virt. eigenvalues --    2.10418   2.13655   2.14824   2.15106   2.15457
 Alpha virt. eigenvalues --    2.18673   2.20953   2.21895   2.22921   2.24310
 Alpha virt. eigenvalues --    2.24527   2.26960   2.28472   2.29730   2.30486
 Alpha virt. eigenvalues --    2.30783   2.33517   2.36273   2.36883   2.38593
 Alpha virt. eigenvalues --    2.39706   2.40741   2.42923   2.45326   2.46310
 Alpha virt. eigenvalues --    2.47052   2.49552   2.50242   2.51737   2.52210
 Alpha virt. eigenvalues --    2.53432   2.54109   2.56559   2.58339   2.61334
 Alpha virt. eigenvalues --    2.62043   2.65202   2.66920   2.68514   2.69068
 Alpha virt. eigenvalues --    2.71665   2.73871   2.76261   2.77663   2.79835
 Alpha virt. eigenvalues --    2.81697   2.82814   2.84714   2.87653   2.88583
 Alpha virt. eigenvalues --    2.89955   2.91985   2.93688   2.94755   2.96074
 Alpha virt. eigenvalues --    3.00451   3.03218   3.03947   3.05215   3.07297
 Alpha virt. eigenvalues --    3.10968   3.12189   3.17101   3.20281   3.22976
 Alpha virt. eigenvalues --    3.31655   3.35190   3.41576   3.47102   3.50755
 Alpha virt. eigenvalues --    3.59428   3.64369   3.74512   3.82747   3.85900
 Alpha virt. eigenvalues --    3.87563   3.91487   3.94199   3.97921   4.03763
 Alpha virt. eigenvalues --    4.05400   4.12246   4.20153   4.31023
          Condensed to atoms (all electrons):
              1          2          3          4          5          6
     1  H    0.729459   0.416780  -0.052392  -0.082358  -0.108176   0.022437
     2  C    0.416780   4.531867   0.326695   0.300849   0.195211  -0.039501
     3  H   -0.052392   0.326695   0.729887  -0.064510  -0.066253   0.016460
     4  H   -0.082358   0.300849  -0.064510   1.083989   0.147758  -0.012574
     5  C   -0.108176   0.195211  -0.066253   0.147758   5.552802   0.164527
     6  O    0.022437  -0.039501   0.016460  -0.012574   0.164527   8.747588
     7  N    0.043606  -0.036153   0.049603  -0.207090   0.115734  -0.111253
     8  H   -0.004362  -0.051090  -0.003376   0.006974  -0.119748  -0.001232
     9  C   -0.006750   0.009829   0.012701  -0.024944  -0.537528   0.127130
    10  H   -0.001728  -0.004751   0.001174  -0.002870   0.013804  -0.011811
    11  C    0.002585  -0.017277  -0.000261  -0.002108  -0.003459  -0.022930
    12  H   -0.000133  -0.005837  -0.000400  -0.000324  -0.025993   0.000054
    13  H    0.000044  -0.000235   0.000149  -0.000643   0.012536  -0.001110
    14  H    0.000176   0.008546  -0.000006   0.002866   0.010648   0.001182
    15  C   -0.001659  -0.031984  -0.003752  -0.009100  -0.038607  -0.002378
    16  O   -0.000076   0.006140   0.000971   0.000298   0.023894  -0.000701
    17  N   -0.000024   0.003054  -0.000761   0.002641   0.037353   0.022521
    18  H   -0.000083  -0.007672  -0.000970   0.000793   0.012058  -0.017327
    19  C    0.000008   0.001765   0.000407  -0.000039   0.013628  -0.005783
    20  H   -0.000102   0.000404   0.000090   0.000003  -0.007836  -0.000816
    21  H   -0.000191  -0.001829   0.000166   0.000139   0.002705   0.001436
    22  H    0.000069  -0.000118  -0.000137  -0.000038   0.002010   0.000547
              7          8          9         10         11         12
     1  H    0.043606  -0.004362  -0.006750  -0.001728   0.002585  -0.000133
     2  C   -0.036153  -0.051090   0.009829  -0.004751  -0.017277  -0.005837
     3  H    0.049603  -0.003376   0.012701   0.001174  -0.000261  -0.000400
     4  H   -0.207090   0.006974  -0.024944  -0.002870  -0.002108  -0.000324
     5  C    0.115734  -0.119748  -0.537528   0.013804  -0.003459  -0.025993
     6  O   -0.111253  -0.001232   0.127130  -0.011811  -0.022930   0.000054
     7  N    7.562642   0.341996  -0.509318   0.080430  -0.003738  -0.018965
     8  H    0.341996   0.933613  -0.076478  -0.007510   0.005471   0.016751
     9  C   -0.509318  -0.076478   8.284176  -0.552447   0.138523  -0.120947
    10  H    0.080430  -0.007510  -0.552447   1.661625  -0.019611   0.059808
    11  C   -0.003738   0.005471   0.138523  -0.019611   4.394952   0.463595
    12  H   -0.018965   0.016751  -0.120947   0.059808   0.463595   0.981288
    13  H    0.105515   0.007032  -0.150881  -0.052209   0.228869  -0.133573
    14  H   -0.113270  -0.013727   0.304462  -0.050497   0.174645  -0.214741
    15  C    0.067255   0.041677  -0.774282   0.166522   0.021059   0.043892
    16  O    0.013119  -0.012362  -0.006856  -0.013161  -0.036111  -0.014939
    17  N    0.067416  -0.014982  -0.039892  -0.008871  -0.021803  -0.018138
    18  H   -0.016720   0.002711  -0.011060   0.031499   0.005685   0.001494
    19  C    0.006318  -0.000839  -0.075491   0.023303  -0.003068  -0.001807
    20  H   -0.004014  -0.000841   0.026130   0.005187   0.000019  -0.000248
    21  H    0.000026   0.000254   0.006716  -0.001831   0.005609  -0.000043
    22  H    0.001225   0.000208  -0.018377   0.000497  -0.001817   0.000364
             13         14         15         16         17         18
     1  H    0.000044   0.000176  -0.001659  -0.000076  -0.000024  -0.000083
     2  C   -0.000235   0.008546  -0.031984   0.006140   0.003054  -0.007672
     3  H    0.000149  -0.000006  -0.003752   0.000971  -0.000761  -0.000970
     4  H   -0.000643   0.002866  -0.009100   0.000298   0.002641   0.000793
     5  C    0.012536   0.010648  -0.038607   0.023894   0.037353   0.012058
     6  O   -0.001110   0.001182  -0.002378  -0.000701   0.022521  -0.017327
     7  N    0.105515  -0.113270   0.067255   0.013119   0.067416  -0.016720
     8  H    0.007032  -0.013727   0.041677  -0.012362  -0.014982   0.002711
     9  C   -0.150881   0.304462  -0.774282  -0.006856  -0.039892  -0.011060
    10  H   -0.052209  -0.050497   0.166522  -0.013161  -0.008871   0.031499
    11  C    0.228869   0.174645   0.021059  -0.036111  -0.021803   0.005685
    12  H   -0.133573  -0.214741   0.043892  -0.014939  -0.018138   0.001494
    13  H    1.175496  -0.180044   0.000794   0.010815   0.000949   0.004973
    14  H   -0.180044   1.127570  -0.068925   0.006329   0.017548  -0.003180
    15  C    0.000794  -0.068925   5.394134   0.134658   0.104117  -0.095883
    16  O    0.010815   0.006329   0.134658   8.803884  -0.123136   0.008550
    17  N    0.000949   0.017548   0.104117  -0.123136   7.187270   0.285107
    18  H    0.004973  -0.003180  -0.095883   0.008550   0.285107   0.881280
    19  C    0.000196   0.000233  -0.095434   0.048767   0.209068  -0.093094
    20  H   -0.000928   0.000534   0.055037  -0.016106  -0.059998   0.000389
    21  H    0.000236   0.000337  -0.043805   0.007690   0.089654  -0.011184
    22  H   -0.000160  -0.000442  -0.021389   0.010298  -0.134696   0.019903
             19         20         21         22
     1  H    0.000008  -0.000102  -0.000191   0.000069
     2  C    0.001765   0.000404  -0.001829  -0.000118
     3  H    0.000407   0.000090   0.000166  -0.000137
     4  H   -0.000039   0.000003   0.000139  -0.000038
     5  C    0.013628  -0.007836   0.002705   0.002010
     6  O   -0.005783  -0.000816   0.001436   0.000547
     7  N    0.006318  -0.004014   0.000026   0.001225
     8  H   -0.000839  -0.000841   0.000254   0.000208
     9  C   -0.075491   0.026130   0.006716  -0.018377
    10  H    0.023303   0.005187  -0.001831   0.000497
    11  C   -0.003068   0.000019   0.005609  -0.001817
    12  H   -0.001807  -0.000248  -0.000043   0.000364
    13  H    0.000196  -0.000928   0.000236  -0.000160
    14  H    0.000233   0.000534   0.000337  -0.000442
    15  C   -0.095434   0.055037  -0.043805  -0.021389
    16  O    0.048767  -0.016106   0.007690   0.010298
    17  N    0.209068  -0.059998   0.089654  -0.134696
    18  H   -0.093094   0.000389  -0.011184   0.019903
    19  C    4.089242   0.392576   0.293414   0.451904
    20  H    0.392576   1.000367  -0.098518  -0.167350
    21  H    0.293414  -0.098518   0.999115  -0.173352
    22  H    0.451904  -0.167350  -0.173352   1.195203
 Mulliken atomic charges:
              1
     1  H    0.042870
     2  C    0.395309
     3  H    0.054514
     4  H   -0.139715
     5  C    0.602932
     6  O   -0.876464
     7  N   -0.434364
     8  H   -0.050138
     9  C   -0.004416
    10  H   -0.316553
    11  C    0.691168
    12  H   -0.011156
    13  H   -0.027821
    14  H   -0.010241
    15  C    1.158053
    16  O   -0.851965
    17  N   -0.604394
    18  H    0.002731
    19  C    0.744726
    20  H   -0.123977
    21  H   -0.076745
    22  H   -0.164352
 Sum of Mulliken atomic charges =   0.00000
 Mulliken charges with hydrogens summed into heavy atoms:
              1
     2  C    0.352978
     5  C    0.602932
     6  O   -0.876464
     7  N   -0.484502
     9  C   -0.320969
    11  C    0.641950
    15  C    1.158053
    16  O   -0.851965
    17  N   -0.601663
    19  C    0.379651
 Sum of Mulliken charges with hydrogens summed into heavy atoms =   0.00000
 Electronic spatial extent (au):  <R**2>=           1702.2957
 Charge=              0.0000 electrons
 Dipole moment (field-independent basis, Debye):
    X=             -2.0312    Y=              0.6879    Z=             -0.2984  Tot=              2.1652
 Quadrupole moment (field-independent basis, Debye-Ang):
   XX=            -56.7120   YY=            -59.8656   ZZ=            -64.7889
   XY=             -6.4837   XZ=             -9.7710   YZ=             -4.0583
 Traceless Quadrupole moment (field-independent basis, Debye-Ang):
   XX=              3.7435   YY=              0.5899   ZZ=             -4.3334
   XY=             -6.4837   XZ=             -9.7710   YZ=             -4.0583
 Octapole moment (field-independent basis, Debye-Ang**2):
  XXX=            -18.4606  YYY=              2.5367  ZZZ=             -4.4452  XYY=              8.0235
  XXY=            -12.6388  XXZ=              3.2461  XZZ=             -6.6746  YZZ=             -0.9997
  YYZ=              4.0430  XYZ=              0.4392
 Hexadecapole moment (field-independent basis, Debye-Ang**3):
 XXXX=          -1211.4031 YYYY=           -713.8408 ZZZZ=           -246.6962 XXXY=             -6.7722
 XXXZ=            -13.3908 YYYX=            -14.0840 YYYZ=             -0.6805 ZZZX=            -12.4806
 ZZZY=              3.6442 XXYY=           -323.6480 XXZZ=           -265.9489 YYZZ=           -154.7534
 XXYZ=             -6.9502 YYXZ=            -17.8832 ZZXY=            -12.8330
 N-N= 5.604807443461D+02 E-N=-2.276274819204D+03  KE= 4.920812472544D+02
 1\1\GINC-NODE004\SP\RMP2-FC\Aug-CC-pVDZ\C6H12N2O2\STEBOSS\13-Feb-2017\
 0\\#SP MP2/aug-cc-pVDZ\\Single Point calculation at MP2\\0,1\H,0,-3.87
 94,-1.081,0.0341\C,0,-3.0718,-0.7979,0.7154\H,0,-2.878,-1.6563,1.3669\
 H,0,-3.4004,0.0469,1.3282\C,0,-1.8248,-0.5074,-0.1019\O,0,-1.3896,-1.3
 056,-0.9303\N,0,-1.2312,0.705,0.1192\H,0,-1.481,1.2291,0.9474\C,0,0.04
 74,1.0272,-0.517\H,0,-0.032,0.6913,-1.5541\C,0,0.2992,2.5325,-0.462\H,
 0,0.4442,2.8538,0.5742\H,0,1.209,2.7847,-1.0157\H,0,-0.5404,3.0792,-0.
 9032\C,0,1.1869,0.2657,0.1975\O,0,1.6273,0.6425,1.2785\N,0,1.6715,-0.8
 021,-0.499\H,0,1.033,-1.1967,-1.1812\C,0,2.6596,-1.6917,0.0918\H,0,3.3
 306,-1.0946,0.711\H,0,2.199,-2.4617,0.7251\H,0,3.2324,-2.1803,-0.7015\
 \Version=EM64L-G09RevA.02\State=1-A\HF=-492.9287529\MP2=-494.530705\RM
 SD=9.193e-09\PG=C01 [X(C6H12N2O2)]\\@


 THE TRULY SUCCESSFUL PERFORMANCE OF RESEARCHES IN
 INORGANIC CHEMISTRY IS POSSIBLE ONLY TO ONE WHO IS NOT
 ONLY A THEORETICAL CHEMIST, BUT ALSO AN ACCOMPLISHED
 ANALYST AND, MOREOVER, NOT MERELY A PRACTICALLY TRAINED,
 MECHANICAL WORKER, BUT A THINKING CREATIVE ARTIST.
   --  CLEMENS WINKLER, BER. 33, 1697(1900)
 Job cpu time:  0 days 14 hours 31 minutes 50.5 seconds.
 File lengths (MBytes):  RWF=  10600 Int=      0 D2E=      0 Chk=      7 Scr=      2
 Normal termination of Gaussian 09 at Mon Feb 13 13:25:28 2017.
