 Entering Gaussian System, Link 0=g09
 Initial command:
 /home/steboss/Software/g09/l1.exe /home/steboss/projects/phi_psi_scan/alanine/210/4366/Gau-4103.inp -scrdir=/home/steboss/projects/phi_psi_scan/alanine/210/4366/
 Entering Link 1 = /home/steboss/Software/g09/l1.exe PID=      4105.
  
 Copyright (c) 1988,1990,1992,1993,1995,1998,2003,2009, Gaussian, Inc.
                  All Rights Reserved.
  
 This is part of the Gaussian(R) 09 program.  It is based on
 the Gaussian(R) 03 system (copyright 2003, Gaussian, Inc.),
 the Gaussian(R) 98 system (copyright 1998, Gaussian, Inc.),
 the Gaussian(R) 94 system (copyright 1995, Gaussian, Inc.),
 the Gaussian 92(TM) system (copyright 1992, Gaussian, Inc.),
 the Gaussian 90(TM) system (copyright 1990, Gaussian, Inc.),
 the Gaussian 88(TM) system (copyright 1988, Gaussian, Inc.),
 the Gaussian 86(TM) system (copyright 1986, Carnegie Mellon
 University), and the Gaussian 82(TM) system (copyright 1983,
 Carnegie Mellon University). Gaussian is a federally registered
 trademark of Gaussian, Inc.
  
 This software contains proprietary and confidential information,
 including trade secrets, belonging to Gaussian, Inc.
  
 This software is provided under written license and may be
 used, copied, transmitted, or stored only in accord with that
 written license.
  
 The following legend is applicable only to US Government
 contracts under FAR:
  
                    RESTRICTED RIGHTS LEGEND
  
 Use, reproduction and disclosure by the US Government is
 subject to restrictions as set forth in subparagraphs (a)
 and (c) of the Commercial Computer Software - Restricted
 Rights clause in FAR 52.227-19.
  
 Gaussian, Inc.
 340 Quinnipiac St., Bldg. 40, Wallingford CT 06492
  
  
 ---------------------------------------------------------------
 Warning -- This program may not be used in any manner that
 competes with the business of Gaussian, Inc. or will provide
 assistance to any competitor of Gaussian, Inc.  The licensee
 of this program is prohibited from giving any competitor of
 Gaussian, Inc. access to this program.  By using this program,
 the user acknowledges that Gaussian, Inc. is engaged in the
 business of creating and licensing software in the field of
 computational chemistry and represents and warrants to the
 licensee that it is not a competitor of Gaussian, Inc. and that
 it will not use this program in any manner prohibited above.
 ---------------------------------------------------------------
  

 Cite this work as:
 Gaussian 09, Revision A.02,
 M. J. Frisch, G. W. Trucks, H. B. Schlegel, G. E. Scuseria, 
 M. A. Robb, J. R. Cheeseman, G. Scalmani, V. Barone, B. Mennucci, 
 G. A. Petersson, H. Nakatsuji, M. Caricato, X. Li, H. P. Hratchian, 
 A. F. Izmaylov, J. Bloino, G. Zheng, J. L. Sonnenberg, M. Hada, 
 M. Ehara, K. Toyota, R. Fukuda, J. Hasegawa, M. Ishida, T. Nakajima, 
 Y. Honda, O. Kitao, H. Nakai, T. Vreven, J. A. Montgomery, Jr., 
 J. E. Peralta, F. Ogliaro, M. Bearpark, J. J. Heyd, E. Brothers, 
 K. N. Kudin, V. N. Staroverov, R. Kobayashi, J. Normand, 
 K. Raghavachari, A. Rendell, J. C. Burant, S. S. Iyengar, J. Tomasi, 
 M. Cossi, N. Rega, J. M. Millam, M. Klene, J. E. Knox, J. B. Cross, 
 V. Bakken, C. Adamo, J. Jaramillo, R. Gomperts, R. E. Stratmann, 
 O. Yazyev, A. J. Austin, R. Cammi, C. Pomelli, J. W. Ochterski, 
 R. L. Martin, K. Morokuma, V. G. Zakrzewski, G. A. Voth, 
 P. Salvador, J. J. Dannenberg, S. Dapprich, A. D. Daniels, 
 O. Farkas, J. B. Foresman, J. V. Ortiz, J. Cioslowski, 
 and D. J. Fox, Gaussian, Inc., Wallingford CT, 2009.
 
 ******************************************
 Gaussian 09:  EM64L-G09RevA.02 11-Jun-2009
                10-Feb-2017 
 ******************************************
 %chk=structure_90.chk
 %NProcShared=8
 Will use up to    8 processors via shared memory.
 ----------------------------------------------------------------------
 # b3lyp/6-31G* Opt=(ModRedundant, maxcycles=1000, calcfc) geom=nocrowd
 ----------------------------------------------------------------------
 1/6=1000,10=4,14=-1,18=120,19=15,26=3,38=1/1,3;
 2/9=110,12=1,17=6,18=5,40=1/2;
 3/5=1,6=6,7=1,11=2,16=1,25=1,30=1,71=2,74=-5/1,2,3;
 4//1;
 5/5=2,38=5/2;
 8/6=4,10=90,11=11/1;
 11/6=1,8=1,9=11,15=111,16=1/1,2,10;
 10/6=1,7=6,13=1/2;
 6/7=2,8=2,9=2,10=2,28=1/1;
 7/10=1,18=20,25=1/1,2,3,16;
 1/6=1000,10=4,14=-1,18=20,19=15/3(2);
 2/9=110,12=1/2;
 99//99;
 2/9=110,12=1/2;
 3/5=1,6=6,7=1,11=2,16=1,25=1,30=1,71=1,74=-5/1,2,3;
 4/5=5,16=3/1;
 5/5=2,38=5/2;
 7//1,2,3,16;
 1/6=1000,14=-1,18=20,19=15/3(-5);
 2/9=110,12=1/2;
 6/7=2,8=2,9=2,10=2,19=2,28=1/1;
 99/9=1/99;
 ------------------
 Phi Psi fixed scan
 ------------------
 Symbolic Z-matrix:
 Charge =  0 Multiplicity = 1
 H                     1.8827    1.2362    0.9842 
 C                     1.9409    2.209     0.496 
 H                     1.2624    2.9049    0.9895 
 H                     1.658     2.1079   -0.5517 
 C                     3.3599    2.7768    0.5667 
 O                     4.2568    2.1469    1.1227 
 N                     3.5554    3.9697    0. 
 H                     2.7862    4.4492   -0.4455 
 C                     4.8533    4.6139    0. 
 H                     5.4076    4.3155    0.8898 
 C                     5.6613    4.2208   -1.2322 
 H                     5.1233    4.5214   -2.1312 
 H                     6.6305    4.7189   -1.2058 
 H                     5.8085    3.1409   -1.2414 
 C                     4.7127    6.1294    0. 
 O                     4.6551    6.7505   -1.0589 
 N                     4.6575    6.7246    1.1937 
 H                     4.7088    6.171     2.0369 
 C                     4.5242    8.1613    1.3276 
 H                     4.482     8.6165    0.3381 
 H                     3.6091    8.3926    1.8727 
 H                     5.3811    8.5569    1.8727 
 
 The following ModRedundant input section has been read:
 D    5    7    9   15 F                                                       
 D    7    9   15   17 F                                                       

 GradGradGradGradGradGradGradGradGradGradGradGradGradGradGradGradGradGrad
 Berny optimization.
 Initialization pass.
                           ----------------------------
                           !    Initial Parameters    !
                           ! (Angstroms and Degrees)  !
 --------------------------                            --------------------------
 ! Name  Definition              Value          Derivative Info.                !
 --------------------------------------------------------------------------------
 ! R1    R(1,2)                  1.09           calculate D2E/DX2 analytically  !
 ! R2    R(2,3)                  1.09           calculate D2E/DX2 analytically  !
 ! R3    R(2,4)                  1.0899         calculate D2E/DX2 analytically  !
 ! R4    R(2,5)                  1.53           calculate D2E/DX2 analytically  !
 ! R5    R(5,6)                  1.229          calculate D2E/DX2 analytically  !
 ! R6    R(5,7)                  1.3351         calculate D2E/DX2 analytically  !
 ! R7    R(7,8)                  1.01           calculate D2E/DX2 analytically  !
 ! R8    R(7,9)                  1.449          calculate D2E/DX2 analytically  !
 ! R9    R(9,10)                 1.09           calculate D2E/DX2 analytically  !
 ! R10   R(9,11)                 1.525          calculate D2E/DX2 analytically  !
 ! R11   R(9,15)                 1.522          calculate D2E/DX2 analytically  !
 ! R12   R(11,12)                1.09           calculate D2E/DX2 analytically  !
 ! R13   R(11,13)                1.09           calculate D2E/DX2 analytically  !
 ! R14   R(11,14)                1.0899         calculate D2E/DX2 analytically  !
 ! R15   R(15,16)                1.229          calculate D2E/DX2 analytically  !
 ! R16   R(15,17)                1.335          calculate D2E/DX2 analytically  !
 ! R17   R(17,18)                1.01           calculate D2E/DX2 analytically  !
 ! R18   R(17,19)                1.4491         calculate D2E/DX2 analytically  !
 ! R19   R(19,20)                1.09           calculate D2E/DX2 analytically  !
 ! R20   R(19,21)                1.09           calculate D2E/DX2 analytically  !
 ! R21   R(19,22)                1.0899         calculate D2E/DX2 analytically  !
 ! A1    A(1,2,3)              109.4976         calculate D2E/DX2 analytically  !
 ! A2    A(1,2,4)              109.5057         calculate D2E/DX2 analytically  !
 ! A3    A(1,2,5)              111.1022         calculate D2E/DX2 analytically  !
 ! A4    A(3,2,4)              109.442          calculate D2E/DX2 analytically  !
 ! A5    A(3,2,5)              108.6296         calculate D2E/DX2 analytically  !
 ! A6    A(4,2,5)              108.6368         calculate D2E/DX2 analytically  !
 ! A7    A(2,5,6)              120.5005         calculate D2E/DX2 analytically  !
 ! A8    A(2,5,7)              116.6018         calculate D2E/DX2 analytically  !
 ! A9    A(6,5,7)              122.8977         calculate D2E/DX2 analytically  !
 ! A10   A(5,7,8)              119.9947         calculate D2E/DX2 analytically  !
 ! A11   A(5,7,9)              121.8985         calculate D2E/DX2 analytically  !
 ! A12   A(8,7,9)              118.1068         calculate D2E/DX2 analytically  !
 ! A13   A(7,9,10)             109.5            calculate D2E/DX2 analytically  !
 ! A14   A(7,9,11)             111.0992         calculate D2E/DX2 analytically  !
 ! A15   A(7,9,15)             111.0966         calculate D2E/DX2 analytically  !
 ! A16   A(10,9,11)            108.6382         calculate D2E/DX2 analytically  !
 ! A17   A(10,9,15)            108.6373         calculate D2E/DX2 analytically  !
 ! A18   A(11,9,15)            107.7947         calculate D2E/DX2 analytically  !
 ! A19   A(9,11,12)            109.5007         calculate D2E/DX2 analytically  !
 ! A20   A(9,11,13)            109.4959         calculate D2E/DX2 analytically  !
 ! A21   A(9,11,14)            109.4978         calculate D2E/DX2 analytically  !
 ! A22   A(12,11,13)           109.441          calculate D2E/DX2 analytically  !
 ! A23   A(12,11,14)           109.4482         calculate D2E/DX2 analytically  !
 ! A24   A(13,11,14)           109.4436         calculate D2E/DX2 analytically  !
 ! A25   A(9,15,16)            120.501          calculate D2E/DX2 analytically  !
 ! A26   A(9,15,17)            116.5998         calculate D2E/DX2 analytically  !
 ! A27   A(16,15,17)           122.8992         calculate D2E/DX2 analytically  !
 ! A28   A(15,17,18)           120.001          calculate D2E/DX2 analytically  !
 ! A29   A(15,17,19)           121.9017         calculate D2E/DX2 analytically  !
 ! A30   A(18,17,19)           118.0973         calculate D2E/DX2 analytically  !
 ! A31   A(17,19,20)           109.4951         calculate D2E/DX2 analytically  !
 ! A32   A(17,19,21)           109.5019         calculate D2E/DX2 analytically  !
 ! A33   A(17,19,22)           109.497          calculate D2E/DX2 analytically  !
 ! A34   A(20,19,21)           109.443          calculate D2E/DX2 analytically  !
 ! A35   A(20,19,22)           109.4435         calculate D2E/DX2 analytically  !
 ! A36   A(21,19,22)           109.4467         calculate D2E/DX2 analytically  !
 ! D1    D(1,2,5,6)              0.0047         calculate D2E/DX2 analytically  !
 ! D2    D(1,2,5,7)           -179.9966         calculate D2E/DX2 analytically  !
 ! D3    D(3,2,5,6)            120.5112         calculate D2E/DX2 analytically  !
 ! D4    D(3,2,5,7)            -59.4901         calculate D2E/DX2 analytically  !
 ! D5    D(4,2,5,6)           -120.5165         calculate D2E/DX2 analytically  !
 ! D6    D(4,2,5,7)             59.4823         calculate D2E/DX2 analytically  !
 ! D7    D(2,5,7,8)             -0.0022         calculate D2E/DX2 analytically  !
 ! D8    D(2,5,7,9)           -179.9961         calculate D2E/DX2 analytically  !
 ! D9    D(6,5,7,8)            179.9965         calculate D2E/DX2 analytically  !
 ! D10   D(6,5,7,9)              0.0027         calculate D2E/DX2 analytically  !
 ! D11   D(5,7,9,10)           -30.0015         calculate D2E/DX2 analytically  !
 ! D12   D(5,7,9,11)            90.0011         calculate D2E/DX2 analytically  !
 ! D13   D(5,7,9,15)          -150.0013         frozen, calculate D2E/DX2 analyt!
 ! D14   D(8,7,9,10)           150.0045         calculate D2E/DX2 analytically  !
 ! D15   D(8,7,9,11)           -89.9929         calculate D2E/DX2 analytically  !
 ! D16   D(8,7,9,15)            30.0047         calculate D2E/DX2 analytically  !
 ! D17   D(7,9,11,12)           60.0024         calculate D2E/DX2 analytically  !
 ! D18   D(7,9,11,13)          179.9986         calculate D2E/DX2 analytically  !
 ! D19   D(7,9,11,14)          -60.0038         calculate D2E/DX2 analytically  !
 ! D20   D(10,9,11,12)        -179.4843         calculate D2E/DX2 analytically  !
 ! D21   D(10,9,11,13)         -59.4881         calculate D2E/DX2 analytically  !
 ! D22   D(10,9,11,14)          60.5095         calculate D2E/DX2 analytically  !
 ! D23   D(15,9,11,12)         -61.938          calculate D2E/DX2 analytically  !
 ! D24   D(15,9,11,13)          58.0582         calculate D2E/DX2 analytically  !
 ! D25   D(15,9,11,14)         178.0558         calculate D2E/DX2 analytically  !
 ! D26   D(7,9,15,16)          -90.0012         calculate D2E/DX2 analytically  !
 ! D27   D(7,9,15,17)           90.0009         frozen, calculate D2E/DX2 analyt!
 ! D28   D(10,9,15,16)         149.4877         calculate D2E/DX2 analytically  !
 ! D29   D(10,9,15,17)         -30.5102         calculate D2E/DX2 analytically  !
 ! D30   D(11,9,15,16)          31.9408         calculate D2E/DX2 analytically  !
 ! D31   D(11,9,15,17)        -148.0571         calculate D2E/DX2 analytically  !
 ! D32   D(9,15,17,18)          -0.0048         calculate D2E/DX2 analytically  !
 ! D33   D(9,15,17,19)        -179.9994         calculate D2E/DX2 analytically  !
 ! D34   D(16,15,17,18)        179.9974         calculate D2E/DX2 analytically  !
 ! D35   D(16,15,17,19)          0.0028         calculate D2E/DX2 analytically  !
 ! D36   D(15,17,19,20)         -0.0031         calculate D2E/DX2 analytically  !
 ! D37   D(15,17,19,21)        119.9958         calculate D2E/DX2 analytically  !
 ! D38   D(15,17,19,22)       -119.9997         calculate D2E/DX2 analytically  !
 ! D39   D(18,17,19,20)       -179.9978         calculate D2E/DX2 analytically  !
 ! D40   D(18,17,19,21)        -59.9989         calculate D2E/DX2 analytically  !
 ! D41   D(18,17,19,22)         60.0057         calculate D2E/DX2 analytically  !
 --------------------------------------------------------------------------------
 Trust Radius=3.00D-01 FncErr=1.00D-07 GrdErr=1.00D-06
 Number of steps in this run= 132 maximum allowed number of steps= 132.
 GradGradGradGradGradGradGradGradGradGradGradGradGradGradGradGradGradGrad

                          Input orientation:                          
 ---------------------------------------------------------------------
 Center     Atomic      Atomic             Coordinates (Angstroms)
 Number     Number       Type             X           Y           Z
 ---------------------------------------------------------------------
      1          1           0        1.882700    1.236200    0.984200
      2          6           0        1.940900    2.209000    0.496000
      3          1           0        1.262400    2.904900    0.989500
      4          1           0        1.658000    2.107900   -0.551700
      5          6           0        3.359900    2.776800    0.566700
      6          8           0        4.256800    2.146900    1.122700
      7          7           0        3.555400    3.969700    0.000000
      8          1           0        2.786200    4.449200   -0.445500
      9          6           0        4.853300    4.613900    0.000000
     10          1           0        5.407600    4.315500    0.889800
     11          6           0        5.661300    4.220800   -1.232200
     12          1           0        5.123300    4.521400   -2.131200
     13          1           0        6.630500    4.718900   -1.205800
     14          1           0        5.808500    3.140900   -1.241400
     15          6           0        4.712700    6.129400    0.000000
     16          8           0        4.655100    6.750500   -1.058900
     17          7           0        4.657500    6.724600    1.193700
     18          1           0        4.708800    6.171000    2.036900
     19          6           0        4.524200    8.161300    1.327600
     20          1           0        4.482000    8.616500    0.338100
     21          1           0        3.609100    8.392600    1.872700
     22          1           0        5.381100    8.556900    1.872700
 ---------------------------------------------------------------------
                    Distance matrix (angstroms):
                    1          2          3          4          5
     1  H    0.000000
     2  C    1.089985   0.000000
     3  H    1.780270   1.090037   0.000000
     4  H    1.780264   1.089922   1.779608   0.000000
     5  C    2.174827   1.530018   2.143519   2.143527   0.000000
     6  O    2.546548   2.400000   3.091721   3.091747   1.228959
     7  N    3.352402   2.439814   2.714914   2.714922   1.335058
     8  H    3.630940   2.572829   2.601164   2.601115   2.037303
     9  C    4.604560   3.809414   4.098092   4.098091   2.434405
    10  H    4.681444   4.075589   4.379773   4.583767   2.581679
    11  C    5.300763   4.568959   5.100771   4.577536   3.258469
    12  H    5.567741   4.730438   5.220957   4.508670   3.664952
    13  H    6.282269   5.584628   6.076713   5.654284   4.196467
    14  H    4.898273   4.341120   5.069481   4.332369   3.065524
    15  C    5.737679   4.826844   4.825047   5.080160   3.659391
    16  O    6.501382   5.514510   5.522227   5.549198   4.484463
    17  N    6.153531   5.315764   5.114539   5.775581   4.202621
    18  H    5.783361   5.072779   4.862317   5.702369   3.937209
    19  C    7.419734   6.541779   6.195433   6.956330   5.561241
    20  H    7.851282   6.894794   6.588818   7.150426   5.950921
    21  H    7.415116   6.550962   6.033398   7.012985   5.771044
    22  H    8.162162   7.350246   7.049031   7.831270   6.261026
                    6          7          8          9         10
     6  O    0.000000
     7  N    2.252780   0.000000
     8  H    3.150000   1.009980   0.000000
     9  C    2.775312   1.448978   2.120966   0.000000
    10  H    2.466051   2.083739   2.944935   1.089970   0.000000
    11  C    3.437911   2.452791   2.989526   1.525027   2.139209
    12  H    4.120308   2.702720   2.882505   2.150225   3.041326
    13  H    4.203754   3.386959   3.928032   2.150214   2.459625
    14  H    2.997462   2.702673   3.388127   2.150165   2.466256
    15  C    4.162764   2.450234   2.594792   1.522008   2.136554
    16  O    5.109907   3.172295   3.027380   2.392825   3.208257
    17  N    4.595752   3.198284   3.371377   2.432758   2.541411
    18  H    4.151319   3.213256   3.580963   2.567957   2.290642
    19  C    6.023827   4.502289   4.465895   3.801957   3.970169
    20  H    6.520892   4.750332   4.566854   4.033978   4.433927
    21  H    6.323827   4.803325   4.647754   4.397000   4.563271
    22  H    6.550927   5.280397   5.383378   4.396911   4.353880
                   11         12         13         14         15
    11  C    0.000000
    12  H    1.089957   0.000000
    13  H    1.090023   1.779613   0.000000
    14  H    1.089925   1.779613   1.779617   0.000000
    15  C    2.461892   2.701161   2.668599   3.416575   0.000000
    16  O    2.727976   2.517524   2.837461   3.793791   1.228964
    17  N    3.627895   4.015722   3.697724   4.483014   1.335002
    18  H    3.923971   4.501783   4.039385   4.597619   2.037328
    19  C    4.834575   5.056787   4.764948   5.783909   2.434476
    20  H    4.814433   4.824785   4.710729   5.851207   2.520556
    21  H    5.590693   5.771499   5.665871   6.489633   3.137995
    22  H    5.340476   5.690601   5.076259   6.262056   3.137917
                   16         17         18         19         20
    16  O    0.000000
    17  N    2.252750   0.000000
    18  H    3.150029   1.009995   0.000000
    19  C    2.775405   1.449070   2.120962   0.000000
    20  H    2.337419   2.083780   2.986274   1.089999   0.000000
    21  H    3.519217   2.083844   2.484312   1.089973   1.779630
    22  H    3.519153   2.083737   2.484244   1.089913   1.779587
                   21         22
    21  H    0.000000
    22  H    1.779601   0.000000
 Stoichiometry    C6H12N2O2
 Framework group  C1[X(C6H12N2O2)]
 Deg. of freedom    60
 Full point group                 C1      NOp   1
 Largest Abelian subgroup         C1      NOp   1
 Largest concise Abelian subgroup C1      NOp   1
                         Standard orientation:                         
 ---------------------------------------------------------------------
 Center     Atomic      Atomic             Coordinates (Angstroms)
 Number     Number       Type             X           Y           Z
 ---------------------------------------------------------------------
      1          1           0        4.098811   -1.298492   -0.302435
      2          6           0        3.157365   -1.104644   -0.816408
      3          1           0        2.704857   -2.050084   -1.115676
      4          1           0        3.344266   -0.495848   -1.700922
      5          6           0        2.177174   -0.359487    0.091844
      6          8           0        2.496152   -0.058464    1.239877
      7          7           0        0.984121   -0.065197   -0.430074
      8          1           0        0.768188   -0.333753   -1.379447
      9          6           0       -0.030928    0.637904    0.328123
     10          1           0        0.078222    0.403474    1.386973
     11          6           0        0.095681    2.146889    0.147450
     12          1           0       -0.020590    2.398138   -0.906761
     13          1           0       -0.678584    2.648966    0.727606
     14          1           0        1.076662    2.473523    0.492303
     15          6           0       -1.428037    0.231567   -0.118515
     16          8           0       -1.997563    0.843523   -1.019350
     17          7           0       -1.980197   -0.805578    0.515267
     18          1           0       -1.472264   -1.277080    1.249964
     19          6           0       -3.305046   -1.289232    0.182613
     20          1           0       -3.721835   -0.683810   -0.622278
     21          1           0       -3.242628   -2.328474   -0.140068
     22          1           0       -3.948531   -1.219583    1.059533
 ---------------------------------------------------------------------
 Rotational constants (GHZ):      2.2735208      0.7069390      0.6341257
 Standard basis: 6-31G(d) (6D, 7F)
 There are   174 symmetry adapted basis functions of A   symmetry.
 Integral buffers will be    131072 words long.
 Raffenetti 2 integral format.
 Two-electron integral symmetry is turned on.
   174 basis functions,   328 primitive gaussians,   174 cartesian basis functions
    39 alpha electrons       39 beta electrons
       nuclear repulsion energy       552.2233688426 Hartrees.
 NAtoms=   22 NActive=   22 NUniq=   22 SFac= 7.50D-01 NAtFMM=   80 NAOKFM=F Big=F
 One-electron integrals computed using PRISM.
 NBasis=   174 RedAO= T  NBF=   174
 NBsUse=   174 1.00D-06 NBFU=   174
 Harris functional with IExCor=  402 diagonalized for initial guess.
 ExpMin= 1.61D-01 ExpMax= 5.48D+03 ExpMxC= 8.25D+02 IAcc=1 IRadAn=         1 AccDes= 0.00D+00
 HarFok:  IExCor=  402 AccDes= 0.00D+00 IRadAn=         1 IDoV= 1
 ScaDFX=  1.000000  1.000000  1.000000  1.000000
 FoFCou: FMM=F IPFlag=           0 FMFlag=      100000 FMFlg1=           0
         NFxFlg=           0 DoJE=T BraDBF=F KetDBF=T FulRan=T
         Omega=  0.000000  0.000000  1.000000  0.000000  0.000000 ICntrl=     500 IOpCl=  0
         NMat0=    1 NMatS0=    1 NMatT0=    0 NMatD0=    1 NMtDS0=    0 NMtDT0=    0
         I1Cent=           4 NGrid=           0.
 Petite list used in FoFCou.
 Initial guess orbital symmetries:
       Occupied  (A) (A) (A) (A) (A) (A) (A) (A) (A) (A) (A) (A)
                 (A) (A) (A) (A) (A) (A) (A) (A) (A) (A) (A) (A)
                 (A) (A) (A) (A) (A) (A) (A) (A) (A) (A) (A) (A)
                 (A) (A) (A)
       Virtual   (A) (A) (A) (A) (A) (A) (A) (A) (A) (A) (A) (A)
                 (A) (A) (A) (A) (A) (A) (A) (A) (A) (A) (A) (A)
                 (A) (A) (A) (A) (A) (A) (A) (A) (A) (A) (A) (A)
                 (A) (A) (A) (A) (A) (A) (A) (A) (A) (A) (A) (A)
                 (A) (A) (A) (A) (A) (A) (A) (A) (A) (A) (A) (A)
                 (A) (A) (A) (A) (A) (A) (A) (A) (A) (A) (A) (A)
                 (A) (A) (A) (A) (A) (A) (A) (A) (A) (A) (A) (A)
                 (A) (A) (A) (A) (A) (A) (A) (A) (A) (A) (A) (A)
                 (A) (A) (A) (A) (A) (A) (A) (A) (A) (A) (A) (A)
                 (A) (A) (A) (A) (A) (A) (A) (A) (A) (A) (A) (A)
                 (A) (A) (A) (A) (A) (A) (A) (A) (A) (A) (A) (A)
                 (A) (A) (A)
 The electronic state of the initial guess is 1-A.
 Requested convergence on RMS density matrix=1.00D-08 within 128 cycles.
 Requested convergence on MAX density matrix=1.00D-06.
 Requested convergence on             energy=1.00D-06.
 No special actions if energy rises.
 Integral accuracy reduced to 1.0D-05 until final iterations.
 Initial convergence to 1.0D-05 achieved.  Increase integral accuracy.
 SCF Done:  E(RB3LYP) =  -495.841861146     A.U. after   15 cycles
             Convg  =    0.6206D-08             -V/T =  2.0088
 Range of M.O.s used for correlation:     1   174
 NBasis=   174 NAE=    39 NBE=    39 NFC=     0 NFV=     0
 NROrb=    174 NOA=    39 NOB=    39 NVA=   135 NVB=   135
 Symmetrizing basis deriv contribution to polar:
 IMax=3 JMax=2 DiffMx= 0.00D+00
 G2DrvN: will do    23 centers at a time, making    1 passes doing MaxLOS=2.
 Calling FoFCou, ICntrl=  3107 FMM=F I1Cent=   0 AccDes= 0.00D+00.
 FoFDir/FoFCou used for L=0 through L=2.
 End of G2Drv Frequency-dependent properties file   721 does not exist.
 End of G2Drv Frequency-dependent properties file   722 does not exist.
          IDoAtm=1111111111111111111111
          Differentiating once with respect to nuclear coordinates.
          There are    69 degrees of freedom in the 1st order CPHF.  IDoFFX=5.
     63 vectors produced by pass  0 Test12= 7.63D-11 1.45D-07 XBig12= 1.89D-01 1.07D-01.
 AX will form    63 AO Fock derivatives at one time.
     63 vectors produced by pass  1 Test12= 7.63D-11 1.45D-07 XBig12= 3.42D-02 4.78D-02.
     63 vectors produced by pass  2 Test12= 7.63D-11 1.45D-07 XBig12= 4.38D-05 1.93D-03.
     63 vectors produced by pass  3 Test12= 7.63D-11 1.45D-07 XBig12= 9.53D-08 6.30D-05.
     27 vectors produced by pass  4 Test12= 7.63D-11 1.45D-07 XBig12= 9.13D-11 1.63D-06.
 Inverted reduced A of dimension   279 with in-core refinement.
 End of Minotr Frequency-dependent properties file   721 does not exist.
 End of Minotr Frequency-dependent properties file   722 does not exist.

 **********************************************************************

            Population analysis using the SCF density.

 **********************************************************************

 Orbital symmetries:
       Occupied  (A) (A) (A) (A) (A) (A) (A) (A) (A) (A) (A) (A)
                 (A) (A) (A) (A) (A) (A) (A) (A) (A) (A) (A) (A)
                 (A) (A) (A) (A) (A) (A) (A) (A) (A) (A) (A) (A)
                 (A) (A) (A)
       Virtual   (A) (A) (A) (A) (A) (A) (A) (A) (A) (A) (A) (A)
                 (A) (A) (A) (A) (A) (A) (A) (A) (A) (A) (A) (A)
                 (A) (A) (A) (A) (A) (A) (A) (A) (A) (A) (A) (A)
                 (A) (A) (A) (A) (A) (A) (A) (A) (A) (A) (A) (A)
                 (A) (A) (A) (A) (A) (A) (A) (A) (A) (A) (A) (A)
                 (A) (A) (A) (A) (A) (A) (A) (A) (A) (A) (A) (A)
                 (A) (A) (A) (A) (A) (A) (A) (A) (A) (A) (A) (A)
                 (A) (A) (A) (A) (A) (A) (A) (A) (A) (A) (A) (A)
                 (A) (A) (A) (A) (A) (A) (A) (A) (A) (A) (A) (A)
                 (A) (A) (A) (A) (A) (A) (A) (A) (A) (A) (A) (A)
                 (A) (A) (A) (A) (A) (A) (A) (A) (A) (A) (A) (A)
                 (A) (A) (A)
 The electronic state is 1-A.
 Alpha  occ. eigenvalues --  -19.11109 -19.10272 -14.37219 -14.36497 -10.28488
 Alpha  occ. eigenvalues --  -10.28275 -10.23097 -10.22304 -10.18998 -10.16822
 Alpha  occ. eigenvalues --   -1.03867  -1.02652  -0.93354  -0.92791  -0.78295
 Alpha  occ. eigenvalues --   -0.72950  -0.71723  -0.64163  -0.59742  -0.59194
 Alpha  occ. eigenvalues --   -0.54368  -0.48045  -0.47867  -0.46105  -0.45808
 Alpha  occ. eigenvalues --   -0.45175  -0.41964  -0.41542  -0.40617  -0.39664
 Alpha  occ. eigenvalues --   -0.38988  -0.37716  -0.37018  -0.35553  -0.34546
 Alpha  occ. eigenvalues --   -0.26401  -0.25708  -0.24596  -0.24105
 Alpha virt. eigenvalues --    0.01850   0.03897   0.06990   0.07927   0.11832
 Alpha virt. eigenvalues --    0.13071   0.13154   0.15221   0.15944   0.16296
 Alpha virt. eigenvalues --    0.16954   0.17108   0.17904   0.19275   0.19479
 Alpha virt. eigenvalues --    0.22123   0.23330   0.25569   0.27556   0.32550
 Alpha virt. eigenvalues --    0.33923   0.39338   0.41921   0.50537   0.51247
 Alpha virt. eigenvalues --    0.51737   0.52960   0.54050   0.54381   0.56715
 Alpha virt. eigenvalues --    0.57401   0.60306   0.61907   0.63124   0.64329
 Alpha virt. eigenvalues --    0.66615   0.68640   0.69351   0.72373   0.75593
 Alpha virt. eigenvalues --    0.75761   0.76219   0.78255   0.81891   0.83532
 Alpha virt. eigenvalues --    0.84411   0.85775   0.87154   0.87656   0.88702
 Alpha virt. eigenvalues --    0.89099   0.90106   0.90644   0.92235   0.92592
 Alpha virt. eigenvalues --    0.93167   0.94801   0.95765   0.97263   1.00880
 Alpha virt. eigenvalues --    1.02803   1.04421   1.08016   1.12396   1.16511
 Alpha virt. eigenvalues --    1.18084   1.24521   1.27736   1.33197   1.35162
 Alpha virt. eigenvalues --    1.37169   1.39589   1.43004   1.46874   1.50638
 Alpha virt. eigenvalues --    1.52030   1.56036   1.59437   1.63285   1.67312
 Alpha virt. eigenvalues --    1.73794   1.75948   1.79227   1.81902   1.82709
 Alpha virt. eigenvalues --    1.84707   1.85346   1.86802   1.90391   1.92740
 Alpha virt. eigenvalues --    1.94953   1.95672   1.96775   1.99598   2.02677
 Alpha virt. eigenvalues --    2.04715   2.07497   2.10861   2.15488   2.16900
 Alpha virt. eigenvalues --    2.19378   2.22455   2.24731   2.28223   2.29266
 Alpha virt. eigenvalues --    2.30800   2.32355   2.37350   2.39710   2.40853
 Alpha virt. eigenvalues --    2.43907   2.45739   2.52704   2.61642   2.65023
 Alpha virt. eigenvalues --    2.65389   2.68109   2.76644   2.76997   2.90040
 Alpha virt. eigenvalues --    2.92421   2.97418   2.99664   3.15576   3.18651
 Alpha virt. eigenvalues --    3.96011   4.00084   4.05088   4.14592   4.20447
 Alpha virt. eigenvalues --    4.22553   4.28774   4.40883   4.46165   4.62342
          Condensed to atoms (all electrons):
              1          2          3          4          5          6
     1  H    0.499971   0.361449  -0.021591  -0.021058  -0.017940   0.005002
     2  C    0.361449   5.333001   0.349256   0.352324   0.352903  -0.081540
     3  H   -0.021591   0.349256   0.556793  -0.026940  -0.025461   0.001531
     4  H   -0.021058   0.352324  -0.026940   0.548825  -0.026723   0.001371
     5  C   -0.017940   0.352903  -0.025461  -0.026723   4.334458   0.606462
     6  O    0.005002  -0.081540   0.001531   0.001371   0.606462   8.067984
     7  N    0.004478  -0.135713   0.004402   0.004680   0.224238  -0.108722
     8  H   -0.000134  -0.000519   0.001070   0.000907  -0.018842   0.003397
     9  C   -0.000150   0.007565  -0.000216  -0.000234  -0.015621   0.007050
    10  H   -0.000007   0.000929  -0.000049  -0.000017  -0.001205   0.014005
    11  C    0.000007  -0.000431  -0.000002   0.000076  -0.004420  -0.002584
    12  H    0.000000   0.000008   0.000000  -0.000002   0.000087  -0.000021
    13  H    0.000000   0.000004   0.000000   0.000000  -0.000007  -0.000033
    14  H    0.000000   0.000081   0.000000  -0.000035   0.003748   0.003935
    15  C    0.000001  -0.000055   0.000004  -0.000018   0.005445   0.000753
    16  O    0.000000   0.000000   0.000000   0.000000  -0.000109  -0.000002
    17  N    0.000000  -0.000011   0.000001   0.000000  -0.000158  -0.000003
    18  H    0.000000   0.000001   0.000001   0.000000   0.000078  -0.000028
    19  C    0.000000   0.000000   0.000000   0.000000   0.000003   0.000000
    20  H    0.000000   0.000000   0.000000   0.000000   0.000001   0.000000
    21  H    0.000000   0.000000   0.000000   0.000000   0.000000   0.000000
    22  H    0.000000   0.000000   0.000000   0.000000   0.000000   0.000000
              7          8          9         10         11         12
     1  H    0.004478  -0.000134  -0.000150  -0.000007   0.000007   0.000000
     2  C   -0.135713  -0.000519   0.007565   0.000929  -0.000431   0.000008
     3  H    0.004402   0.001070  -0.000216  -0.000049  -0.000002   0.000000
     4  H    0.004680   0.000907  -0.000234  -0.000017   0.000076  -0.000002
     5  C    0.224238  -0.018842  -0.015621  -0.001205  -0.004420   0.000087
     6  O   -0.108722   0.003397   0.007050   0.014005  -0.002584  -0.000021
     7  N    7.199778   0.299251   0.235039  -0.048152  -0.061343  -0.001814
     8  H    0.299251   0.406525  -0.036860   0.005110   0.001281   0.001979
     9  C    0.235039  -0.036860   5.091817   0.365144   0.363766  -0.031644
    10  H   -0.048152   0.005110   0.365144   0.575016  -0.046118   0.005347
    11  C   -0.061343   0.001281   0.363766  -0.046118   5.113327   0.372310
    12  H   -0.001814   0.001979  -0.031644   0.005347   0.372310   0.538151
    13  H    0.005214  -0.000133  -0.030438   0.000128   0.365813  -0.023016
    14  H   -0.007643  -0.000124  -0.027164  -0.003541   0.363309  -0.029299
    15  C   -0.027956  -0.000762   0.291947  -0.042032  -0.037619  -0.009016
    16  O   -0.002364   0.003381  -0.090412   0.002977  -0.000875   0.010896
    17  N   -0.000773   0.000724  -0.110905   0.003133   0.003750   0.000495
    18  H    0.000889  -0.000014   0.001388   0.002441   0.000047  -0.000010
    19  C   -0.000174  -0.000015   0.006975  -0.000131  -0.000222   0.000001
    20  H   -0.000012  -0.000018   0.001204  -0.000050  -0.000015  -0.000012
    21  H    0.000036   0.000000  -0.000171  -0.000008  -0.000002   0.000000
    22  H   -0.000005   0.000000  -0.000174  -0.000019   0.000015   0.000000
             13         14         15         16         17         18
     1  H    0.000000   0.000000   0.000001   0.000000   0.000000   0.000000
     2  C    0.000004   0.000081  -0.000055   0.000000  -0.000011   0.000001
     3  H    0.000000   0.000000   0.000004   0.000000   0.000001   0.000001
     4  H    0.000000  -0.000035  -0.000018   0.000000   0.000000   0.000000
     5  C   -0.000007   0.003748   0.005445  -0.000109  -0.000158   0.000078
     6  O   -0.000033   0.003935   0.000753  -0.000002  -0.000003  -0.000028
     7  N    0.005214  -0.007643  -0.027956  -0.002364  -0.000773   0.000889
     8  H   -0.000133  -0.000124  -0.000762   0.003381   0.000724  -0.000014
     9  C   -0.030438  -0.027164   0.291947  -0.090412  -0.110905   0.001388
    10  H    0.000128  -0.003541  -0.042032   0.002977   0.003133   0.002441
    11  C    0.365813   0.363309  -0.037619  -0.000875   0.003750   0.000047
    12  H   -0.023016  -0.029299  -0.009016   0.010896   0.000495  -0.000010
    13  H    0.563597  -0.027664  -0.001105  -0.000488   0.000113  -0.000027
    14  H   -0.027664   0.557576   0.005806   0.000669  -0.000079  -0.000021
    15  C   -0.001105   0.005806   4.421386   0.572856   0.284681  -0.018165
    16  O   -0.000488   0.000669   0.572856   8.108499  -0.099478   0.003520
    17  N    0.000113  -0.000079   0.284681  -0.099478   7.058744   0.304567
    18  H   -0.000027  -0.000021  -0.018165   0.003520   0.304567   0.401706
    19  C   -0.000006   0.000002  -0.026914  -0.009094   0.261107  -0.032066
    20  H   -0.000001   0.000000  -0.000767   0.021887  -0.037252   0.003808
    21  H    0.000000   0.000000   0.001645   0.000588  -0.043603  -0.000927
    22  H    0.000000   0.000000   0.001400   0.000601  -0.042988  -0.000690
             19         20         21         22
     1  H    0.000000   0.000000   0.000000   0.000000
     2  C    0.000000   0.000000   0.000000   0.000000
     3  H    0.000000   0.000000   0.000000   0.000000
     4  H    0.000000   0.000000   0.000000   0.000000
     5  C    0.000003   0.000001   0.000000   0.000000
     6  O    0.000000   0.000000   0.000000   0.000000
     7  N   -0.000174  -0.000012   0.000036  -0.000005
     8  H   -0.000015  -0.000018   0.000000   0.000000
     9  C    0.006975   0.001204  -0.000171  -0.000174
    10  H   -0.000131  -0.000050  -0.000008  -0.000019
    11  C   -0.000222  -0.000015  -0.000002   0.000015
    12  H    0.000001  -0.000012   0.000000   0.000000
    13  H   -0.000006  -0.000001   0.000000   0.000000
    14  H    0.000002   0.000000   0.000000   0.000000
    15  C   -0.026914  -0.000767   0.001645   0.001400
    16  O   -0.009094   0.021887   0.000588   0.000601
    17  N    0.261107  -0.037252  -0.043603  -0.042988
    18  H   -0.032066   0.003808  -0.000927  -0.000690
    19  C    4.975962   0.376187   0.382018   0.382837
    20  H    0.376187   0.472194  -0.024124  -0.023863
    21  H    0.382018  -0.024124   0.563089  -0.037978
    22  H    0.382837  -0.023863  -0.037978   0.558437
 Mulliken atomic charges:
              1
     1  H    0.189972
     2  C   -0.539254
     3  H    0.161199
     4  H    0.166846
     5  C    0.583062
     6  O   -0.518559
     7  N   -0.583334
     8  H    0.333794
     9  C   -0.027907
    10  H    0.167099
    11  C   -0.430069
    12  H    0.165559
    13  H    0.148051
    14  H    0.160443
    15  C    0.578487
    16  O   -0.523054
    17  N   -0.582066
    18  H    0.333502
    19  C   -0.316469
    20  H    0.210832
    21  H    0.159436
    22  H    0.162429
 Sum of Mulliken atomic charges =   0.00000
 Mulliken charges with hydrogens summed into heavy atoms:
              1
     2  C   -0.021237
     5  C    0.583062
     6  O   -0.518559
     7  N   -0.249540
     9  C    0.139192
    11  C    0.043984
    15  C    0.578487
    16  O   -0.523054
    17  N   -0.248564
    19  C    0.216229
 Sum of Mulliken charges with hydrogens summed into heavy atoms =   0.00000
 APT atomic charges:
              1
     1  H    0.730974
     2  C   -1.225265
     3  H    0.301826
     4  H    0.401557
     5  C   -0.088129
     6  O   -0.092938
     7  N   -0.619546
     8  H    0.504009
     9  C   -0.367009
    10  H    0.362903
    11  C   -1.205360
    12  H    0.379527
    13  H    0.451265
    14  H    0.439605
    15  C   -0.188723
    16  O   -0.075395
    17  N   -0.325458
    18  H    0.461827
    19  C   -1.410868
    20  H    0.485835
    21  H    0.469363
    22  H    0.610001
 Sum of APT charges=   0.00000
 APT Atomic charges with hydrogens summed into heavy atoms:
              1
     1  H    0.000000
     2  C    0.209091
     3  H    0.000000
     4  H    0.000000
     5  C   -0.088129
     6  O   -0.092938
     7  N   -0.115537
     8  H    0.000000
     9  C   -0.004106
    10  H    0.000000
    11  C    0.065038
    12  H    0.000000
    13  H    0.000000
    14  H    0.000000
    15  C   -0.188723
    16  O   -0.075395
    17  N    0.136369
    18  H    0.000000
    19  C    0.154330
    20  H    0.000000
    21  H    0.000000
    22  H    0.000000
 Sum of APT charges=   0.00000
 Electronic spatial extent (au):  <R**2>=           1907.9234
 Charge=              0.0000 electrons
 Dipole moment (field-independent basis, Debye):
    X=             -1.2576    Y=             -3.0260    Z=             -0.6191  Tot=              3.3349
 Quadrupole moment (field-independent basis, Debye-Ang):
   XX=            -62.5127   YY=            -57.7404   ZZ=            -61.5245
   XY=              4.3036   XZ=            -12.9015   YZ=              1.3711
 Traceless Quadrupole moment (field-independent basis, Debye-Ang):
   XX=             -1.9202   YY=              2.8521   ZZ=             -0.9320
   XY=              4.3036   XZ=            -12.9015   YZ=              1.3711
 Octapole moment (field-independent basis, Debye-Ang**2):
  XXX=            -18.9405  YYY=             -5.6759  ZZZ=             -2.4680  XYY=             -0.2387
  XXY=            -20.9323  XXZ=             -9.2649  XZZ=             -6.0256  YZZ=             -4.6650
  YYZ=              4.4907  XYZ=             -1.4209
 Hexadecapole moment (field-independent basis, Debye-Ang**3):
 XXXX=          -1655.5398 YYYY=           -490.4680 ZZZZ=           -230.8923 XXXY=             21.7343
 XXXZ=            -51.7735 YYYX=              6.2999 YYYZ=             -3.3690 ZZZX=            -11.7270
 ZZZY=             -6.1073 XXYY=           -357.3620 XXZZ=           -351.9213 YYZZ=           -119.0518
 XXYZ=              3.3947 YYXZ=             -2.5282 ZZXY=              8.7401
 N-N= 5.522233688426D+02 E-N=-2.260694256510D+03  KE= 4.915294944832D+02
  Exact polarizability:   0.000   0.000   0.000   0.000   0.000   0.000
 Approx polarizability: 113.942  -1.575 102.477  12.846  -9.402 119.837
 Calling FoFJK, ICntrl=    100147 FMM=F ISym2X=0 I1Cent= 0 IOpClX= 0 NMat=1 NMatS=1 NMatT=0.
 ***** Axes restored to original set *****
 -------------------------------------------------------------------
 Center     Atomic                   Forces (Hartrees/Bohr)
 Number     Number              X              Y              Z
 -------------------------------------------------------------------
      1        1           0.003689682    0.000908730    0.000406503
      2        6           0.005983427    0.008454029   -0.002867995
      3        1          -0.006585210    0.000859488   -0.000132453
      4        1          -0.005673656   -0.000723241   -0.003123709
      5        6          -0.004155744   -0.038654608    0.018471102
      6        8           0.003914488    0.003017204    0.000094831
      7        7          -0.004462534    0.024328729   -0.003364125
      8        1          -0.000169245    0.000385445   -0.002311185
      9        6           0.012953724    0.000893833   -0.007477847
     10        1          -0.003792874   -0.005989688    0.004184394
     11        6           0.000266508   -0.005173729    0.000653280
     12        1           0.001630378    0.001621599   -0.002013525
     13        1           0.003355772    0.000418375   -0.003055209
     14        1           0.001261992   -0.002613949    0.000153847
     15        6          -0.004699074   -0.002819302   -0.021350068
     16        8          -0.002619877    0.002946926   -0.002253070
     17        7          -0.000349524    0.008264404    0.016588509
     18        1           0.000194316   -0.001399985   -0.000528103
     19        6          -0.000250833    0.000119939    0.004160027
     20        1           0.000348848   -0.003172025   -0.000610152
     21        1          -0.002817030    0.004024248    0.002238418
     22        1           0.001976468    0.004303577    0.002136528
 -------------------------------------------------------------------
 Cartesian Forces:  Max     0.038654608 RMS     0.007801458

 GradGradGradGradGradGradGradGradGradGradGradGradGradGradGradGradGradGrad
 Berny optimization.
 Internal  Forces:  Max     0.029218775 RMS     0.005536531
 Search for a local minimum.
 Step number   1 out of a maximum of  132
 All quantities printed in internal units (Hartrees-Bohrs-Radians)
 Mixed Optimization -- RFO/linear search
 Second derivative matrix not updated -- analytic derivatives used.
     Eigenvalues ---   -0.00078  -0.00042   0.00239   0.00341   0.00430
     Eigenvalues ---    0.01756   0.01826   0.02221   0.03838   0.04029
     Eigenvalues ---    0.04582   0.04754   0.04986   0.05453   0.05830
     Eigenvalues ---    0.05983   0.06396   0.06585   0.11841   0.12073
     Eigenvalues ---    0.12467   0.12859   0.13299   0.13346   0.13397
     Eigenvalues ---    0.14298   0.14549   0.16851   0.17735   0.18052
     Eigenvalues ---    0.18515   0.19612   0.21237   0.22348   0.24119
     Eigenvalues ---    0.24257   0.24993   0.30356   0.33131   0.34588
     Eigenvalues ---    0.34625   0.34704   0.35061   0.35069   0.35176
     Eigenvalues ---    0.35487   0.35743   0.35892   0.35913   0.36844
     Eigenvalues ---    0.38329   0.39507   0.46891   0.46912   0.53465
     Eigenvalues ---    0.54661   0.82945   0.830681000.000001000.00000
     Eigenvalues --- 1000.000001000.000001000.000001000.000001000.00000
     Eigenvalues --- 1000.000001000.000001000.000001000.000001000.00000
     Eigenvalues --- 1000.000001000.000001000.000001000.000001000.00000
     Eigenvalues --- 1000.000001000.000001000.000001000.000001000.00000
     Eigenvalues --- 1000.000001000.000001000.000001000.000001000.00000
     Eigenvalues --- 1000.000001000.000001000.000001000.000001000.00000
     Eigenvalues --- 1000.000001000.000001000.000001000.000001000.00000
     Eigenvalues --- 1000.000001000.000001000.00000
 RFO step:  Lambda=-1.00043458D-02 EMin=-7.77213050D-04
 Linear search not attempted -- first point.
 Maximum step size (   0.300) exceeded in Quadratic search.
    -- Step size scaled by   0.315
 Iteration  1 RMS(Cart)=  0.04310873 RMS(Int)=  0.00170272
 Iteration  2 RMS(Cart)=  0.00182746 RMS(Int)=  0.00005468
 Iteration  3 RMS(Cart)=  0.00000294 RMS(Int)=  0.00005463
 Iteration  4 RMS(Cart)=  0.00000000 RMS(Int)=  0.00005463
 Iteration  1 RMS(Cart)=  0.00002339 RMS(Int)=  0.00000757
 Iteration  2 RMS(Cart)=  0.00001280 RMS(Int)=  0.00000840
 Iteration  3 RMS(Cart)=  0.00000717 RMS(Int)=  0.00000957
 Iteration  4 RMS(Cart)=  0.00000414 RMS(Int)=  0.00001045
 Iteration  5 RMS(Cart)=  0.00000247 RMS(Int)=  0.00001106
 Iteration  6 RMS(Cart)=  0.00000152 RMS(Int)=  0.00001146
 Iteration  7 RMS(Cart)=  0.00000097 RMS(Int)=  0.00001173
 Variable       Old X    -DE/DX   Delta X   Delta X   Delta X     New X
                                 (Linear)    (Quad)   (Total)
    R1        2.05977  -0.00083   0.00000   0.00020   0.00020   2.05998
    R2        2.05987   0.00459   0.00000   0.00343   0.00343   2.06330
    R3        2.05965   0.00454   0.00000   0.00383   0.00383   2.06348
    R4        2.89132  -0.00086   0.00000  -0.00383  -0.00383   2.88749
    R5        2.32240   0.00135   0.00000  -0.00205  -0.00205   2.32035
    R6        2.52289   0.02922   0.00000   0.01813   0.01813   2.54102
    R7        1.90859   0.00133   0.00000   0.00077   0.00077   1.90935
    R8        2.73817   0.00732   0.00000   0.00710   0.00710   2.74527
    R9        2.05975   0.00312   0.00000   0.00247   0.00247   2.06221
   R10        2.88188   0.00838   0.00000   0.00331   0.00331   2.88519
   R11        2.87618   0.01296   0.00000   0.00941   0.00941   2.88559
   R12        2.05972   0.00131   0.00000   0.00186   0.00186   2.06158
   R13        2.05984   0.00310   0.00000   0.00323   0.00323   2.06307
   R14        2.05966   0.00276   0.00000   0.00211   0.00211   2.06177
   R15        2.32241   0.00355   0.00000  -0.00127  -0.00127   2.32113
   R16        2.52279   0.02692   0.00000   0.01509   0.01509   2.53787
   R17        1.90861   0.00034   0.00000   0.00012   0.00012   1.90873
   R18        2.73835   0.00602   0.00000   0.00183   0.00183   2.74018
   R19        2.05980  -0.00079   0.00000   0.00040   0.00040   2.06020
   R20        2.05975   0.00434   0.00000   0.00431   0.00431   2.06406
   R21        2.05964   0.00419   0.00000   0.00302   0.00302   2.06266
    A1        1.91109  -0.00015   0.00000   0.00106   0.00111   1.91220
    A2        1.91123  -0.00017   0.00000  -0.00418  -0.00420   1.90704
    A3        1.93910  -0.00784   0.00000  -0.01325  -0.01323   1.92587
    A4        1.91012  -0.00523   0.00000  -0.00849  -0.00857   1.90155
    A5        1.89594   0.00684   0.00000   0.01991   0.01989   1.91584
    A6        1.89607   0.00660   0.00000   0.00508   0.00503   1.90110
    A7        2.10313   0.00944   0.00000   0.01238   0.01237   2.11550
    A8        2.03508  -0.00791   0.00000  -0.00920  -0.00921   2.02588
    A9        2.14497  -0.00153   0.00000  -0.00318  -0.00319   2.14178
   A10        2.09430  -0.00039   0.00000   0.00027   0.00009   2.09439
   A11        2.12753   0.00217   0.00000   0.00201   0.00183   2.12937
   A12        2.06135  -0.00179   0.00000  -0.00228  -0.00245   2.05890
   A13        1.91114  -0.00220   0.00000  -0.01578  -0.01579   1.89535
   A14        1.93905   0.00316   0.00000   0.00775   0.00785   1.94689
   A15        1.93900  -0.00848   0.00000  -0.01786  -0.01794   1.92106
   A16        1.89609  -0.00230   0.00000   0.00304   0.00296   1.89906
   A17        1.89608   0.00153   0.00000   0.00934   0.00907   1.90515
   A18        1.88137   0.00849   0.00000   0.01445   0.01449   1.89586
   A19        1.91115   0.00178   0.00000   0.00408   0.00408   1.91522
   A20        1.91106   0.00413   0.00000   0.00537   0.00536   1.91643
   A21        1.91110  -0.00041   0.00000   0.00062   0.00061   1.91171
   A22        1.91011  -0.00337   0.00000  -0.00777  -0.00778   1.90233
   A23        1.91023  -0.00019   0.00000   0.00133   0.00132   1.91156
   A24        1.91015  -0.00194   0.00000  -0.00364  -0.00364   1.90651
   A25        2.10314   0.00594   0.00000   0.00608   0.00607   2.10921
   A26        2.03505  -0.00816   0.00000  -0.00999  -0.01000   2.02505
   A27        2.14500   0.00223   0.00000   0.00391   0.00391   2.14890
   A28        2.09441  -0.00449   0.00000  -0.00900  -0.00903   2.08538
   A29        2.12759   0.00617   0.00000   0.00542   0.00538   2.13297
   A30        2.06119  -0.00168   0.00000   0.00358   0.00355   2.06473
   A31        1.91105  -0.00646   0.00000  -0.01157  -0.01155   1.89950
   A32        1.91117   0.00496   0.00000   0.01200   0.01199   1.92315
   A33        1.91108   0.00469   0.00000   0.00537   0.00534   1.91643
   A34        1.91014   0.00002   0.00000  -0.00307  -0.00303   1.90711
   A35        1.91015   0.00002   0.00000   0.00082   0.00083   1.91098
   A36        1.91021  -0.00323   0.00000  -0.00355  -0.00361   1.90660
    D1        0.00008  -0.00011   0.00000   0.09336   0.09340   0.09348
    D2       -3.14153   0.00000   0.00000   0.08666   0.08668  -3.05486
    D3        2.10332  -0.00073   0.00000   0.09935   0.09931   2.20262
    D4       -1.03830  -0.00062   0.00000   0.09265   0.09258  -0.94571
    D5       -2.10341   0.00068   0.00000   0.10346   0.10350  -1.99991
    D6        1.03816   0.00079   0.00000   0.09676   0.09678   1.13494
    D7       -0.00004   0.00002   0.00000  -0.00592  -0.00593  -0.00597
    D8       -3.14152   0.00070   0.00000   0.02937   0.02934  -3.11218
    D9        3.14153   0.00013   0.00000  -0.01279  -0.01276   3.12877
   D10        0.00005   0.00081   0.00000   0.02250   0.02251   0.02256
   D11       -0.52362  -0.00047   0.00000  -0.00992  -0.00975  -0.53338
   D12        1.57082  -0.00276   0.00000  -0.01150  -0.01144   1.55938
   D13       -2.61802   0.00441   0.00000   0.00000   0.00000  -2.61802
   D14        2.61807   0.00019   0.00000   0.02474   0.02484   2.64291
   D15       -1.57067  -0.00210   0.00000   0.02316   0.02315  -1.54752
   D16        0.52368   0.00507   0.00000   0.03466   0.03458   0.55826
   D17        1.04724   0.00029   0.00000   0.00781   0.00784   1.05508
   D18        3.14157  -0.00022   0.00000   0.00408   0.00411  -3.13751
   D19       -1.04726  -0.00032   0.00000   0.00330   0.00332  -1.04395
   D20       -3.13259  -0.00196   0.00000  -0.00496  -0.00495  -3.13754
   D21       -1.03826  -0.00247   0.00000  -0.00869  -0.00868  -1.04694
   D22        1.05609  -0.00257   0.00000  -0.00947  -0.00947   1.04662
   D23       -1.08102   0.00326   0.00000   0.01566   0.01563  -1.06539
   D24        1.01331   0.00276   0.00000   0.01193   0.01190   1.02521
   D25        3.10766   0.00266   0.00000   0.01114   0.01111   3.11877
   D26       -1.57082  -0.00241   0.00000   0.00735   0.00734  -1.56347
   D27        1.57081  -0.00329   0.00000   0.00000   0.00000   1.57081
   D28        2.60905   0.00457   0.00000   0.03189   0.03199   2.64105
   D29       -0.53250   0.00369   0.00000   0.02455   0.02465  -0.50785
   D30        0.55747   0.00181   0.00000   0.01535   0.01527   0.57274
   D31       -2.58408   0.00094   0.00000   0.00800   0.00792  -2.57616
   D32       -0.00008   0.00053   0.00000  -0.00478  -0.00475  -0.00483
   D33       -3.14158   0.00057   0.00000   0.01118   0.01114  -3.13044
   D34        3.14155  -0.00037   0.00000  -0.01232  -0.01228   3.12927
   D35        0.00005  -0.00033   0.00000   0.00364   0.00361   0.00366
   D36       -0.00005  -0.00008   0.00000  -0.07112  -0.07113  -0.07119
   D37        2.09432  -0.00097   0.00000  -0.07462  -0.07467   2.01965
   D38       -2.09439   0.00098   0.00000  -0.06832  -0.06831  -2.16270
   D39       -3.14155  -0.00004   0.00000  -0.05546  -0.05542   3.08621
   D40       -1.04718  -0.00093   0.00000  -0.05895  -0.05897  -1.10615
   D41        1.04730   0.00102   0.00000  -0.05265  -0.05261   0.99469
         Item               Value     Threshold  Converged?
 Maximum Force            0.029219     0.000450     NO 
 RMS     Force            0.005534     0.000300     NO 
 Maximum Displacement     0.176835     0.001800     NO 
 RMS     Displacement     0.043179     0.001200     NO 
 Predicted change in Energy=-2.758849D-03
 GradGradGradGradGradGradGradGradGradGradGradGradGradGradGradGradGradGrad

                          Input orientation:                          
 ---------------------------------------------------------------------
 Center     Atomic      Atomic             Coordinates (Angstroms)
 Number     Number       Type             X           Y           Z
 ---------------------------------------------------------------------
      1          1           0        1.866278    1.295017    1.068255
      2          6           0        1.942480    2.222508    0.500578
      3          1           0        1.233192    2.952410    0.895923
      4          1           0        1.701848    2.025109   -0.546075
      5          6           0        3.361657    2.782373    0.585728
      6          8           0        4.259626    2.157762    1.143577
      7          7           0        3.559338    3.981748    0.010829
      8          1           0        2.792980    4.454982   -0.447018
      9          6           0        4.865564    4.616977   -0.015558
     10          1           0        5.418646    4.312479    0.874535
     11          6           0        5.661997    4.210319   -1.253044
     12          1           0        5.123874    4.511716   -2.152897
     13          1           0        6.637943    4.699487   -1.242018
     14          1           0        5.802280    3.128342   -1.257271
     15          6           0        4.709654    6.135981   -0.013388
     16          8           0        4.616684    6.761091   -1.066617
     17          7           0        4.673514    6.722932    1.194002
     18          1           0        4.744263    6.154053    2.025619
     19          6           0        4.515835    8.155634    1.352506
     20          1           0        4.512698    8.620578    0.366413
     21          1           0        3.573672    8.377463    1.858606
     22          1           0        5.343276    8.555837    1.941215
 ---------------------------------------------------------------------
                    Distance matrix (angstroms):
                    1          2          3          4          5
     1  H    0.000000
     2  C    1.090093   0.000000
     3  H    1.782540   1.091854   0.000000
     4  H    1.779363   1.091949   1.777325   0.000000
     5  C    2.163612   1.527994   2.157660   2.146950   0.000000
     6  O    2.545214   2.405578   3.138806   3.068346   1.227877
     7  N    3.347107   2.439060   2.693303   2.754786   1.344652
     8  H    3.624943   2.570065   2.548363   2.665458   2.046358
     9  C    4.604973   3.813699   4.098256   4.124115   2.447254
    10  H    4.664968   4.073274   4.400940   4.589639   2.579891
    11  C    5.319295   4.567427   5.080818   4.577961   3.272870
    12  H    5.597759   4.733146   5.183064   4.524970   3.687290
    13  H    6.300521   5.587436   6.069136   5.657002   4.213079
    14  H    4.925572   4.336891   5.054084   4.305399   3.077821
    15  C    5.717488   4.820445   4.800808   5.121516   3.663703
    16  O    6.480769   5.496017   5.459453   5.585405   4.487263
    17  N    6.112172   5.309728   5.112877   5.824793   4.197496
    18  H    5.727965   5.062884   4.884092   5.737428   3.918305
    19  C    7.359960   6.523030   6.169096   7.007601   5.549054
    20  H    7.820483   6.896327   6.569906   7.227290   5.954631
    21  H    7.328089   6.510645   5.986301   7.045468   5.741968
    22  H    8.097598   7.331570   7.027363   7.880167   6.252763
                    6          7          8          9         10
     6  O    0.000000
     7  N    2.258417   0.000000
     8  H    3.155671   1.010385   0.000000
     9  C    2.785406   1.452735   2.123206   0.000000
    10  H    2.461405   2.076632   2.942946   1.091276   0.000000
    11  C    3.453031   2.463899   2.990117   1.526777   2.143886
    12  H    4.141831   2.722196   2.888998   2.155464   3.048267
    13  H    4.219931   3.400380   3.933897   2.156929   2.473107
    14  H    3.014278   2.714253   3.387089   2.152980   2.468593
    15  C    4.167411   2.442239   2.586007   1.526986   2.148543
    16  O    5.118894   3.162849   3.004652   2.400810   3.225974
    17  N    4.584171   3.186750   3.372381   2.436179   2.543141
    18  H    4.121070   3.190978   3.578866   2.558070   2.274024
    19  C    6.006976   4.487349   4.461092   3.809987   3.976602
    20  H    6.514293   4.749113   4.579442   4.037231   4.431551
    21  H    6.298133   4.768311   4.616409   4.395763   4.571260
    22  H    6.538034   5.275521   5.387456   4.424002   4.376023
                   11         12         13         14         15
    11  C    0.000000
    12  H    1.090942   0.000000
    13  H    1.091731   1.776897   0.000000
    14  H    1.091042   1.782163   1.779625   0.000000
    15  C    2.480299   2.717962   2.700250   3.433217   0.000000
    16  O    2.762946   2.548908   2.892484   3.826075   1.228290
    17  N    3.643948   4.036587   3.726595   4.494879   1.342985
    18  H    3.920455   4.505704   4.047127   4.588213   2.039380
    19  C    4.864986   5.092710   4.814546   5.808575   2.445859
    20  H    4.836726   4.858313   4.741168   5.870608   2.521163
    21  H    5.604334   5.782671   5.703608   6.498358   3.133537
    22  H    5.402629   5.758890   5.165324   6.316543   3.174532
                   16         17         18         19         20
    16  O    0.000000
    17  N    2.261655   0.000000
    18  H    3.153838   1.010057   0.000000
    19  C    2.794115   1.450041   2.124049   0.000000
    20  H    2.349911   2.076493   2.981666   1.090212   0.000000
    21  H    3.501066   2.094952   2.518279   1.092253   1.779752
    22  H    3.577165   2.089605   2.476793   1.091513   1.781588
                   21         22
    21  H    0.000000
    22  H    1.780490   0.000000
 Stoichiometry    C6H12N2O2
 Framework group  C1[X(C6H12N2O2)]
 Deg. of freedom    60
 Full point group                 C1      NOp   1
 Largest Abelian subgroup         C1      NOp   1
 Largest concise Abelian subgroup C1      NOp   1
                         Standard orientation:                         
 ---------------------------------------------------------------------
 Center     Atomic      Atomic             Coordinates (Angstroms)
 Number     Number       Type             X           Y           Z
 ---------------------------------------------------------------------
      1          1           0        4.047910   -1.383559   -0.293005
      2          6           0        3.143585   -1.102813   -0.833080
      3          1           0        2.666362   -1.997877   -1.237137
      4          1           0        3.408388   -0.438794   -1.658496
      5          6           0        2.173811   -0.375092    0.096827
      6          8           0        2.490118   -0.088977    1.248247
      7          7           0        0.973431   -0.067013   -0.424960
      8          1           0        0.760358   -0.312521   -1.381623
      9          6           0       -0.032966    0.656090    0.333146
     10          1           0        0.084011    0.410126    1.389887
     11          6           0        0.112232    2.166078    0.160219
     12          1           0       -0.006374    2.429466   -0.891785
     13          1           0       -0.653633    2.680545    0.743873
     14          1           0        1.098496    2.479647    0.505659
     15          6           0       -1.430219    0.244838   -0.125377
     16          8           0       -1.993418    0.839971   -1.040428
     17          7           0       -1.980908   -0.794635    0.522578
     18          1           0       -1.463751   -1.250864    1.260561
     19          6           0       -3.295940   -1.305480    0.187395
     20          1           0       -3.734592   -0.670189   -0.582380
     21          1           0       -3.218386   -2.327585   -0.189838
     22          1           0       -3.933058   -1.296541    1.073624
 ---------------------------------------------------------------------
 Rotational constants (GHZ):      2.2352518      0.7084152      0.6349995
 Standard basis: 6-31G(d) (6D, 7F)
 There are   174 symmetry adapted basis functions of A   symmetry.
 Integral buffers will be    131072 words long.
 Raffenetti 2 integral format.
 Two-electron integral symmetry is turned on.
   174 basis functions,   328 primitive gaussians,   174 cartesian basis functions
    39 alpha electrons       39 beta electrons
       nuclear repulsion energy       551.1710586986 Hartrees.
 NAtoms=   22 NActive=   22 NUniq=   22 SFac= 7.50D-01 NAtFMM=   80 NAOKFM=F Big=F
 One-electron integrals computed using PRISM.
 NBasis=   174 RedAO= T  NBF=   174
 NBsUse=   174 1.00D-06 NBFU=   174
 Initial guess read from the read-write file.
 B after Tr=     0.000000    0.000000    0.000000
         Rot=    1.000000    0.000000    0.000000    0.000000 Ang=   0.00 deg.
 Initial guess orbital symmetries:
       Occupied  (A) (A) (A) (A) (A) (A) (A) (A) (A) (A) (A) (A)
                 (A) (A) (A) (A) (A) (A) (A) (A) (A) (A) (A) (A)
                 (A) (A) (A) (A) (A) (A) (A) (A) (A) (A) (A) (A)
                 (A) (A) (A)
       Virtual   (A) (A) (A) (A) (A) (A) (A) (A) (A) (A) (A) (A)
                 (A) (A) (A) (A) (A) (A) (A) (A) (A) (A) (A) (A)
                 (A) (A) (A) (A) (A) (A) (A) (A) (A) (A) (A) (A)
                 (A) (A) (A) (A) (A) (A) (A) (A) (A) (A) (A) (A)
                 (A) (A) (A) (A) (A) (A) (A) (A) (A) (A) (A) (A)
                 (A) (A) (A) (A) (A) (A) (A) (A) (A) (A) (A) (A)
                 (A) (A) (A) (A) (A) (A) (A) (A) (A) (A) (A) (A)
                 (A) (A) (A) (A) (A) (A) (A) (A) (A) (A) (A) (A)
                 (A) (A) (A) (A) (A) (A) (A) (A) (A) (A) (A) (A)
                 (A) (A) (A) (A) (A) (A) (A) (A) (A) (A) (A) (A)
                 (A) (A) (A) (A) (A) (A) (A) (A) (A) (A) (A) (A)
                 (A) (A) (A)
 Harris functional with IExCor=  402 diagonalized for initial guess.
 ExpMin= 1.61D-01 ExpMax= 5.48D+03 ExpMxC= 8.25D+02 IAcc=1 IRadAn=         1 AccDes= 0.00D+00
 HarFok:  IExCor=  402 AccDes= 0.00D+00 IRadAn=         1 IDoV= 1
 ScaDFX=  1.000000  1.000000  1.000000  1.000000
 FoFCou: FMM=F IPFlag=           0 FMFlag=      100000 FMFlg1=           0
         NFxFlg=           0 DoJE=T BraDBF=F KetDBF=T FulRan=T
         Omega=  0.000000  0.000000  1.000000  0.000000  0.000000 ICntrl=     500 IOpCl=  0
         NMat0=    1 NMatS0=    1 NMatT0=    0 NMatD0=    1 NMtDS0=    0 NMtDT0=    0
         I1Cent=           4 NGrid=           0.
 Petite list used in FoFCou.
 Requested convergence on RMS density matrix=1.00D-08 within 128 cycles.
 Requested convergence on MAX density matrix=1.00D-06.
 Requested convergence on             energy=1.00D-06.
 No special actions if energy rises.
 Integral accuracy reduced to 1.0D-05 until final iterations.
 Initial convergence to 1.0D-05 achieved.  Increase integral accuracy.
 SCF Done:  E(RB3LYP) =  -495.844620004     A.U. after   11 cycles
             Convg  =    0.9559D-08             -V/T =  2.0090
 Calling FoFJK, ICntrl=      2127 FMM=F ISym2X=0 I1Cent= 0 IOpClX= 0 NMat=1 NMatS=1 NMatT=0.
 ***** Axes restored to original set *****
 -------------------------------------------------------------------
 Center     Atomic                   Forces (Hartrees/Bohr)
 Number     Number              X              Y              Z
 -------------------------------------------------------------------
      1        1           0.002511908    0.000649375    0.000375932
      2        6           0.004356117    0.006133864   -0.002018845
      3        1          -0.004586278    0.000521097   -0.000421704
      4        1          -0.003895257   -0.000813973   -0.002244190
      5        6          -0.003115027   -0.026877402    0.013418154
      6        8           0.002688727    0.002105825    0.000025283
      7        7          -0.003108258    0.017365538   -0.001855437
      8        1           0.000002202   -0.000060776   -0.002098295
      9        6           0.009636554    0.000969123   -0.005916066
     10        1          -0.002999662   -0.004417541    0.003031292
     11        6           0.000069680   -0.003703299    0.000532897
     12        1           0.001212320    0.001185101   -0.001425442
     13        1           0.002328400    0.000199381   -0.002154390
     14        1           0.000851069   -0.001824028    0.000093145
     15        6          -0.003656901   -0.001836562   -0.014712050
     16        8          -0.002188745    0.002051977   -0.001418695
     17        7           0.000521980    0.005805067    0.011679304
     18        1           0.000126256   -0.000996740   -0.000419505
     19        6          -0.000244865   -0.000115604    0.002960178
     20        1           0.000300033   -0.002156529   -0.000442754
     21        1          -0.002059354    0.002800622    0.001453175
     22        1           0.001249098    0.003015486    0.001558013
 -------------------------------------------------------------------
 Cartesian Forces:  Max     0.026877402 RMS     0.005517435

 GradGradGradGradGradGradGradGradGradGradGradGradGradGradGradGradGradGrad
 Berny optimization.
 Using GEDIIS/GDIIS optimizer.
 Internal  Forces:  Max     0.020509593 RMS     0.003889442
 Search for a local minimum.
 Step number   2 out of a maximum of  132
 All quantities printed in internal units (Hartrees-Bohrs-Radians)
 Mixed Optimization -- RFO/linear search
 Update second derivatives using D2CorX and points    1    2
 DE= -2.76D-03 DEPred=-2.76D-03 R= 1.00D+00
 SS=  1.41D+00  RLast= 3.00D-01 DXNew= 5.0454D-01 9.0000D-01
 Trust test= 1.00D+00 RLast= 3.00D-01 DXMaxT set to 5.05D-01
 Use linear search instead of GDIIS.
 Linear search step of   0.594 exceeds DXMaxT=   0.505 but not scaled.
 Quartic linear search produced a step of  2.00000.
 Iteration  1 RMS(Cart)=  0.08591110 RMS(Int)=  0.00678532
 Iteration  2 RMS(Cart)=  0.00732596 RMS(Int)=  0.00032877
 Iteration  3 RMS(Cart)=  0.00005392 RMS(Int)=  0.00032622
 Iteration  4 RMS(Cart)=  0.00000002 RMS(Int)=  0.00032622
 Iteration  1 RMS(Cart)=  0.00014374 RMS(Int)=  0.00004635
 Iteration  2 RMS(Cart)=  0.00007920 RMS(Int)=  0.00005150
 Iteration  3 RMS(Cart)=  0.00004449 RMS(Int)=  0.00005864
 Iteration  4 RMS(Cart)=  0.00002563 RMS(Int)=  0.00006405
 Iteration  5 RMS(Cart)=  0.00001519 RMS(Int)=  0.00006771
 Iteration  6 RMS(Cart)=  0.00000928 RMS(Int)=  0.00007013
 Iteration  7 RMS(Cart)=  0.00000582 RMS(Int)=  0.00007172
 Iteration  8 RMS(Cart)=  0.00000374 RMS(Int)=  0.00007276
 Iteration  9 RMS(Cart)=  0.00000244 RMS(Int)=  0.00007344
 Iteration 10 RMS(Cart)=  0.00000161 RMS(Int)=  0.00007388
 Iteration 11 RMS(Cart)=  0.00000107 RMS(Int)=  0.00007418
 Iteration 12 RMS(Cart)=  0.00000071 RMS(Int)=  0.00007437
 Variable       Old X    -DE/DX   Delta X   Delta X   Delta X     New X
                                 (Linear)    (Quad)   (Total)
    R1        2.05998  -0.00053   0.00041   0.00000   0.00041   2.06039
    R2        2.06330   0.00318   0.00687   0.00000   0.00687   2.07017
    R3        2.06348   0.00316   0.00766   0.00000   0.00766   2.07115
    R4        2.88749  -0.00064  -0.00765   0.00000  -0.00765   2.87984
    R5        2.32035   0.00091  -0.00409   0.00000  -0.00409   2.31626
    R6        2.54102   0.02051   0.03626   0.00000   0.03626   2.57728
    R7        1.90935   0.00092   0.00153   0.00000   0.00153   1.91088
    R8        2.74527   0.00515   0.01420   0.00000   0.01420   2.75947
    R9        2.06221   0.00218   0.00494   0.00000   0.00494   2.06715
   R10        2.88519   0.00583   0.00661   0.00000   0.00661   2.89180
   R11        2.88559   0.00912   0.01882   0.00000   0.01882   2.90440
   R12        2.06158   0.00091   0.00372   0.00000   0.00372   2.06530
   R13        2.06307   0.00215   0.00646   0.00000   0.00646   2.06953
   R14        2.06177   0.00192   0.00422   0.00000   0.00422   2.06599
   R15        2.32113   0.00243  -0.00255   0.00000  -0.00255   2.31858
   R16        2.53787   0.01876   0.03017   0.00000   0.03017   2.56804
   R17        1.90873   0.00023   0.00023   0.00000   0.00023   1.90896
   R18        2.74018   0.00418   0.00367   0.00000   0.00367   2.74385
   R19        2.06020  -0.00053   0.00081   0.00000   0.00081   2.06101
   R20        2.06406   0.00302   0.00862   0.00000   0.00862   2.07268
   R21        2.06266   0.00290   0.00605   0.00000   0.00605   2.06871
    A1        1.91220  -0.00009   0.00222   0.00000   0.00250   1.91470
    A2        1.90704  -0.00016  -0.00839   0.00000  -0.00846   1.89858
    A3        1.92587  -0.00542  -0.02647   0.00000  -0.02635   1.89952
    A4        1.90155  -0.00373  -0.01714   0.00000  -0.01763   1.88392
    A5        1.91584   0.00475   0.03979   0.00000   0.03968   1.95552
    A6        1.90110   0.00466   0.01006   0.00000   0.00976   1.91086
    A7        2.11550   0.00655   0.02475   0.00000   0.02470   2.14021
    A8        2.02588  -0.00551  -0.01841   0.00000  -0.01845   2.00742
    A9        2.14178  -0.00104  -0.00638   0.00000  -0.00641   2.13537
   A10        2.09439  -0.00031   0.00019   0.00000  -0.00083   2.09356
   A11        2.12937   0.00156   0.00367   0.00000   0.00265   2.13201
   A12        2.05890  -0.00127  -0.00490   0.00000  -0.00593   2.05298
   A13        1.89535  -0.00164  -0.03158   0.00000  -0.03160   1.86375
   A14        1.94689   0.00220   0.01569   0.00000   0.01623   1.96313
   A15        1.92106  -0.00611  -0.03588   0.00000  -0.03634   1.88472
   A16        1.89906  -0.00160   0.00592   0.00000   0.00546   1.90452
   A17        1.90515   0.00090   0.01814   0.00000   0.01650   1.92165
   A18        1.89586   0.00625   0.02898   0.00000   0.02920   1.92506
   A19        1.91522   0.00127   0.00815   0.00000   0.00811   1.92334
   A20        1.91643   0.00289   0.01073   0.00000   0.01071   1.92714
   A21        1.91171  -0.00029   0.00123   0.00000   0.00120   1.91291
   A22        1.90233  -0.00240  -0.01555   0.00000  -0.01558   1.88675
   A23        1.91156  -0.00013   0.00265   0.00000   0.00260   1.91416
   A24        1.90651  -0.00137  -0.00728   0.00000  -0.00730   1.89921
   A25        2.10921   0.00421   0.01214   0.00000   0.01209   2.12130
   A26        2.02505  -0.00567  -0.02000   0.00000  -0.02005   2.00500
   A27        2.14890   0.00145   0.00781   0.00000   0.00776   2.15666
   A28        2.08538  -0.00314  -0.01807   0.00000  -0.01827   2.06711
   A29        2.13297   0.00424   0.01076   0.00000   0.01055   2.14352
   A30        2.06473  -0.00110   0.00710   0.00000   0.00688   2.07161
   A31        1.89950  -0.00445  -0.02311   0.00000  -0.02298   1.87652
   A32        1.92315   0.00346   0.02397   0.00000   0.02389   1.94704
   A33        1.91643   0.00327   0.01069   0.00000   0.01053   1.92696
   A34        1.90711   0.00000  -0.00607   0.00000  -0.00587   1.90124
   A35        1.91098  -0.00001   0.00165   0.00000   0.00171   1.91268
   A36        1.90660  -0.00228  -0.00722   0.00000  -0.00755   1.89904
    D1        0.09348  -0.00001   0.18679   0.00000   0.18701   0.28049
    D2       -3.05486   0.00009   0.17335   0.00000   0.17341  -2.88144
    D3        2.20262  -0.00052   0.19861   0.00000   0.19838   2.40100
    D4       -0.94571  -0.00042   0.18517   0.00000   0.18478  -0.76093
    D5       -1.99991   0.00057   0.20700   0.00000   0.20724  -1.79267
    D6        1.13494   0.00067   0.19355   0.00000   0.19364   1.32858
    D7       -0.00597  -0.00008  -0.01186   0.00000  -0.01190  -0.01787
    D8       -3.11218   0.00052   0.05869   0.00000   0.05848  -3.05370
    D9        3.12877   0.00006  -0.02553   0.00000  -0.02532   3.10344
   D10        0.02256   0.00066   0.04502   0.00000   0.04505   0.06761
   D11       -0.53338  -0.00017  -0.01950   0.00000  -0.01846  -0.55184
   D12        1.55938  -0.00186  -0.02288   0.00000  -0.02249   1.53689
   D13       -2.61802   0.00335  -0.00001   0.00000   0.00000  -2.61802
   D14        2.64291   0.00040   0.04967   0.00000   0.05026   2.69317
   D15       -1.54752  -0.00129   0.04630   0.00000   0.04623  -1.50129
   D16        0.55826   0.00392   0.06917   0.00000   0.06873   0.62699
   D17        1.05508   0.00031   0.01567   0.00000   0.01583   1.07091
   D18       -3.13751  -0.00006   0.00822   0.00000   0.00837  -3.12914
   D19       -1.04395  -0.00014   0.00664   0.00000   0.00678  -1.03717
   D20       -3.13754  -0.00140  -0.00990   0.00000  -0.00985   3.13579
   D21       -1.04694  -0.00177  -0.01736   0.00000  -0.01731  -1.06425
   D22        1.04662  -0.00185  -0.01894   0.00000  -0.01890   1.02772
   D23       -1.06539   0.00235   0.03126   0.00000   0.03107  -1.03433
   D24        1.02521   0.00198   0.02380   0.00000   0.02361   1.04882
   D25        3.11877   0.00190   0.02222   0.00000   0.02201   3.14078
   D26       -1.56347  -0.00155   0.01469   0.00000   0.01468  -1.54880
   D27        1.57081  -0.00221   0.00000   0.00000   0.00000   1.57081
   D28        2.64105   0.00357   0.06399   0.00000   0.06456   2.70560
   D29       -0.50785   0.00291   0.04930   0.00000   0.04988  -0.45797
   D30        0.57274   0.00137   0.03054   0.00000   0.03005   0.60279
   D31       -2.57616   0.00071   0.01584   0.00000   0.01537  -2.56079
   D32       -0.00483   0.00041  -0.00950   0.00000  -0.00933  -0.01416
   D33       -3.13044   0.00047   0.02228   0.00000   0.02205  -3.10840
   D34        3.12927  -0.00026  -0.02456   0.00000  -0.02432   3.10495
   D35        0.00366  -0.00020   0.00722   0.00000   0.00705   0.01071
   D36       -0.07119  -0.00009  -0.14226   0.00000  -0.14233  -0.21352
   D37        2.01965  -0.00076  -0.14935   0.00000  -0.14969   1.86996
   D38       -2.16270   0.00068  -0.13662   0.00000  -0.13660  -2.29930
   D39        3.08621  -0.00001  -0.11085   0.00000  -0.11066   2.97555
   D40       -1.10615  -0.00068  -0.11793   0.00000  -0.11802  -1.22416
   D41        0.99469   0.00076  -0.10521   0.00000  -0.10493   0.88976
         Item               Value     Threshold  Converged?
 Maximum Force            0.020510     0.000450     NO 
 RMS     Force            0.003884     0.000300     NO 
 Maximum Displacement     0.375647     0.001800     NO 
 RMS     Displacement     0.086561     0.001200     NO 
 Predicted change in Energy=-2.948341D-03
 GradGradGradGradGradGradGradGradGradGradGradGradGradGradGradGradGradGrad

                          Input orientation:                          
 ---------------------------------------------------------------------
 Center     Atomic      Atomic             Coordinates (Angstroms)
 Number     Number       Type             X           Y           Z
 ---------------------------------------------------------------------
      1          1           0        1.824963    1.434587    1.222148
      2          6           0        1.947134    2.249870    0.508591
      3          1           0        1.193085    3.021848    0.697139
      4          1           0        1.785926    1.860426   -0.503126
      5          6           0        3.365397    2.795584    0.623188
      6          8           0        4.265590    2.183223    1.186247
      7          7           0        3.566817    4.007210    0.030354
      8          1           0        2.805941    4.465562   -0.452862
      9          6           0        4.888099    4.623957   -0.048142
     10          1           0        5.437556    4.308251    0.843495
     11          6           0        5.663155    4.190213   -1.294296
     12          1           0        5.125969    4.492174   -2.196908
     13          1           0        6.651504    4.661569   -1.312791
     14          1           0        5.790388    3.104388   -1.287617
     15          6           0        4.700984    6.149449   -0.040766
     16          8           0        4.539183    6.781283   -1.079993
     17          7           0        4.703187    6.719735    1.192731
     18          1           0        4.811365    6.121151    1.999241
     19          6           0        4.499748    8.142022    1.402413
     20          1           0        4.577228    8.631454    0.430845
     21          1           0        3.510056    8.349232    1.827355
     22          1           0        5.264025    8.541612    2.076656
 ---------------------------------------------------------------------
                    Distance matrix (angstroms):
                    1          2          3          4          5
     1  H    0.000000
     2  C    1.090309   0.000000
     3  H    1.787261   1.095487   0.000000
     4  H    1.777479   1.096004   1.772285   0.000000
     5  C    2.141029   1.523944   2.185315   2.153562   0.000000
     6  O    2.553116   2.416381   3.222236   3.017766   1.225712
     7  N    3.327585   2.437279   2.655211   2.839869   1.363840
     8  H    3.599275   2.563441   2.451146   2.798158   2.063904
     9  C    4.600926   3.820408   4.095769   4.179425   2.472297
    10  H    4.631647   4.065974   4.437543   4.597786   2.574984
    11  C    5.353288   4.563349   5.031145   4.592033   3.301731
    12  H    5.651143   4.738422   5.099504   4.577213   3.732421
    13  H    6.335205   5.591496   6.043413   5.672373   4.245988
    14  H    4.981139   4.327490   5.008120   4.265980   3.102760
    15  C    5.665367   4.805435   4.757284   5.206444   3.670564
    16  O    6.422928   5.456741   5.337408   5.668159   4.490478
    17  N    6.018125   5.295618   5.122577   5.916014   4.184856
    18  H    5.611270   5.041099   4.938937   5.793867   3.878626
    19  C    7.223341   6.483226   6.135765   7.103123   5.520719
    20  H    7.745710   6.902758   6.556754   7.383122   5.963465
    21  H    7.142698   6.433046   5.918341   7.106923   5.684535
    22  H    7.941482   7.283311   6.995957   7.961827   6.223680
                    6          7          8          9         10
     6  O    0.000000
     7  N    2.269648   0.000000
     8  H    3.166437   1.011196   0.000000
     9  C    2.805070   1.460248   2.127033   0.000000
    10  H    2.450863   2.061914   2.937804   1.093888   0.000000
[...]
    13  H    6.365851   5.554368   5.841199   5.756528   4.233857
    14  H    5.095479   4.249479   4.701342   4.226098   3.086097
    15  C    5.497383   4.818508   4.735020   5.490922   3.667714
    16  O    6.240409   5.442203   5.176949   6.021706   4.476478
    17  N    5.780816   5.327199   5.272427   6.161139   4.177208
    18  H    5.376323   5.077093   5.183864   5.948337   3.865933
    19  C    6.893248   6.485162   6.266688   7.375726   5.487513
    20  H    7.375570   6.836554   6.511024   7.654715   5.894990
    21  H    6.724797   6.430238   6.115106   7.402190   5.627384
    22  H    7.687082   7.337708   7.214342   8.225455   6.236741
                    6          7          8          9         10
     6  O    0.000000
     7  N    2.278140   0.000000
     8  H    3.161930   1.012261   0.000000
     9  C    2.814142   1.464315   2.118226   0.000000
    10  H    2.414194   2.047338   2.944298   1.093884   0.000000
    11  C    3.530488   2.492682   2.881917   1.530109   2.158118
    12  H    4.267866   2.792121   2.786701   2.168276   3.067478
    13  H    4.266558   3.433999   3.872137   2.172137   2.499626
    14  H    3.118492   2.728109   3.221459   2.160901   2.489252
    15  C    4.157240   2.415157   2.622259   1.539677   2.182960
    16  O    5.125824   3.118643   2.951391   2.419119   3.275994
    17  N    4.503945   3.151688   3.496169   2.445964   2.552746
    18  H    3.981417   3.133234   3.705403   2.534922   2.235380
    19  C    5.891937   4.420782   4.559596   3.828195   4.000569
    20  H    6.424445   4.675710   4.628099   4.047321   4.457333
    21  H    6.115512   4.664273   4.719749   4.394823   4.562604
    22  H    6.470166   5.251161   5.511847   4.482233   4.455315
                   11         12         13         14         15
    11  C    0.000000
    12  H    1.093549   0.000000
    13  H    1.095681   1.768901   0.000000
    14  H    1.093778   1.789224   1.777589   0.000000
    15  C    2.533288   2.748736   2.809650   3.479807   0.000000
    16  O    2.863991   2.614071   3.089563   3.908703   1.226746
    17  N    3.688773   4.076000   3.819287   4.534118   1.362719
    18  H    3.913186   4.505935   4.070762   4.576117   2.043742
    19  C    4.952276   5.167336   4.985683   5.882003   2.472847
    20  H    4.934149   4.935670   4.938515   5.954554   2.524293
    21  H    5.665149   5.845017   5.849995   6.530720   3.153187
    22  H    5.530760   5.858319   5.376370   6.446461   3.230254
                   16         17         18         19         20
    16  O    0.000000
    17  N    2.283706   0.000000
    18  H    3.162061   1.010197   0.000000
    19  C    2.838501   1.452227   2.130506   0.000000
    20  H    2.379969   2.060440   2.972449   1.090787   0.000000
    21  H    3.523397   2.116144   2.542270   1.097109   1.780997
    22  H    3.649378   2.108012   2.512840   1.095679   1.783192
                   21         22
    21  H    0.000000
    22  H    1.783071   0.000000
 Stoichiometry    C6H12N2O2
 Framework group  C1[X(C6H12N2O2)]
 Deg. of freedom    60
 Full point group                 C1      NOp   1
 Largest Abelian subgroup         C1      NOp   1
 Largest concise Abelian subgroup C1      NOp   1
                         Standard orientation:                         
 ---------------------------------------------------------------------
 Center     Atomic      Atomic             Coordinates (Angstroms)
 Number     Number       Type             X           Y           Z
 ---------------------------------------------------------------------
      1          1           0       -3.586359   -1.904642    0.476928
      2          6           0       -3.132103   -1.009603    0.909853
      3          1           0       -2.676417   -1.265035    1.871631
      4          1           0       -3.935647   -0.285163    1.082917
      5          6           0       -2.149191   -0.426539   -0.094708
      6          8           0       -2.424934   -0.304691   -1.281887
      7          7           0       -0.930323   -0.062652    0.420311
      8          1           0       -0.813880   -0.035560    1.425488
      9          6           0        0.040163    0.699282   -0.368251
     10          1           0       -0.113616    0.381825   -1.403701
     11          6           0       -0.168703    2.211206   -0.260108
     12          1           0        0.001842    2.546369    0.766746
     13          1           0        0.536346    2.743987   -0.907847
     14          1           0       -1.186436    2.467000   -0.568551
     15          6           0        1.440377    0.293217    0.126845
     16          8           0        1.976044    0.860596    1.073442
     17          7           0        1.991461   -0.766822   -0.528615
     18          1           0        1.452971   -1.206426   -1.261605
     19          6           0        3.257754   -1.362316   -0.140218
     20          1           0        3.693002   -0.727498    0.632686
     21          1           0        3.118762   -2.372628    0.264254
     22          1           0        3.942802   -1.414623   -0.993731
 ---------------------------------------------------------------------
 Rotational constants (GHZ):      2.1357999      0.7146526      0.6402593

 **********************************************************************

            Population analysis using the SCF density.

 **********************************************************************

 Orbital symmetries:
       Occupied  (A) (A) (A) (A) (A) (A) (A) (A) (A) (A) (A) (A)
                 (A) (A) (A) (A) (A) (A) (A) (A) (A) (A) (A) (A)
                 (A) (A) (A) (A) (A) (A) (A) (A) (A) (A) (A) (A)
                 (A) (A) (A)
       Virtual   (A) (A) (A) (A) (A) (A) (A) (A) (A) (A) (A) (A)
                 (A) (A) (A) (A) (A) (A) (A) (A) (A) (A) (A) (A)
                 (A) (A) (A) (A) (A) (A) (A) (A) (A) (A) (A) (A)
                 (A) (A) (A) (A) (A) (A) (A) (A) (A) (A) (A) (A)
                 (A) (A) (A) (A) (A) (A) (A) (A) (A) (A) (A) (A)
                 (A) (A) (A) (A) (A) (A) (A) (A) (A) (A) (A) (A)
                 (A) (A) (A) (A) (A) (A) (A) (A) (A) (A) (A) (A)
                 (A) (A) (A) (A) (A) (A) (A) (A) (A) (A) (A) (A)
                 (A) (A) (A) (A) (A) (A) (A) (A) (A) (A) (A) (A)
                 (A) (A) (A) (A) (A) (A) (A) (A) (A) (A) (A) (A)
                 (A) (A) (A) (A) (A) (A) (A) (A) (A) (A) (A) (A)
                 (A) (A) (A)
 The electronic state is 1-A.
 Alpha  occ. eigenvalues --  -19.11548 -19.11031 -14.36778 -14.36329 -10.28929
 Alpha  occ. eigenvalues --  -10.28798 -10.23391 -10.22184 -10.19425 -10.17690
 Alpha  occ. eigenvalues --   -1.03636  -1.02883  -0.92769  -0.91993  -0.77823
 Alpha  occ. eigenvalues --   -0.72915  -0.71400  -0.64146  -0.58849  -0.58570
 Alpha  occ. eigenvalues --   -0.53450  -0.48144  -0.47392  -0.46217  -0.45258
 Alpha  occ. eigenvalues --   -0.44782  -0.42106  -0.41642  -0.40639  -0.39780
 Alpha  occ. eigenvalues --   -0.39405  -0.37460  -0.36993  -0.35992  -0.35028
 Alpha  occ. eigenvalues --   -0.26792  -0.25578  -0.25037  -0.24471
 Alpha virt. eigenvalues --    0.01717   0.03123   0.07438   0.07905   0.11956
 Alpha virt. eigenvalues --    0.12775   0.12864   0.15206   0.15843   0.16350
 Alpha virt. eigenvalues --    0.16626   0.17202   0.18070   0.19015   0.19744
 Alpha virt. eigenvalues --    0.22090   0.23090   0.24844   0.25610   0.31789
 Alpha virt. eigenvalues --    0.34222   0.38558   0.41146   0.50167   0.51702
 Alpha virt. eigenvalues --    0.52015   0.52322   0.53636   0.54192   0.56191
 Alpha virt. eigenvalues --    0.57650   0.60092   0.60995   0.63551   0.64987
 Alpha virt. eigenvalues --    0.65367   0.68902   0.69422   0.72313   0.75096
 Alpha virt. eigenvalues --    0.76538   0.77095   0.78201   0.82046   0.82459
 Alpha virt. eigenvalues --    0.83249   0.84946   0.86600   0.87559   0.88212
 Alpha virt. eigenvalues --    0.89582   0.89824   0.90762   0.92449   0.93121
 Alpha virt. eigenvalues --    0.94173   0.94486   0.95055   0.96518   0.99781
 Alpha virt. eigenvalues --    1.01995   1.05249   1.07110   1.12983   1.15699
 Alpha virt. eigenvalues --    1.17690   1.24111   1.25297   1.27596   1.34603
 Alpha virt. eigenvalues --    1.37849   1.38073   1.43107   1.47407   1.49775
 Alpha virt. eigenvalues --    1.51279   1.52621   1.61762   1.65482   1.68947
 Alpha virt. eigenvalues --    1.71381   1.74778   1.78791   1.80785   1.81589
 Alpha virt. eigenvalues --    1.83255   1.84033   1.85973   1.88343   1.91840
 Alpha virt. eigenvalues --    1.92934   1.94585   1.97236   1.98554   2.00403
 Alpha virt. eigenvalues --    2.03452   2.05604   2.08488   2.15647   2.17959
 Alpha virt. eigenvalues --    2.20094   2.22540   2.23771   2.26756   2.28844
 Alpha virt. eigenvalues --    2.30559   2.31348   2.34903   2.38749   2.41226
 Alpha virt. eigenvalues --    2.41723   2.45103   2.51445   2.60074   2.61698
 Alpha virt. eigenvalues --    2.65150   2.66537   2.74967   2.75810   2.88289
 Alpha virt. eigenvalues --    2.90236   2.97747   2.99419   3.12796   3.13744
 Alpha virt. eigenvalues --    3.93899   3.95686   4.06028   4.15810   4.18443
 Alpha virt. eigenvalues --    4.22859   4.27822   4.40749   4.48410   4.61405
          Condensed to atoms (all electrons):
              1          2          3          4          5          6
     1  H    0.515588   0.360279  -0.025389  -0.022763  -0.019299   0.001948
     2  C    0.360279   5.317103   0.339774   0.363040   0.346236  -0.080540
     3  H   -0.025389   0.339774   0.576487  -0.026056  -0.024669   0.003103
     4  H   -0.022763   0.363040  -0.026056   0.521063  -0.020751  -0.000066
     5  C   -0.019299   0.346236  -0.024669  -0.020751   4.304441   0.587876
     6  O    0.001948  -0.080540   0.003103  -0.000066   0.587876   8.072581
     7  N    0.002763  -0.117630   0.006441   0.000609   0.266207  -0.097192
     8  H   -0.000002   0.000971   0.001908  -0.000106  -0.015839   0.003132
     9  C   -0.000163   0.007395  -0.000008  -0.000191  -0.021755   0.000961
    10  H    0.000005   0.001060  -0.000063  -0.000018  -0.002055   0.017342
    11  C   -0.000005  -0.000417   0.000012   0.000075  -0.002092  -0.001398
    12  H    0.000000   0.000012  -0.000001  -0.000004  -0.000128  -0.000010
    13  H    0.000000   0.000005   0.000000  -0.000001  -0.000067  -0.000040
    14  H    0.000002  -0.000014  -0.000007  -0.000006   0.003531   0.002354
    15  C    0.000004  -0.000104  -0.000034  -0.000001   0.004168   0.000484
    16  O    0.000000  -0.000001   0.000000   0.000000  -0.000079  -0.000001
    17  N    0.000000  -0.000011   0.000001   0.000000  -0.000098  -0.000016
    18  H    0.000000   0.000003   0.000000   0.000000   0.000157  -0.000016
    19  C    0.000000   0.000000   0.000000   0.000000   0.000000   0.000000
    20  H    0.000000   0.000000   0.000000   0.000000   0.000001   0.000000
    21  H    0.000000   0.000000   0.000000   0.000000   0.000000   0.000000
    22  H    0.000000   0.000000   0.000000   0.000000   0.000000   0.000000
              7          8          9         10         11         12
     1  H    0.002763  -0.000002  -0.000163   0.000005  -0.000005   0.000000
     2  C   -0.117630   0.000971   0.007395   0.001060  -0.000417   0.000012
     3  H    0.006441   0.001908  -0.000008  -0.000063   0.000012  -0.000001
     4  H    0.000609  -0.000106  -0.000191  -0.000018   0.000075  -0.000004
     5  C    0.266207  -0.015839  -0.021755  -0.002055  -0.002092  -0.000128
     6  O   -0.097192   0.003132   0.000961   0.017342  -0.001398  -0.000010
     7  N    7.152039   0.291491   0.246269  -0.050274  -0.056693  -0.002370
     8  H    0.291491   0.410216  -0.036218   0.006022  -0.000570   0.003063
     9  C    0.246269  -0.036218   5.087253   0.357626   0.360694  -0.033024
    10  H   -0.050274   0.006022   0.357626   0.567742  -0.041618   0.004935
    11  C   -0.056693  -0.000570   0.360694  -0.041618   5.113444   0.371337
    12  H   -0.002370   0.003063  -0.033024   0.004935   0.371337   0.540359
    13  H    0.004775  -0.000087  -0.027606  -0.000764   0.364113  -0.025370
    14  H   -0.005915  -0.000180  -0.027533  -0.003037   0.367265  -0.028619
    15  C   -0.038303  -0.001100   0.304923  -0.034840  -0.035131  -0.007508
    16  O   -0.003349   0.004793  -0.082590   0.002794  -0.000016   0.010529
    17  N   -0.000404   0.000338  -0.102819   0.002134   0.003480   0.000441
    18  H    0.000717  -0.000049   0.001701   0.002833   0.000063  -0.000011
    19  C   -0.000252   0.000009   0.006454  -0.000073  -0.000177   0.000001
    20  H   -0.000021  -0.000018   0.001135  -0.000049  -0.000007  -0.000010
    21  H    0.000065   0.000002  -0.000218   0.000000  -0.000002   0.000000
    22  H   -0.000005   0.000000  -0.000125  -0.000020   0.000009   0.000000
             13         14         15         16         17         18
     1  H    0.000000   0.000002   0.000004   0.000000   0.000000   0.000000
     2  C    0.000005  -0.000014  -0.000104  -0.000001  -0.000011   0.000003
     3  H    0.000000  -0.000007  -0.000034   0.000000   0.000001   0.000000
     4  H   -0.000001  -0.000006  -0.000001   0.000000   0.000000   0.000000
     5  C   -0.000067   0.003531   0.004168  -0.000079  -0.000098   0.000157
     6  O   -0.000040   0.002354   0.000484  -0.000001  -0.000016  -0.000016
     7  N    0.004775  -0.005915  -0.038303  -0.003349  -0.000404   0.000717
     8  H   -0.000087  -0.000180  -0.001100   0.004793   0.000338  -0.000049
     9  C   -0.027606  -0.027533   0.304923  -0.082590  -0.102819   0.001701
    10  H   -0.000764  -0.003037  -0.034840   0.002794   0.002134   0.002833
    11  C    0.364113   0.367265  -0.035131  -0.000016   0.003480   0.000063
    12  H   -0.025370  -0.028619  -0.007508   0.010529   0.000441  -0.000011
    13  H    0.560774  -0.027666  -0.000754  -0.000114   0.000112  -0.000034
    14  H   -0.027666   0.553961   0.004594   0.000302  -0.000071  -0.000016
    15  C   -0.000754   0.004594   4.394100   0.571750   0.284881  -0.018298
    16  O   -0.000114   0.000302   0.571750   8.094879  -0.094008   0.003282
    17  N    0.000112  -0.000071   0.284881  -0.094008   7.042224   0.304326
    18  H   -0.000034  -0.000016  -0.018298   0.003282   0.304326   0.401238
    19  C   -0.000005   0.000002  -0.026233  -0.007767   0.266688  -0.032225
    20  H   -0.000001   0.000000  -0.000660   0.020650  -0.040306   0.004080
    21  H    0.000000   0.000000   0.001114   0.000498  -0.042517  -0.000793
    22  H    0.000000   0.000000   0.001517   0.000419  -0.039553  -0.000949
             19         20         21         22
     1  H    0.000000   0.000000   0.000000   0.000000
     2  C    0.000000   0.000000   0.000000   0.000000
     3  H    0.000000   0.000000   0.000000   0.000000
     4  H    0.000000   0.000000   0.000000   0.000000
     5  C    0.000000   0.000001   0.000000   0.000000
     6  O    0.000000   0.000000   0.000000   0.000000
     7  N   -0.000252  -0.000021   0.000065  -0.000005
     8  H    0.000009  -0.000018   0.000002   0.000000
     9  C    0.006454   0.001135  -0.000218  -0.000125
    10  H   -0.000073  -0.000049   0.000000  -0.000020
    11  C   -0.000177  -0.000007  -0.000002   0.000009
    12  H    0.000001  -0.000010   0.000000   0.000000
    13  H   -0.000005  -0.000001   0.000000   0.000000
    14  H    0.000002   0.000000   0.000000   0.000000
    15  C   -0.026233  -0.000660   0.001114   0.001517
    16  O   -0.007767   0.020650   0.000498   0.000419
    17  N    0.266688  -0.040306  -0.042517  -0.039553
    18  H   -0.032225   0.004080  -0.000793  -0.000949
    19  C    4.968587   0.376344   0.381457   0.380115
    20  H    0.376344   0.483593  -0.025966  -0.023346
    21  H    0.381457  -0.025966   0.567122  -0.040082
    22  H    0.380115  -0.023346  -0.040082   0.562101
 Mulliken atomic charges:
              1
     1  H    0.187030
     2  C   -0.537159
     3  H    0.148500
     4  H    0.185177
     5  C    0.594216
     6  O   -0.510501
     7  N   -0.598967
     8  H    0.332224
     9  C   -0.042161
    10  H    0.170317
    11  C   -0.442366
    12  H    0.166381
    13  H    0.152729
    14  H    0.161055
    15  C    0.595430
    16  O   -0.521971
    17  N   -0.584823
    18  H    0.333991
    19  C   -0.312925
    20  H    0.204582
    21  H    0.159320
    22  H    0.159921
 Sum of Mulliken atomic charges =   0.00000
 Mulliken charges with hydrogens summed into heavy atoms:
              1
     2  C   -0.016452
     5  C    0.594216
     6  O   -0.510501
     7  N   -0.266744
     9  C    0.128156
    11  C    0.037799
    15  C    0.595430
    16  O   -0.521971
    17  N   -0.250832
    19  C    0.210898
 Sum of Mulliken charges with hydrogens summed into heavy atoms =   0.00000
 Electronic spatial extent (au):  <R**2>=           1908.1638
 Charge=              0.0000 electrons
 Dipole moment (field-independent basis, Debye):
    X=              0.5965    Y=             -2.0256    Z=              0.6593  Tot=              2.2121
 Quadrupole moment (field-independent basis, Debye-Ang):
   XX=            -61.1835   YY=            -57.6920   ZZ=            -61.9108
   XY=             -5.5419   XZ=            -12.8656   YZ=             -1.7961
 Traceless Quadrupole moment (field-independent basis, Debye-Ang):
   XX=             -0.9214   YY=              2.5701   ZZ=             -1.6487
   XY=             -5.5419   XZ=            -12.8656   YZ=             -1.7961
 Octapole moment (field-independent basis, Debye-Ang**2):
  XXX=             11.6512  YYY=             -5.0598  ZZZ=              3.0314  XYY=             -0.2138
  XXY=            -18.1039  XXZ=             10.7318  XZZ=              5.0378  YZZ=             -3.5419
  YYZ=             -4.8442  XYZ=              0.0185
 Hexadecapole moment (field-independent basis, Debye-Ang**3):
 XXXX=          -1614.4108 YYYY=           -506.9785 ZZZZ=           -249.5416 XXXY=            -32.1057
 XXXZ=            -55.3740 YYYX=              0.1226 YYYZ=              5.1217 ZZZX=            -11.8127
 ZZZY=              4.8226 XXYY=           -349.0794 XXZZ=           -351.5118 YYZZ=           -125.7839
 XXYZ=             -8.2364 YYXZ=             -2.5017 ZZXY=            -10.0016
 N-N= 5.487767590945D+02 E-N=-2.253569986501D+03  KE= 4.912395961014D+02
 1\1\GINC-NODE002\FOpt\RB3LYP\6-31G(d)\C6H12N2O2\STEBOSS\10-Feb-2017\0\
 \# b3lyp/6-31G* Opt=(ModRedundant, maxcycles=1000, calcfc) geom=nocrow
 d\\Phi Psi fixed scan\\0,1\H,1.632727484,1.8650158665,1.4556658608\C,1
 .9623205712,2.2466352384,0.4858198029\H,1.227430213,2.9666116336,0.112
 345023\H,2.0036236548,1.3964964078,-0.2041118689\C,3.3605887404,2.8267
 520803,0.6392304624\O,4.2438953991,2.2453103214,1.257267449\N,3.555771
 8056,4.0510102451,0.0506788315\H,2.8472628596,4.4087868101,-0.57755970
 33\C,4.890337447,4.6416067962,-0.069106881\H,5.442406052,4.2923365157,
 0.8082831611\C,5.6185336231,4.201140124,-1.3407019231\H,5.0883464879,4
 .5610649696,-2.2268197963\H,6.6326745013,4.6151427303,-1.3659267722\H,
 5.687171467,3.1098713363,-1.3684668235\C,4.7111291549,6.1703334931,-0.
 0305705175\O,4.487949832,6.8163448225,-1.0492784102\N,4.7630043655,6.7
 190473265,1.2157140565\H,4.8976977373,6.1011392344,2.0034610893\C,4.51
 38369015,8.1272777619,1.4682345939\H,4.4301317746,8.6222282613,0.49981
 62641\H,3.5813067693,8.2759286854,2.0267485307\H,5.3391531587,8.574719
 3397,2.0331775708\\Version=EM64L-G09RevA.02\State=1-A\HF=-495.8486016\
 RMSD=3.291e-09\RMSF=4.959e-04\Dipole=-0.5847787,0.4299698,0.4801993\Qu
 adrupole=4.0180575,-3.6840374,-0.3340201,3.5670652,1.0541104,9.1823625
 \PG=C01 [X(C6H12N2O2)]\\@


 IF YOU GIVE A BOY AND A PIG EVERYTHING THEY WANT,
 YOU'LL GET A BAD BOY AND A GOOD PIG.
 Job cpu time:  0 days  3 hours 10 minutes 36.9 seconds.
 File lengths (MBytes):  RWF=    186 Int=      0 D2E=      0 Chk=      4 Scr=      2
 Normal termination of Gaussian 09 at Fri Feb 10 22:14:29 2017.
