 Entering Gaussian System, Link 0=g09
 Initial command:
 /home/steboss/Software/g09/l1.exe /home/steboss/projects/phi_psi_scan/alanine/210/4352/Gau-4985.inp -scrdir=/home/steboss/projects/phi_psi_scan/alanine/210/4352/
 Entering Link 1 = /home/steboss/Software/g09/l1.exe PID=      4987.
  
 Copyright (c) 1988,1990,1992,1993,1995,1998,2003,2009, Gaussian, Inc.
                  All Rights Reserved.
  
 This is part of the Gaussian(R) 09 program.  It is based on
 the Gaussian(R) 03 system (copyright 2003, Gaussian, Inc.),
 the Gaussian(R) 98 system (copyright 1998, Gaussian, Inc.),
 the Gaussian(R) 94 system (copyright 1995, Gaussian, Inc.),
 the Gaussian 92(TM) system (copyright 1992, Gaussian, Inc.),
 the Gaussian 90(TM) system (copyright 1990, Gaussian, Inc.),
 the Gaussian 88(TM) system (copyright 1988, Gaussian, Inc.),
 the Gaussian 86(TM) system (copyright 1986, Carnegie Mellon
 University), and the Gaussian 82(TM) system (copyright 1983,
 Carnegie Mellon University). Gaussian is a federally registered
 trademark of Gaussian, Inc.
  
 This software contains proprietary and confidential information,
 including trade secrets, belonging to Gaussian, Inc.
  
 This software is provided under written license and may be
 used, copied, transmitted, or stored only in accord with that
 written license.
  
 The following legend is applicable only to US Government
 contracts under FAR:
  
                    RESTRICTED RIGHTS LEGEND
  
 Use, reproduction and disclosure by the US Government is
 subject to restrictions as set forth in subparagraphs (a)
 and (c) of the Commercial Computer Software - Restricted
 Rights clause in FAR 52.227-19.
  
 Gaussian, Inc.
 340 Quinnipiac St., Bldg. 40, Wallingford CT 06492
  
  
 ---------------------------------------------------------------
 Warning -- This program may not be used in any manner that
 competes with the business of Gaussian, Inc. or will provide
 assistance to any competitor of Gaussian, Inc.  The licensee
 of this program is prohibited from giving any competitor of
 Gaussian, Inc. access to this program.  By using this program,
 the user acknowledges that Gaussian, Inc. is engaged in the
 business of creating and licensing software in the field of
 computational chemistry and represents and warrants to the
 licensee that it is not a competitor of Gaussian, Inc. and that
 it will not use this program in any manner prohibited above.
 ---------------------------------------------------------------
  

 Cite this work as:
 Gaussian 09, Revision A.02,
 M. J. Frisch, G. W. Trucks, H. B. Schlegel, G. E. Scuseria, 
 M. A. Robb, J. R. Cheeseman, G. Scalmani, V. Barone, B. Mennucci, 
 G. A. Petersson, H. Nakatsuji, M. Caricato, X. Li, H. P. Hratchian, 
 A. F. Izmaylov, J. Bloino, G. Zheng, J. L. Sonnenberg, M. Hada, 
 M. Ehara, K. Toyota, R. Fukuda, J. Hasegawa, M. Ishida, T. Nakajima, 
 Y. Honda, O. Kitao, H. Nakai, T. Vreven, J. A. Montgomery, Jr., 
 J. E. Peralta, F. Ogliaro, M. Bearpark, J. J. Heyd, E. Brothers, 
 K. N. Kudin, V. N. Staroverov, R. Kobayashi, J. Normand, 
 K. Raghavachari, A. Rendell, J. C. Burant, S. S. Iyengar, J. Tomasi, 
 M. Cossi, N. Rega, J. M. Millam, M. Klene, J. E. Knox, J. B. Cross, 
 V. Bakken, C. Adamo, J. Jaramillo, R. Gomperts, R. E. Stratmann, 
 O. Yazyev, A. J. Austin, R. Cammi, C. Pomelli, J. W. Ochterski, 
 R. L. Martin, K. Morokuma, V. G. Zakrzewski, G. A. Voth, 
 P. Salvador, J. J. Dannenberg, S. Dapprich, A. D. Daniels, 
 O. Farkas, J. B. Foresman, J. V. Ortiz, J. Cioslowski, 
 and D. J. Fox, Gaussian, Inc., Wallingford CT, 2009.
 
 ******************************************
 Gaussian 09:  EM64L-G09RevA.02 11-Jun-2009
                10-Feb-2017 
 ******************************************
 %chk=structure_210.chk
 %NProcShared=8
 Will use up to    8 processors via shared memory.
 ----------------------------------------------------------------------
 # b3lyp/6-31G* Opt=(ModRedundant, maxcycles=1000, calcfc) geom=nocrowd
 ----------------------------------------------------------------------
 1/6=1000,10=4,14=-1,18=120,19=15,26=3,38=1/1,3;
 2/9=110,12=1,17=6,18=5,40=1/2;
 3/5=1,6=6,7=1,11=2,16=1,25=1,30=1,71=2,74=-5/1,2,3;
 4//1;
 5/5=2,38=5/2;
 8/6=4,10=90,11=11/1;
 11/6=1,8=1,9=11,15=111,16=1/1,2,10;
 10/6=1,7=6,13=1/2;
 6/7=2,8=2,9=2,10=2,28=1/1;
 7/10=1,18=20,25=1/1,2,3,16;
 1/6=1000,10=4,14=-1,18=20,19=15/3(2);
 2/9=110,12=1/2;
 99//99;
 2/9=110,12=1/2;
 3/5=1,6=6,7=1,11=2,16=1,25=1,30=1,71=1,74=-5/1,2,3;
 4/5=5,16=3/1;
 5/5=2,38=5/2;
 7//1,2,3,16;
 1/6=1000,14=-1,18=20,19=15/3(-5);
 2/9=110,12=1/2;
 6/7=2,8=2,9=2,10=2,19=2,28=1/1;
 99/9=1/99;
 ------------------
 Phi Psi fixed scan
 ------------------
 Symbolic Z-matrix:
 Charge =  0 Multiplicity = 1
 H                     1.8827    1.2362    0.9842 
 C                     1.9409    2.209     0.496 
 H                     1.2624    2.9049    0.9895 
 H                     1.658     2.1079   -0.5517 
 C                     3.3599    2.7768    0.5667 
 O                     4.2568    2.1469    1.1227 
 N                     3.5554    3.9697    0. 
 H                     2.7862    4.4492   -0.4455 
 C                     4.8533    4.6139    0. 
 H                     5.4076    4.3155    0.8898 
 C                     5.6613    4.2208   -1.2322 
 H                     5.1233    4.5214   -2.1312 
 H                     6.6305    4.7189   -1.2058 
 H                     5.8085    3.1409   -1.2414 
 C                     4.7127    6.1294    0. 
 O                     3.7419    6.6658    0.5295 
 N                     5.6868    6.8201   -0.5968 
 H                     6.4653    6.334    -1.0185 
 C                     5.669     8.2675   -0.6638 
 H                     4.7735    8.6435   -0.169 
 H                     6.553     8.6657   -0.1657 
 H                     5.667     8.5835   -1.7069 
 
 The following ModRedundant input section has been read:
 D    5    7    9   15 F                                                       
 D    7    9   15   17 F                                                       

 GradGradGradGradGradGradGradGradGradGradGradGradGradGradGradGradGradGrad
 Berny optimization.
 Initialization pass.
                           ----------------------------
                           !    Initial Parameters    !
                           ! (Angstroms and Degrees)  !
 --------------------------                            --------------------------
 ! Name  Definition              Value          Derivative Info.                !
 --------------------------------------------------------------------------------
 ! R1    R(1,2)                  1.09           calculate D2E/DX2 analytically  !
 ! R2    R(2,3)                  1.09           calculate D2E/DX2 analytically  !
 ! R3    R(2,4)                  1.0899         calculate D2E/DX2 analytically  !
 ! R4    R(2,5)                  1.53           calculate D2E/DX2 analytically  !
 ! R5    R(5,6)                  1.229          calculate D2E/DX2 analytically  !
 ! R6    R(5,7)                  1.3351         calculate D2E/DX2 analytically  !
 ! R7    R(7,8)                  1.01           calculate D2E/DX2 analytically  !
 ! R8    R(7,9)                  1.449          calculate D2E/DX2 analytically  !
 ! R9    R(9,10)                 1.09           calculate D2E/DX2 analytically  !
 ! R10   R(9,11)                 1.525          calculate D2E/DX2 analytically  !
 ! R11   R(9,15)                 1.522          calculate D2E/DX2 analytically  !
 ! R12   R(11,12)                1.09           calculate D2E/DX2 analytically  !
 ! R13   R(11,13)                1.09           calculate D2E/DX2 analytically  !
 ! R14   R(11,14)                1.0899         calculate D2E/DX2 analytically  !
 ! R15   R(15,16)                1.229          calculate D2E/DX2 analytically  !
 ! R16   R(15,17)                1.335          calculate D2E/DX2 analytically  !
 ! R17   R(17,18)                1.01           calculate D2E/DX2 analytically  !
 ! R18   R(17,19)                1.4491         calculate D2E/DX2 analytically  !
 ! R19   R(19,20)                1.09           calculate D2E/DX2 analytically  !
 ! R20   R(19,21)                1.09           calculate D2E/DX2 analytically  !
 ! R21   R(19,22)                1.0899         calculate D2E/DX2 analytically  !
 ! A1    A(1,2,3)              109.4976         calculate D2E/DX2 analytically  !
 ! A2    A(1,2,4)              109.5057         calculate D2E/DX2 analytically  !
 ! A3    A(1,2,5)              111.1022         calculate D2E/DX2 analytically  !
 ! A4    A(3,2,4)              109.442          calculate D2E/DX2 analytically  !
 ! A5    A(3,2,5)              108.6296         calculate D2E/DX2 analytically  !
 ! A6    A(4,2,5)              108.6368         calculate D2E/DX2 analytically  !
 ! A7    A(2,5,6)              120.5005         calculate D2E/DX2 analytically  !
 ! A8    A(2,5,7)              116.6018         calculate D2E/DX2 analytically  !
 ! A9    A(6,5,7)              122.8977         calculate D2E/DX2 analytically  !
 ! A10   A(5,7,8)              119.9947         calculate D2E/DX2 analytically  !
 ! A11   A(5,7,9)              121.8985         calculate D2E/DX2 analytically  !
 ! A12   A(8,7,9)              118.1068         calculate D2E/DX2 analytically  !
 ! A13   A(7,9,10)             109.5            calculate D2E/DX2 analytically  !
 ! A14   A(7,9,11)             111.0992         calculate D2E/DX2 analytically  !
 ! A15   A(7,9,15)             111.0966         calculate D2E/DX2 analytically  !
 ! A16   A(10,9,11)            108.6382         calculate D2E/DX2 analytically  !
 ! A17   A(10,9,15)            108.6373         calculate D2E/DX2 analytically  !
 ! A18   A(11,9,15)            107.7947         calculate D2E/DX2 analytically  !
 ! A19   A(9,11,12)            109.5007         calculate D2E/DX2 analytically  !
 ! A20   A(9,11,13)            109.4959         calculate D2E/DX2 analytically  !
 ! A21   A(9,11,14)            109.4978         calculate D2E/DX2 analytically  !
 ! A22   A(12,11,13)           109.441          calculate D2E/DX2 analytically  !
 ! A23   A(12,11,14)           109.4482         calculate D2E/DX2 analytically  !
 ! A24   A(13,11,14)           109.4436         calculate D2E/DX2 analytically  !
 ! A25   A(9,15,16)            120.5            calculate D2E/DX2 analytically  !
 ! A26   A(9,15,17)            116.6011         calculate D2E/DX2 analytically  !
 ! A27   A(16,15,17)           122.8989         calculate D2E/DX2 analytically  !
 ! A28   A(15,17,18)           120.0038         calculate D2E/DX2 analytically  !
 ! A29   A(15,17,19)           121.9048         calculate D2E/DX2 analytically  !
 ! A30   A(18,17,19)           118.0914         calculate D2E/DX2 analytically  !
 ! A31   A(17,19,20)           109.491          calculate D2E/DX2 analytically  !
 ! A32   A(17,19,21)           109.5001         calculate D2E/DX2 analytically  !
 ! A33   A(17,19,22)           109.504          calculate D2E/DX2 analytically  !
 ! A34   A(20,19,21)           109.4404         calculate D2E/DX2 analytically  !
 ! A35   A(20,19,22)           109.4463         calculate D2E/DX2 analytically  !
 ! A36   A(21,19,22)           109.4456         calculate D2E/DX2 analytically  !
 ! D1    D(1,2,5,6)              0.0047         calculate D2E/DX2 analytically  !
 ! D2    D(1,2,5,7)           -179.9966         calculate D2E/DX2 analytically  !
 ! D3    D(3,2,5,6)            120.5112         calculate D2E/DX2 analytically  !
 ! D4    D(3,2,5,7)            -59.4901         calculate D2E/DX2 analytically  !
 ! D5    D(4,2,5,6)           -120.5165         calculate D2E/DX2 analytically  !
 ! D6    D(4,2,5,7)             59.4823         calculate D2E/DX2 analytically  !
 ! D7    D(2,5,7,8)             -0.0022         calculate D2E/DX2 analytically  !
 ! D8    D(2,5,7,9)           -179.9961         calculate D2E/DX2 analytically  !
 ! D9    D(6,5,7,8)            179.9965         calculate D2E/DX2 analytically  !
 ! D10   D(6,5,7,9)              0.0027         calculate D2E/DX2 analytically  !
 ! D11   D(5,7,9,10)           -30.0015         calculate D2E/DX2 analytically  !
 ! D12   D(5,7,9,11)            90.0011         calculate D2E/DX2 analytically  !
 ! D13   D(5,7,9,15)          -150.0013         frozen, calculate D2E/DX2 analyt!
 ! D14   D(8,7,9,10)           150.0045         calculate D2E/DX2 analytically  !
 ! D15   D(8,7,9,11)           -89.9929         calculate D2E/DX2 analytically  !
 ! D16   D(8,7,9,15)            30.0047         calculate D2E/DX2 analytically  !
 ! D17   D(7,9,11,12)           60.0024         calculate D2E/DX2 analytically  !
 ! D18   D(7,9,11,13)          179.9986         calculate D2E/DX2 analytically  !
 ! D19   D(7,9,11,14)          -60.0038         calculate D2E/DX2 analytically  !
 ! D20   D(10,9,11,12)        -179.4843         calculate D2E/DX2 analytically  !
 ! D21   D(10,9,11,13)         -59.4881         calculate D2E/DX2 analytically  !
 ! D22   D(10,9,11,14)          60.5095         calculate D2E/DX2 analytically  !
 ! D23   D(15,9,11,12)         -61.938          calculate D2E/DX2 analytically  !
 ! D24   D(15,9,11,13)          58.0582         calculate D2E/DX2 analytically  !
 ! D25   D(15,9,11,14)         178.0558         calculate D2E/DX2 analytically  !
 ! D26   D(7,9,15,16)           30.0006         calculate D2E/DX2 analytically  !
 ! D27   D(7,9,15,17)         -150.0013         frozen, calculate D2E/DX2 analyt!
 ! D28   D(10,9,15,16)         -90.5105         calculate D2E/DX2 analytically  !
 ! D29   D(10,9,15,17)          89.4877         calculate D2E/DX2 analytically  !
 ! D30   D(11,9,15,16)         151.9427         calculate D2E/DX2 analytically  !
 ! D31   D(11,9,15,17)         -28.0592         calculate D2E/DX2 analytically  !
 ! D32   D(9,15,17,18)           0.0058         calculate D2E/DX2 analytically  !
 ! D33   D(9,15,17,19)         179.9984         calculate D2E/DX2 analytically  !
 ! D34   D(16,15,17,18)       -179.9962         calculate D2E/DX2 analytically  !
 ! D35   D(16,15,17,19)         -0.0036         calculate D2E/DX2 analytically  !
 ! D36   D(15,17,19,20)          0.0048         calculate D2E/DX2 analytically  !
 ! D37   D(15,17,19,21)        119.9969         calculate D2E/DX2 analytically  !
 ! D38   D(15,17,19,22)       -119.9968         calculate D2E/DX2 analytically  !
 ! D39   D(18,17,19,20)        179.9976         calculate D2E/DX2 analytically  !
 ! D40   D(18,17,19,21)        -60.0103         calculate D2E/DX2 analytically  !
 ! D41   D(18,17,19,22)         59.996          calculate D2E/DX2 analytically  !
 --------------------------------------------------------------------------------
 Trust Radius=3.00D-01 FncErr=1.00D-07 GrdErr=1.00D-06
 Number of steps in this run= 132 maximum allowed number of steps= 132.
 GradGradGradGradGradGradGradGradGradGradGradGradGradGradGradGradGradGrad

                          Input orientation:                          
 ---------------------------------------------------------------------
 Center     Atomic      Atomic             Coordinates (Angstroms)
 Number     Number       Type             X           Y           Z
 ---------------------------------------------------------------------
      1          1           0        1.882700    1.236200    0.984200
      2          6           0        1.940900    2.209000    0.496000
      3          1           0        1.262400    2.904900    0.989500
      4          1           0        1.658000    2.107900   -0.551700
      5          6           0        3.359900    2.776800    0.566700
      6          8           0        4.256800    2.146900    1.122700
      7          7           0        3.555400    3.969700    0.000000
      8          1           0        2.786200    4.449200   -0.445500
      9          6           0        4.853300    4.613900    0.000000
     10          1           0        5.407600    4.315500    0.889800
     11          6           0        5.661300    4.220800   -1.232200
     12          1           0        5.123300    4.521400   -2.131200
     13          1           0        6.630500    4.718900   -1.205800
     14          1           0        5.808500    3.140900   -1.241400
     15          6           0        4.712700    6.129400    0.000000
     16          8           0        3.741900    6.665800    0.529500
     17          7           0        5.686800    6.820100   -0.596800
     18          1           0        6.465300    6.334000   -1.018500
     19          6           0        5.669000    8.267500   -0.663800
     20          1           0        4.773500    8.643500   -0.169000
     21          1           0        6.553000    8.665700   -0.165700
     22          1           0        5.667000    8.583500   -1.706900
 ---------------------------------------------------------------------
                    Distance matrix (angstroms):
                    1          2          3          4          5
     1  H    0.000000
     2  C    1.089985   0.000000
     3  H    1.780270   1.090037   0.000000
     4  H    1.780264   1.089922   1.779608   0.000000
     5  C    2.174827   1.530018   2.143519   2.143527   0.000000
     6  O    2.546548   2.400000   3.091721   3.091747   1.228959
     7  N    3.352402   2.439814   2.714914   2.714922   1.335058
     8  H    3.630940   2.572829   2.601164   2.601115   2.037303
     9  C    4.604560   3.809414   4.098092   4.098091   2.434405
    10  H    4.681444   4.075589   4.379773   4.583767   2.581679
    11  C    5.300763   4.568959   5.100771   4.577536   3.258469
    12  H    5.567741   4.730438   5.220957   4.508670   3.664952
    13  H    6.282269   5.584628   6.076713   5.654284   4.196467
    14  H    4.898273   4.341120   5.069481   4.332369   3.065524
    15  C    5.737679   4.826844   4.825047   5.080160   3.659391
    16  O    5.757077   4.807056   4.528122   5.126996   3.907893
    17  N    6.939069   6.040548   6.117226   6.199846   4.807959
    18  H    7.141330   6.307102   6.546828   6.417784   4.980968
    19  C    8.154211   7.207585   7.135055   7.351283   6.082258
    20  H    8.034593   7.061773   6.826527   7.250301   6.079284
    21  H    8.850505   7.962304   7.906437   8.192360   6.738801
    22  H    8.691707   7.705248   7.675778   7.703244   6.649040
                    6          7          8          9         10
     6  O    0.000000
     7  N    2.252780   0.000000
     8  H    3.150000   1.009980   0.000000
     9  C    2.775312   1.448978   2.120966   0.000000
    10  H    2.466051   2.083739   2.944935   1.089970   0.000000
    11  C    3.437911   2.452791   2.989526   1.525027   2.139209
    12  H    4.120308   2.702720   2.882505   2.150225   3.041326
    13  H    4.203754   3.386959   3.928032   2.150214   2.459625
    14  H    2.997462   2.702673   3.388127   2.150165   2.466256
    15  C    4.162764   2.450234   2.594792   1.522008   2.136554
    16  O    4.586662   2.753926   2.603325   2.392880   2.903150
    17  N    5.180770   3.608852   3.749338   2.432737   2.925911
    18  H    5.195577   3.885199   4.173317   2.568001   2.972319
    19  C    6.530516   4.835186   4.789322   3.801946   4.254446
    20  H    6.643890   4.832881   4.649512   4.033932   4.500525
    21  H    7.030453   5.573641   5.660914   4.396990   4.620634
    22  H    7.171131   5.353458   5.194475   4.396969   5.002596
                   11         12         13         14         15
    11  C    0.000000
    12  H    1.089957   0.000000
    13  H    1.090023   1.779613   0.000000
    14  H    1.089925   1.779613   1.779617   0.000000
    15  C    2.461892   2.701161   2.668599   3.416575   0.000000
    16  O    3.572913   3.685925   3.891747   4.453296   1.229043
    17  N    2.675957   2.820627   2.382539   3.737223   1.334956
    18  H    2.271057   2.514873   1.634295   3.267562   2.037354
    19  C    4.086431   4.060088   3.716290   5.160921   2.434463
    20  H    4.634529   4.578679   4.463842   5.700866   2.520507
    21  H    4.657219   4.804420   4.082284   5.677572   3.137990
    22  H    4.388453   4.120230   4.014295   5.464303   3.137962
                   16         17         18         19         20
    16  O    0.000000
    17  N    2.252775   0.000000
    18  H    3.150127   1.010043   0.000000
    19  C    2.775450   1.449059   2.120926   0.000000
    20  H    2.337391   2.083727   2.986240   1.090011   0.000000
    21  H    3.519259   2.083840   2.484308   1.090010   1.779642
    22  H    3.519243   2.083817   2.484236   1.089916   1.779629
                   21         22
    21  H    0.000000
    22  H    1.779621   0.000000
 Stoichiometry    C6H12N2O2
 Framework group  C1[X(C6H12N2O2)]
 Deg. of freedom    60
 Full point group                 C1      NOp   1
 Largest Abelian subgroup         C1      NOp   1
 Largest concise Abelian subgroup C1      NOp   1
                         Standard orientation:                         
 ---------------------------------------------------------------------
 Center     Atomic      Atomic             Coordinates (Angstroms)
 Number     Number       Type             X           Y           Z
 ---------------------------------------------------------------------
      1          1           0       -4.407199   -0.674422    0.104043
      2          6           0       -3.428493   -0.912961    0.520337
      3          1           0       -3.201875   -1.963505    0.338178
      4          1           0       -3.433634   -0.723763    1.593699
      5          6           0       -2.333687   -0.058360   -0.121545
      6          8           0       -2.614106    0.766745   -0.988094
      7          7           0       -1.086638   -0.261827    0.309557
      8          1           0       -0.905842   -0.951936    1.024484
      9          6           0        0.037545    0.483897   -0.219262
     10          1           0       -0.162562    0.758005   -1.255050
     11          6           0        0.278196    1.757576    0.584190
     12          1           0        0.489027    1.498859    1.621794
     13          1           0        1.127540    2.297084    0.165030
     14          1           0       -0.609587    2.388355    0.540652
     15          6           0        1.314221   -0.343428   -0.173005
     16          8           0        1.267890   -1.567849   -0.268899
     17          7           0        2.457632    0.329578   -0.025421
     18          1           0        2.444856    1.336780    0.049201
     19          6           0        3.739953   -0.342740    0.032987
     20          1           0        3.591175   -1.418498   -0.060469
     21          1           0        4.372287    0.008247   -0.782540
     22          1           0        4.222168   -0.124538    0.985759
 ---------------------------------------------------------------------
 Rotational constants (GHZ):      3.0904632      0.6568707      0.5874660
 Standard basis: 6-31G(d) (6D, 7F)
 There are   174 symmetry adapted basis functions of A   symmetry.
 Integral buffers will be    131072 words long.
 Raffenetti 2 integral format.
 Two-electron integral symmetry is turned on.
   174 basis functions,   328 primitive gaussians,   174 cartesian basis functions
    39 alpha electrons       39 beta electrons
       nuclear repulsion energy       552.8173474697 Hartrees.
 NAtoms=   22 NActive=   22 NUniq=   22 SFac= 7.50D-01 NAtFMM=   80 NAOKFM=F Big=F
 One-electron integrals computed using PRISM.
 NBasis=   174 RedAO= T  NBF=   174
 NBsUse=   174 1.00D-06 NBFU=   174
 Harris functional with IExCor=  402 diagonalized for initial guess.
 ExpMin= 1.61D-01 ExpMax= 5.48D+03 ExpMxC= 8.25D+02 IAcc=1 IRadAn=         1 AccDes= 0.00D+00
 HarFok:  IExCor=  402 AccDes= 0.00D+00 IRadAn=         1 IDoV= 1
 ScaDFX=  1.000000  1.000000  1.000000  1.000000
 FoFCou: FMM=F IPFlag=           0 FMFlag=      100000 FMFlg1=           0
         NFxFlg=           0 DoJE=T BraDBF=F KetDBF=T FulRan=T
         Omega=  0.000000  0.000000  1.000000  0.000000  0.000000 ICntrl=     500 IOpCl=  0
         NMat0=    1 NMatS0=    1 NMatT0=    0 NMatD0=    1 NMtDS0=    0 NMtDT0=    0
         I1Cent=           4 NGrid=           0.
 Petite list used in FoFCou.
 Initial guess orbital symmetries:
       Occupied  (A) (A) (A) (A) (A) (A) (A) (A) (A) (A) (A) (A)
                 (A) (A) (A) (A) (A) (A) (A) (A) (A) (A) (A) (A)
                 (A) (A) (A) (A) (A) (A) (A) (A) (A) (A) (A) (A)
                 (A) (A) (A)
       Virtual   (A) (A) (A) (A) (A) (A) (A) (A) (A) (A) (A) (A)
                 (A) (A) (A) (A) (A) (A) (A) (A) (A) (A) (A) (A)
                 (A) (A) (A) (A) (A) (A) (A) (A) (A) (A) (A) (A)
                 (A) (A) (A) (A) (A) (A) (A) (A) (A) (A) (A) (A)
                 (A) (A) (A) (A) (A) (A) (A) (A) (A) (A) (A) (A)
                 (A) (A) (A) (A) (A) (A) (A) (A) (A) (A) (A) (A)
                 (A) (A) (A) (A) (A) (A) (A) (A) (A) (A) (A) (A)
                 (A) (A) (A) (A) (A) (A) (A) (A) (A) (A) (A) (A)
                 (A) (A) (A) (A) (A) (A) (A) (A) (A) (A) (A) (A)
                 (A) (A) (A) (A) (A) (A) (A) (A) (A) (A) (A) (A)
                 (A) (A) (A) (A) (A) (A) (A) (A) (A) (A) (A) (A)
                 (A) (A) (A)
 The electronic state of the initial guess is 1-A.
 Requested convergence on RMS density matrix=1.00D-08 within 128 cycles.
 Requested convergence on MAX density matrix=1.00D-06.
 Requested convergence on             energy=1.00D-06.
 No special actions if energy rises.
 Integral accuracy reduced to 1.0D-05 until final iterations.
 Initial convergence to 1.0D-05 achieved.  Increase integral accuracy.
 SCF Done:  E(RB3LYP) =  -495.835875406     A.U. after   14 cycles
             Convg  =    0.8214D-08             -V/T =  2.0087
 Range of M.O.s used for correlation:     1   174
 NBasis=   174 NAE=    39 NBE=    39 NFC=     0 NFV=     0
 NROrb=    174 NOA=    39 NOB=    39 NVA=   135 NVB=   135
 Symmetrizing basis deriv contribution to polar:
 IMax=3 JMax=2 DiffMx= 0.00D+00
 G2DrvN: will do    23 centers at a time, making    1 passes doing MaxLOS=2.
 Calling FoFCou, ICntrl=  3107 FMM=F I1Cent=   0 AccDes= 0.00D+00.
 FoFDir/FoFCou used for L=0 through L=2.
 End of G2Drv Frequency-dependent properties file   721 does not exist.
 End of G2Drv Frequency-dependent properties file   722 does not exist.
          IDoAtm=1111111111111111111111
          Differentiating once with respect to nuclear coordinates.
          There are    69 degrees of freedom in the 1st order CPHF.  IDoFFX=5.
     63 vectors produced by pass  0 Test12= 7.63D-11 1.45D-07 XBig12= 1.83D-01 1.14D-01.
 AX will form    63 AO Fock derivatives at one time.
     63 vectors produced by pass  1 Test12= 7.63D-11 1.45D-07 XBig12= 2.60D-02 5.00D-02.
     63 vectors produced by pass  2 Test12= 7.63D-11 1.45D-07 XBig12= 3.16D-05 1.04D-03.
     63 vectors produced by pass  3 Test12= 7.63D-11 1.45D-07 XBig12= 8.54D-08 4.93D-05.
     29 vectors produced by pass  4 Test12= 7.63D-11 1.45D-07 XBig12= 9.60D-11 1.88D-06.
 Inverted reduced A of dimension   281 with in-core refinement.
 End of Minotr Frequency-dependent properties file   721 does not exist.
 End of Minotr Frequency-dependent properties file   722 does not exist.

 **********************************************************************

            Population analysis using the SCF density.

 **********************************************************************

 Orbital symmetries:
       Occupied  (A) (A) (A) (A) (A) (A) (A) (A) (A) (A) (A) (A)
                 (A) (A) (A) (A) (A) (A) (A) (A) (A) (A) (A) (A)
                 (A) (A) (A) (A) (A) (A) (A) (A) (A) (A) (A) (A)
                 (A) (A) (A)
       Virtual   (A) (A) (A) (A) (A) (A) (A) (A) (A) (A) (A) (A)
                 (A) (A) (A) (A) (A) (A) (A) (A) (A) (A) (A) (A)
                 (A) (A) (A) (A) (A) (A) (A) (A) (A) (A) (A) (A)
                 (A) (A) (A) (A) (A) (A) (A) (A) (A) (A) (A) (A)
                 (A) (A) (A) (A) (A) (A) (A) (A) (A) (A) (A) (A)
                 (A) (A) (A) (A) (A) (A) (A) (A) (A) (A) (A) (A)
                 (A) (A) (A) (A) (A) (A) (A) (A) (A) (A) (A) (A)
                 (A) (A) (A) (A) (A) (A) (A) (A) (A) (A) (A) (A)
                 (A) (A) (A) (A) (A) (A) (A) (A) (A) (A) (A) (A)
                 (A) (A) (A) (A) (A) (A) (A) (A) (A) (A) (A) (A)
                 (A) (A) (A) (A) (A) (A) (A) (A) (A) (A) (A) (A)
                 (A) (A) (A)
 The electronic state is 1-A.
 Alpha  occ. eigenvalues --  -19.10838 -19.09755 -14.36916 -14.35824 -10.28503
 Alpha  occ. eigenvalues --  -10.27741 -10.23525 -10.22231 -10.19170 -10.18419
 Alpha  occ. eigenvalues --   -1.03706  -1.02111  -0.93267  -0.92371  -0.79255
 Alpha  occ. eigenvalues --   -0.73008  -0.70994  -0.65699  -0.59865  -0.58759
 Alpha  occ. eigenvalues --   -0.54555  -0.48649  -0.47334  -0.45809  -0.45658
 Alpha  occ. eigenvalues --   -0.44554  -0.43032  -0.42145  -0.40288  -0.39813
 Alpha  occ. eigenvalues --   -0.38872  -0.38375  -0.37899  -0.36570  -0.34442
 Alpha  occ. eigenvalues --   -0.25852  -0.25036  -0.24849  -0.23592
 Alpha virt. eigenvalues --    0.02670   0.04011   0.06391   0.08986   0.11579
 Alpha virt. eigenvalues --    0.12784   0.13299   0.15371   0.15636   0.15880
 Alpha virt. eigenvalues --    0.16259   0.16952   0.17609   0.18454   0.21527
 Alpha virt. eigenvalues --    0.22218   0.23410   0.25344   0.28492   0.33736
 Alpha virt. eigenvalues --    0.34148   0.40775   0.41785   0.50201   0.50975
 Alpha virt. eigenvalues --    0.51964   0.52261   0.53939   0.54305   0.56547
 Alpha virt. eigenvalues --    0.57329   0.60015   0.61636   0.62560   0.66783
 Alpha virt. eigenvalues --    0.67256   0.69321   0.70611   0.71967   0.73032
 Alpha virt. eigenvalues --    0.75347   0.76918   0.79747   0.79907   0.83922
 Alpha virt. eigenvalues --    0.84977   0.86193   0.86713   0.88693   0.89158
 Alpha virt. eigenvalues --    0.89471   0.90029   0.90731   0.92296   0.93373
 Alpha virt. eigenvalues --    0.94538   0.95196   0.95543   0.97717   1.01573
 Alpha virt. eigenvalues --    1.05647   1.06211   1.08654   1.11929   1.16460
 Alpha virt. eigenvalues --    1.21317   1.27438   1.28055   1.31532   1.33509
 Alpha virt. eigenvalues --    1.36277   1.39948   1.42843   1.46160   1.47342
 Alpha virt. eigenvalues --    1.51326   1.52809   1.62561   1.68099   1.68437
 Alpha virt. eigenvalues --    1.76689   1.77538   1.79944   1.80252   1.82177
 Alpha virt. eigenvalues --    1.83696   1.84548   1.87467   1.90937   1.91342
 Alpha virt. eigenvalues --    1.92303   1.96311   1.97182   1.98756   2.03504
 Alpha virt. eigenvalues --    2.04439   2.07258   2.09419   2.14995   2.17210
 Alpha virt. eigenvalues --    2.19711   2.22189   2.25978   2.26938   2.28551
 Alpha virt. eigenvalues --    2.30218   2.31250   2.35836   2.39230   2.43638
 Alpha virt. eigenvalues --    2.45872   2.48084   2.55179   2.56814   2.61324
 Alpha virt. eigenvalues --    2.66743   2.70363   2.72900   2.75980   2.87898
 Alpha virt. eigenvalues --    2.93832   2.96889   3.02178   3.16241   3.20449
 Alpha virt. eigenvalues --    3.96541   4.00763   4.05957   4.13147   4.20572
 Alpha virt. eigenvalues --    4.24379   4.26385   4.39194   4.46670   4.65840
          Condensed to atoms (all electrons):
              1          2          3          4          5          6
     1  H    0.502697   0.361208  -0.021046  -0.021882  -0.018029   0.005014
     2  C    0.361208   5.332759   0.351449   0.350173   0.353738  -0.081251
     3  H   -0.021046   0.351449   0.542861  -0.026715  -0.024723   0.001460
     4  H   -0.021882   0.350173  -0.026715   0.558391  -0.026468   0.001430
     5  C   -0.018029   0.353738  -0.024723  -0.026468   4.324976   0.605259
     6  O    0.005014  -0.081251   0.001460   0.001430   0.605259   8.071315
     7  N    0.004446  -0.133606   0.004242   0.004468   0.226127  -0.110144
     8  H   -0.000136  -0.001163   0.001003   0.001004  -0.015584   0.003373
     9  C   -0.000145   0.007654  -0.000276  -0.000209  -0.015918   0.008572
    10  H   -0.000006   0.000815  -0.000053  -0.000015  -0.000485   0.015720
    11  C    0.000006  -0.000447   0.000001   0.000076  -0.004893  -0.002962
    12  H    0.000000  -0.000006   0.000000  -0.000001   0.000182  -0.000017
    13  H    0.000000   0.000004   0.000000   0.000000   0.000073  -0.000039
    14  H    0.000000   0.000117   0.000000  -0.000044   0.003838   0.004638
    15  C    0.000000  -0.000052   0.000019  -0.000024   0.004920   0.000727
    16  O    0.000000  -0.000041   0.000006   0.000001   0.000359  -0.000001
    17  N    0.000000   0.000001   0.000000   0.000000  -0.000111  -0.000004
    18  H    0.000000   0.000000   0.000000   0.000000   0.000000   0.000001
    19  C    0.000000   0.000000   0.000000   0.000000   0.000002   0.000000
    20  H    0.000000   0.000000   0.000000   0.000000   0.000000   0.000000
    21  H    0.000000   0.000000   0.000000   0.000000   0.000000   0.000000
    22  H    0.000000   0.000000   0.000000   0.000000   0.000000   0.000000
              7          8          9         10         11         12
     1  H    0.004446  -0.000136  -0.000145  -0.000006   0.000006   0.000000
     2  C   -0.133606  -0.001163   0.007654   0.000815  -0.000447  -0.000006
     3  H    0.004242   0.001003  -0.000276  -0.000053   0.000001   0.000000
     4  H    0.004468   0.001004  -0.000209  -0.000015   0.000076  -0.000001
     5  C    0.226127  -0.015584  -0.015918  -0.000485  -0.004893   0.000182
     6  O   -0.110144   0.003373   0.008572   0.015720  -0.002962  -0.000017
     7  N    7.161902   0.301302   0.238398  -0.041495  -0.062643  -0.001294
     8  H    0.301302   0.402147  -0.044140   0.004515   0.001969   0.001924
     9  C    0.238398  -0.044140   5.136857   0.368130   0.326222  -0.037639
    10  H   -0.041495   0.004515   0.368130   0.515884  -0.045055   0.005123
    11  C   -0.062643   0.001969   0.326222  -0.045055   5.210319   0.375103
    12  H   -0.001294   0.001924  -0.037639   0.005123   0.375103   0.564908
    13  H    0.006093  -0.000098  -0.029851  -0.000277   0.345911  -0.032883
    14  H   -0.007844  -0.000282  -0.020264  -0.003504   0.364443  -0.026369
    15  C   -0.026893   0.001100   0.304373  -0.022838  -0.055279  -0.002461
    16  O   -0.001581   0.010817  -0.094720  -0.000344   0.002971   0.000111
    17  N    0.002422   0.000430  -0.121579  -0.000903   0.003379  -0.000125
    18  H    0.000208  -0.000045  -0.002618   0.000246   0.003635  -0.000214
    19  C   -0.000059  -0.000010   0.006481  -0.000193   0.000144  -0.000252
    20  H   -0.000006  -0.000016   0.001173  -0.000020  -0.000099  -0.000010
    21  H   -0.000002   0.000000  -0.000265   0.000028   0.000056   0.000006
    22  H    0.000006   0.000001  -0.000002  -0.000004  -0.000097   0.000009
             13         14         15         16         17         18
     1  H    0.000000   0.000000   0.000000   0.000000   0.000000   0.000000
     2  C    0.000004   0.000117  -0.000052  -0.000041   0.000001   0.000000
     3  H    0.000000   0.000000   0.000019   0.000006   0.000000   0.000000
     4  H    0.000000  -0.000044  -0.000024   0.000001   0.000000   0.000000
     5  C    0.000073   0.003838   0.004920   0.000359  -0.000111   0.000000
     6  O   -0.000039   0.004638   0.000727  -0.000001  -0.000004   0.000001
     7  N    0.006093  -0.007844  -0.026893  -0.001581   0.002422   0.000208
     8  H   -0.000098  -0.000282   0.001100   0.010817   0.000430  -0.000045
     9  C   -0.029851  -0.020264   0.304373  -0.094720  -0.121579  -0.002618
    10  H   -0.000277  -0.003504  -0.022838  -0.000344  -0.000903   0.000246
    11  C    0.345911   0.364443  -0.055279   0.002971   0.003379   0.003635
    12  H   -0.032883  -0.026369  -0.002461   0.000111  -0.000125  -0.000214
    13  H    0.605495  -0.023091  -0.008124  -0.000056  -0.007663   0.014598
    14  H   -0.023091   0.521538   0.003654  -0.000083   0.000637  -0.000277
    15  C   -0.008124   0.003654   4.388523   0.601611   0.265453  -0.018766
    16  O   -0.000056  -0.000083   0.601611   8.096178  -0.101876   0.003805
    17  N   -0.007663   0.000637   0.265453  -0.101876   7.119752   0.292441
    18  H    0.014598  -0.000277  -0.018766   0.003805   0.292441   0.403060
    19  C    0.000653  -0.000001  -0.026631  -0.009505   0.263903  -0.029251
    20  H   -0.000018   0.000002  -0.000021   0.022191  -0.037868   0.003588
    21  H   -0.000080   0.000001   0.001841   0.000568  -0.043025  -0.001009
    22  H    0.000055  -0.000002   0.001048   0.000622  -0.044749  -0.000352
             19         20         21         22
     1  H    0.000000   0.000000   0.000000   0.000000
     2  C    0.000000   0.000000   0.000000   0.000000
     3  H    0.000000   0.000000   0.000000   0.000000
     4  H    0.000000   0.000000   0.000000   0.000000
     5  C    0.000002   0.000000   0.000000   0.000000
     6  O    0.000000   0.000000   0.000000   0.000000
     7  N   -0.000059  -0.000006  -0.000002   0.000006
     8  H   -0.000010  -0.000016   0.000000   0.000001
     9  C    0.006481   0.001173  -0.000265  -0.000002
    10  H   -0.000193  -0.000020   0.000028  -0.000004
    11  C    0.000144  -0.000099   0.000056  -0.000097
    12  H   -0.000252  -0.000010   0.000006   0.000009
    13  H    0.000653  -0.000018  -0.000080   0.000055
    14  H   -0.000001   0.000002   0.000001  -0.000002
    15  C   -0.026631  -0.000021   0.001841   0.001048
    16  O   -0.009505   0.022191   0.000568   0.000622
    17  N    0.263903  -0.037868  -0.043025  -0.044749
    18  H   -0.029251   0.003588  -0.001009  -0.000352
    19  C    4.968028   0.375439   0.382175   0.383994
    20  H    0.375439   0.473180  -0.023359  -0.024463
    21  H    0.382175  -0.023359   0.560633  -0.038550
    22  H    0.383994  -0.024463  -0.038550   0.563513
 Mulliken atomic charges:
              1
     1  H    0.187873
     2  C   -0.541350
     3  H    0.171772
     4  H    0.159816
     5  C    0.586738
     6  O   -0.523091
     7  N   -0.564049
     8  H    0.331890
     9  C   -0.030234
    10  H    0.204732
    11  C   -0.462761
    12  H    0.153906
    13  H    0.129298
    14  H    0.182896
    15  C    0.587820
    16  O   -0.531031
    17  N   -0.590515
    18  H    0.330950
    19  C   -0.314918
    20  H    0.210307
    21  H    0.160982
    22  H    0.158971
 Sum of Mulliken atomic charges =   0.00000
 Mulliken charges with hydrogens summed into heavy atoms:
              1
     2  C   -0.021890
     5  C    0.586738
     6  O   -0.523091
     7  N   -0.232160
     9  C    0.174498
    11  C    0.003339
    15  C    0.587820
    16  O   -0.531031
    17  N   -0.259565
    19  C    0.215342
 Sum of Mulliken charges with hydrogens summed into heavy atoms =   0.00000
 APT atomic charges:
              1
     1  H    0.749181
     2  C   -1.228426
     3  H    0.335033
     4  H    0.366543
     5  C   -0.082525
     6  O   -0.084628
     7  N   -0.636073
     8  H    0.501022
     9  C   -0.394445
    10  H    0.414941
    11  C   -1.152995
    12  H    0.348283
    13  H    0.391119
    14  H    0.444221
    15  C   -0.069875
    16  O   -0.223244
    17  N   -0.369079
    18  H    0.535293
    19  C   -1.407376
    20  H    0.399678
    21  H    0.609181
    22  H    0.554171
 Sum of APT charges=   0.00000
 APT Atomic charges with hydrogens summed into heavy atoms:
              1
     1  H    0.000000
     2  C    0.222330
     3  H    0.000000
     4  H    0.000000
     5  C   -0.082525
     6  O   -0.084628
     7  N   -0.135051
     8  H    0.000000
     9  C    0.020496
    10  H    0.000000
    11  C    0.030628
    12  H    0.000000
    13  H    0.000000
    14  H    0.000000
    15  C   -0.069875
    16  O   -0.223244
    17  N    0.166214
    18  H    0.000000
    19  C    0.155653
    20  H    0.000000
    21  H    0.000000
    22  H    0.000000
 Sum of APT charges=   0.00000
 Electronic spatial extent (au):  <R**2>=           1969.7608
 Charge=              0.0000 electrons
 Dipole moment (field-independent basis, Debye):
    X=              3.0166    Y=              1.2880    Z=              2.8534  Tot=              4.3475
 Quadrupole moment (field-independent basis, Debye-Ang):
   XX=            -54.7675   YY=            -62.7967   ZZ=            -60.4998
   XY=             10.4927   XZ=             -5.7029   YZ=             -0.4304
 Traceless Quadrupole moment (field-independent basis, Debye-Ang):
   XX=              4.5872   YY=             -3.4420   ZZ=             -1.1452
   XY=             10.4927   XZ=             -5.7029   YZ=             -0.4304
 Octapole moment (field-independent basis, Debye-Ang**2):
  XXX=             40.2817  YYY=              5.9697  ZZZ=              0.3589  XYY=              0.6493
  XXY=            -11.2497  XXZ=             15.0740  XZZ=              4.7438  YZZ=             -3.8163
  YYZ=              2.3049  XYZ=             -5.3521
 Hexadecapole moment (field-independent basis, Debye-Ang**3):
 XXXX=          -1840.9864 YYYY=           -404.0261 ZZZZ=           -152.5040 XXXY=             36.6590
 XXXZ=            -31.7120 YYYX=              8.9656 YYYZ=             -5.6244 ZZZX=             -1.9495
 ZZZY=             -2.6881 XXYY=           -394.2662 XXZZ=           -369.8800 YYZZ=            -94.9630
 XXYZ=             12.8920 YYXZ=             -1.0946 ZZXY=              2.6415
 N-N= 5.528173474697D+02 E-N=-2.261855095812D+03  KE= 4.915524848890D+02
  Exact polarizability:   0.000   0.000   0.000   0.000   0.000   0.000
 Approx polarizability: 123.563   4.069 118.644   8.701 -10.019  94.272
 Calling FoFJK, ICntrl=    100147 FMM=F ISym2X=0 I1Cent= 0 IOpClX= 0 NMat=1 NMatS=1 NMatT=0.
 ***** Axes restored to original set *****
 -------------------------------------------------------------------
 Center     Atomic                   Forces (Hartrees/Bohr)
 Number     Number              X              Y              Z
 -------------------------------------------------------------------
      1        1           0.003793720    0.000849323    0.000347813
      2        6           0.005948714    0.008855077   -0.002559825
      3        1          -0.006183141    0.000929206   -0.000164966
      4        1          -0.005728928   -0.000743268   -0.003242755
      5        6          -0.003845039   -0.036110852    0.018468346
      6        8           0.005241098    0.002258295   -0.000278142
      7        7           0.002203931    0.023274986   -0.008542514
      8        1          -0.000188126    0.003443713    0.002781055
      9        6           0.008002276    0.002997235   -0.013950640
     10        1          -0.002910479   -0.003418922    0.004755962
     11        6          -0.000246986   -0.014350260    0.000648049
     12        1           0.001053720   -0.000110936   -0.004736444
     13        1           0.005731408   -0.009878538   -0.003985046
     14        1           0.002635502   -0.001857012   -0.001816612
     15        6          -0.028145037   -0.005185169    0.020212079
     16        8          -0.004569931    0.002491288   -0.000706575
     17        7           0.015475251    0.014486579   -0.007066436
     18        1          -0.003628434    0.006491873    0.001766574
     19        6           0.002780572    0.000088328   -0.000010751
     20        1          -0.000256054   -0.002884126    0.000400045
     21        1           0.002540851    0.004480263    0.000989614
     22        1           0.000295111    0.003892915   -0.003308830
 -------------------------------------------------------------------
 Cartesian Forces:  Max     0.036110852 RMS     0.008819333

 GradGradGradGradGradGradGradGradGradGradGradGradGradGradGradGradGradGrad
 Berny optimization.
 Internal  Forces:  Max     0.037455958 RMS     0.008838679
 Search for a local minimum.
 Step number   1 out of a maximum of  132
 All quantities printed in internal units (Hartrees-Bohrs-Radians)
 Mixed Optimization -- RFO/linear search
 Second derivative matrix not updated -- analytic derivatives used.
     Eigenvalues ---   -0.00078  -0.00043   0.00054   0.00130   0.00429
     Eigenvalues ---    0.01352   0.01856   0.01994   0.03920   0.04244
     Eigenvalues ---    0.04506   0.04924   0.05090   0.05717   0.05832
     Eigenvalues ---    0.05986   0.06403   0.06602   0.10812   0.12075
     Eigenvalues ---    0.12441   0.12553   0.13323   0.13387   0.13523
     Eigenvalues ---    0.14312   0.15325   0.17482   0.17950   0.18533
     Eigenvalues ---    0.18974   0.19903   0.21470   0.22314   0.24276
     Eigenvalues ---    0.24462   0.29775   0.30414   0.33079   0.34596
     Eigenvalues ---    0.34619   0.34703   0.34928   0.35085   0.35112
     Eigenvalues ---    0.35495   0.35730   0.35868   0.35910   0.37912
     Eigenvalues ---    0.39424   0.45828   0.47031   0.53189   0.53827
     Eigenvalues ---    0.71780   0.83055   0.832671000.000001000.00000
     Eigenvalues --- 1000.000001000.000001000.000001000.000001000.00000
     Eigenvalues --- 1000.000001000.000001000.000001000.000001000.00000
     Eigenvalues --- 1000.000001000.000001000.000001000.000001000.00000
     Eigenvalues --- 1000.000001000.000001000.000001000.000001000.00000
     Eigenvalues --- 1000.000001000.000001000.000001000.000001000.00000
     Eigenvalues --- 1000.000001000.000001000.000001000.000001000.00000
     Eigenvalues --- 1000.000001000.000001000.000001000.000001000.00000
     Eigenvalues --- 1000.000001000.000001000.00000
 RFO step:  Lambda=-1.69292260D-02 EMin=-7.76856014D-04
 Linear search not attempted -- first point.
 Maximum step size (   0.300) exceeded in Quadratic search.
    -- Step size scaled by   0.311
 Iteration  1 RMS(Cart)=  0.05491679 RMS(Int)=  0.00206266
 Iteration  2 RMS(Cart)=  0.00220438 RMS(Int)=  0.00005846
 Iteration  3 RMS(Cart)=  0.00000401 RMS(Int)=  0.00005838
 Iteration  4 RMS(Cart)=  0.00000000 RMS(Int)=  0.00005838
 Iteration  1 RMS(Cart)=  0.00004110 RMS(Int)=  0.00001107
 Iteration  2 RMS(Cart)=  0.00002164 RMS(Int)=  0.00001237
 Iteration  3 RMS(Cart)=  0.00001142 RMS(Int)=  0.00001392
 Iteration  4 RMS(Cart)=  0.00000604 RMS(Int)=  0.00001490
 Iteration  5 RMS(Cart)=  0.00000321 RMS(Int)=  0.00001547
 Iteration  6 RMS(Cart)=  0.00000171 RMS(Int)=  0.00001578
 Iteration  7 RMS(Cart)=  0.00000092 RMS(Int)=  0.00001595
 Variable       Old X    -DE/DX   Delta X   Delta X   Delta X     New X
                                 (Linear)    (Quad)   (Total)
    R1        2.05977  -0.00081   0.00000   0.00016   0.00016   2.05993
    R2        2.05987   0.00437   0.00000   0.00359   0.00359   2.06346
    R3        2.05965   0.00467   0.00000   0.00341   0.00341   2.06307
    R4        2.89132  -0.00140   0.00000  -0.00422  -0.00422   2.88710
    R5        2.32240   0.00254   0.00000  -0.00120  -0.00120   2.32119
    R6        2.52289   0.02686   0.00000   0.01615   0.01615   2.53904
    R7        1.90859   0.00055   0.00000   0.00002   0.00002   1.90860
    R8        2.73817  -0.00234   0.00000  -0.00003  -0.00003   2.73814
    R9        2.05975   0.00334   0.00000   0.00393   0.00393   2.06368
   R10        2.88188   0.01961   0.00000   0.00753   0.00753   2.88941
   R11        2.87618   0.02518   0.00000   0.01101   0.01101   2.88719
   R12        2.05972   0.00336   0.00000   0.00310   0.00310   2.06282
   R13        2.05984   0.00048   0.00000   0.00543   0.00543   2.06527
   R14        2.05966   0.00221   0.00000   0.00155   0.00155   2.06121
   R15        2.32256   0.00439   0.00000  -0.00097  -0.00097   2.32158
   R16        2.52270   0.02953   0.00000   0.01430   0.01430   2.53700
   R17        1.90870  -0.00666   0.00000  -0.00155  -0.00155   1.90716
   R18        2.73833   0.00559   0.00000   0.00220   0.00220   2.74053
   R19        2.05982  -0.00060   0.00000   0.00020   0.00020   2.06002
   R20        2.05982   0.00415   0.00000   0.00290   0.00290   2.06272
   R21        2.05964   0.00429   0.00000   0.00412   0.00412   2.06376
    A1        1.91109   0.00010   0.00000  -0.00315  -0.00317   1.90793
    A2        1.91123  -0.00016   0.00000   0.00111   0.00115   1.91238
    A3        1.93910  -0.00789   0.00000  -0.01182  -0.01181   1.92729
    A4        1.91012  -0.00507   0.00000  -0.00838  -0.00844   1.90169
    A5        1.89594   0.00633   0.00000   0.00339   0.00335   1.89930
    A6        1.89607   0.00673   0.00000   0.01894   0.01893   1.91500
    A7        2.10313   0.00992   0.00000   0.01263   0.01261   2.11574
    A8        2.03508  -0.00800   0.00000  -0.00854  -0.00855   2.02653
    A9        2.14497  -0.00193   0.00000  -0.00409  -0.00411   2.14086
   A10        2.09430   0.00196   0.00000   0.00280   0.00274   2.09704
   A11        2.12753  -0.00042   0.00000  -0.00109  -0.00114   2.12639
   A12        2.06135  -0.00155   0.00000  -0.00170  -0.00176   2.05960
   A13        1.91114   0.00343   0.00000  -0.00993  -0.01005   1.90108
   A14        1.93905  -0.00809   0.00000   0.00572   0.00585   1.94490
   A15        1.93900  -0.02143   0.00000  -0.01800  -0.01826   1.92074
   A16        1.89609  -0.00687   0.00000  -0.00652  -0.00654   1.88956
   A17        1.89608  -0.00390   0.00000  -0.00209  -0.00231   1.89377
   A18        1.88137   0.03746   0.00000   0.03133   0.03142   1.91279
   A19        1.91115   0.00357   0.00000   0.00930   0.00925   1.92040
   A20        1.91106   0.01232   0.00000   0.00964   0.00960   1.92067
   A21        1.91110  -0.00001   0.00000  -0.00247  -0.00246   1.90863
   A22        1.91011  -0.00448   0.00000  -0.00184  -0.00193   1.90817
   A23        1.91023  -0.00275   0.00000  -0.00312  -0.00311   1.90712
   A24        1.91015  -0.00865   0.00000  -0.01153  -0.01151   1.89864
   A25        2.10312  -0.01093   0.00000   0.00260   0.00260   2.10572
   A26        2.03507   0.02368   0.00000  -0.00336  -0.00336   2.03171
   A27        2.14499  -0.01275   0.00000   0.00076   0.00075   2.14575
   A28        2.09446   0.00360   0.00000  -0.00486  -0.00498   2.08948
   A29        2.12764  -0.00003   0.00000   0.00282   0.00270   2.13034
   A30        2.06108  -0.00357   0.00000   0.00203   0.00190   2.06298
   A31        1.91098  -0.00595   0.00000  -0.00989  -0.00987   1.90111
   A32        1.91114   0.00494   0.00000   0.00492   0.00490   1.91604
   A33        1.91120   0.00420   0.00000   0.01014   0.01013   1.92134
   A34        1.91010  -0.00021   0.00000   0.00119   0.00119   1.91129
   A35        1.91020   0.00008   0.00000  -0.00301  -0.00299   1.90721
   A36        1.91019  -0.00306   0.00000  -0.00336  -0.00340   1.90679
    D1        0.00008  -0.00001   0.00000  -0.09738  -0.09743  -0.09734
    D2       -3.14153  -0.00009   0.00000  -0.08746  -0.08746   3.05419
    D3        2.10332  -0.00067   0.00000  -0.10640  -0.10644   1.99688
    D4       -1.03830  -0.00075   0.00000  -0.09648  -0.09648  -1.13478
    D5       -2.10341   0.00072   0.00000  -0.10369  -0.10367  -2.20708
    D6        1.03816   0.00063   0.00000  -0.09377  -0.09371   0.94445
    D7       -0.00004   0.00050   0.00000  -0.00550  -0.00543  -0.00547
    D8       -3.14152  -0.00106   0.00000  -0.02519  -0.02520   3.11646
    D9        3.14153   0.00041   0.00000   0.00467   0.00468  -3.13697
   D10        0.00005  -0.00114   0.00000  -0.01501  -0.01508  -0.01504
   D11       -0.52362  -0.00199   0.00000  -0.02042  -0.02032  -0.54395
   D12        1.57082  -0.01342   0.00000  -0.03137  -0.03129   1.53953
   D13       -2.61802   0.01417   0.00000   0.00000   0.00000  -2.61802
   D14        2.61807  -0.00351   0.00000  -0.03975  -0.03968   2.57839
   D15       -1.57067  -0.01494   0.00000  -0.05070  -0.05065  -1.62132
   D16        0.52368   0.01265   0.00000  -0.01933  -0.01936   0.50432
   D17        1.04724  -0.00088   0.00000   0.00968   0.00975   1.05699
   D18        3.14157   0.00337   0.00000   0.01904   0.01917  -3.12245
   D19       -1.04726   0.00031   0.00000   0.00931   0.00941  -1.03786
   D20       -3.13259  -0.00609   0.00000  -0.00328  -0.00330  -3.13589
   D21       -1.03826  -0.00184   0.00000   0.00608   0.00612  -1.03214
   D22        1.05609  -0.00489   0.00000  -0.00365  -0.00364   1.05245
   D23       -1.08102   0.00612   0.00000   0.00790   0.00777  -1.07325
   D24        1.01331   0.01036   0.00000   0.01726   0.01719   1.03050
   D25        3.10766   0.00731   0.00000   0.00753   0.00743   3.11509
   D26        0.52361  -0.00606   0.00000  -0.00244  -0.00241   0.52120
   D27       -2.61802  -0.00706   0.00000   0.00000   0.00000  -2.61802
   D28       -1.57971   0.00548   0.00000   0.02234   0.02236  -1.55734
   D29        1.56185   0.00448   0.00000   0.02478   0.02477   1.58662
   D30        2.65190  -0.00480   0.00000   0.01402   0.01392   2.66582
   D31       -0.48973  -0.00580   0.00000   0.01646   0.01633  -0.47340
   D32        0.00010   0.00086   0.00000   0.02989   0.02987   0.02997
   D33        3.14156   0.00134   0.00000  -0.00026  -0.00020   3.14136
   D34       -3.14153  -0.00017   0.00000   0.03239   0.03234  -3.10919
   D35       -0.00006   0.00032   0.00000   0.00225   0.00226   0.00220
   D36        0.00008  -0.00027   0.00000   0.06613   0.06615   0.06623
   D37        2.09434  -0.00114   0.00000   0.06454   0.06454   2.15888
   D38       -2.09434   0.00072   0.00000   0.06967   0.06972  -2.02462
   D39        3.14155   0.00021   0.00000   0.03654   0.03651  -3.10512
   D40       -1.04738  -0.00066   0.00000   0.03495   0.03491  -1.01247
   D41        1.04713   0.00119   0.00000   0.04008   0.04008   1.08721
         Item               Value     Threshold  Converged?
 Maximum Force            0.031281     0.000450     NO 
 RMS     Force            0.008605     0.000300     NO 
 Maximum Displacement     0.230221     0.001800     NO 
 RMS     Displacement     0.055045     0.001200     NO 
 Predicted change in Energy=-4.627700D-03
 GradGradGradGradGradGradGradGradGradGradGradGradGradGradGradGradGradGrad

                          Input orientation:                          
 ---------------------------------------------------------------------
 Center     Atomic      Atomic             Coordinates (Angstroms)
 Number     Number       Type             X           Y           Z
 ---------------------------------------------------------------------
      1          1           0        1.887438    1.221652    0.898783
      2          6           0        1.930472    2.233202    0.494848
      3          1           0        1.286563    2.886409    1.087320
      4          1           0        1.577774    2.229727   -0.538332
      5          6           0        3.360223    2.768864    0.549729
      6          8           0        4.258611    2.131325    1.093069
      7          7           0        3.563745    3.970261   -0.016390
      8          1           0        2.796208    4.463503   -0.449609
      9          6           0        4.864513    4.608557   -0.008019
     10          1           0        5.397455    4.314578    0.898694
     11          6           0        5.702426    4.185222   -1.214902
     12          1           0        5.197543    4.471301   -2.139473
     13          1           0        6.684166    4.663840   -1.175793
     14          1           0        5.838364    3.103099   -1.198967
     15          6           0        4.702483    6.127771   -0.004255
     16          8           0        3.722061    6.651742    0.518728
     17          7           0        5.677599    6.833746   -0.598496
     18          1           0        6.447777    6.351645   -1.037743
     19          6           0        5.647730    8.282094   -0.665932
     20          1           0        4.778989    8.643823   -0.115668
     21          1           0        6.556922    8.691411   -0.221750
     22          1           0        5.576937    8.607727   -1.705943
 ---------------------------------------------------------------------
                    Distance matrix (angstroms):
                    1          2          3          4          5
     1  H    0.000000
     2  C    1.090068   0.000000
     3  H    1.779891   1.091935   0.000000
     4  H    1.782528   1.091728   1.777296   0.000000
     5  C    2.164439   1.527787   2.145434   2.156773   0.000000
     6  O    2.547099   2.405925   3.066472   3.139751   1.228322
     7  N    3.346998   2.438507   2.752902   2.691832   1.343602
     8  H    3.626791   2.572108   2.669907   2.546017   2.046604
     9  C    4.599607   3.808383   4.119137   4.091786   2.440992
    10  H    4.678291   4.063888   4.355994   4.582751   2.580954
    11  C    5.273001   4.578347   5.146551   4.614592   3.256671
    12  H    5.545089   4.756310   5.312235   4.548739   3.675030
    13  H    6.257885   5.594340   6.116785   5.692670   4.197256
    14  H    4.852856   4.347108   5.098329   4.399072   3.051365
    15  C    5.727998   4.806331   4.833888   5.024320   3.659346
    16  O    5.744228   4.768003   4.520252   5.026883   3.899824
    17  N    6.935615   6.033354   6.140410   6.165158   4.817875
    18  H    7.131875   6.302099   6.569770   6.399730   4.988925
    19  C    8.150949   7.194061   7.155913   7.294653   6.091488
    20  H    8.029869   7.041508   6.840470   7.181020   6.080361
    21  H    8.880144   7.976591   7.949113   8.163669   6.774262
    22  H    8.657430   7.666469   7.677441   7.618103   6.640346
                    6          7          8          9         10
     6  O    0.000000
     7  N    2.257304   0.000000
     8  H    3.155555   1.009990   0.000000
     9  C    2.777803   1.448961   2.119889   0.000000
    10  H    2.470089   2.078082   2.933698   1.092052   0.000000
    11  C    3.410252   2.461015   3.018148   1.529012   2.139399
    12  H    4.099562   2.725402   2.936343   2.161677   3.048768
    13  H    4.176683   3.400337   3.960264   2.162843   2.465990
    14  H    2.948456   2.706353   3.415691   2.152475   2.462167
    15  C    4.168060   2.439615   2.569438   1.527835   2.141489
    16  O    4.588237   2.738933   2.565789   2.399430   2.900631
    17  N    5.194967   3.606490   3.733984   2.441565   2.943852
    18  H    5.209982   3.877085   4.152702   2.570100   3.000435
    19  C    6.546426   4.832888   4.770704   3.813287   4.272222
    20  H    6.644130   4.829995   4.638751   4.037608   4.489298
    21  H    7.074299   5.593794   5.663047   4.424887   4.664378
    22  H    7.177481   5.330443   5.146399   4.402710   5.024687
                   11         12         13         14         15
    11  C    0.000000
    12  H    1.091596   0.000000
    13  H    1.092894   1.782077   0.000000
    14  H    1.090744   1.779657   1.775340   0.000000
    15  C    2.497810   2.747387   2.728124   3.444736   0.000000
    16  O    3.607083   3.741311   3.949332   4.474605   1.228529
    17  N    2.719422   2.861156   2.460679   3.782082   1.342525
    18  H    2.297895   2.512486   1.709860   3.309143   2.040654
    19  C    4.133851   4.110491   3.798146   5.209843   2.443853
    20  H    4.684034   4.656277   4.538042   5.744165   2.519679
    21  H    4.692787   4.830621   4.140980   5.718436   3.171513
    22  H    4.451452   4.176351   4.130527   5.534103   3.132187
                   16         17         18         19         20
    16  O    0.000000
    17  N    2.259523   0.000000
    18  H    3.153124   1.009225   0.000000
    19  C    2.787413   1.450225   2.122487   0.000000
    20  H    2.342636   2.077739   2.981469   1.090114   0.000000
    21  H    3.570013   2.089513   2.480375   1.091544   1.781731
    22  H    3.495083   2.093700   2.508936   1.092095   1.779606
                   21         22
    21  H    0.000000
    22  H    1.780507   0.000000
 Stoichiometry    C6H12N2O2
 Framework group  C1[X(C6H12N2O2)]
 Deg. of freedom    60
 Full point group                 C1      NOp   1
 Largest Abelian subgroup         C1      NOp   1
 Largest concise Abelian subgroup C1      NOp   1
                         Standard orientation:                         
 ---------------------------------------------------------------------
 Center     Atomic      Atomic             Coordinates (Angstroms)
 Number     Number       Type             X           Y           Z
 ---------------------------------------------------------------------
      1          1           0       -4.397580   -0.654851    0.164740
      2          6           0       -3.406690   -0.954109    0.506542
      3          1           0       -3.218228   -1.987258    0.207534
      4          1           0       -3.359181   -0.885614    1.595083
      5          6           0       -2.335675   -0.058308   -0.113621
      6          8           0       -2.622575    0.785425   -0.958948
      7          7           0       -1.077213   -0.259925    0.311690
      8          1           0       -0.883586   -0.967347    1.006054
      9          6           0        0.038689    0.498750   -0.216196
     10          1           0       -0.170527    0.759524   -1.255813
     11          6           0        0.255242    1.793201    0.568264
     12          1           0        0.472877    1.565106    1.613343
     13          1           0        1.088324    2.356021    0.139750
     14          1           0       -0.646566    2.404316    0.513455
     15          6           0        1.311938   -0.344689   -0.174616
     16          8           0        1.256512   -1.567803   -0.275626
     17          7           0        2.466148    0.323626   -0.021225
     18          1           0        2.452894    1.327145    0.085111
     19          6           0        3.746797   -0.354585    0.034619
     20          1           0        3.590166   -1.420217   -0.133445
     21          1           0        4.409110    0.042622   -0.736767
     22          1           0        4.206459   -0.207878    1.014343
 ---------------------------------------------------------------------
 Rotational constants (GHZ):      3.0410577      0.6589870      0.5854538
 Standard basis: 6-31G(d) (6D, 7F)
 There are   174 symmetry adapted basis functions of A   symmetry.
 Integral buffers will be    131072 words long.
 Raffenetti 2 integral format.
 Two-electron integral symmetry is turned on.
   174 basis functions,   328 primitive gaussians,   174 cartesian basis functions
    39 alpha electrons       39 beta electrons
       nuclear repulsion energy       551.7455468312 Hartrees.
 NAtoms=   22 NActive=   22 NUniq=   22 SFac= 7.50D-01 NAtFMM=   80 NAOKFM=F Big=F
 One-electron integrals computed using PRISM.
 NBasis=   174 RedAO= T  NBF=   174
 NBsUse=   174 1.00D-06 NBFU=   174
 Initial guess read from the read-write file.
 B after Tr=     0.000000    0.000000    0.000000
         Rot=    1.000000    0.000000    0.000000    0.000000 Ang=   0.00 deg.
 Initial guess orbital symmetries:
       Occupied  (A) (A) (A) (A) (A) (A) (A) (A) (A) (A) (A) (A)
                 (A) (A) (A) (A) (A) (A) (A) (A) (A) (A) (A) (A)
                 (A) (A) (A) (A) (A) (A) (A) (A) (A) (A) (A) (A)
                 (A) (A) (A)
       Virtual   (A) (A) (A) (A) (A) (A) (A) (A) (A) (A) (A) (A)
                 (A) (A) (A) (A) (A) (A) (A) (A) (A) (A) (A) (A)
                 (A) (A) (A) (A) (A) (A) (A) (A) (A) (A) (A) (A)
                 (A) (A) (A) (A) (A) (A) (A) (A) (A) (A) (A) (A)
                 (A) (A) (A) (A) (A) (A) (A) (A) (A) (A) (A) (A)
                 (A) (A) (A) (A) (A) (A) (A) (A) (A) (A) (A) (A)
                 (A) (A) (A) (A) (A) (A) (A) (A) (A) (A) (A) (A)
                 (A) (A) (A) (A) (A) (A) (A) (A) (A) (A) (A) (A)
                 (A) (A) (A) (A) (A) (A) (A) (A) (A) (A) (A) (A)
                 (A) (A) (A) (A) (A) (A) (A) (A) (A) (A) (A) (A)
                 (A) (A) (A) (A) (A) (A) (A) (A) (A) (A) (A) (A)
                 (A) (A) (A)
 Harris functional with IExCor=  402 diagonalized for initial guess.
 ExpMin= 1.61D-01 ExpMax= 5.48D+03 ExpMxC= 8.25D+02 IAcc=1 IRadAn=         1 AccDes= 0.00D+00
 HarFok:  IExCor=  402 AccDes= 0.00D+00 IRadAn=         1 IDoV= 1
 ScaDFX=  1.000000  1.000000  1.000000  1.000000
 FoFCou: FMM=F IPFlag=           0 FMFlag=      100000 FMFlg1=           0
         NFxFlg=           0 DoJE=T BraDBF=F KetDBF=T FulRan=T
         Omega=  0.000000  0.000000  1.000000  0.000000  0.000000 ICntrl=     500 IOpCl=  0
         NMat0=    1 NMatS0=    1 NMatT0=    0 NMatD0=    1 NMtDS0=    0 NMtDT0=    0
         I1Cent=           4 NGrid=           0.
 Petite list used in FoFCou.
 Requested convergence on RMS density matrix=1.00D-08 within 128 cycles.
 Requested convergence on MAX density matrix=1.00D-06.
 Requested convergence on             energy=1.00D-06.
 No special actions if energy rises.
 Integral accuracy reduced to 1.0D-05 until final iterations.
 Initial convergence to 1.0D-05 achieved.  Increase integral accuracy.
 SCF Done:  E(RB3LYP) =  -495.840505359     A.U. after   11 cycles
             Convg  =    0.7943D-08             -V/T =  2.0089
 Calling FoFJK, ICntrl=      2127 FMM=F ISym2X=0 I1Cent= 0 IOpClX= 0 NMat=1 NMatS=1 NMatT=0.
 ***** Axes restored to original set *****
 -------------------------------------------------------------------
 Center     Atomic                   Forces (Hartrees/Bohr)
 Number     Number              X              Y              Z
 -------------------------------------------------------------------
      1        1           0.002682491    0.000498727    0.000123478
      2        6           0.004484953    0.006426631   -0.001910407
      3        1          -0.004410226    0.000594371    0.000217835
      4        1          -0.004228958   -0.000274554   -0.002007151
      5        6          -0.002866347   -0.025796555    0.012670291
      6        8           0.003659526    0.001604560   -0.000217132
      7        7           0.002030973    0.015451735   -0.006609005
      8        1          -0.000340470    0.002893049    0.003033927
      9        6           0.006875781    0.003187909   -0.011080717
     10        1          -0.002663220   -0.002241978    0.003708977
     11        6          -0.000216503   -0.010195899    0.000867643
     12        1           0.000933115   -0.000175168   -0.003372698
     13        1           0.003971077   -0.007482271   -0.002584673
     14        1           0.001837800   -0.001360973   -0.001225619
     15        6          -0.020721441   -0.003859004    0.013605590
     16        8          -0.003174782    0.001734218   -0.000610029
     17        7           0.010952433    0.010491289   -0.004457409
     18        1          -0.002501088    0.004559444    0.001317493
     19        6           0.002094554   -0.000051011   -0.000070938
     20        1          -0.000143337   -0.002026793    0.000292135
     21        1           0.001754690    0.003213288    0.000608876
     22        1          -0.000011021    0.002808985   -0.002300466
 -------------------------------------------------------------------
 Cartesian Forces:  Max     0.025796555 RMS     0.006317625

 GradGradGradGradGradGradGradGradGradGradGradGradGradGradGradGradGradGrad
 Berny optimization.
 Using GEDIIS/GDIIS optimizer.
 Internal  Forces:  Max     0.027192663 RMS     0.006351105
 Search for a local minimum.
 Step number   2 out of a maximum of  132
 All quantities printed in internal units (Hartrees-Bohrs-Radians)
 Mixed Optimization -- RFO/linear search
 Update second derivatives using D2CorX and points    1    2
 DE= -4.63D-03 DEPred=-4.63D-03 R= 1.00D+00
 SS=  1.41D+00  RLast= 3.00D-01 DXNew= 5.0454D-01 8.9999D-01
 Trust test= 1.00D+00 RLast= 3.00D-01 DXMaxT set to 5.05D-01
 Use linear search instead of GDIIS.
 Linear search step of   0.594 exceeds DXMaxT=   0.505 but not scaled.
 Quartic linear search produced a step of  2.00000.
 Iteration  1 RMS(Cart)=  0.10863856 RMS(Int)=  0.00819429
 Iteration  2 RMS(Cart)=  0.00883667 RMS(Int)=  0.00035720
 Iteration  3 RMS(Cart)=  0.00007736 RMS(Int)=  0.00035205
 Iteration  4 RMS(Cart)=  0.00000001 RMS(Int)=  0.00035205
 Iteration  1 RMS(Cart)=  0.00026147 RMS(Int)=  0.00007135
 Iteration  2 RMS(Cart)=  0.00014008 RMS(Int)=  0.00007972
 Iteration  3 RMS(Cart)=  0.00007515 RMS(Int)=  0.00008987
 Iteration  4 RMS(Cart)=  0.00004040 RMS(Int)=  0.00009646
 Iteration  5 RMS(Cart)=  0.00002178 RMS(Int)=  0.00010028
 Iteration  6 RMS(Cart)=  0.00001179 RMS(Int)=  0.00010242
 Iteration  7 RMS(Cart)=  0.00000642 RMS(Int)=  0.00010360
 Iteration  8 RMS(Cart)=  0.00000352 RMS(Int)=  0.00010425
 Iteration  9 RMS(Cart)=  0.00000195 RMS(Int)=  0.00010461
 Iteration 10 RMS(Cart)=  0.00000110 RMS(Int)=  0.00010481
 Iteration 11 RMS(Cart)=  0.00000063 RMS(Int)=  0.00010492
 Variable       Old X    -DE/DX   Delta X   Delta X   Delta X     New X
                                 (Linear)    (Quad)   (Total)
    R1        2.05993  -0.00052   0.00031   0.00000   0.00032   2.06024
    R2        2.06346   0.00308   0.00717   0.00000   0.00717   2.07063
    R3        2.06307   0.00327   0.00683   0.00000   0.00683   2.06989
    R4        2.88710  -0.00103  -0.00843   0.00000  -0.00843   2.87866
    R5        2.32119   0.00175  -0.00241   0.00000  -0.00241   2.31879
    R6        2.53904   0.01900   0.03229   0.00000   0.03229   2.57133
    R7        1.90860   0.00037   0.00004   0.00000   0.00004   1.90864
    R8        2.73814  -0.00155  -0.00006   0.00000  -0.00006   2.73808
    R9        2.06368   0.00238   0.00787   0.00000   0.00787   2.07155
   R10        2.88941   0.01388   0.01506   0.00000   0.01506   2.90447
   R11        2.88719   0.01804   0.02202   0.00000   0.02202   2.90921
   R12        2.06282   0.00238   0.00620   0.00000   0.00620   2.06901
   R13        2.06527   0.00020   0.01085   0.00000   0.01085   2.07612
   R14        2.06121   0.00156   0.00310   0.00000   0.00310   2.06430
   R15        2.32158   0.00301  -0.00194   0.00000  -0.00194   2.31964
   R16        2.53700   0.02085   0.02861   0.00000   0.02861   2.56561
   R17        1.90716  -0.00466  -0.00309   0.00000  -0.00309   1.90407
   R18        2.74053   0.00393   0.00440   0.00000   0.00440   2.74493
   R19        2.06002  -0.00041   0.00039   0.00000   0.00039   2.06041
   R20        2.06272   0.00292   0.00579   0.00000   0.00579   2.06851
   R21        2.06376   0.00303   0.00824   0.00000   0.00824   2.07200
    A1        1.90793   0.00002  -0.00633   0.00000  -0.00643   1.90150
    A2        1.91238  -0.00011   0.00229   0.00000   0.00251   1.91489
    A3        1.92729  -0.00556  -0.02362   0.00000  -0.02354   1.90375
    A4        1.90169  -0.00367  -0.01687   0.00000  -0.01722   1.88447
    A5        1.89930   0.00456   0.00671   0.00000   0.00648   1.90578
    A6        1.91500   0.00479   0.03785   0.00000   0.03779   1.95279
    A7        2.11574   0.00697   0.02522   0.00000   0.02513   2.14087
    A8        2.02653  -0.00560  -0.01710   0.00000  -0.01719   2.00934
    A9        2.14086  -0.00137  -0.00821   0.00000  -0.00830   2.13257
   A10        2.09704   0.00139   0.00548   0.00000   0.00513   2.10217
   A11        2.12639  -0.00032  -0.00229   0.00000  -0.00262   2.12377
   A12        2.05960  -0.00110  -0.00351   0.00000  -0.00383   2.05577
   A13        1.90108   0.00192  -0.02010   0.00000  -0.02087   1.88021
   A14        1.94490  -0.00549   0.01170   0.00000   0.01244   1.95734
   A15        1.92074  -0.01552  -0.03653   0.00000  -0.03810   1.88264
   A16        1.88956  -0.00493  -0.01308   0.00000  -0.01316   1.87639
   A17        1.89377  -0.00315  -0.00461   0.00000  -0.00597   1.88780
   A18        1.91279   0.02719   0.06284   0.00000   0.06334   1.97613
   A19        1.92040   0.00259   0.01850   0.00000   0.01822   1.93862
   A20        1.92067   0.00888   0.01921   0.00000   0.01896   1.93962
   A21        1.90863  -0.00012  -0.00493   0.00000  -0.00487   1.90377
   A22        1.90817  -0.00332  -0.00386   0.00000  -0.00441   1.90377
   A23        1.90712  -0.00197  -0.00622   0.00000  -0.00619   1.90093
   A24        1.89864  -0.00623  -0.02303   0.00000  -0.02293   1.87570
   A25        2.10572  -0.00780   0.00521   0.00000   0.00520   2.11092
   A26        2.03171   0.01701  -0.00672   0.00000  -0.00672   2.02499
   A27        2.14575  -0.00921   0.00151   0.00000   0.00151   2.14725
   A28        2.08948   0.00257  -0.00996   0.00000  -0.01069   2.07879
   A29        2.13034  -0.00009   0.00540   0.00000   0.00465   2.13499
   A30        2.06298  -0.00247   0.00380   0.00000   0.00303   2.06602
   A31        1.90111  -0.00421  -0.01974   0.00000  -0.01964   1.88146
   A32        1.91604   0.00352   0.00981   0.00000   0.00970   1.92574
   A33        1.92134   0.00301   0.02026   0.00000   0.02020   1.94154
   A34        1.91129  -0.00017   0.00239   0.00000   0.00244   1.91373
   A35        1.90721   0.00003  -0.00598   0.00000  -0.00584   1.90137
   A36        1.90679  -0.00220  -0.00679   0.00000  -0.00704   1.89975
    D1       -0.09734  -0.00009  -0.19485   0.00000  -0.19510  -0.29244
    D2        3.05419  -0.00013  -0.17493   0.00000  -0.17493   2.87926
    D3        1.99688  -0.00058  -0.21288   0.00000  -0.21310   1.78377
    D4       -1.13478  -0.00062  -0.19296   0.00000  -0.19293  -1.32771
    D5       -2.20708   0.00051  -0.20733   0.00000  -0.20723  -2.41431
    D6        0.94445   0.00047  -0.18741   0.00000  -0.18706   0.75739
    D7       -0.00547   0.00057  -0.01087   0.00000  -0.01042  -0.01589
    D8        3.11646  -0.00096  -0.05040   0.00000  -0.05047   3.06599
    D9       -3.13697   0.00048   0.00937   0.00000   0.00944  -3.12753
   D10       -0.01504  -0.00105  -0.03017   0.00000  -0.03061  -0.04565
   D11       -0.54395  -0.00162  -0.04064   0.00000  -0.03998  -0.58392
   D12        1.53953  -0.00986  -0.06258   0.00000  -0.06207   1.47746
   D13       -2.61802   0.01024   0.00000   0.00000   0.00000  -2.61802
   D14        2.57839  -0.00310  -0.07936   0.00000  -0.07891   2.49948
   D15       -1.62132  -0.01133  -0.10130   0.00000  -0.10100  -1.72232
   D16        0.50432   0.00877  -0.03872   0.00000  -0.03893   0.46539
   D17        1.05699  -0.00038   0.01950   0.00000   0.01995   1.07694
   D18       -3.12245   0.00283   0.03833   0.00000   0.03911  -3.08335
   D19       -1.03786   0.00053   0.01881   0.00000   0.01940  -1.01846
   D20       -3.13589  -0.00449  -0.00660   0.00000  -0.00671   3.14058
   D21       -1.03214  -0.00128   0.01224   0.00000   0.01244  -1.01970
   D22        1.05245  -0.00358  -0.00728   0.00000  -0.00727   1.04518
   D23       -1.07325   0.00423   0.01554   0.00000   0.01475  -1.05850
   D24        1.03050   0.00744   0.03438   0.00000   0.03391   1.06440
   D25        3.11509   0.00514   0.01486   0.00000   0.01420   3.12929
   D26        0.52120  -0.00455  -0.00481   0.00000  -0.00459   0.51661
   D27       -2.61802  -0.00551   0.00000   0.00000   0.00000  -2.61802
   D28       -1.55734   0.00411   0.04472   0.00000   0.04481  -1.51253
   D29        1.58662   0.00315   0.04953   0.00000   0.04940   1.63602
   D30        2.66582  -0.00359   0.02785   0.00000   0.02729   2.69311
   D31       -0.47340  -0.00455   0.03266   0.00000   0.03188  -0.44152
   D32        0.02997   0.00080   0.05974   0.00000   0.05965   0.08962
   D33        3.14136   0.00113  -0.00040   0.00000  -0.00007   3.14129
   D34       -3.10919  -0.00019   0.06467   0.00000   0.06434  -3.04485
   D35        0.00220   0.00014   0.00453   0.00000   0.00462   0.00682
   D36        0.06623  -0.00022   0.13230   0.00000   0.13239   0.19862
   D37        2.15888  -0.00089   0.12909   0.00000   0.12910   2.28798
   D38       -2.02462   0.00052   0.13944   0.00000   0.13972  -1.88490
   D39       -3.10512   0.00019   0.07303   0.00000   0.07286  -3.03226
   D40       -1.01247  -0.00047   0.06982   0.00000   0.06957  -0.94290
   D41        1.08721   0.00093   0.08016   0.00000   0.08019   1.16740
         Item               Value     Threshold  Converged?
 Maximum Force            0.022748     0.000450     NO 
 RMS     Force            0.006173     0.000300     NO 
 Maximum Displacement     0.465695     0.001800     NO 
 RMS     Displacement     0.110144     0.001200     NO 
 Predicted change in Energy=-5.136646D-03
 GradGradGradGradGradGradGradGradGradGradGradGradGradGradGradGradGradGrad

                          Input orientation:                          
 ---------------------------------------------------------------------
 Center     Atomic      Atomic             Coordinates (Angstroms)
 Number     Number       Type             X           Y           Z
 ---------------------------------------------------------------------
      1          1           0        1.879504    1.217626    0.714054
      2          6           0        1.911393    2.284740    0.493006
      3          1           0        1.346497    2.824286    1.261385
      4          1           0        1.434217    2.476163   -0.474172
      5          6           0        3.360320    2.754499    0.514223
      6          8           0        4.260963    2.100672    1.030944
      7          7           0        3.581085    3.972679   -0.050382
      8          1           0        2.817853    4.493823   -0.457817
      9          6           0        4.888208    4.597341   -0.025528
     10          1           0        5.376898    4.311654    0.913225
     11          6           0        5.783038    4.114732   -1.178211
     12          1           0        5.346525    4.370600   -2.149159
     13          1           0        6.788108    4.553062   -1.109630
     14          1           0        5.893370    3.029810   -1.114406
     15          6           0        4.682487    6.122984   -0.014535
     16          8           0        3.683468    6.621565    0.495501
     17          7           0        5.658801    6.859940   -0.603566
     18          1           0        6.411450    6.386756   -1.077749
     19          6           0        5.603700    8.309877   -0.671118
     20          1           0        4.799410    8.643786   -0.015050
     21          1           0        6.552882    8.742507   -0.339369
     22          1           0        5.395822    8.652395   -1.691744
 ---------------------------------------------------------------------
                    Distance matrix (angstroms):
                    1          2          3          4          5
     1  H    0.000000
     2  C    1.090235   0.000000
     3  H    1.779051   1.095730   0.000000
     4  H    1.787198   1.095341   1.772298   0.000000
     5  C    2.143531   1.523323   2.149094   2.182720   0.000000
     6  O    2.559597   2.417383   3.011783   3.224416   1.227049
     7  N    3.327169   2.435627   2.834241   2.651075   1.360690
     8  H    3.603782   2.570172   2.812099   2.446563   2.065038
     9  C    4.584948   3.805053   4.164563   4.078079   2.453943
    10  H    4.673803   4.036668   4.310175   4.564934   2.578860
    11  C    5.216461   4.596898   5.224919   4.700300   3.253325
    12  H    5.491763   4.809571   5.479336   4.658393   3.694644
    13  H    6.208490   5.612137   6.182355   5.777670   4.197792
    14  H    4.768479   4.358330   5.134265   4.538774   3.023999
    15  C    5.696498   4.761163   4.861914   4.905286   3.657103
    16  O    5.701281   4.684902   4.524085   4.814951   3.880589
    17  N    6.917724   6.014814   6.193587   6.089446   4.836022
    18  H    7.104153   6.288427   6.619402   6.358450   5.003704
    19  C    8.129475   7.161745   7.207639   7.173256   6.107373
    20  H    8.012821   7.002587   6.886108   7.040944   6.085623
    21  H    8.920425   7.996188   8.043271   8.092340   6.839394
    22  H    8.569022   7.580330   7.686668   7.437919   6.617758
                    6          7          8          9         10
     6  O    0.000000
     7  N    2.266254   0.000000
     8  H    3.166410   1.010009   0.000000
     9  C    2.782611   1.448927   2.117536   0.000000
    10  H    2.479437   2.066007   2.908892   1.096217   0.000000
    11  C    3.354626   2.478059   3.074898   1.536981   2.139587
[...]
    14  H    4.544796   4.310266   5.040697   4.760511   2.910857
    15  C    5.597275   4.724470   5.152278   4.648643   3.645506
    16  O    5.583615   4.593012   4.882337   4.333534   3.850833
    17  N    6.811619   6.003856   6.480648   5.925111   4.834536
    18  H    7.021087   6.320509   6.859601   6.356600   5.014173
    19  C    8.017941   7.142358   7.553260   6.931366   6.105804
    20  H    7.843828   6.901546   7.244456   6.573461   6.054055
    21  H    8.723330   7.824946   8.137855   7.707862   6.721014
    22  H    8.595409   7.783625   8.300032   7.504485   6.761484
                    6          7          8          9         10
     6  O    0.000000
     7  N    2.278461   0.000000
     8  H    3.139664   1.015318   0.000000
     9  C    2.775850   1.459392   2.081044   0.000000
    10  H    2.542034   2.085651   2.738806   1.100820   0.000000
    11  C    3.208912   2.469041   3.242859   1.535426   2.145137
    12  H    3.935779   2.793234   3.373335   2.187876   3.071021
    13  H    3.942861   3.425357   4.154040   2.195538   2.462080
    14  H    2.614309   2.652469   3.596491   2.144535   2.476611
    15  C    4.199593   2.403525   2.360592   1.542802   2.141736
    16  O    4.631181   2.668181   2.159850   2.411734   2.882177
    17  N    5.235592   3.597377   3.638917   2.469286   2.981986
    18  H    5.219949   3.882582   4.156046   2.580327   3.027159
    19  C    6.597316   4.826061   4.643256   3.846148   4.290108
    20  H    6.703289   4.766959   4.364883   4.055633   4.525244
    21  H    7.084274   5.531196   5.417570   4.416316   4.620488
    22  H    7.273375   5.435798   5.259283   4.499387   5.084629
                   11         12         13         14         15
    11  C    0.000000
    12  H    1.095018   0.000000
    13  H    1.097597   1.787404   0.000000
    14  H    1.092182   1.779503   1.760116   0.000000
    15  C    2.611549   2.865172   2.953655   3.520186   0.000000
    16  O    3.700756   3.872192   4.160514   4.500799   1.229762
    17  N    2.887993   2.980381   2.799685   3.953319   1.358632
    18  H    2.470044   2.604619   2.070516   3.525169   2.044562
    19  C    4.322032   4.281198   4.158847   5.397887   2.467115
    20  H    4.817995   4.757439   4.858941   5.856238   2.524421
    21  H    4.898549   5.027688   4.539358   5.940114   3.133478
    22  H    4.688866   4.419391   4.497031   5.780456   3.233727
                   16         17         18         19         20
    16  O    0.000000
    17  N    2.275652   0.000000
    18  H    3.160168   1.008596   0.000000
    19  C    2.819751   1.453515   2.128256   0.000000
    20  H    2.363540   2.063676   2.970982   1.090388   0.000000
    21  H    3.490926   2.117727   2.559894   1.096894   1.780676
    22  H    3.642170   2.104136   2.485112   1.095307   1.783480
                   21         22
    21  H    0.000000
    22  H    1.783155   0.000000
 Stoichiometry    C6H12N2O2
 Framework group  C1[X(C6H12N2O2)]
 Deg. of freedom    60
 Full point group                 C1      NOp   1
 Largest Abelian subgroup         C1      NOp   1
 Largest concise Abelian subgroup C1      NOp   1
                         Standard orientation:                         
 ---------------------------------------------------------------------
 Center     Atomic      Atomic             Coordinates (Angstroms)
 Number     Number       Type             X           Y           Z
 ---------------------------------------------------------------------
      1          1           0       -4.202147   -0.657478    0.768273
      2          6           0       -3.319596   -1.140854    0.340262
      3          1           0       -3.645530   -1.685730   -0.552498
      4          1           0       -2.913914   -1.855127    1.062934
      5          6           0       -2.324004   -0.067854   -0.073687
      6          8           0       -2.655472    0.910441   -0.734502
      7          7           0       -1.037028   -0.259194    0.362760
      8          1           0       -0.755715   -1.206943    0.594070
      9          6           0        0.044039    0.540592   -0.204217
     10          1           0       -0.177644    0.716439   -1.268050
     11          6           0        0.138971    1.908223    0.487233
     12          1           0        0.430618    1.806591    1.537794
     13          1           0        0.846361    2.576054   -0.021019
     14          1           0       -0.842333    2.385076    0.437074
     15          6           0        1.310750   -0.338197   -0.145793
     16          8           0        1.222289   -1.563720   -0.196601
     17          7           0        2.495041    0.313327   -0.008489
     18          1           0        2.492895    1.321440    0.022643
     19          6           0        3.773524   -0.378176   -0.005070
     20          1           0        3.569312   -1.447473    0.056953
     21          1           0        4.342545   -0.175849   -0.920742
     22          1           0        4.372824   -0.072092    0.859135
 ---------------------------------------------------------------------
 Rotational constants (GHZ):      2.9215105      0.6724261      0.5769076

 **********************************************************************

            Population analysis using the SCF density.

 **********************************************************************

 Orbital symmetries:
       Occupied  (A) (A) (A) (A) (A) (A) (A) (A) (A) (A) (A) (A)
                 (A) (A) (A) (A) (A) (A) (A) (A) (A) (A) (A) (A)
                 (A) (A) (A) (A) (A) (A) (A) (A) (A) (A) (A) (A)
                 (A) (A) (A)
       Virtual   (A) (A) (A) (A) (A) (A) (A) (A) (A) (A) (A) (A)
                 (A) (A) (A) (A) (A) (A) (A) (A) (A) (A) (A) (A)
                 (A) (A) (A) (A) (A) (A) (A) (A) (A) (A) (A) (A)
                 (A) (A) (A) (A) (A) (A) (A) (A) (A) (A) (A) (A)
                 (A) (A) (A) (A) (A) (A) (A) (A) (A) (A) (A) (A)
                 (A) (A) (A) (A) (A) (A) (A) (A) (A) (A) (A) (A)
                 (A) (A) (A) (A) (A) (A) (A) (A) (A) (A) (A) (A)
                 (A) (A) (A) (A) (A) (A) (A) (A) (A) (A) (A) (A)
                 (A) (A) (A) (A) (A) (A) (A) (A) (A) (A) (A) (A)
                 (A) (A) (A) (A) (A) (A) (A) (A) (A) (A) (A) (A)
                 (A) (A) (A) (A) (A) (A) (A) (A) (A) (A) (A) (A)
                 (A) (A) (A)
 The electronic state is 1-A.
 Alpha  occ. eigenvalues --  -19.12182 -19.10461 -14.37414 -14.34912 -10.29569
 Alpha  occ. eigenvalues --  -10.28031 -10.23646 -10.22639 -10.18748 -10.18585
 Alpha  occ. eigenvalues --   -1.04314  -1.02269  -0.93145  -0.91449  -0.77956
 Alpha  occ. eigenvalues --   -0.72782  -0.71031  -0.65094  -0.59569  -0.56878
 Alpha  occ. eigenvalues --   -0.53655  -0.48739  -0.47491  -0.45696  -0.45428
 Alpha  occ. eigenvalues --   -0.44194  -0.42618  -0.41635  -0.39972  -0.39918
 Alpha  occ. eigenvalues --   -0.39185  -0.38123  -0.37758  -0.36929  -0.33802
 Alpha  occ. eigenvalues --   -0.26530  -0.26255  -0.25153  -0.24145
 Alpha virt. eigenvalues --    0.01882   0.03045   0.06787   0.10105   0.11354
 Alpha virt. eigenvalues --    0.13318   0.14555   0.14574   0.15108   0.15817
 Alpha virt. eigenvalues --    0.16023   0.17466   0.18190   0.19362   0.19622
 Alpha virt. eigenvalues --    0.21853   0.23071   0.24876   0.27680   0.33192
 Alpha virt. eigenvalues --    0.34318   0.39759   0.41351   0.49904   0.51000
 Alpha virt. eigenvalues --    0.52208   0.52307   0.54125   0.54852   0.56804
 Alpha virt. eigenvalues --    0.57439   0.60634   0.62521   0.62889   0.66668
 Alpha virt. eigenvalues --    0.67731   0.69977   0.70904   0.72342   0.74143
 Alpha virt. eigenvalues --    0.74925   0.77041   0.78466   0.80140   0.83466
 Alpha virt. eigenvalues --    0.83904   0.85417   0.85838   0.87101   0.88809
 Alpha virt. eigenvalues --    0.89398   0.89640   0.91507   0.92262   0.92930
 Alpha virt. eigenvalues --    0.94260   0.94624   0.95710   0.97916   1.00651
 Alpha virt. eigenvalues --    1.03452   1.07242   1.08414   1.11293   1.14827
 Alpha virt. eigenvalues --    1.17016   1.21235   1.26458   1.29040   1.33659
 Alpha virt. eigenvalues --    1.37006   1.38569   1.40984   1.45282   1.47945
 Alpha virt. eigenvalues --    1.52049   1.54489   1.59185   1.65001   1.69560
 Alpha virt. eigenvalues --    1.75613   1.77920   1.78127   1.79843   1.81544
 Alpha virt. eigenvalues --    1.82268   1.84297   1.87419   1.88410   1.90274
 Alpha virt. eigenvalues --    1.92136   1.95730   1.97141   1.99074   2.01621
 Alpha virt. eigenvalues --    2.04095   2.07639   2.07927   2.13174   2.14771
 Alpha virt. eigenvalues --    2.21319   2.23061   2.24097   2.25538   2.28371
 Alpha virt. eigenvalues --    2.29494   2.29947   2.35662   2.38213   2.41084
 Alpha virt. eigenvalues --    2.46792   2.49748   2.51786   2.55296   2.60329
 Alpha virt. eigenvalues --    2.65931   2.68241   2.70522   2.72343   2.86611
 Alpha virt. eigenvalues --    2.92120   2.98015   2.99497   3.11992   3.15715
 Alpha virt. eigenvalues --    3.94221   3.99181   4.05622   4.11360   4.17785
 Alpha virt. eigenvalues --    4.22412   4.24673   4.37118   4.48050   4.63428
          Condensed to atoms (all electrons):
              1          2          3          4          5          6
     1  H    0.520253   0.361394  -0.023391  -0.025776  -0.020027   0.001320
     2  C    0.361394   5.302339   0.361424   0.343054   0.352752  -0.078312
     3  H   -0.023391   0.361424   0.523465  -0.025370  -0.019970   0.000305
     4  H   -0.025776   0.343054  -0.025370   0.570061  -0.025532   0.003050
     5  C   -0.020027   0.352752  -0.019970  -0.025532   4.312553   0.572654
     6  O    0.001320  -0.078312   0.000305   0.003050   0.572654   8.084880
     7  N    0.002734  -0.114263   0.000608   0.006556   0.277211  -0.099514
     8  H   -0.000065  -0.000347   0.000057   0.001873  -0.012692   0.002813
     9  C   -0.000101   0.007422  -0.000261   0.000078  -0.024308   0.008379
    10  H   -0.000029   0.000669   0.000053  -0.000015  -0.000219   0.012002
    11  C    0.000023  -0.000498  -0.000004   0.000015  -0.005875  -0.008267
    12  H   -0.000002   0.000021   0.000000  -0.000001   0.000513   0.000045
    13  H    0.000000   0.000006   0.000000   0.000000   0.000096   0.000066
    14  H    0.000003   0.000215   0.000001  -0.000023   0.003689   0.012511
    15  C   -0.000001   0.000031   0.000008  -0.000080   0.004826   0.000744
    16  O    0.000000  -0.000100   0.000003  -0.000016   0.000099  -0.000003
    17  N    0.000000   0.000001   0.000000   0.000000  -0.000130  -0.000003
    18  H    0.000000   0.000000   0.000000   0.000000   0.000007   0.000001
    19  C    0.000000   0.000000   0.000000   0.000000   0.000002   0.000000
    20  H    0.000000   0.000000   0.000000   0.000000   0.000000   0.000000
    21  H    0.000000   0.000000   0.000000   0.000000   0.000000   0.000000
    22  H    0.000000   0.000000   0.000000   0.000000   0.000000   0.000000
              7          8          9         10         11         12
     1  H    0.002734  -0.000065  -0.000101  -0.000029   0.000023  -0.000002
     2  C   -0.114263  -0.000347   0.007422   0.000669  -0.000498   0.000021
     3  H    0.000608   0.000057  -0.000261   0.000053  -0.000004   0.000000
     4  H    0.006556   0.001873   0.000078  -0.000015   0.000015  -0.000001
     5  C    0.277211  -0.012692  -0.024308  -0.000219  -0.005875   0.000513
     6  O   -0.099514   0.002813   0.008379   0.012002  -0.008267   0.000045
     7  N    7.140997   0.283102   0.251795  -0.053356  -0.053882   0.000321
     8  H    0.283102   0.390720  -0.055363   0.004175   0.004673   0.000325
     9  C    0.251795  -0.055363   5.083329   0.367446   0.332862  -0.035665
    10  H   -0.053356   0.004175   0.367446   0.559356  -0.048799   0.005250
    11  C   -0.053882   0.004673   0.332862  -0.048799   5.191983   0.369752
    12  H    0.000321   0.000325  -0.035665   0.005250   0.369752   0.562056
    13  H    0.004741  -0.000125  -0.026462  -0.000106   0.346995  -0.031651
    14  H   -0.010209  -0.000131  -0.018571  -0.003632   0.365301  -0.024610
    15  C   -0.028105  -0.002531   0.315892  -0.027601  -0.034600  -0.002777
    16  O   -0.015837   0.036647  -0.084263  -0.000165   0.002627   0.000037
    17  N    0.001539   0.001559  -0.105125  -0.000610   0.001564   0.001257
    18  H    0.000297  -0.000092  -0.003474   0.000124   0.006202  -0.000071
    19  C   -0.000063  -0.000023   0.005744  -0.000219  -0.000070  -0.000127
    20  H    0.000011  -0.000046   0.000962  -0.000025  -0.000054  -0.000008
    21  H   -0.000002  -0.000001  -0.000211   0.000037   0.000018   0.000005
    22  H    0.000004   0.000001  -0.000064  -0.000004  -0.000021  -0.000007
             13         14         15         16         17         18
     1  H    0.000000   0.000003  -0.000001   0.000000   0.000000   0.000000
     2  C    0.000006   0.000215   0.000031  -0.000100   0.000001   0.000000
     3  H    0.000000   0.000001   0.000008   0.000003   0.000000   0.000000
     4  H    0.000000  -0.000023  -0.000080  -0.000016   0.000000   0.000000
     5  C    0.000096   0.003689   0.004826   0.000099  -0.000130   0.000007
     6  O    0.000066   0.012511   0.000744  -0.000003  -0.000003   0.000001
     7  N    0.004741  -0.010209  -0.028105  -0.015837   0.001539   0.000297
     8  H   -0.000125  -0.000131  -0.002531   0.036647   0.001559  -0.000092
     9  C   -0.026462  -0.018571   0.315892  -0.084263  -0.105125  -0.003474
    10  H   -0.000106  -0.003632  -0.027601  -0.000165  -0.000610   0.000124
    11  C    0.346995   0.365301  -0.034600   0.002627   0.001564   0.006202
    12  H   -0.031651  -0.024610  -0.002777   0.000037   0.001257  -0.000071
    13  H    0.596691  -0.025312  -0.002917  -0.000030  -0.001522   0.008195
    14  H   -0.025312   0.499888   0.002626  -0.000067   0.000224  -0.000196
    15  C   -0.002917   0.002626   4.377329   0.566336   0.287105  -0.017566
    16  O   -0.000030  -0.000067   0.566336   8.102692  -0.094141   0.003387
    17  N   -0.001522   0.000224   0.287105  -0.094141   7.056533   0.299290
    18  H    0.008195  -0.000196  -0.017566   0.003387   0.299290   0.398428
    19  C    0.000046   0.000002  -0.024938  -0.007851   0.266674  -0.031438
    20  H   -0.000002   0.000001  -0.001217   0.020387  -0.039577   0.003916
    21  H   -0.000016   0.000000   0.000467   0.000486  -0.042315  -0.000782
    22  H    0.000013  -0.000001   0.001889   0.000472  -0.039672  -0.000727
             19         20         21         22
     1  H    0.000000   0.000000   0.000000   0.000000
     2  C    0.000000   0.000000   0.000000   0.000000
     3  H    0.000000   0.000000   0.000000   0.000000
     4  H    0.000000   0.000000   0.000000   0.000000
     5  C    0.000002   0.000000   0.000000   0.000000
     6  O    0.000000   0.000000   0.000000   0.000000
     7  N   -0.000063   0.000011  -0.000002   0.000004
     8  H   -0.000023  -0.000046  -0.000001   0.000001
     9  C    0.005744   0.000962  -0.000211  -0.000064
    10  H   -0.000219  -0.000025   0.000037  -0.000004
    11  C   -0.000070  -0.000054   0.000018  -0.000021
    12  H   -0.000127  -0.000008   0.000005  -0.000007
    13  H    0.000046  -0.000002  -0.000016   0.000013
    14  H    0.000002   0.000001   0.000000  -0.000001
    15  C   -0.024938  -0.001217   0.000467   0.001889
    16  O   -0.007851   0.020387   0.000486   0.000472
    17  N    0.266674  -0.039577  -0.042315  -0.039672
    18  H   -0.031438   0.003916  -0.000782  -0.000727
    19  C    4.964967   0.377333   0.383264   0.379775
    20  H    0.377333   0.480121  -0.026164  -0.022764
    21  H    0.383264  -0.026164   0.561647  -0.039378
    22  H    0.379775  -0.022764  -0.039378   0.559828
 Mulliken atomic charges:
              1
     1  H    0.183667
     2  C   -0.535810
     3  H    0.183071
     4  H    0.152128
     5  C    0.584352
     6  O   -0.512670
     7  N   -0.594685
     8  H    0.345473
     9  C   -0.020041
    10  H    0.185668
    11  C   -0.469946
    12  H    0.155336
    13  H    0.131294
    14  H    0.198289
    15  C    0.585079
    16  O   -0.530697
    17  N   -0.592652
    18  H    0.334500
    19  C   -0.313080
    20  H    0.207125
    21  H    0.162943
    22  H    0.160653
 Sum of Mulliken atomic charges =   0.00000
 Mulliken charges with hydrogens summed into heavy atoms:
              1
     2  C   -0.016943
     5  C    0.584352
     6  O   -0.512670
     7  N   -0.249211
     9  C    0.165627
    11  C    0.014974
    15  C    0.585079
    16  O   -0.530697
    17  N   -0.258152
    19  C    0.217641
 Sum of Mulliken charges with hydrogens summed into heavy atoms =   0.00000
 Electronic spatial extent (au):  <R**2>=           1978.1816
 Charge=              0.0000 electrons
 Dipole moment (field-independent basis, Debye):
    X=              3.2207    Y=              0.6390    Z=              1.3418  Tot=              3.5471
 Quadrupole moment (field-independent basis, Debye-Ang):
   XX=            -53.9055   YY=            -61.9135   ZZ=            -60.9483
   XY=             11.2784   XZ=             -3.7339   YZ=              0.2804
 Traceless Quadrupole moment (field-independent basis, Debye-Ang):
   XX=              5.0169   YY=             -2.9911   ZZ=             -2.0258
   XY=             11.2784   XZ=             -3.7339   YZ=              0.2804
 Octapole moment (field-independent basis, Debye-Ang**2):
  XXX=             43.9206  YYY=              5.3287  ZZZ=             -3.1646  XYY=              1.2427
  XXY=            -15.2723  XXZ=             11.4747  XZZ=              2.8382  YZZ=             -2.7946
  YYZ=              2.7917  XYZ=             -5.5633
 Hexadecapole moment (field-independent basis, Debye-Ang**3):
 XXXX=          -1812.7528 YYYY=           -464.2655 ZZZZ=           -126.0902 XXXY=             44.9629
 XXXZ=            -30.6742 YYYX=              9.8574 YYYZ=             -5.3495 ZZZX=              4.4935
 ZZZY=             -0.7771 XXYY=           -401.6952 XXZZ=           -352.1438 YYZZ=            -97.7273
 XXYZ=             15.1683 YYXZ=             -1.0917 ZZXY=              2.1865
 N-N= 5.497143392500D+02 E-N=-2.255434401306D+03  KE= 4.912395021052D+02
 1\1\GINC-NODE007\FOpt\RB3LYP\6-31G(d)\C6H12N2O2\MANAGER\10-Feb-2017\0\
 \# b3lyp/6-31G* Opt=(ModRedundant, maxcycles=1000, calcfc) geom=nocrow
 d\\Phi Psi fixed scan\\0,1\H,1.8133522352,1.3035575263,0.1887906808\C,
 1.9133502726,2.3275159671,0.559264727\H,1.6311475158,2.3215617597,1.61
 77866565\H,1.2238381781,2.9774969246,0.0123499121\C,3.3688514479,2.753
 1512839,0.4399372367\O,4.2900228872,2.0481017724,0.8373745211\N,3.5793
 293255,3.9678794629,-0.163002367\H,2.8129831646,4.6338767884,-0.157418
 0001\C,4.8921409138,4.5993477719,-0.0758302973\H,5.3205621055,4.370674
 9088,0.9120812829\C,5.8451750274,4.0389521707,-1.141294711\H,5.5125303
 818,4.2973537843,-2.1520569311\H,6.8739916062,4.3934990616,-0.99793769
 5\H,5.8658455885,2.9514079384,-1.0428997073\C,4.6453457156,6.121641668
 4,-0.1200192604\O,3.5920442066,6.5950623504,0.3027621382\N,5.629915254
 2,6.879937564,-0.6691019639\H,6.4695710673,6.4241266257,-0.992336493\C
 ,5.5652148033,8.331161786,-0.7187827987\H,4.5574665931,8.6260555041,-0
 .4247994811\H,6.2863419103,8.7895801131,-0.0310288721\H,5.7669797997,8
 .6895572675,-1.7339385774\\Version=EM64L-G09RevA.02\State=1-A\HF=-495.
 8496575\RMSD=5.434e-09\RMSF=9.247e-04\Dipole=0.5444781,0.9941466,-0.81
 40683\Quadrupole=5.2794163,-3.9655611,-1.3138553,7.899873,-1.8839548,-
 0.0710188\PG=C01 [X(C6H12N2O2)]\\@


 IT IS A QUALITY OF REVOLUTIONS NOT TO GO BY OLD LINES OR OLD LAWS,
 BUT TO BREAK UP BOTH, AND MAKE NEW ONES.
                                              -- A. LINCOLN (1848)
 Job cpu time:  0 days  0 hours 59 minutes  9.0 seconds.
 File lengths (MBytes):  RWF=    186 Int=      0 D2E=      0 Chk=      4 Scr=      2
 Normal termination of Gaussian 09 at Fri Feb 10 21:47:09 2017.
