 Entering Gaussian System, Link 0=g09
 Initial command:
 /home/steboss/Software/g09/l1.exe /home/steboss/projects/phi_psi_scan/alanine/210/4364/Gau-11150.inp -scrdir=/home/steboss/projects/phi_psi_scan/alanine/210/4364/
 Entering Link 1 = /home/steboss/Software/g09/l1.exe PID=     11152.
  
 Copyright (c) 1988,1990,1992,1993,1995,1998,2003,2009, Gaussian, Inc.
                  All Rights Reserved.
  
 This is part of the Gaussian(R) 09 program.  It is based on
 the Gaussian(R) 03 system (copyright 2003, Gaussian, Inc.),
 the Gaussian(R) 98 system (copyright 1998, Gaussian, Inc.),
 the Gaussian(R) 94 system (copyright 1995, Gaussian, Inc.),
 the Gaussian 92(TM) system (copyright 1992, Gaussian, Inc.),
 the Gaussian 90(TM) system (copyright 1990, Gaussian, Inc.),
 the Gaussian 88(TM) system (copyright 1988, Gaussian, Inc.),
 the Gaussian 86(TM) system (copyright 1986, Carnegie Mellon
 University), and the Gaussian 82(TM) system (copyright 1983,
 Carnegie Mellon University). Gaussian is a federally registered
 trademark of Gaussian, Inc.
  
 This software contains proprietary and confidential information,
 including trade secrets, belonging to Gaussian, Inc.
  
 This software is provided under written license and may be
 used, copied, transmitted, or stored only in accord with that
 written license.
  
 The following legend is applicable only to US Government
 contracts under FAR:
  
                    RESTRICTED RIGHTS LEGEND
  
 Use, reproduction and disclosure by the US Government is
 subject to restrictions as set forth in subparagraphs (a)
 and (c) of the Commercial Computer Software - Restricted
 Rights clause in FAR 52.227-19.
  
 Gaussian, Inc.
 340 Quinnipiac St., Bldg. 40, Wallingford CT 06492
  
  
 ---------------------------------------------------------------
 Warning -- This program may not be used in any manner that
 competes with the business of Gaussian, Inc. or will provide
 assistance to any competitor of Gaussian, Inc.  The licensee
 of this program is prohibited from giving any competitor of
 Gaussian, Inc. access to this program.  By using this program,
 the user acknowledges that Gaussian, Inc. is engaged in the
 business of creating and licensing software in the field of
 computational chemistry and represents and warrants to the
 licensee that it is not a competitor of Gaussian, Inc. and that
 it will not use this program in any manner prohibited above.
 ---------------------------------------------------------------
  

 Cite this work as:
 Gaussian 09, Revision A.02,
 M. J. Frisch, G. W. Trucks, H. B. Schlegel, G. E. Scuseria, 
 M. A. Robb, J. R. Cheeseman, G. Scalmani, V. Barone, B. Mennucci, 
 G. A. Petersson, H. Nakatsuji, M. Caricato, X. Li, H. P. Hratchian, 
 A. F. Izmaylov, J. Bloino, G. Zheng, J. L. Sonnenberg, M. Hada, 
 M. Ehara, K. Toyota, R. Fukuda, J. Hasegawa, M. Ishida, T. Nakajima, 
 Y. Honda, O. Kitao, H. Nakai, T. Vreven, J. A. Montgomery, Jr., 
 J. E. Peralta, F. Ogliaro, M. Bearpark, J. J. Heyd, E. Brothers, 
 K. N. Kudin, V. N. Staroverov, R. Kobayashi, J. Normand, 
 K. Raghavachari, A. Rendell, J. C. Burant, S. S. Iyengar, J. Tomasi, 
 M. Cossi, N. Rega, J. M. Millam, M. Klene, J. E. Knox, J. B. Cross, 
 V. Bakken, C. Adamo, J. Jaramillo, R. Gomperts, R. E. Stratmann, 
 O. Yazyev, A. J. Austin, R. Cammi, C. Pomelli, J. W. Ochterski, 
 R. L. Martin, K. Morokuma, V. G. Zakrzewski, G. A. Voth, 
 P. Salvador, J. J. Dannenberg, S. Dapprich, A. D. Daniels, 
 O. Farkas, J. B. Foresman, J. V. Ortiz, J. Cioslowski, 
 and D. J. Fox, Gaussian, Inc., Wallingford CT, 2009.
 
 ******************************************
 Gaussian 09:  EM64L-G09RevA.02 11-Jun-2009
                10-Feb-2017 
 ******************************************
 %chk=structure_60.chk
 %NProcShared=8
 Will use up to    8 processors via shared memory.
 ----------------------------------------------------------------------
 # b3lyp/6-31G* Opt=(ModRedundant, maxcycles=1000, calcfc) geom=nocrowd
 ----------------------------------------------------------------------
 1/6=1000,10=4,14=-1,18=120,19=15,26=3,38=1/1,3;
 2/9=110,12=1,17=6,18=5,40=1/2;
 3/5=1,6=6,7=1,11=2,16=1,25=1,30=1,71=2,74=-5/1,2,3;
 4//1;
 5/5=2,38=5/2;
 8/6=4,10=90,11=11/1;
 11/6=1,8=1,9=11,15=111,16=1/1,2,10;
 10/6=1,7=6,13=1/2;
 6/7=2,8=2,9=2,10=2,28=1/1;
 7/10=1,18=20,25=1/1,2,3,16;
 1/6=1000,10=4,14=-1,18=20,19=15/3(2);
 2/9=110,12=1/2;
 99//99;
 2/9=110,12=1/2;
 3/5=1,6=6,7=1,11=2,16=1,25=1,30=1,71=1,74=-5/1,2,3;
 4/5=5,16=3/1;
 5/5=2,38=5/2;
 7//1,2,3,16;
 1/6=1000,14=-1,18=20,19=15/3(-5);
 2/9=110,12=1/2;
 6/7=2,8=2,9=2,10=2,19=2,28=1/1;
 99/9=1/99;
 ------------------
 Phi Psi fixed scan
 ------------------
 Symbolic Z-matrix:
 Charge =  0 Multiplicity = 1
 H                     1.8827    1.2362    0.9842 
 C                     1.9409    2.209     0.496 
 H                     1.2624    2.9049    0.9895 
 H                     1.658     2.1079   -0.5517 
 C                     3.3599    2.7768    0.5667 
 O                     4.2568    2.1469    1.1227 
 N                     3.5554    3.9697    0. 
 H                     2.7862    4.4492   -0.4455 
 C                     4.8533    4.6139    0. 
 H                     5.4076    4.3155    0.8898 
 C                     5.6613    4.2208   -1.2322 
 H                     5.1233    4.5214   -2.1312 
 H                     6.6305    4.7189   -1.2058 
 H                     5.8085    3.1409   -1.2414 
 C                     4.7127    6.1294    0. 
 O                     5.1823    6.7994   -0.9171 
 N                     4.0632    6.6695    1.0338 
 H                     3.6947    6.0769    1.764 
 C                     3.8633    8.0999    1.1497 
 H                     4.3136    8.6009    0.2928 
 H                     2.7955    8.3171    1.1769 
 H                     4.3301    8.4594    2.0667 
 
 The following ModRedundant input section has been read:
 D    5    7    9   15 F                                                       
 D    7    9   15   17 F                                                       

 GradGradGradGradGradGradGradGradGradGradGradGradGradGradGradGradGradGrad
 Berny optimization.
 Initialization pass.
                           ----------------------------
                           !    Initial Parameters    !
                           ! (Angstroms and Degrees)  !
 --------------------------                            --------------------------
 ! Name  Definition              Value          Derivative Info.                !
 --------------------------------------------------------------------------------
 ! R1    R(1,2)                  1.09           calculate D2E/DX2 analytically  !
 ! R2    R(2,3)                  1.09           calculate D2E/DX2 analytically  !
 ! R3    R(2,4)                  1.0899         calculate D2E/DX2 analytically  !
 ! R4    R(2,5)                  1.53           calculate D2E/DX2 analytically  !
 ! R5    R(5,6)                  1.229          calculate D2E/DX2 analytically  !
 ! R6    R(5,7)                  1.3351         calculate D2E/DX2 analytically  !
 ! R7    R(7,8)                  1.01           calculate D2E/DX2 analytically  !
 ! R8    R(7,9)                  1.449          calculate D2E/DX2 analytically  !
 ! R9    R(9,10)                 1.09           calculate D2E/DX2 analytically  !
 ! R10   R(9,11)                 1.525          calculate D2E/DX2 analytically  !
 ! R11   R(9,15)                 1.522          calculate D2E/DX2 analytically  !
 ! R12   R(11,12)                1.09           calculate D2E/DX2 analytically  !
 ! R13   R(11,13)                1.09           calculate D2E/DX2 analytically  !
 ! R14   R(11,14)                1.0899         calculate D2E/DX2 analytically  !
 ! R15   R(15,16)                1.229          calculate D2E/DX2 analytically  !
 ! R16   R(15,17)                1.335          calculate D2E/DX2 analytically  !
 ! R17   R(17,18)                1.01           calculate D2E/DX2 analytically  !
 ! R18   R(17,19)                1.4489         calculate D2E/DX2 analytically  !
 ! R19   R(19,20)                1.09           calculate D2E/DX2 analytically  !
 ! R20   R(19,21)                1.09           calculate D2E/DX2 analytically  !
 ! R21   R(19,22)                1.09           calculate D2E/DX2 analytically  !
 ! A1    A(1,2,3)              109.4976         calculate D2E/DX2 analytically  !
 ! A2    A(1,2,4)              109.5057         calculate D2E/DX2 analytically  !
 ! A3    A(1,2,5)              111.1022         calculate D2E/DX2 analytically  !
 ! A4    A(3,2,4)              109.442          calculate D2E/DX2 analytically  !
 ! A5    A(3,2,5)              108.6296         calculate D2E/DX2 analytically  !
 ! A6    A(4,2,5)              108.6368         calculate D2E/DX2 analytically  !
 ! A7    A(2,5,6)              120.5005         calculate D2E/DX2 analytically  !
 ! A8    A(2,5,7)              116.6018         calculate D2E/DX2 analytically  !
 ! A9    A(6,5,7)              122.8977         calculate D2E/DX2 analytically  !
 ! A10   A(5,7,8)              119.9947         calculate D2E/DX2 analytically  !
 ! A11   A(5,7,9)              121.8985         calculate D2E/DX2 analytically  !
 ! A12   A(8,7,9)              118.1068         calculate D2E/DX2 analytically  !
 ! A13   A(7,9,10)             109.5            calculate D2E/DX2 analytically  !
 ! A14   A(7,9,11)             111.0992         calculate D2E/DX2 analytically  !
 ! A15   A(7,9,15)             111.0966         calculate D2E/DX2 analytically  !
 ! A16   A(10,9,11)            108.6382         calculate D2E/DX2 analytically  !
 ! A17   A(10,9,15)            108.6373         calculate D2E/DX2 analytically  !
 ! A18   A(11,9,15)            107.7947         calculate D2E/DX2 analytically  !
 ! A19   A(9,11,12)            109.5007         calculate D2E/DX2 analytically  !
 ! A20   A(9,11,13)            109.4959         calculate D2E/DX2 analytically  !
 ! A21   A(9,11,14)            109.4978         calculate D2E/DX2 analytically  !
 ! A22   A(12,11,13)           109.441          calculate D2E/DX2 analytically  !
 ! A23   A(12,11,14)           109.4482         calculate D2E/DX2 analytically  !
 ! A24   A(13,11,14)           109.4436         calculate D2E/DX2 analytically  !
 ! A25   A(9,15,16)            120.4988         calculate D2E/DX2 analytically  !
 ! A26   A(9,15,17)            116.6009         calculate D2E/DX2 analytically  !
 ! A27   A(16,15,17)           122.9003         calculate D2E/DX2 analytically  !
 ! A28   A(15,17,18)           119.9975         calculate D2E/DX2 analytically  !
 ! A29   A(15,17,19)           121.9004         calculate D2E/DX2 analytically  !
 ! A30   A(18,17,19)           118.1021         calculate D2E/DX2 analytically  !
 ! A31   A(17,19,20)           109.5044         calculate D2E/DX2 analytically  !
 ! A32   A(17,19,21)           109.5034         calculate D2E/DX2 analytically  !
 ! A33   A(17,19,22)           109.5005         calculate D2E/DX2 analytically  !
 ! A34   A(20,19,21)           109.4351         calculate D2E/DX2 analytically  !
 ! A35   A(20,19,22)           109.4433         calculate D2E/DX2 analytically  !
 ! A36   A(21,19,22)           109.4405         calculate D2E/DX2 analytically  !
 ! D1    D(1,2,5,6)              0.0047         calculate D2E/DX2 analytically  !
 ! D2    D(1,2,5,7)           -179.9966         calculate D2E/DX2 analytically  !
 ! D3    D(3,2,5,6)            120.5112         calculate D2E/DX2 analytically  !
 ! D4    D(3,2,5,7)            -59.4901         calculate D2E/DX2 analytically  !
 ! D5    D(4,2,5,6)           -120.5165         calculate D2E/DX2 analytically  !
 ! D6    D(4,2,5,7)             59.4823         calculate D2E/DX2 analytically  !
 ! D7    D(2,5,7,8)             -0.0022         calculate D2E/DX2 analytically  !
 ! D8    D(2,5,7,9)           -179.9961         calculate D2E/DX2 analytically  !
 ! D9    D(6,5,7,8)            179.9965         calculate D2E/DX2 analytically  !
 ! D10   D(6,5,7,9)              0.0027         calculate D2E/DX2 analytically  !
 ! D11   D(5,7,9,10)           -30.0015         calculate D2E/DX2 analytically  !
 ! D12   D(5,7,9,11)            90.0011         calculate D2E/DX2 analytically  !
 ! D13   D(5,7,9,15)          -150.0013         frozen, calculate D2E/DX2 analyt!
 ! D14   D(8,7,9,10)           150.0045         calculate D2E/DX2 analytically  !
 ! D15   D(8,7,9,11)           -89.9929         calculate D2E/DX2 analytically  !
 ! D16   D(8,7,9,15)            30.0047         calculate D2E/DX2 analytically  !
 ! D17   D(7,9,11,12)           60.0024         calculate D2E/DX2 analytically  !
 ! D18   D(7,9,11,13)          179.9986         calculate D2E/DX2 analytically  !
 ! D19   D(7,9,11,14)          -60.0038         calculate D2E/DX2 analytically  !
 ! D20   D(10,9,11,12)        -179.4843         calculate D2E/DX2 analytically  !
 ! D21   D(10,9,11,13)         -59.4881         calculate D2E/DX2 analytically  !
 ! D22   D(10,9,11,14)          60.5095         calculate D2E/DX2 analytically  !
 ! D23   D(15,9,11,12)         -61.938          calculate D2E/DX2 analytically  !
 ! D24   D(15,9,11,13)          58.0582         calculate D2E/DX2 analytically  !
 ! D25   D(15,9,11,14)         178.0558         calculate D2E/DX2 analytically  !
 ! D26   D(7,9,15,16)         -119.9999         calculate D2E/DX2 analytically  !
 ! D27   D(7,9,15,17)           60.0015         frozen, calculate D2E/DX2 analyt!
 ! D28   D(10,9,15,16)         119.489          calculate D2E/DX2 analytically  !
 ! D29   D(10,9,15,17)         -60.5096         calculate D2E/DX2 analytically  !
 ! D30   D(11,9,15,16)           1.9421         calculate D2E/DX2 analytically  !
 ! D31   D(11,9,15,17)        -178.0565         calculate D2E/DX2 analytically  !
 ! D32   D(9,15,17,18)          -0.0063         calculate D2E/DX2 analytically  !
 ! D33   D(9,15,17,19)         179.9999         calculate D2E/DX2 analytically  !
 ! D34   D(16,15,17,18)        179.9951         calculate D2E/DX2 analytically  !
 ! D35   D(16,15,17,19)          0.0012         calculate D2E/DX2 analytically  !
 ! D36   D(15,17,19,20)          0.0023         calculate D2E/DX2 analytically  !
 ! D37   D(15,17,19,21)        119.9982         calculate D2E/DX2 analytically  !
 ! D38   D(15,17,19,22)       -120.0018         calculate D2E/DX2 analytically  !
 ! D39   D(18,17,19,20)       -179.9916         calculate D2E/DX2 analytically  !
 ! D40   D(18,17,19,21)        -59.9958         calculate D2E/DX2 analytically  !
 ! D41   D(18,17,19,22)         60.0043         calculate D2E/DX2 analytically  !
 --------------------------------------------------------------------------------
 Trust Radius=3.00D-01 FncErr=1.00D-07 GrdErr=1.00D-06
 Number of steps in this run= 132 maximum allowed number of steps= 132.
 GradGradGradGradGradGradGradGradGradGradGradGradGradGradGradGradGradGrad

                          Input orientation:                          
 ---------------------------------------------------------------------
 Center     Atomic      Atomic             Coordinates (Angstroms)
 Number     Number       Type             X           Y           Z
 ---------------------------------------------------------------------
      1          1           0        1.882700    1.236200    0.984200
      2          6           0        1.940900    2.209000    0.496000
      3          1           0        1.262400    2.904900    0.989500
      4          1           0        1.658000    2.107900   -0.551700
      5          6           0        3.359900    2.776800    0.566700
      6          8           0        4.256800    2.146900    1.122700
      7          7           0        3.555400    3.969700    0.000000
      8          1           0        2.786200    4.449200   -0.445500
      9          6           0        4.853300    4.613900    0.000000
     10          1           0        5.407600    4.315500    0.889800
     11          6           0        5.661300    4.220800   -1.232200
     12          1           0        5.123300    4.521400   -2.131200
     13          1           0        6.630500    4.718900   -1.205800
     14          1           0        5.808500    3.140900   -1.241400
     15          6           0        4.712700    6.129400    0.000000
     16          8           0        5.182300    6.799400   -0.917100
     17          7           0        4.063200    6.669500    1.033800
     18          1           0        3.694700    6.076900    1.764000
     19          6           0        3.863300    8.099900    1.149700
     20          1           0        4.313600    8.600900    0.292800
     21          1           0        2.795500    8.317100    1.176900
     22          1           0        4.330100    8.459400    2.066700
 ---------------------------------------------------------------------
                    Distance matrix (angstroms):
                    1          2          3          4          5
     1  H    0.000000
     2  C    1.089985   0.000000
     3  H    1.780270   1.090037   0.000000
     4  H    1.780264   1.089922   1.779608   0.000000
     5  C    2.174827   1.530018   2.143519   2.143527   0.000000
     6  O    2.546548   2.400000   3.091721   3.091747   1.228959
     7  N    3.352402   2.439814   2.714914   2.714922   1.335058
     8  H    3.630940   2.572829   2.601164   2.601115   2.037303
     9  C    4.604560   3.809414   4.098092   4.098091   2.434405
    10  H    4.681444   4.075589   4.379773   4.583767   2.581679
    11  C    5.300763   4.568959   5.100771   4.577536   3.258469
    12  H    5.567741   4.730438   5.220957   4.508670   3.664952
    13  H    6.282269   5.584628   6.076713   5.654284   4.196467
    14  H    4.898273   4.341120   5.069481   4.332369   3.065524
    15  C    5.737679   4.826844   4.825047   5.080160   3.659391
    16  O    6.741772   5.794420   5.845329   5.879148   4.658768
    17  N    5.854724   4.968848   4.692404   5.395090   3.983206
    18  H    5.227218   4.432188   4.071550   5.026288   3.526511
    19  C    7.145666   6.231023   5.811916   6.607736   5.378540
    20  H    7.786277   6.821098   6.499202   7.065723   5.908020
    21  H    7.142092   6.205067   5.628270   6.544932   5.602304
    22  H    7.702999   6.873345   6.436118   7.371410   5.956780
                    6          7          8          9         10
     6  O    0.000000
     7  N    2.252780   0.000000
     8  H    3.150000   1.009980   0.000000
     9  C    2.775312   1.448978   2.120966   0.000000
    10  H    2.466051   2.083739   2.944935   1.089970   0.000000
    11  C    3.437911   2.452791   2.989526   1.525027   2.139209
    12  H    4.120308   2.702720   2.882505   2.150225   3.041326
    13  H    4.203754   3.386959   3.928032   2.150214   2.459625
    14  H    2.997462   2.702673   3.388127   2.150165   2.466256
    15  C    4.162764   2.450234   2.594792   1.522008   2.136554
    16  O    5.163632   3.390439   3.389269   2.392848   3.079839
    17  N    4.527615   2.935221   2.957835   2.432795   2.714676
    18  H    4.021458   2.751616   2.890791   2.567960   2.607831
    19  C    5.966052   4.298275   4.127035   3.801856   4.095619
    20  H    6.507386   4.701980   4.484936   4.034003   4.462947
    21  H    6.341112   4.567541   4.194391   4.396968   4.787306
    22  H    6.383116   5.002881   4.977598   4.396915   4.440496
                   11         12         13         14         15
    11  C    0.000000
    12  H    1.089957   0.000000
    13  H    1.090023   1.779613   0.000000
    14  H    1.089925   1.779613   1.779617   0.000000
    15  C    2.461892   2.701161   2.668599   3.416575   0.000000
    16  O    2.641573   2.582015   2.551296   3.725845   1.229023
    17  N    3.699299   3.969304   3.925771   4.546826   1.335028
    18  H    4.036067   4.430921   4.391218   4.703262   2.037345
    19  C    4.894249   5.015732   4.963561   5.838908   2.434371
    20  H    4.829824   4.813908   4.762746   5.865159   2.520580
    21  H    5.549437   5.547028   5.773346   6.459055   3.137958
    22  H    5.533585   5.810282   5.476535   6.435498   3.137918
                   16         17         18         19         20
    16  O    0.000000
    17  N    2.252836   0.000000
    18  H    3.150120   1.010029   0.000000
    19  C    2.775378   1.448943   2.120924   0.000000
    20  H    2.337499   2.083768   2.986309   1.089976   0.000000
    21  H    3.519242   2.083777   2.484299   1.090006   1.779551
    22  H    3.519220   2.083713   2.484284   1.089969   1.779611
                   21         22
    21  H    0.000000
    22  H    1.779604   0.000000
 Stoichiometry    C6H12N2O2
 Framework group  C1[X(C6H12N2O2)]
 Deg. of freedom    60
 Full point group                 C1      NOp   1
 Largest Abelian subgroup         C1      NOp   1
 Largest concise Abelian subgroup C1      NOp   1
                         Standard orientation:                         
 ---------------------------------------------------------------------
 Center     Atomic      Atomic             Coordinates (Angstroms)
 Number     Number       Type             X           Y           Z
 ---------------------------------------------------------------------
      1          1           0        4.030550   -1.357355   -0.247762
      2          6           0        3.061300   -1.234563   -0.731023
      3          1           0        2.583019   -2.208021   -0.839693
      4          1           0        3.199368   -0.786339   -1.714874
      5          6           0        2.144921   -0.329187    0.094508
      6          8           0        2.535910    0.153928    1.154729
      7          7           0        0.924950   -0.103943   -0.398760
      8          1           0        0.649202   -0.523710   -1.275013
      9          6           0       -0.035736    0.735484    0.288249
     10          1           0        0.135632    0.679862    1.363226
     11          6           0        0.093032    2.190138   -0.151194
     12          1           0       -0.085013    2.263253   -1.224022
     13          1           0       -0.639960    2.796998    0.380401
     14          1           0        1.096062    2.551260    0.075646
     15          6           0       -1.461015    0.286647   -0.000945
     16          8           0       -2.259347    1.052004   -0.537036
     17          7           0       -1.779347   -0.959714    0.356195
     18          1           0       -1.088066   -1.551647    0.794266
     19          6           0       -3.103335   -1.505142    0.134835
     20          1           0       -3.731666   -0.753054   -0.342252
     21          1           0       -3.032926   -2.381058   -0.510089
     22          1           0       -3.542917   -1.792310    1.089997
 ---------------------------------------------------------------------
 Rotational constants (GHZ):      2.1846260      0.7526207      0.6276130
 Standard basis: 6-31G(d) (6D, 7F)
 There are   174 symmetry adapted basis functions of A   symmetry.
 Integral buffers will be    131072 words long.
 Raffenetti 2 integral format.
 Two-electron integral symmetry is turned on.
   174 basis functions,   328 primitive gaussians,   174 cartesian basis functions
    39 alpha electrons       39 beta electrons
       nuclear repulsion energy       554.0234758925 Hartrees.
 NAtoms=   22 NActive=   22 NUniq=   22 SFac= 7.50D-01 NAtFMM=   80 NAOKFM=F Big=F
 One-electron integrals computed using PRISM.
 NBasis=   174 RedAO= T  NBF=   174
 NBsUse=   174 1.00D-06 NBFU=   174
 Harris functional with IExCor=  402 diagonalized for initial guess.
 ExpMin= 1.61D-01 ExpMax= 5.48D+03 ExpMxC= 8.25D+02 IAcc=1 IRadAn=         1 AccDes= 0.00D+00
 HarFok:  IExCor=  402 AccDes= 0.00D+00 IRadAn=         1 IDoV= 1
 ScaDFX=  1.000000  1.000000  1.000000  1.000000
 FoFCou: FMM=F IPFlag=           0 FMFlag=      100000 FMFlg1=           0
         NFxFlg=           0 DoJE=T BraDBF=F KetDBF=T FulRan=T
         Omega=  0.000000  0.000000  1.000000  0.000000  0.000000 ICntrl=     500 IOpCl=  0
         NMat0=    1 NMatS0=    1 NMatT0=    0 NMatD0=    1 NMtDS0=    0 NMtDT0=    0
         I1Cent=           4 NGrid=           0.
 Petite list used in FoFCou.
 Initial guess orbital symmetries:
       Occupied  (A) (A) (A) (A) (A) (A) (A) (A) (A) (A) (A) (A)
                 (A) (A) (A) (A) (A) (A) (A) (A) (A) (A) (A) (A)
                 (A) (A) (A) (A) (A) (A) (A) (A) (A) (A) (A) (A)
                 (A) (A) (A)
       Virtual   (A) (A) (A) (A) (A) (A) (A) (A) (A) (A) (A) (A)
                 (A) (A) (A) (A) (A) (A) (A) (A) (A) (A) (A) (A)
                 (A) (A) (A) (A) (A) (A) (A) (A) (A) (A) (A) (A)
                 (A) (A) (A) (A) (A) (A) (A) (A) (A) (A) (A) (A)
                 (A) (A) (A) (A) (A) (A) (A) (A) (A) (A) (A) (A)
                 (A) (A) (A) (A) (A) (A) (A) (A) (A) (A) (A) (A)
                 (A) (A) (A) (A) (A) (A) (A) (A) (A) (A) (A) (A)
                 (A) (A) (A) (A) (A) (A) (A) (A) (A) (A) (A) (A)
                 (A) (A) (A) (A) (A) (A) (A) (A) (A) (A) (A) (A)
                 (A) (A) (A) (A) (A) (A) (A) (A) (A) (A) (A) (A)
                 (A) (A) (A) (A) (A) (A) (A) (A) (A) (A) (A) (A)
                 (A) (A) (A)
 The electronic state of the initial guess is 1-A.
 Requested convergence on RMS density matrix=1.00D-08 within 128 cycles.
 Requested convergence on MAX density matrix=1.00D-06.
 Requested convergence on             energy=1.00D-06.
 No special actions if energy rises.
 Integral accuracy reduced to 1.0D-05 until final iterations.
 Initial convergence to 1.0D-05 achieved.  Increase integral accuracy.
 SCF Done:  E(RB3LYP) =  -495.841109583     A.U. after   15 cycles
             Convg  =    0.7671D-08             -V/T =  2.0088
 Range of M.O.s used for correlation:     1   174
 NBasis=   174 NAE=    39 NBE=    39 NFC=     0 NFV=     0
 NROrb=    174 NOA=    39 NOB=    39 NVA=   135 NVB=   135
 Symmetrizing basis deriv contribution to polar:
 IMax=3 JMax=2 DiffMx= 0.00D+00
 G2DrvN: will do    23 centers at a time, making    1 passes doing MaxLOS=2.
 Calling FoFCou, ICntrl=  3107 FMM=F I1Cent=   0 AccDes= 0.00D+00.
 FoFDir/FoFCou used for L=0 through L=2.
 End of G2Drv Frequency-dependent properties file   721 does not exist.
 End of G2Drv Frequency-dependent properties file   722 does not exist.
          IDoAtm=1111111111111111111111
          Differentiating once with respect to nuclear coordinates.
          There are    69 degrees of freedom in the 1st order CPHF.  IDoFFX=5.
     63 vectors produced by pass  0 Test12= 7.63D-11 1.45D-07 XBig12= 1.77D-01 1.16D-01.
 AX will form    63 AO Fock derivatives at one time.
     63 vectors produced by pass  1 Test12= 7.63D-11 1.45D-07 XBig12= 3.14D-02 5.29D-02.
     63 vectors produced by pass  2 Test12= 7.63D-11 1.45D-07 XBig12= 4.75D-05 1.66D-03.
     63 vectors produced by pass  3 Test12= 7.63D-11 1.45D-07 XBig12= 9.04D-08 4.62D-05.
     29 vectors produced by pass  4 Test12= 7.63D-11 1.45D-07 XBig12= 9.52D-11 1.44D-06.
 Inverted reduced A of dimension   281 with in-core refinement.
 End of Minotr Frequency-dependent properties file   721 does not exist.
 End of Minotr Frequency-dependent properties file   722 does not exist.

 **********************************************************************

            Population analysis using the SCF density.

 **********************************************************************

 Orbital symmetries:
       Occupied  (A) (A) (A) (A) (A) (A) (A) (A) (A) (A) (A) (A)
                 (A) (A) (A) (A) (A) (A) (A) (A) (A) (A) (A) (A)
                 (A) (A) (A) (A) (A) (A) (A) (A) (A) (A) (A) (A)
                 (A) (A) (A)
       Virtual   (A) (A) (A) (A) (A) (A) (A) (A) (A) (A) (A) (A)
                 (A) (A) (A) (A) (A) (A) (A) (A) (A) (A) (A) (A)
                 (A) (A) (A) (A) (A) (A) (A) (A) (A) (A) (A) (A)
                 (A) (A) (A) (A) (A) (A) (A) (A) (A) (A) (A) (A)
                 (A) (A) (A) (A) (A) (A) (A) (A) (A) (A) (A) (A)
                 (A) (A) (A) (A) (A) (A) (A) (A) (A) (A) (A) (A)
                 (A) (A) (A) (A) (A) (A) (A) (A) (A) (A) (A) (A)
                 (A) (A) (A) (A) (A) (A) (A) (A) (A) (A) (A) (A)
                 (A) (A) (A) (A) (A) (A) (A) (A) (A) (A) (A) (A)
                 (A) (A) (A) (A) (A) (A) (A) (A) (A) (A) (A) (A)
                 (A) (A) (A) (A) (A) (A) (A) (A) (A) (A) (A) (A)
                 (A) (A) (A)
 The electronic state is 1-A.
 Alpha  occ. eigenvalues --  -19.11047 -19.10609 -14.37080 -14.36893 -10.28588
 Alpha  occ. eigenvalues --  -10.28443 -10.23080 -10.22306 -10.19326 -10.16569
 Alpha  occ. eigenvalues --   -1.03861  -1.02925  -0.93780  -0.92694  -0.78321
 Alpha  occ. eigenvalues --   -0.73016  -0.71856  -0.64086  -0.59911  -0.59339
 Alpha  occ. eigenvalues --   -0.54484  -0.48493  -0.48013  -0.46143  -0.45917
 Alpha  occ. eigenvalues --   -0.45253  -0.42052  -0.41704  -0.40351  -0.39429
 Alpha  occ. eigenvalues --   -0.39149  -0.37758  -0.36883  -0.35870  -0.34539
 Alpha  occ. eigenvalues --   -0.26531  -0.25683  -0.24739  -0.24375
 Alpha virt. eigenvalues --    0.02055   0.03250   0.06710   0.08206   0.11682
 Alpha virt. eigenvalues --    0.12626   0.12992   0.15180   0.15993   0.16295
 Alpha virt. eigenvalues --    0.16641   0.17320   0.17452   0.18918   0.19478
 Alpha virt. eigenvalues --    0.21641   0.23423   0.25916   0.28118   0.32172
 Alpha virt. eigenvalues --    0.35184   0.37980   0.41065   0.50416   0.50783
 Alpha virt. eigenvalues --    0.52095   0.53145   0.53526   0.54598   0.56726
 Alpha virt. eigenvalues --    0.57009   0.60226   0.62611   0.63712   0.64527
 Alpha virt. eigenvalues --    0.66971   0.68165   0.69159   0.72313   0.73851
 Alpha virt. eigenvalues --    0.75749   0.76184   0.78069   0.81586   0.84148
 Alpha virt. eigenvalues --    0.84772   0.86043   0.87367   0.87584   0.88498
 Alpha virt. eigenvalues --    0.89467   0.89844   0.90748   0.91260   0.92514
 Alpha virt. eigenvalues --    0.93489   0.94687   0.95581   0.97247   0.99110
 Alpha virt. eigenvalues --    1.04336   1.05483   1.07445   1.13932   1.17779
 Alpha virt. eigenvalues --    1.18954   1.28176   1.30141   1.31705   1.35284
 Alpha virt. eigenvalues --    1.35640   1.37009   1.42922   1.45842   1.47552
 Alpha virt. eigenvalues --    1.49474   1.55592   1.62712   1.63603   1.70153
 Alpha virt. eigenvalues --    1.76410   1.77265   1.78230   1.81268   1.82747
 Alpha virt. eigenvalues --    1.84182   1.86183   1.87431   1.89819   1.90323
 Alpha virt. eigenvalues --    1.91532   1.95686   1.96733   1.98878   2.03341
 Alpha virt. eigenvalues --    2.05704   2.07952   2.08713   2.12155   2.17696
 Alpha virt. eigenvalues --    2.18900   2.22325   2.24677   2.27926   2.29221
 Alpha virt. eigenvalues --    2.30497   2.31010   2.37648   2.39676   2.41251
 Alpha virt. eigenvalues --    2.44361   2.46691   2.56361   2.57680   2.64327
 Alpha virt. eigenvalues --    2.67129   2.68176   2.73903   2.76028   2.89697
 Alpha virt. eigenvalues --    2.93059   2.96530   3.02857   3.15857   3.19015
 Alpha virt. eigenvalues --    3.96400   3.99620   4.04610   4.08837   4.19967
 Alpha virt. eigenvalues --    4.23363   4.26988   4.42612   4.46832   4.62415
          Condensed to atoms (all electrons):
              1          2          3          4          5          6
     1  H    0.497344   0.361692  -0.021542  -0.020824  -0.017786   0.004998
     2  C    0.361692   5.334599   0.348530   0.352435   0.352900  -0.081244
     3  H   -0.021542   0.348530   0.560648  -0.027192  -0.025830   0.001543
     4  H   -0.020824   0.352435  -0.027192   0.548322  -0.026802   0.001347
     5  C   -0.017786   0.352900  -0.025830  -0.026802   4.345729   0.607511
     6  O    0.004998  -0.081244   0.001543   0.001347   0.607511   8.062003
     7  N    0.004491  -0.136782   0.004662   0.004670   0.213232  -0.110073
     8  H   -0.000141  -0.000455   0.001070   0.000929  -0.018603   0.003488
     9  C   -0.000140   0.007248  -0.000257  -0.000210  -0.014455   0.008110
    10  H   -0.000006   0.000878  -0.000049  -0.000017  -0.002195   0.013958
    11  C    0.000007  -0.000435  -0.000001   0.000077  -0.004239  -0.002490
    12  H    0.000000   0.000007   0.000000  -0.000002   0.000028  -0.000022
    13  H    0.000000   0.000004   0.000000   0.000000   0.000013  -0.000031
    14  H    0.000000   0.000080   0.000000  -0.000035   0.003505   0.003828
    15  C    0.000000  -0.000030   0.000015  -0.000022   0.004315   0.000731
    16  O    0.000000   0.000001   0.000000   0.000000  -0.000121  -0.000001
    17  N    0.000000  -0.000035   0.000001   0.000001   0.000315   0.000009
    18  H    0.000000  -0.000003   0.000027  -0.000001   0.000365  -0.000079
    19  C    0.000000   0.000000   0.000000   0.000000   0.000012   0.000000
    20  H    0.000000   0.000000   0.000000   0.000000   0.000001   0.000000
    21  H    0.000000   0.000000   0.000000   0.000000  -0.000001   0.000000
    22  H    0.000000   0.000000   0.000000   0.000000   0.000000   0.000000
              7          8          9         10         11         12
     1  H    0.004491  -0.000141  -0.000140  -0.000006   0.000007   0.000000
     2  C   -0.136782  -0.000455   0.007248   0.000878  -0.000435   0.000007
     3  H    0.004662   0.001070  -0.000257  -0.000049  -0.000001   0.000000
     4  H    0.004670   0.000929  -0.000210  -0.000017   0.000077  -0.000002
     5  C    0.213232  -0.018603  -0.014455  -0.002195  -0.004239   0.000028
     6  O   -0.110073   0.003488   0.008110   0.013958  -0.002490  -0.000022
     7  N    7.219457   0.299614   0.220277  -0.047337  -0.061139  -0.002040
     8  H    0.299614   0.411525  -0.037643   0.004750   0.001865   0.001804
     9  C    0.220277  -0.037643   5.144784   0.371720   0.367843  -0.031827
    10  H   -0.047337   0.004750   0.371720   0.543711  -0.041186   0.005197
    11  C   -0.061139   0.001865   0.367843  -0.041186   5.083322   0.376776
    12  H   -0.002040   0.001804  -0.031827   0.005197   0.376776   0.556804
    13  H    0.005033  -0.000130  -0.027612  -0.000362   0.368689  -0.022815
    14  H   -0.006347  -0.000031  -0.028114  -0.003316   0.358848  -0.031041
    15  C   -0.029814  -0.000307   0.292636  -0.033848  -0.039198  -0.007940
    16  O   -0.000067   0.000376  -0.092925   0.001388   0.002187   0.004883
    17  N   -0.000338   0.003412  -0.135458  -0.000397   0.006373   0.000156
    18  H    0.006564   0.000080  -0.000505   0.000215   0.000256  -0.000008
    19  C   -0.000081  -0.000152   0.006396  -0.000219  -0.000175  -0.000002
    20  H   -0.000031  -0.000016   0.001311  -0.000031  -0.000025  -0.000006
    21  H    0.000033  -0.000032  -0.000069  -0.000007   0.000004   0.000000
    22  H   -0.000006   0.000007  -0.000184   0.000014   0.000001   0.000000
             13         14         15         16         17         18
     1  H    0.000000   0.000000   0.000000   0.000000   0.000000   0.000000
     2  C    0.000004   0.000080  -0.000030   0.000001  -0.000035  -0.000003
     3  H    0.000000   0.000000   0.000015   0.000000   0.000001   0.000027
     4  H    0.000000  -0.000035  -0.000022   0.000000   0.000001  -0.000001
     5  C    0.000013   0.003505   0.004315  -0.000121   0.000315   0.000365
     6  O   -0.000031   0.003828   0.000731  -0.000001   0.000009  -0.000079
     7  N    0.005033  -0.006347  -0.029814  -0.000067  -0.000338   0.006564
     8  H   -0.000130  -0.000031  -0.000307   0.000376   0.003412   0.000080
     9  C   -0.027612  -0.028114   0.292636  -0.092925  -0.135458  -0.000505
    10  H   -0.000362  -0.003316  -0.033848   0.001388  -0.000397   0.000215
    11  C    0.368689   0.358848  -0.039198   0.002187   0.006373   0.000256
    12  H   -0.022815  -0.031041  -0.007940   0.004883   0.000156  -0.000008
    13  H    0.542981  -0.027423  -0.002400   0.002965   0.000056  -0.000035
    14  H   -0.027423   0.567572   0.006070   0.001054  -0.000050  -0.000019
    15  C   -0.002400   0.006070   4.410059   0.586548   0.285354  -0.023166
    16  O    0.002965   0.001054   0.586548   8.093433  -0.099927   0.003561
    17  N    0.000056  -0.000050   0.285354  -0.099927   7.075729   0.306229
    18  H   -0.000035  -0.000019  -0.023166   0.003561   0.306229   0.405987
    19  C   -0.000001   0.000002  -0.024809  -0.009294   0.262591  -0.032417
    20  H   -0.000001   0.000000  -0.000550   0.021918  -0.037438   0.003755
    21  H    0.000000   0.000000   0.001307   0.000608  -0.044136  -0.000442
    22  H    0.000001   0.000000   0.001340   0.000575  -0.043393  -0.001016
             19         20         21         22
     1  H    0.000000   0.000000   0.000000   0.000000
     2  C    0.000000   0.000000   0.000000   0.000000
     3  H    0.000000   0.000000   0.000000   0.000000
     4  H    0.000000   0.000000   0.000000   0.000000
     5  C    0.000012   0.000001  -0.000001   0.000000
     6  O    0.000000   0.000000   0.000000   0.000000
     7  N   -0.000081  -0.000031   0.000033  -0.000006
     8  H   -0.000152  -0.000016  -0.000032   0.000007
     9  C    0.006396   0.001311  -0.000069  -0.000184
    10  H   -0.000219  -0.000031  -0.000007   0.000014
    11  C   -0.000175  -0.000025   0.000004   0.000001
    12  H   -0.000002  -0.000006   0.000000   0.000000
    13  H   -0.000001  -0.000001   0.000000   0.000001
    14  H    0.000002   0.000000   0.000000   0.000000
    15  C   -0.024809  -0.000550   0.001307   0.001340
    16  O   -0.009294   0.021918   0.000608   0.000575
    17  N    0.262591  -0.037438  -0.044136  -0.043393
    18  H   -0.032417   0.003755  -0.000442  -0.001016
    19  C    4.971268   0.376279   0.381726   0.383857
    20  H    0.376279   0.471752  -0.024472  -0.023627
    21  H    0.381726  -0.024472   0.567516  -0.038373
    22  H    0.383857  -0.023627  -0.038373   0.558228
 Mulliken atomic charges:
              1
     1  H    0.191907
     2  C   -0.539391
     3  H    0.158374
     4  H    0.167323
     5  C    0.582104
     6  O   -0.513586
     7  N   -0.583979
     8  H    0.328592
     9  C   -0.050925
    10  H    0.187140
    11  C   -0.417359
    12  H    0.150046
    13  H    0.161069
    14  H    0.155417
    15  C    0.573710
    16  O   -0.517160
    17  N   -0.579053
    18  H    0.330652
    19  C   -0.314980
    20  H    0.211181
    21  H    0.156339
    22  H    0.162576
 Sum of Mulliken atomic charges =   0.00000
 Mulliken charges with hydrogens summed into heavy atoms:
              1
     2  C   -0.021786
     5  C    0.582104
     6  O   -0.513586
     7  N   -0.255387
     9  C    0.136216
    11  C    0.049174
    15  C    0.573710
    16  O   -0.517160
    17  N   -0.248401
    19  C    0.215116
 Sum of Mulliken charges with hydrogens summed into heavy atoms =   0.00000
 APT atomic charges:
              1
     1  H    0.733301
     2  C   -1.221304
     3  H    0.296004
     4  H    0.396626
     5  C   -0.114797
     6  O   -0.066958
     7  N   -0.594649
     8  H    0.487908
     9  C   -0.398370
    10  H    0.396515
    11  C   -1.204944
    12  H    0.359599
    13  H    0.476472
    14  H    0.439090
    15  C   -0.259138
    16  O    0.022796
    17  N   -0.317604
    18  H    0.415434
    19  C   -1.407130
    20  H    0.525126
    21  H    0.458887
    22  H    0.577134
 Sum of APT charges=   0.00000
 APT Atomic charges with hydrogens summed into heavy atoms:
              1
     1  H    0.000000
     2  C    0.204628
     3  H    0.000000
     4  H    0.000000
     5  C   -0.114797
     6  O   -0.066958
     7  N   -0.106741
     8  H    0.000000
     9  C   -0.001855
    10  H    0.000000
    11  C    0.070218
    12  H    0.000000
    13  H    0.000000
    14  H    0.000000
    15  C   -0.259138
    16  O    0.022796
    17  N    0.097829
    18  H    0.000000
    19  C    0.154018
    20  H    0.000000
    21  H    0.000000
    22  H    0.000000
 Sum of APT charges=   0.00000
 Electronic spatial extent (au):  <R**2>=           1879.2991
 Charge=              0.0000 electrons
 Dipole moment (field-independent basis, Debye):
    X=             -0.6370    Y=             -4.0201    Z=             -1.4102  Tot=              4.3076
 Quadrupole moment (field-independent basis, Debye-Ang):
   XX=            -66.5066   YY=            -57.3921   ZZ=            -60.5118
   XY=              4.1623   XZ=            -10.0520   YZ=              0.9047
 Traceless Quadrupole moment (field-independent basis, Debye-Ang):
   XX=             -5.0364   YY=              4.0780   ZZ=              0.9584
   XY=              4.1623   XZ=            -10.0520   YZ=              0.9047
 Octapole moment (field-independent basis, Debye-Ang**2):
  XXX=            -10.7631  YYY=             -7.8259  ZZZ=             -3.7320  XYY=              1.0150
  XXY=            -27.0911  XXZ=            -11.0528  XZZ=             -6.8676  YZZ=             -2.5669
  YYZ=              4.9424  XYZ=             -2.9282
 Hexadecapole moment (field-independent basis, Debye-Ang**3):
 XXXX=          -1623.4126 YYYY=           -568.6797 ZZZZ=           -180.5803 XXXY=             23.0204
 XXXZ=            -47.5823 YYYX=             10.1304 YYYZ=              0.0013 ZZZX=             -3.9723
 ZZZY=             -3.0449 XXYY=           -365.2870 XXZZ=           -326.3015 YYZZ=           -124.6901
 XXYZ=              0.2306 YYXZ=             -1.9353 ZZXY=              1.8976
 N-N= 5.540234758925D+02 E-N=-2.264229953528D+03  KE= 4.915368009637D+02
  Exact polarizability:   0.000   0.000   0.000   0.000   0.000   0.000
 Approx polarizability: 117.101  -5.290 112.764  15.287  -2.230 106.490
 Calling FoFJK, ICntrl=    100147 FMM=F ISym2X=0 I1Cent= 0 IOpClX= 0 NMat=1 NMatS=1 NMatT=0.
 ***** Axes restored to original set *****
 -------------------------------------------------------------------
 Center     Atomic                   Forces (Hartrees/Bohr)
 Number     Number              X              Y              Z
 -------------------------------------------------------------------
      1        1           0.003618063    0.000935727    0.000403605
      2        6           0.006093284    0.008272780   -0.002815244
      3        1          -0.006675974    0.000872255   -0.000123931
      4        1          -0.005676303   -0.000742685   -0.003127190
      5        6          -0.004337800   -0.040858640    0.018856654
      6        8           0.003081128    0.003878262   -0.000373562
      7        7          -0.004142206    0.024643786   -0.000957197
      8        1          -0.000697346   -0.000506858   -0.001939626
      9        6           0.011305963    0.000289673   -0.013728817
     10        1          -0.003408850   -0.004691955    0.005012727
     11        6           0.001938613   -0.005713739    0.001789409
     12        1           0.001965784    0.001004028   -0.002922174
     13        1           0.001526259    0.000187969   -0.003232892
     14        1           0.000527531   -0.002869043    0.000184533
     15        6           0.009528562   -0.000120723   -0.019872270
     16        8          -0.000308132    0.003753893    0.001153615
     17        7          -0.010598630    0.008388116    0.014994788
     18        1           0.000698436   -0.001828283   -0.000299745
     19        6          -0.002073102   -0.000097783    0.003701450
     20        1           0.000670483   -0.003159116   -0.000463605
     21        1          -0.003653620    0.004113731    0.000779376
     22        1           0.000617857    0.004248603    0.002980098
 -------------------------------------------------------------------
 Cartesian Forces:  Max     0.040858640 RMS     0.008130534

 GradGradGradGradGradGradGradGradGradGradGradGradGradGradGradGradGradGrad
 Berny optimization.
 Internal  Forces:  Max     0.030713836 RMS     0.005954609
 Search for a local minimum.
 Step number   1 out of a maximum of  132
 All quantities printed in internal units (Hartrees-Bohrs-Radians)
 Mixed Optimization -- RFO/linear search
 Second derivative matrix not updated -- analytic derivatives used.
     Eigenvalues ---   -0.00037  -0.00014   0.00181   0.00334   0.00441
     Eigenvalues ---    0.01773   0.01817   0.02168   0.03664   0.03981
     Eigenvalues ---    0.04614   0.04710   0.05081   0.05561   0.05836
     Eigenvalues ---    0.05981   0.06410   0.06612   0.11865   0.12447
     Eigenvalues ---    0.12529   0.13098   0.13330   0.13403   0.13443
     Eigenvalues ---    0.14308   0.15552   0.17745   0.17918   0.18264
     Eigenvalues ---    0.18581   0.19673   0.21291   0.22373   0.24155
     Eigenvalues ---    0.24900   0.26021   0.30779   0.33055   0.34575
     Eigenvalues ---    0.34663   0.34752   0.35038   0.35065   0.35215
     Eigenvalues ---    0.35485   0.35796   0.35912   0.35926   0.37477
     Eigenvalues ---    0.39024   0.40261   0.46814   0.46885   0.53496
     Eigenvalues ---    0.54739   0.82751   0.829261000.000001000.00000
     Eigenvalues --- 1000.000001000.000001000.000001000.000001000.00000
     Eigenvalues --- 1000.000001000.000001000.000001000.000001000.00000
     Eigenvalues --- 1000.000001000.000001000.000001000.000001000.00000
     Eigenvalues --- 1000.000001000.000001000.000001000.000001000.00000
     Eigenvalues --- 1000.000001000.000001000.000001000.000001000.00000
     Eigenvalues --- 1000.000001000.000001000.000001000.000001000.00000
     Eigenvalues --- 1000.000001000.000001000.000001000.000001000.00000
     Eigenvalues --- 1000.000001000.000001000.00000
 RFO step:  Lambda=-1.07022578D-02 EMin=-3.70674809D-04
 Linear search not attempted -- first point.
 Maximum step size (   0.300) exceeded in Quadratic search.
    -- Step size scaled by   0.317
 Iteration  1 RMS(Cart)=  0.04412901 RMS(Int)=  0.00176464
 Iteration  2 RMS(Cart)=  0.00188059 RMS(Int)=  0.00005249
 Iteration  3 RMS(Cart)=  0.00000294 RMS(Int)=  0.00005244
 Iteration  4 RMS(Cart)=  0.00000000 RMS(Int)=  0.00005244
 Iteration  1 RMS(Cart)=  0.00002565 RMS(Int)=  0.00000751
 Iteration  2 RMS(Cart)=  0.00001392 RMS(Int)=  0.00000836
 Iteration  3 RMS(Cart)=  0.00000769 RMS(Int)=  0.00000947
 Iteration  4 RMS(Cart)=  0.00000435 RMS(Int)=  0.00001027
 Iteration  5 RMS(Cart)=  0.00000254 RMS(Int)=  0.00001079
 Iteration  6 RMS(Cart)=  0.00000153 RMS(Int)=  0.00001113
 Iteration  7 RMS(Cart)=  0.00000095 RMS(Int)=  0.00001134
 Variable       Old X    -DE/DX   Delta X   Delta X   Delta X     New X
                                 (Linear)    (Quad)   (Total)
    R1        2.05977  -0.00085   0.00000   0.00018   0.00018   2.05995
    R2        2.05987   0.00466   0.00000   0.00355   0.00355   2.06342
    R3        2.05965   0.00455   0.00000   0.00383   0.00383   2.06349
    R4        2.89132  -0.00076   0.00000  -0.00373  -0.00373   2.88759
    R5        2.32240   0.00009   0.00000  -0.00270  -0.00270   2.31970
    R6        2.52289   0.03071   0.00000   0.01936   0.01936   2.54225
    R7        1.90859   0.00115   0.00000   0.00065   0.00065   1.90924
    R8        2.73817   0.00938   0.00000   0.00808   0.00808   2.74625
    R9        2.05975   0.00364   0.00000   0.00320   0.00320   2.06295
   R10        2.88188   0.00844   0.00000   0.00258   0.00258   2.88446
   R11        2.87618   0.01570   0.00000   0.01143   0.01143   2.88761
   R12        2.05972   0.00172   0.00000   0.00222   0.00222   2.06194
   R13        2.05984   0.00136   0.00000   0.00209   0.00209   2.06194
   R14        2.05966   0.00291   0.00000   0.00216   0.00216   2.06182
   R15        2.32252   0.00107   0.00000  -0.00248  -0.00248   2.32004
   R16        2.52284   0.02850   0.00000   0.01626   0.01626   2.53909
   R17        1.90868   0.00060   0.00000   0.00030   0.00030   1.90898
   R18        2.73811   0.00621   0.00000   0.00170   0.00170   2.73980
   R19        2.05976  -0.00081   0.00000   0.00044   0.00044   2.06020
   R20        2.05981   0.00442   0.00000   0.00444   0.00444   2.06425
   R21        2.05974   0.00417   0.00000   0.00300   0.00300   2.06274
    A1        1.91109  -0.00022   0.00000   0.00104   0.00108   1.91217
    A2        1.91123  -0.00020   0.00000  -0.00409  -0.00411   1.90713
    A3        1.93910  -0.00776   0.00000  -0.01298  -0.01297   1.92613
    A4        1.91012  -0.00526   0.00000  -0.00873  -0.00881   1.90131
    A5        1.89594   0.00691   0.00000   0.02001   0.01999   1.91594
    A6        1.89607   0.00658   0.00000   0.00488   0.00484   1.90091
    A7        2.10313   0.00946   0.00000   0.01272   0.01271   2.11584
    A8        2.03508  -0.00751   0.00000  -0.00938  -0.00939   2.02570
    A9        2.14497  -0.00195   0.00000  -0.00333  -0.00334   2.14163
   A10        2.09430  -0.00163   0.00000  -0.00291  -0.00311   2.09119
   A11        2.12753   0.00259   0.00000   0.00217   0.00196   2.12949
   A12        2.06135  -0.00096   0.00000   0.00074   0.00052   2.06188
   A13        1.91114  -0.00254   0.00000  -0.01694  -0.01697   1.89416
   A14        1.93905   0.00216   0.00000   0.00783   0.00788   1.94693
   A15        1.93900  -0.00773   0.00000  -0.01007  -0.01021   1.92879
   A16        1.89609  -0.00213   0.00000   0.00270   0.00269   1.89879
   A17        1.89608  -0.00060   0.00000   0.00204   0.00183   1.89791
   A18        1.88137   0.01103   0.00000   0.01507   0.01511   1.89648
   A19        1.91115   0.00330   0.00000   0.00655   0.00654   1.91769
   A20        1.91106   0.00382   0.00000   0.00459   0.00458   1.91565
   A21        1.91110  -0.00124   0.00000  -0.00036  -0.00036   1.91074
   A22        1.91011  -0.00385   0.00000  -0.00912  -0.00913   1.90098
   A23        1.91023  -0.00078   0.00000   0.00013   0.00012   1.91035
   A24        1.91015  -0.00126   0.00000  -0.00179  -0.00179   1.90836
   A25        2.10310   0.00940   0.00000   0.00886   0.00885   2.11196
   A26        2.03507  -0.01012   0.00000  -0.01236  -0.01237   2.02270
   A27        2.14501   0.00071   0.00000   0.00350   0.00350   2.14851
   A28        2.09435  -0.00496   0.00000  -0.01022  -0.01025   2.08410
   A29        2.12756   0.00636   0.00000   0.00534   0.00531   2.13287
   A30        2.06127  -0.00141   0.00000   0.00487   0.00484   2.06611
   A31        1.91121  -0.00654   0.00000  -0.01162  -0.01160   1.89961
   A32        1.91119   0.00520   0.00000   0.01272   0.01271   1.92390
   A33        1.91114   0.00476   0.00000   0.00525   0.00523   1.91637
   A34        1.91000  -0.00003   0.00000  -0.00346  -0.00342   1.90658
   A35        1.91015  -0.00005   0.00000   0.00066   0.00067   1.91081
   A36        1.91010  -0.00334   0.00000  -0.00356  -0.00362   1.90648
    D1        0.00008  -0.00012   0.00000   0.09209   0.09212   0.09221
    D2       -3.14153   0.00004   0.00000   0.08506   0.08507  -3.05646
    D3        2.10332  -0.00073   0.00000   0.09827   0.09823   2.20155
    D4       -1.03830  -0.00056   0.00000   0.09125   0.09118  -0.94712
    D5       -2.10341   0.00067   0.00000   0.10203   0.10207  -2.00134
    D6        1.03816   0.00084   0.00000   0.09501   0.09502   1.13318
    D7       -0.00004   0.00002   0.00000  -0.00711  -0.00709  -0.00712
    D8       -3.14152   0.00088   0.00000   0.03177   0.03171  -3.10982
    D9        3.14153   0.00019   0.00000  -0.01432  -0.01425   3.12728
   D10        0.00005   0.00105   0.00000   0.02457   0.02454   0.02458
   D11       -0.52362  -0.00124   0.00000  -0.01484  -0.01473  -0.53836
   D12        1.57082  -0.00417   0.00000  -0.01754  -0.01750   1.55331
   D13       -2.61802   0.00604   0.00000   0.00000   0.00000  -2.61802
   D14        2.61807  -0.00039   0.00000   0.02334   0.02343   2.64151
   D15       -1.57067  -0.00332   0.00000   0.02064   0.02066  -1.55001
   D16        0.52368   0.00688   0.00000   0.03818   0.03816   0.56184
   D17        1.04724   0.00101   0.00000   0.00862   0.00866   1.05590
   D18        3.14157   0.00067   0.00000   0.00427   0.00431  -3.13731
   D19       -1.04726   0.00071   0.00000   0.00467   0.00471  -1.04256
   D20       -3.13259  -0.00216   0.00000  -0.00575  -0.00575  -3.13834
   D21       -1.03826  -0.00251   0.00000  -0.01010  -0.01010  -1.04836
   D22        1.05609  -0.00247   0.00000  -0.00970  -0.00971   1.04638
   D23       -1.08102   0.00203   0.00000   0.00637   0.00634  -1.07469
   D24        1.01331   0.00168   0.00000   0.00202   0.00199   1.01529
   D25        3.10766   0.00172   0.00000   0.00242   0.00238   3.11004
   D26       -2.09439  -0.00484   0.00000  -0.00587  -0.00588  -2.10027
   D27        1.04722  -0.00472   0.00000   0.00000   0.00000   1.04722
   D28        2.08548   0.00346   0.00000   0.02001   0.02004   2.10552
   D29       -1.05609   0.00358   0.00000   0.02588   0.02592  -1.03017
   D30        0.03390   0.00026   0.00000   0.00745   0.00741   0.04131
   D31       -3.10767   0.00038   0.00000   0.01333   0.01329  -3.09438
   D32       -0.00011   0.00004   0.00000  -0.01476  -0.01472  -0.01483
   D33        3.14159  -0.00019   0.00000   0.00040   0.00036  -3.14123
   D34        3.14151   0.00017   0.00000  -0.00873  -0.00870   3.13280
   D35        0.00002  -0.00007   0.00000   0.00642   0.00638   0.00640
   D36        0.00004   0.00003   0.00000  -0.07323  -0.07325  -0.07321
   D37        2.09436  -0.00083   0.00000  -0.07679  -0.07686   2.01751
   D38       -2.09443   0.00119   0.00000  -0.07013  -0.07013  -2.16456
   D39       -3.14145  -0.00020   0.00000  -0.05835  -0.05831   3.08343
   D40       -1.04712  -0.00106   0.00000  -0.06191  -0.06192  -1.10905
   D41        1.04727   0.00096   0.00000  -0.05525  -0.05520   0.99208
         Item               Value     Threshold  Converged?
 Maximum Force            0.030714     0.000450     NO 
 RMS     Force            0.005909     0.000300     NO 
 Maximum Displacement     0.182971     0.001800     NO 
 RMS     Displacement     0.044226     0.001200     NO 
 Predicted change in Energy=-2.960083D-03
 GradGradGradGradGradGradGradGradGradGradGradGradGradGradGradGradGradGrad

                          Input orientation:                          
 ---------------------------------------------------------------------
 Center     Atomic      Atomic             Coordinates (Angstroms)
 Number     Number       Type             X           Y           Z
 ---------------------------------------------------------------------
      1          1           0        1.869064    1.290148    1.066764
      2          6           0        1.943133    2.217656    0.498864
      3          1           0        1.230598    2.945316    0.892676
      4          1           0        1.704830    2.019169   -0.548117
      5          6           0        3.360276    2.782515    0.585809
      6          8           0        4.259311    2.162354    1.146141
      7          7           0        3.554918    3.982028    0.008641
      8          1           0        2.786113    4.448681   -0.451717
      9          6           0        4.859919    4.620887   -0.019090
     10          1           0        5.411258    4.322543    0.874638
     11          6           0        5.660342    4.207790   -1.251382
     12          1           0        5.125901    4.501066   -2.156327
     13          1           0        6.634243    4.699689   -1.240590
     14          1           0        5.801872    3.125947   -1.247408
     15          6           0        4.711632    6.141732   -0.019640
     16          8           0        5.160872    6.820632   -0.938635
     17          7           0        4.074368    6.669502    1.038989
     18          1           0        3.720059    6.057538    1.760407
     19          6           0        3.857606    8.096304    1.177891
     20          1           0        4.350667    8.609358    0.351922
     21          1           0        2.788689    8.320098    1.153909
     22          1           0        4.276531    8.443547    2.124158
 ---------------------------------------------------------------------
                    Distance matrix (angstroms):
                    1          2          3          4          5
     1  H    0.000000
     2  C    1.090077   0.000000
     3  H    1.782562   1.091917   0.000000
     4  H    1.779406   1.091950   1.777225   0.000000
     5  C    2.163837   1.528044   2.157823   2.146855   0.000000
     6  O    2.545648   2.405558   3.138531   3.068613   1.227532
     7  N    3.347827   2.439503   2.694207   2.754200   1.345303
     8  H    3.622581   2.567429   2.546984   2.661014   2.045051
     9  C    4.606313   3.814635   4.100101   4.123517   2.448356
    10  H    4.666848   4.074266   4.401704   4.589921   2.581015
    11  C    5.316035   4.565264   5.080695   4.575010   3.270624
    12  H    5.595114   4.732231   5.185573   4.522154   3.686483
    13  H    6.297284   5.585043   6.068611   5.653655   4.210719
    14  H    4.918590   4.331781   5.050657   4.301130   3.072461
    15  C    5.726983   4.830301   4.813211   5.129880   3.671113
    16  O    6.741208   5.797209   5.815396   5.928809   4.676801
    17  N    5.813914   4.965162   4.688070   5.455200   3.977936
    18  H    5.160943   4.415162   4.078762   5.069404   3.497843
    19  C    7.091573   6.219709   5.789231   6.674212   5.369753
    20  H    7.761455   6.831667   6.489115   7.158290   5.915039
    21  H    7.090381   6.195469   5.602157   6.616142   5.595916
    22  H    7.621358   6.844563   6.405060   7.418040   5.937451
                    6          7          8          9         10
     6  O    0.000000
     7  N    2.258603   0.000000
     8  H    3.154481   1.010324   0.000000
     9  C    2.786194   1.453251   2.125440   0.000000
    10  H    2.463150   2.076512   2.943894   1.091665   0.000000
    11  C    3.448885   2.464029   2.993105   1.526391   2.143636
    12  H    4.138459   2.724789   2.895349   2.157055   3.049599
    13  H    4.216023   3.399686   3.936169   2.155574   2.472271
    14  H    3.006174   2.712810   3.387853   2.151949   2.467286
    15  C    4.171221   2.450124   2.600142   1.528057   2.144449
    16  O    5.182533   3.396188   3.391566   2.403126   3.096951
    17  N    4.512213   2.924716   2.968813   2.435866   2.706013
    18  H    3.980022   2.720974   2.890358   2.555358   2.579719
    19  C    5.947616   4.287893   4.136287   3.809976   4.092318
    20  H    6.496383   4.707785   4.517178   4.037931   4.446895
    21  H    6.330924   4.551658   4.191170   4.398873   4.789187
    22  H    6.356902   4.990119   4.981509   4.421151   4.453266
                   11         12         13         14         15
    11  C    0.000000
    12  H    1.091130   0.000000
    13  H    1.091130   1.775704   0.000000
    14  H    1.091069   1.781579   1.780323   0.000000
    15  C    2.481404   2.725589   2.695671   3.433802   0.000000
    16  O    2.678473   2.619996   2.600076   3.762567   1.227711
    17  N    3.717679   4.002234   3.953430   4.557265   1.343630
    18  H    4.032014   4.442950   4.397978   4.687763   2.039332
    19  C    4.926638   5.064713   5.009567   5.862311   2.446179
    20  H    4.864117   4.875486   4.799618   5.893356   2.521415
    21  H    5.562633   5.568233   5.799076   6.467209   3.133721
    22  H    5.590245   5.881083   5.558490   6.478502   3.175458
                   16         17         18         19         20
    16  O    0.000000
    17  N    2.261488   0.000000
    18  H    3.153266   1.010188   0.000000
    19  C    2.793838   1.449842   2.124808   0.000000
    20  H    2.349791   2.076401   2.982160   1.090210   0.000000
    21  H    3.500628   2.095386   2.520806   1.092356   1.779503
    22  H    3.577236   2.089425   2.476896   1.091557   1.781518
                   21         22
    21  H    0.000000
    22  H    1.780532   0.000000
 Stoichiometry    C6H12N2O2
 Framework group  C1[X(C6H12N2O2)]
 Deg. of freedom    60
 Full point group                 C1      NOp   1
 Largest Abelian subgroup         C1      NOp   1
 Largest concise Abelian subgroup C1      NOp   1
                         Standard orientation:                         
 ---------------------------------------------------------------------
 Center     Atomic      Atomic             Coordinates (Angstroms)
 Number     Number       Type             X           Y           Z
 ---------------------------------------------------------------------
      1          1           0        3.988421   -1.427388   -0.224654
      2          6           0        3.055261   -1.225857   -0.750833
      3          1           0        2.551111   -2.168132   -0.974964
      4          1           0        3.274106   -0.709444   -1.687731
      5          6           0        2.144855   -0.342256    0.100830
      6          8           0        2.528358    0.122763    1.170184
      7          7           0        0.917553   -0.105206   -0.396540
      8          1           0        0.651676   -0.500334   -1.287571
      9          6           0       -0.038932    0.748985    0.287153
     10          1           0        0.135332    0.673821    1.362195
     11          6           0        0.111076    2.208307   -0.134447
     12          1           0       -0.063056    2.304262   -1.207310
     13          1           0       -0.616292    2.822819    0.398353
     14          1           0        1.118533    2.553721    0.102515
     15          6           0       -1.468202    0.298315   -0.011243
     16          8           0       -2.270498    1.055307   -0.550278
     17          7           0       -1.777008   -0.956163    0.357897
     18          1           0       -1.070505   -1.533998    0.790842
     19          6           0       -3.093118   -1.523937    0.139884
     20          1           0       -3.743663   -0.754847   -0.277067
     21          1           0       -3.032221   -2.361432   -0.558784
     22          1           0       -3.505779   -1.875367    1.087357
 ---------------------------------------------------------------------
 Rotational constants (GHZ):      2.1536796      0.7525718      0.6269397
 Standard basis: 6-31G(d) (6D, 7F)
 There are   174 symmetry adapted basis functions of A   symmetry.
 Integral buffers will be    131072 words long.
 Raffenetti 2 integral format.
 Two-electron integral symmetry is turned on.
   174 basis functions,   328 primitive gaussians,   174 cartesian basis functions
    39 alpha electrons       39 beta electrons
       nuclear repulsion energy       552.7689140675 Hartrees.
 NAtoms=   22 NActive=   22 NUniq=   22 SFac= 7.50D-01 NAtFMM=   80 NAOKFM=F Big=F
 One-electron integrals computed using PRISM.
 NBasis=   174 RedAO= T  NBF=   174
 NBsUse=   174 1.00D-06 NBFU=   174
 Initial guess read from the read-write file.
 B after Tr=     0.000000    0.000000    0.000000
         Rot=    1.000000    0.000000    0.000000    0.000000 Ang=   0.00 deg.
 Initial guess orbital symmetries:
       Occupied  (A) (A) (A) (A) (A) (A) (A) (A) (A) (A) (A) (A)
                 (A) (A) (A) (A) (A) (A) (A) (A) (A) (A) (A) (A)
                 (A) (A) (A) (A) (A) (A) (A) (A) (A) (A) (A) (A)
                 (A) (A) (A)
       Virtual   (A) (A) (A) (A) (A) (A) (A) (A) (A) (A) (A) (A)
                 (A) (A) (A) (A) (A) (A) (A) (A) (A) (A) (A) (A)
                 (A) (A) (A) (A) (A) (A) (A) (A) (A) (A) (A) (A)
                 (A) (A) (A) (A) (A) (A) (A) (A) (A) (A) (A) (A)
                 (A) (A) (A) (A) (A) (A) (A) (A) (A) (A) (A) (A)
                 (A) (A) (A) (A) (A) (A) (A) (A) (A) (A) (A) (A)
                 (A) (A) (A) (A) (A) (A) (A) (A) (A) (A) (A) (A)
                 (A) (A) (A) (A) (A) (A) (A) (A) (A) (A) (A) (A)
                 (A) (A) (A) (A) (A) (A) (A) (A) (A) (A) (A) (A)
                 (A) (A) (A) (A) (A) (A) (A) (A) (A) (A) (A) (A)
                 (A) (A) (A) (A) (A) (A) (A) (A) (A) (A) (A) (A)
                 (A) (A) (A)
 Harris functional with IExCor=  402 diagonalized for initial guess.
 ExpMin= 1.61D-01 ExpMax= 5.48D+03 ExpMxC= 8.25D+02 IAcc=1 IRadAn=         1 AccDes= 0.00D+00
 HarFok:  IExCor=  402 AccDes= 0.00D+00 IRadAn=         1 IDoV= 1
 ScaDFX=  1.000000  1.000000  1.000000  1.000000
 FoFCou: FMM=F IPFlag=           0 FMFlag=      100000 FMFlg1=           0
         NFxFlg=           0 DoJE=T BraDBF=F KetDBF=T FulRan=T
         Omega=  0.000000  0.000000  1.000000  0.000000  0.000000 ICntrl=     500 IOpCl=  0
         NMat0=    1 NMatS0=    1 NMatT0=    0 NMatD0=    1 NMtDS0=    0 NMtDT0=    0
         I1Cent=           4 NGrid=           0.
 Petite list used in FoFCou.
 Requested convergence on RMS density matrix=1.00D-08 within 128 cycles.
 Requested convergence on MAX density matrix=1.00D-06.
 Requested convergence on             energy=1.00D-06.
 No special actions if energy rises.
 Integral accuracy reduced to 1.0D-05 until final iterations.
 Initial convergence to 1.0D-05 achieved.  Increase integral accuracy.
 SCF Done:  E(RB3LYP) =  -495.844075869     A.U. after   11 cycles
             Convg  =    0.6429D-08             -V/T =  2.0089
 Calling FoFJK, ICntrl=      2127 FMM=F ISym2X=0 I1Cent= 0 IOpClX= 0 NMat=1 NMatS=1 NMatT=0.
 ***** Axes restored to original set *****
 -------------------------------------------------------------------
 Center     Atomic                   Forces (Hartrees/Bohr)
 Number     Number              X              Y              Z
 -------------------------------------------------------------------
      1        1           0.002458547    0.000678638    0.000376505
      2        6           0.004405408    0.006041813   -0.001953766
      3        1          -0.004637324    0.000484797   -0.000425246
      4        1          -0.003889453   -0.000867951   -0.002250394
      5        6          -0.003125962   -0.028441189    0.013511240
      6        8           0.002087583    0.002724609   -0.000240346
      7        7          -0.002895919    0.017690455    0.000640413
      8        1          -0.000383306   -0.000699259   -0.001816890
      9        6           0.008091326    0.000376499   -0.011302442
     10        1          -0.002694879   -0.003427117    0.003606165
     11        6           0.001268883   -0.004114945    0.001379991
     12        1           0.001425263    0.000701173   -0.002046483
     13        1           0.001036465    0.000084448   -0.002294363
     14        1           0.000370652   -0.001992377    0.000148098
     15        6           0.006885910    0.000214852   -0.013401928
     16        8          -0.000375720    0.002680115    0.000842986
     17        7          -0.007291651    0.005761973    0.010715815
     18        1           0.000463094   -0.001312229   -0.000305560
     19        6          -0.001471174   -0.000295923    0.002610932
     20        1           0.000484698   -0.002132834   -0.000332084
     21        1          -0.002542465    0.002898966    0.000443003
     22        1           0.000330024    0.002945485    0.002094352
 -------------------------------------------------------------------
 Cartesian Forces:  Max     0.028441189 RMS     0.005762375

 GradGradGradGradGradGradGradGradGradGradGradGradGradGradGradGradGradGrad
 Berny optimization.
 Using GEDIIS/GDIIS optimizer.
 Internal  Forces:  Max     0.021534379 RMS     0.004191884
 Search for a local minimum.
 Step number   2 out of a maximum of  132
 All quantities printed in internal units (Hartrees-Bohrs-Radians)
 Mixed Optimization -- RFO/linear search
 Update second derivatives using D2CorX and points    1    2
 DE= -2.97D-03 DEPred=-2.96D-03 R= 1.00D+00
 SS=  1.41D+00  RLast= 3.00D-01 DXNew= 5.0454D-01 9.0000D-01
 Trust test= 1.00D+00 RLast= 3.00D-01 DXMaxT set to 5.05D-01
 Use linear search instead of GDIIS.
 Linear search step of   0.594 exceeds DXMaxT=   0.505 but not scaled.
 Quartic linear search produced a step of  2.00000.
 Iteration  1 RMS(Cart)=  0.08785287 RMS(Int)=  0.00699027
 Iteration  2 RMS(Cart)=  0.00750386 RMS(Int)=  0.00031604
 Iteration  3 RMS(Cart)=  0.00005261 RMS(Int)=  0.00031346
 Iteration  4 RMS(Cart)=  0.00000002 RMS(Int)=  0.00031346
 Iteration  1 RMS(Cart)=  0.00015670 RMS(Int)=  0.00004565
 Iteration  2 RMS(Cart)=  0.00008532 RMS(Int)=  0.00005083
 Iteration  3 RMS(Cart)=  0.00004716 RMS(Int)=  0.00005762
 Iteration  4 RMS(Cart)=  0.00002661 RMS(Int)=  0.00006248
 Iteration  5 RMS(Cart)=  0.00001540 RMS(Int)=  0.00006562
 Iteration  6 RMS(Cart)=  0.00000917 RMS(Int)=  0.00006761
 Iteration  7 RMS(Cart)=  0.00000562 RMS(Int)=  0.00006886
 Iteration  8 RMS(Cart)=  0.00000353 RMS(Int)=  0.00006966
 Iteration  9 RMS(Cart)=  0.00000227 RMS(Int)=  0.00007017
 Iteration 10 RMS(Cart)=  0.00000148 RMS(Int)=  0.00007049
 Iteration 11 RMS(Cart)=  0.00000098 RMS(Int)=  0.00007071
 Variable       Old X    -DE/DX   Delta X   Delta X   Delta X     New X
                                 (Linear)    (Quad)   (Total)
    R1        2.05995  -0.00055   0.00035   0.00000   0.00035   2.06030
    R2        2.06342   0.00320   0.00711   0.00000   0.00711   2.07053
    R3        2.06349   0.00317   0.00767   0.00000   0.00767   2.07115
    R4        2.88759  -0.00055  -0.00746   0.00000  -0.00746   2.88012
    R5        2.31970   0.00004  -0.00539   0.00000  -0.00539   2.31431
    R6        2.54225   0.02153   0.03872   0.00000   0.03872   2.58098
    R7        1.90924   0.00080   0.00130   0.00000   0.00130   1.91054
    R8        2.74625   0.00657   0.01615   0.00000   0.01615   2.76240
    R9        2.06295   0.00253   0.00641   0.00000   0.00641   2.06936
   R10        2.88446   0.00586   0.00515   0.00000   0.00515   2.88961
   R11        2.88761   0.01105   0.02286   0.00000   0.02286   2.91047
   R12        2.06194   0.00119   0.00443   0.00000   0.00443   2.06637
   R13        2.06194   0.00094   0.00419   0.00000   0.00419   2.06612
   R14        2.06182   0.00202   0.00432   0.00000   0.00432   2.06614
   R15        2.32004   0.00071  -0.00496   0.00000  -0.00496   2.31508
   R16        2.53909   0.01984   0.03251   0.00000   0.03251   2.57160
   R17        1.90898   0.00041   0.00060   0.00000   0.00060   1.90958
   R18        2.73980   0.00430   0.00340   0.00000   0.00340   2.74320
   R19        2.06020  -0.00053   0.00088   0.00000   0.00088   2.06108
   R20        2.06425   0.00307   0.00888   0.00000   0.00888   2.07314
   R21        2.06274   0.00288   0.00600   0.00000   0.00600   2.06875
    A1        1.91217  -0.00015   0.00216   0.00000   0.00243   1.91461
    A2        1.90713  -0.00020  -0.00822   0.00000  -0.00829   1.89884
    A3        1.92613  -0.00536  -0.02593   0.00000  -0.02582   1.90031
    A4        1.90131  -0.00374  -0.01762   0.00000  -0.01810   1.88322
    A5        1.91594   0.00482   0.03998   0.00000   0.03988   1.95582
    A6        1.90091   0.00465   0.00967   0.00000   0.00939   1.91029
    A7        2.11584   0.00652   0.02542   0.00000   0.02537   2.14121
    A8        2.02570  -0.00517  -0.01878   0.00000  -0.01882   2.00687
    A9        2.14163  -0.00135  -0.00668   0.00000  -0.00673   2.13490
   A10        2.09119  -0.00117  -0.00622   0.00000  -0.00743   2.08376
   A11        2.12949   0.00179   0.00391   0.00000   0.00267   2.13216
   A12        2.06188  -0.00065   0.00105   0.00000  -0.00023   2.06165
   A13        1.89416  -0.00209  -0.03395   0.00000  -0.03417   1.85999
   A14        1.94693   0.00174   0.01576   0.00000   0.01606   1.96299
   A15        1.92879  -0.00561  -0.02042   0.00000  -0.02124   1.90755
   A16        1.89879  -0.00145   0.00538   0.00000   0.00533   1.90411
   A17        1.89791  -0.00066   0.00366   0.00000   0.00239   1.90029
   A18        1.89648   0.00802   0.03021   0.00000   0.03041   1.92689
   A19        1.91769   0.00231   0.01308   0.00000   0.01304   1.93072
   A20        1.91565   0.00268   0.00917   0.00000   0.00915   1.92480
   A21        1.91074  -0.00086  -0.00072   0.00000  -0.00075   1.90998
   A22        1.90098  -0.00273  -0.01826   0.00000  -0.01830   1.88268
   A23        1.91035  -0.00054   0.00024   0.00000   0.00019   1.91054
   A24        1.90836  -0.00089  -0.00359   0.00000  -0.00359   1.90477
   A25        2.11196   0.00672   0.01771   0.00000   0.01768   2.12963
   A26        2.02270  -0.00712  -0.02473   0.00000  -0.02476   1.99794
   A27        2.14851   0.00040   0.00699   0.00000   0.00696   2.15547
   A28        2.08410  -0.00349  -0.02050   0.00000  -0.02067   2.06343
   A29        2.13287   0.00440   0.01062   0.00000   0.01043   2.14331
   A30        2.06611  -0.00090   0.00968   0.00000   0.00948   2.07559
   A31        1.89961  -0.00448  -0.02320   0.00000  -0.02307   1.87654
   A32        1.92390   0.00364   0.02541   0.00000   0.02532   1.94922
   A33        1.91637   0.00330   0.01045   0.00000   0.01028   1.92665
   A34        1.90658  -0.00005  -0.00684   0.00000  -0.00663   1.89995
   A35        1.91081  -0.00007   0.00133   0.00000   0.00138   1.91219
   A36        1.90648  -0.00236  -0.00724   0.00000  -0.00760   1.89887
    D1        0.09221  -0.00004   0.18425   0.00000   0.18447   0.27667
    D2       -3.05646   0.00013   0.17014   0.00000   0.17019  -2.88627
    D3        2.20155  -0.00054   0.19646   0.00000   0.19625   2.39780
    D4       -0.94712  -0.00037   0.18236   0.00000   0.18198  -0.76514
    D5       -2.00134   0.00057   0.20415   0.00000   0.20439  -1.79694
    D6        1.13318   0.00074   0.19004   0.00000   0.19012   1.32330
    D7       -0.00712  -0.00008  -0.01417   0.00000  -0.01399  -0.02112
    D8       -3.10982   0.00069   0.06341   0.00000   0.06297  -3.04685
    D9        3.12728   0.00013  -0.02851   0.00000  -0.02807   3.09921
   D10        0.02458   0.00090   0.04908   0.00000   0.04890   0.07348
   D11       -0.53836  -0.00086  -0.02947   0.00000  -0.02880  -0.56715
   D12        1.55331  -0.00295  -0.03500   0.00000  -0.03475   1.51856
   D13       -2.61802   0.00455  -0.00001   0.00000   0.00000  -2.61802
   D14        2.64151  -0.00009   0.04687   0.00000   0.04739   2.68890
   D15       -1.55001  -0.00218   0.04133   0.00000   0.04144  -1.50857
   D16        0.56184   0.00532   0.07633   0.00000   0.07619   0.63803
   D17        1.05590   0.00089   0.01732   0.00000   0.01757   1.07347
   D18       -3.13731   0.00063   0.00862   0.00000   0.00888  -3.12842
   D19       -1.04256   0.00065   0.00941   0.00000   0.00965  -1.03291
   D20       -3.13834  -0.00158  -0.01151   0.00000  -0.01151   3.13333
   D21       -1.04836  -0.00184  -0.02020   0.00000  -0.02020  -1.06857
   D22        1.04638  -0.00181  -0.01941   0.00000  -0.01944   1.02695
   D23       -1.07469   0.00137   0.01267   0.00000   0.01244  -1.06225
   D24        1.01529   0.00110   0.00397   0.00000   0.00375   1.01904
   D25        3.11004   0.00113   0.00476   0.00000   0.00451   3.11455
   D26       -2.10027  -0.00366  -0.01176   0.00000  -0.01179  -2.11206
   D27        1.04722  -0.00376   0.00000   0.00000   0.00000   1.04722
   D28        2.10552   0.00264   0.04008   0.00000   0.04027   2.14579
   D29       -1.03017   0.00255   0.05184   0.00000   0.05205  -0.97812
   D30        0.04131   0.00021   0.01482   0.00000   0.01457   0.05587
   D31       -3.09438   0.00012   0.02658   0.00000   0.02635  -3.06803
   D32       -0.01483   0.00011  -0.02944   0.00000  -0.02917  -0.04399
   D33       -3.14123  -0.00007   0.00073   0.00000   0.00055  -3.14068
   D34        3.13280  -0.00001  -0.01740   0.00000  -0.01722   3.11558
   D35        0.00640  -0.00018   0.01276   0.00000   0.01249   0.01889
   D36       -0.07321   0.00002  -0.14649   0.00000  -0.14657  -0.21978
   D37        2.01751  -0.00062  -0.15372   0.00000  -0.15409   1.86342
   D38       -2.16456   0.00087  -0.14026   0.00000  -0.14025  -2.30481
   D39        3.08343  -0.00013  -0.11663   0.00000  -0.11641   2.96701
   D40       -1.10905  -0.00077  -0.12385   0.00000  -0.12393  -1.23298
   D41        0.99208   0.00072  -0.11039   0.00000  -0.11009   0.88199
         Item               Value     Threshold  Converged?
 Maximum Force            0.021534     0.000450     NO 
 RMS     Force            0.004144     0.000300     NO 
 Maximum Displacement     0.387158     0.001800     NO 
 RMS     Displacement     0.088584     0.001200     NO 
 Predicted change in Energy=-3.116186D-03
 GradGradGradGradGradGradGradGradGradGradGradGradGradGradGradGradGradGrad

                          Input orientation:                          
 ---------------------------------------------------------------------
 Center     Atomic      Atomic             Coordinates (Angstroms)
 Number     Number       Type             X           Y           Z
 ---------------------------------------------------------------------
      1          1           0        1.831740    1.419188    1.216801
      2          6           0        1.948968    2.235265    0.503395
      3          1           0        1.185799    2.999515    0.687801
      4          1           0        1.796191    1.844009   -0.508932
      5          6           0        3.361139    2.795906    0.623087
      6          8           0        4.264511    2.196556    1.192767
      7          7           0        3.553265    4.008146    0.023959
      8          1           0        2.785265    4.446806   -0.465837
      9          6           0        4.871106    4.635336   -0.058381
     10          1           0        5.415342    4.338145    0.844189
     11          6           0        5.657957    4.182651   -1.288886
     12          1           0        5.131433    4.460069   -2.206221
     13          1           0        6.640454    4.661965   -1.307944
     14          1           0        5.789057    3.097625   -1.257952
     15          6           0        4.706722    6.166693   -0.059648
     16          8           0        5.116076    6.863145   -0.980638
     17          7           0        4.095161    6.668956    1.047418
     18          1           0        3.767933    6.019318    1.748854
     19          6           0        3.847260    8.087079    1.233772
     20          1           0        4.423804    8.623119    0.478895
     21          1           0        2.785298    8.332674    1.109453
     22          1           0        4.167720    8.402335    2.231950
 ---------------------------------------------------------------------
                    Distance matrix (angstroms):
                    1          2          3          4          5
     1  H    0.000000
     2  C    1.090262   0.000000
     3  H    1.787320   1.095678   0.000000
     4  H    1.777609   1.096006   1.771988   0.000000
     5  C    2.141707   1.524096   2.185805   2.153285   0.000000
     6  O    2.554066   2.416292   3.221521   3.018721   1.224678
     7  N    3.330048   2.438592   2.657615   2.838093   1.365794
     8  H    3.592624   2.555331   2.446185   2.784722   2.059819
     9  C    4.605154   3.822934   4.100510   4.177273   2.475460
    10  H    4.636954   4.068659   4.439078   4.598902   2.578204
    11  C    5.343700   4.556444   5.030636   4.581573   3.294553
    12  H    5.643759   4.734961   5.106526   4.566005   3.729392
    13  H    6.325635   5.583892   6.041522   5.660934   4.238509
    14  H    4.960031   4.311878   4.998556   4.251537   3.086119
    15  C    5.695054   4.835116   4.794433   5.230549   3.693091
    16  O    6.726980   5.800878   5.758333   6.036213   4.711068
    17  N    5.719426   4.955777   4.696649   5.566651   3.964765
    18  H    5.019275   4.379367   4.112476   5.139900   3.438491
    19  C    6.965873   6.195215   5.767562   6.798517   5.348436
    20  H    7.691549   6.850554   6.492553   7.337335   5.925070
    21  H    6.979762   6.184266   5.583796   6.760198   5.587839
    22  H    7.433147   6.778165   6.361346   7.493212   5.888214
                    6          7          8          9         10
     6  O    0.000000
     7  N    2.270207   0.000000
     8  H    3.162714   1.011012   0.000000
     9  C    2.807307   1.461798   2.133611   0.000000
    10  H    2.456078   2.061312   2.940286   1.095056   0.000000
    11  C    3.470572   2.486714   2.999925   1.529118   2.152452
[...]
    14  H    5.047866   4.217852   4.709543   4.157943   3.068743
    15  C    5.584670   4.871474   4.802898   5.498294   3.702274
    16  O    6.636192   5.827706   5.679491   6.339946   4.725759
    17  N    5.534642   5.026096   4.881838   5.858390   3.965524
    18  H    4.779408   4.422409   4.356326   5.345273   3.406296
    19  C    6.731475   6.264713   5.964825   7.137739   5.341599
    20  H    7.462320   6.876563   6.558679   7.654416   5.907344
    21  H    6.677903   6.245652   5.777895   7.158533   5.563634
    22  H    7.242910   6.901183   6.692747   7.822760   5.911933
                    6          7          8          9         10
     6  O    0.000000
     7  N    2.280420   0.000000
     8  H    3.153214   1.012695   0.000000
     9  C    2.814274   1.466443   2.121855   0.000000
    10  H    2.409851   2.046443   2.948396   1.094932   0.000000
    11  C    3.519678   2.492943   2.863407   1.528985   2.155940
    12  H    4.242452   2.785976   2.757429   2.175336   3.072071
    13  H    4.274957   3.432532   3.849492   2.168212   2.510597
    14  H    3.098306   2.738245   3.211080   2.157597   2.469253
    15  C    4.166737   2.453205   2.702725   1.544144   2.163555
    16  O    5.222086   3.415761   3.440799   2.430774   3.143065
    17  N    4.405133   2.898701   3.187396   2.441734   2.673220
    18  H    3.785724   2.615847   3.063205   2.519027   2.511678
    19  C    5.822474   4.252108   4.352792   3.826973   4.078047
    20  H    6.409326   4.686998   4.698706   4.049925   4.435528
    21  H    6.201832   4.506822   4.421243   4.410967   4.771021
    22  H    6.219052   4.967780   5.218360   4.465636   4.468898
                   11         12         13         14         15
    11  C    0.000000
    12  H    1.094422   0.000000
    13  H    1.093522   1.763578   0.000000
    14  H    1.093987   1.786561   1.780537   0.000000
    15  C    2.538322   2.800330   2.772191   3.483684   0.000000
    16  O    2.784992   2.736691   2.737388   3.867346   1.224959
    17  N    3.765106   4.094699   4.024591   4.581647   1.364663
    18  H    4.016863   4.464582   4.421478   4.641176   2.040579
    19  C    5.009858   5.195284   5.132919   5.918918   2.473498
    20  H    4.961268   5.021785   4.933981   5.972516   2.525762
    21  H    5.632309   5.685902   5.907281   6.510544   3.151093
    22  H    5.696158   6.028079   5.712214   6.554140   3.235370
                   16         17         18         19         20
    16  O    0.000000
    17  N    2.283459   0.000000
    18  H    3.157635   1.010639   0.000000
    19  C    2.838085   1.451343   2.132937   0.000000
    20  H    2.381428   2.060017   2.974349   1.090886   0.000000
    21  H    3.518242   2.118818   2.540937   1.097549   1.780573
    22  H    3.654234   2.106473   2.523227   1.095768   1.782805
                   21         22
    21  H    0.000000
    22  H    1.782553   0.000000
 Stoichiometry    C6H12N2O2
 Framework group  C1[X(C6H12N2O2)]
 Deg. of freedom    60
 Full point group                 C1      NOp   1
 Largest Abelian subgroup         C1      NOp   1
 Largest concise Abelian subgroup C1      NOp   1
                         Standard orientation:                         
 ---------------------------------------------------------------------
 Center     Atomic      Atomic             Coordinates (Angstroms)
 Number     Number       Type             X           Y           Z
 ---------------------------------------------------------------------
      1          1           0        3.639212   -1.854812   -0.298943
      2          6           0        3.099779   -1.075643   -0.842936
      3          1           0        2.608082   -1.516345   -1.716109
      4          1           0        3.838917   -0.344690   -1.190180
      5          6           0        2.135354   -0.389403    0.113125
      6          8           0        2.441100   -0.114926    1.265380
      7          7           0        0.889852   -0.114946   -0.406130
      8          1           0        0.772176   -0.195227   -1.408756
      9          6           0       -0.048999    0.766897    0.294846
     10          1           0        0.141121    0.598202    1.359868
     11          6           0        0.173933    2.243626   -0.032820
     12          1           0        0.011708    2.436954   -1.097745
     13          1           0       -0.529389    2.868735    0.524286
     14          1           0        1.194791    2.528985    0.237786
     15          6           0       -1.493497    0.329794   -0.031875
     16          8           0       -2.304718    1.085279   -0.553111
     17          7           0       -1.783685   -0.950935    0.339379
     18          1           0       -1.025556   -1.521807    0.686852
     19          6           0       -3.074540   -1.568128    0.096142
     20          1           0       -3.746396   -0.788110   -0.264711
     21          1           0       -3.009703   -2.359913   -0.661147
     22          1           0       -3.481367   -1.996495    1.019018
 ---------------------------------------------------------------------
 Rotational constants (GHZ):      2.0950905      0.7467982      0.6268237

 **********************************************************************

            Population analysis using the SCF density.

 **********************************************************************

 Orbital symmetries:
       Occupied  (A) (A) (A) (A) (A) (A) (A) (A) (A) (A) (A) (A)
                 (A) (A) (A) (A) (A) (A) (A) (A) (A) (A) (A) (A)
                 (A) (A) (A) (A) (A) (A) (A) (A) (A) (A) (A) (A)
                 (A) (A) (A)
       Virtual   (A) (A) (A) (A) (A) (A) (A) (A) (A) (A) (A) (A)
                 (A) (A) (A) (A) (A) (A) (A) (A) (A) (A) (A) (A)
                 (A) (A) (A) (A) (A) (A) (A) (A) (A) (A) (A) (A)
                 (A) (A) (A) (A) (A) (A) (A) (A) (A) (A) (A) (A)
                 (A) (A) (A) (A) (A) (A) (A) (A) (A) (A) (A) (A)
                 (A) (A) (A) (A) (A) (A) (A) (A) (A) (A) (A) (A)
                 (A) (A) (A) (A) (A) (A) (A) (A) (A) (A) (A) (A)
                 (A) (A) (A) (A) (A) (A) (A) (A) (A) (A) (A) (A)
                 (A) (A) (A) (A) (A) (A) (A) (A) (A) (A) (A) (A)
                 (A) (A) (A) (A) (A) (A) (A) (A) (A) (A) (A) (A)
                 (A) (A) (A) (A) (A) (A) (A) (A) (A) (A) (A) (A)
                 (A) (A) (A)
 The electronic state is 1-A.
 Alpha  occ. eigenvalues --  -19.11608 -19.11409 -14.36800 -14.36304 -10.29398
 Alpha  occ. eigenvalues --  -10.28608 -10.23393 -10.22007 -10.19862 -10.17572
 Alpha  occ. eigenvalues --   -1.03756  -1.03128  -0.93183  -0.91661  -0.77893
 Alpha  occ. eigenvalues --   -0.73104  -0.71337  -0.64001  -0.59058  -0.58226
 Alpha  occ. eigenvalues --   -0.53507  -0.48259  -0.47980  -0.46078  -0.45310
 Alpha  occ. eigenvalues --   -0.44722  -0.42096  -0.41892  -0.40288  -0.40084
 Alpha  occ. eigenvalues --   -0.39104  -0.37668  -0.36996  -0.36223  -0.35157
 Alpha  occ. eigenvalues --   -0.27159  -0.25617  -0.25179  -0.24513
 Alpha virt. eigenvalues --    0.01982   0.02091   0.07174   0.08776   0.12007
 Alpha virt. eigenvalues --    0.12530   0.12548   0.14811   0.15709   0.16213
 Alpha virt. eigenvalues --    0.16734   0.17257   0.17777   0.18643   0.19542
 Alpha virt. eigenvalues --    0.21470   0.23650   0.24659   0.26632   0.31274
 Alpha virt. eigenvalues --    0.35237   0.36536   0.40140   0.50250   0.51572
 Alpha virt. eigenvalues --    0.51950   0.52660   0.53520   0.54542   0.55912
 Alpha virt. eigenvalues --    0.56956   0.60268   0.62622   0.63539   0.64814
 Alpha virt. eigenvalues --    0.65192   0.68544   0.69444   0.72593   0.74330
 Alpha virt. eigenvalues --    0.75342   0.76590   0.78252   0.81618   0.83167
 Alpha virt. eigenvalues --    0.83683   0.85396   0.86583   0.88195   0.88413
 Alpha virt. eigenvalues --    0.89228   0.89583   0.90959   0.91688   0.93312
 Alpha virt. eigenvalues --    0.94059   0.94485   0.95636   0.96448   0.97707
 Alpha virt. eigenvalues --    1.04275   1.05213   1.06513   1.14068   1.16982
 Alpha virt. eigenvalues --    1.17352   1.25964   1.26811   1.28940   1.34854
 Alpha virt. eigenvalues --    1.36169   1.39687   1.42274   1.44734   1.45452
 Alpha virt. eigenvalues --    1.50947   1.54688   1.63405   1.65854   1.69438
 Alpha virt. eigenvalues --    1.72672   1.75118   1.78091   1.79153   1.80825
 Alpha virt. eigenvalues --    1.83067   1.84869   1.85318   1.86798   1.90890
 Alpha virt. eigenvalues --    1.91124   1.94515   1.95998   1.96678   2.01017
 Alpha virt. eigenvalues --    2.05103   2.05801   2.07078   2.12429   2.16904
 Alpha virt. eigenvalues --    2.18997   2.22158   2.23852   2.26396   2.29275
 Alpha virt. eigenvalues --    2.30233   2.31697   2.35474   2.39478   2.40014
 Alpha virt. eigenvalues --    2.43638   2.46172   2.54179   2.55690   2.63143
 Alpha virt. eigenvalues --    2.64932   2.66807   2.72907   2.73903   2.86704
 Alpha virt. eigenvalues --    2.91936   2.97079   3.01025   3.11843   3.14415
 Alpha virt. eigenvalues --    3.93334   3.96623   4.05166   4.08951   4.16157
 Alpha virt. eigenvalues --    4.23608   4.26277   4.43453   4.49930   4.60222
          Condensed to atoms (all electrons):
              1          2          3          4          5          6
     1  H    0.512041   0.359952  -0.025241  -0.022084  -0.019096   0.002314
     2  C    0.359952   5.320621   0.340547   0.362803   0.346374  -0.079683
     3  H   -0.025241   0.340547   0.576114  -0.026123  -0.025099   0.003007
     4  H   -0.022084   0.362803  -0.026123   0.519334  -0.020650  -0.000204
     5  C   -0.019096   0.346374  -0.025099  -0.020650   4.321019   0.590367
     6  O    0.002314  -0.079683   0.003007  -0.000204   0.590367   8.060847
     7  N    0.003162  -0.119730   0.006557   0.000501   0.252775  -0.099122
     8  H    0.000012   0.001708   0.001604  -0.000129  -0.018196   0.003266
     9  C   -0.000152   0.006947  -0.000028  -0.000199  -0.019975   0.002244
    10  H    0.000005   0.001024  -0.000063  -0.000017  -0.003539   0.017120
    11  C   -0.000004  -0.000430   0.000011   0.000093  -0.001746  -0.001392
    12  H    0.000000   0.000012  -0.000002  -0.000005  -0.000212  -0.000009
    13  H    0.000000   0.000006   0.000000  -0.000001  -0.000063  -0.000039
    14  H    0.000002  -0.000018  -0.000005  -0.000008   0.003525   0.002427
    15  C    0.000004  -0.000095  -0.000014  -0.000002   0.002763   0.000368
    16  O    0.000000   0.000000   0.000000   0.000000  -0.000097  -0.000001
    17  N    0.000001  -0.000025   0.000002   0.000000   0.000241   0.000008
    18  H   -0.000008   0.000039   0.000001   0.000001   0.000744  -0.000056
    19  C    0.000000  -0.000001   0.000000   0.000000   0.000008   0.000000
    20  H    0.000000   0.000000   0.000000   0.000000   0.000001   0.000000
    21  H    0.000000   0.000000   0.000000   0.000000  -0.000001   0.000000
    22  H    0.000000   0.000000   0.000000   0.000000   0.000000   0.000000
              7          8          9         10         11         12
     1  H    0.003162   0.000012  -0.000152   0.000005  -0.000004   0.000000
     2  C   -0.119730   0.001708   0.006947   0.001024  -0.000430   0.000012
     3  H    0.006557   0.001604  -0.000028  -0.000063   0.000011  -0.000002
     4  H    0.000501  -0.000129  -0.000199  -0.000017   0.000093  -0.000005
     5  C    0.252775  -0.018196  -0.019975  -0.003539  -0.001746  -0.000212
     6  O   -0.099122   0.003266   0.002244   0.017120  -0.001392  -0.000009
     7  N    7.173230   0.292629   0.229861  -0.048377  -0.055663  -0.002835
     8  H    0.292629   0.418426  -0.034608   0.005679  -0.000272   0.003224
     9  C    0.229861  -0.034608   5.142735   0.366670   0.358982  -0.031905
    10  H   -0.048377   0.005679   0.366670   0.537282  -0.037546   0.004713
    11  C   -0.055663  -0.000272   0.358982  -0.037546   5.087651   0.375004
    12  H   -0.002835   0.003224  -0.031905   0.004713   0.375004   0.558315
    13  H    0.004676  -0.000097  -0.026251  -0.001012   0.368330  -0.025208
    14  H   -0.005006  -0.000094  -0.028111  -0.003231   0.363081  -0.030750
    15  C   -0.038093  -0.000579   0.301312  -0.031660  -0.034490  -0.006434
    16  O   -0.000415   0.000542  -0.085094   0.001434   0.006234   0.004439
    17  N    0.000325   0.001096  -0.127023   0.000286   0.005591   0.000145
    18  H    0.008655  -0.000073  -0.001404   0.000469   0.000289  -0.000009
    19  C   -0.000140  -0.000044   0.005988  -0.000142  -0.000147   0.000000
    20  H   -0.000039  -0.000006   0.001216  -0.000038  -0.000021  -0.000005
    21  H    0.000048  -0.000017  -0.000043  -0.000004   0.000004   0.000000
    22  H   -0.000006   0.000002  -0.000175   0.000003   0.000001   0.000000
             13         14         15         16         17         18
     1  H    0.000000   0.000002   0.000004   0.000000   0.000001  -0.000008
     2  C    0.000006  -0.000018  -0.000095   0.000000  -0.000025   0.000039
     3  H    0.000000  -0.000005  -0.000014   0.000000   0.000002   0.000001
     4  H   -0.000001  -0.000008  -0.000002   0.000000   0.000000   0.000001
     5  C   -0.000063   0.003525   0.002763  -0.000097   0.000241   0.000744
     6  O   -0.000039   0.002427   0.000368  -0.000001   0.000008  -0.000056
     7  N    0.004676  -0.005006  -0.038093  -0.000415   0.000325   0.008655
     8  H   -0.000097  -0.000094  -0.000579   0.000542   0.001096  -0.000073
     9  C   -0.026251  -0.028111   0.301312  -0.085094  -0.127023  -0.001404
    10  H   -0.001012  -0.003231  -0.031660   0.001434   0.000286   0.000469
    11  C    0.368330   0.363081  -0.034490   0.006234   0.005591   0.000289
    12  H   -0.025208  -0.030750  -0.006434   0.004439   0.000145  -0.000009
    13  H    0.539590  -0.026955  -0.001539   0.002388   0.000047  -0.000035
    14  H   -0.026955   0.562975   0.004983   0.000542  -0.000042  -0.000018
    15  C   -0.001539   0.004983   4.387177   0.591308   0.285529  -0.022966
    16  O    0.002388   0.000542   0.591308   8.072849  -0.096640   0.003305
    17  N    0.000047  -0.000042   0.285529  -0.096640   7.056733   0.305859
    18  H   -0.000035  -0.000018  -0.022966   0.003305   0.305859   0.401576
    19  C   -0.000002   0.000002  -0.023976  -0.007988   0.270651  -0.032694
    20  H    0.000000   0.000000  -0.000541   0.020580  -0.040719   0.003947
    21  H    0.000000   0.000000   0.000379   0.000497  -0.042745  -0.000441
    22  H    0.000000   0.000000   0.001763   0.000428  -0.040419  -0.001083
             19         20         21         22
     1  H    0.000000   0.000000   0.000000   0.000000
     2  C   -0.000001   0.000000   0.000000   0.000000
     3  H    0.000000   0.000000   0.000000   0.000000
     4  H    0.000000   0.000000   0.000000   0.000000
     5  C    0.000008   0.000001  -0.000001   0.000000
     6  O    0.000000   0.000000   0.000000   0.000000
     7  N   -0.000140  -0.000039   0.000048  -0.000006
     8  H   -0.000044  -0.000006  -0.000017   0.000002
     9  C    0.005988   0.001216  -0.000043  -0.000175
    10  H   -0.000142  -0.000038  -0.000004   0.000003
    11  C   -0.000147  -0.000021   0.000004   0.000001
    12  H    0.000000  -0.000005   0.000000   0.000000
    13  H   -0.000002   0.000000   0.000000   0.000000
    14  H    0.000002   0.000000   0.000000   0.000000
    15  C   -0.023976  -0.000541   0.000379   0.001763
    16  O   -0.007988   0.020580   0.000497   0.000428
    17  N    0.270651  -0.040719  -0.042745  -0.040419
    18  H   -0.032694   0.003947  -0.000441  -0.001083
    19  C    4.961214   0.376512   0.381059   0.380751
    20  H    0.376512   0.485515  -0.026707  -0.023200
    21  H    0.381059  -0.026707   0.573949  -0.040885
    22  H    0.380751  -0.023200  -0.040885   0.563256
 Mulliken atomic charges:
              1
     1  H    0.189095
     2  C   -0.540051
     3  H    0.148733
     4  H    0.186690
     5  C    0.590857
     6  O   -0.501460
     7  N   -0.602993
     8  H    0.325927
     9  C   -0.060989
    10  H    0.190942
    11  C   -0.433559
    12  H    0.151522
    13  H    0.166164
    14  H    0.156703
    15  C    0.584805
    16  O   -0.514311
    17  N   -0.578899
    18  H    0.333902
    19  C   -0.311052
    20  H    0.203505
    21  H    0.154908
    22  H    0.159562
 Sum of Mulliken atomic charges =   0.00000
 Mulliken charges with hydrogens summed into heavy atoms:
              1
     2  C   -0.015534
     5  C    0.590857
     6  O   -0.501460
     7  N   -0.277066
     9  C    0.129953
    11  C    0.040830
    15  C    0.584805
    16  O   -0.514311
    17  N   -0.244997
    19  C    0.206924
 Sum of Mulliken charges with hydrogens summed into heavy atoms =   0.00000
 Electronic spatial extent (au):  <R**2>=           1896.4313
 Charge=              0.0000 electrons
 Dipole moment (field-independent basis, Debye):
    X=              0.3734    Y=             -2.8798    Z=             -1.8523  Tot=              3.4444
 Quadrupole moment (field-independent basis, Debye-Ang):
   XX=            -64.8685   YY=            -57.4315   ZZ=            -60.9844
   XY=              5.6571   XZ=            -10.4211   YZ=              1.3489
 Traceless Quadrupole moment (field-independent basis, Debye-Ang):
   XX=             -3.7737   YY=              3.6633   ZZ=              0.1104
   XY=              5.6571   XZ=            -10.4211   YZ=              1.3489
 Octapole moment (field-independent basis, Debye-Ang**2):
  XXX=             -0.1344  YYY=             -7.0859  ZZZ=             -6.0295  XYY=              2.4074
  XXY=            -24.1282  XXZ=            -12.5295  XZZ=             -6.3424  YZZ=             -1.2576
  YYZ=              5.2924  XYZ=             -1.9029
 Hexadecapole moment (field-independent basis, Debye-Ang**3):
 XXXX=          -1614.0526 YYYY=           -574.0725 ZZZZ=           -199.5704 XXXY=             33.9008
 XXXZ=            -53.9125 YYYX=              4.6705 YYYZ=             -1.9949 ZZZX=             -4.2372
 ZZZY=             -1.8900 XXYY=           -360.3341 XXZZ=           -332.2672 YYZZ=           -127.6081
 XXYZ=              5.2737 YYXZ=             -1.4290 ZZXY=              2.3541
 N-N= 5.495160351827D+02 E-N=-2.254987004054D+03  KE= 4.912346542709D+02
 1\1\GINC-NODE005\FOpt\RB3LYP\6-31G(d)\C6H12N2O2\MANAGER\10-Feb-2017\0\
 \# b3lyp/6-31G* Opt=(ModRedundant, maxcycles=1000, calcfc) geom=nocrow
 d\\Phi Psi fixed scan\\0,1\H,1.6544848349,1.7529985832,1.4019427811\C,
 1.9743953627,2.1977428687,0.4564895494\H,1.2141969644,2.9066199741,0.1
 129693295\H,2.0541957483,1.3880706461,-0.2778525682\C,3.3458152545,2.8
 273933286,0.6510157675\O,4.2264809943,2.2872700646,1.3061533684\N,3.51
 8534354,4.0548804144,0.0512906517\H,2.8230988308,4.3485006002,-0.62377
 03924\C,4.8483754238,4.6602909088,-0.0730344798\H,5.3934709098,4.33903
 33844,0.8205766641\C,5.5958075137,4.1882046908,-1.320541632\H,5.060506
 4205,4.4773762135,-2.2302619468\H,6.5887707339,4.6439940269,-1.3660547
 52\H,5.7049710849,3.1000387428,-1.292494774\C,4.7083554231,6.197886386
 6,-0.049050792\O,5.0989460453,6.9059005288,-0.9692020498\N,4.144007908
 8,6.6864871766,1.0933532763\H,3.779426469,6.0191286286,1.7590144515\C,
 3.8941170888,8.1002498047,1.3060213621\H,4.3721804372,8.642638685,0.48
 91359674\H,2.8203763467,8.3276001491,1.3034432622\H,4.3216858506,8.432
 1941936,2.2587569559\\Version=EM64L-G09RevA.02\State=1-A\HF=-495.84834
 02\RMSD=7.376e-09\RMSF=4.689e-04\Dipole=-1.3133366,0.21536,0.2551461\Q
 uadrupole=3.2833176,-3.1434438,-0.1398738,0.7044025,0.9917605,8.634335
 6\PG=C01 [X(C6H12N2O2)]\\@


 THE GREAT THING ABOUT BEING IMPERFECT IS THE JOY IT BRINGS OTHERS.
   -- SIGN OUTSIDE LAKE AGASSIZ JR. HIGH SCHOOL, FARGO, N.D.
 Job cpu time:  0 days  1 hours 10 minutes 23.3 seconds.
 File lengths (MBytes):  RWF=    186 Int=      0 D2E=      0 Chk=      4 Scr=      2
 Normal termination of Gaussian 09 at Fri Feb 10 21:58:12 2017.
