 Entering Gaussian System, Link 0=g09
 Initial command:
 /home/steboss/Software/g09/l1.exe /tmp/Gau-32026.inp -scrdir=/tmp/
 Entering Link 1 = /home/steboss/Software/g09/l1.exe PID=     32028.
  
 Copyright (c) 1988,1990,1992,1993,1995,1998,2003,2009, Gaussian, Inc.
                  All Rights Reserved.
  
 This is part of the Gaussian(R) 09 program.  It is based on
 the Gaussian(R) 03 system (copyright 2003, Gaussian, Inc.),
 the Gaussian(R) 98 system (copyright 1998, Gaussian, Inc.),
 the Gaussian(R) 94 system (copyright 1995, Gaussian, Inc.),
 the Gaussian 92(TM) system (copyright 1992, Gaussian, Inc.),
 the Gaussian 90(TM) system (copyright 1990, Gaussian, Inc.),
 the Gaussian 88(TM) system (copyright 1988, Gaussian, Inc.),
 the Gaussian 86(TM) system (copyright 1986, Carnegie Mellon
 University), and the Gaussian 82(TM) system (copyright 1983,
 Carnegie Mellon University). Gaussian is a federally registered
 trademark of Gaussian, Inc.
  
 This software contains proprietary and confidential information,
 including trade secrets, belonging to Gaussian, Inc.
  
 This software is provided under written license and may be
 used, copied, transmitted, or stored only in accord with that
 written license.
  
 The following legend is applicable only to US Government
 contracts under FAR:
  
                    RESTRICTED RIGHTS LEGEND
  
 Use, reproduction and disclosure by the US Government is
 subject to restrictions as set forth in subparagraphs (a)
 and (c) of the Commercial Computer Software - Restricted
 Rights clause in FAR 52.227-19.
  
 Gaussian, Inc.
 340 Quinnipiac St., Bldg. 40, Wallingford CT 06492
  
  
 ---------------------------------------------------------------
 Warning -- This program may not be used in any manner that
 competes with the business of Gaussian, Inc. or will provide
 assistance to any competitor of Gaussian, Inc.  The licensee
 of this program is prohibited from giving any competitor of
 Gaussian, Inc. access to this program.  By using this program,
 the user acknowledges that Gaussian, Inc. is engaged in the
 business of creating and licensing software in the field of
 computational chemistry and represents and warrants to the
 licensee that it is not a competitor of Gaussian, Inc. and that
 it will not use this program in any manner prohibited above.
 ---------------------------------------------------------------
  

 Cite this work as:
 Gaussian 09, Revision A.02,
 M. J. Frisch, G. W. Trucks, H. B. Schlegel, G. E. Scuseria, 
 M. A. Robb, J. R. Cheeseman, G. Scalmani, V. Barone, B. Mennucci, 
 G. A. Petersson, H. Nakatsuji, M. Caricato, X. Li, H. P. Hratchian, 
 A. F. Izmaylov, J. Bloino, G. Zheng, J. L. Sonnenberg, M. Hada, 
 M. Ehara, K. Toyota, R. Fukuda, J. Hasegawa, M. Ishida, T. Nakajima, 
 Y. Honda, O. Kitao, H. Nakai, T. Vreven, J. A. Montgomery, Jr., 
 J. E. Peralta, F. Ogliaro, M. Bearpark, J. J. Heyd, E. Brothers, 
 K. N. Kudin, V. N. Staroverov, R. Kobayashi, J. Normand, 
 K. Raghavachari, A. Rendell, J. C. Burant, S. S. Iyengar, J. Tomasi, 
 M. Cossi, N. Rega, J. M. Millam, M. Klene, J. E. Knox, J. B. Cross, 
 V. Bakken, C. Adamo, J. Jaramillo, R. Gomperts, R. E. Stratmann, 
 O. Yazyev, A. J. Austin, R. Cammi, C. Pomelli, J. W. Ochterski, 
 R. L. Martin, K. Morokuma, V. G. Zakrzewski, G. A. Voth, 
 P. Salvador, J. J. Dannenberg, S. Dapprich, A. D. Daniels, 
 O. Farkas, J. B. Foresman, J. V. Ortiz, J. Cioslowski, 
 and D. J. Fox, Gaussian, Inc., Wallingford CT, 2009.
 
 ******************************************
 Gaussian 09:  EM64L-G09RevA.02 11-Jun-2009
                29-Dec-2016 
 ******************************************
 %chk=structure_60.chk
 ----------------------------------------------------------------------
 # b3lyp/6-31G* Opt=(ModRedundant, maxcycles=1000, calcfc) geom=nocrowd
 ----------------------------------------------------------------------
 1/6=1000,10=4,14=-1,18=120,19=15,26=3,38=1/1,3;
 2/9=110,12=1,17=6,18=5,40=1/2;
 3/5=1,6=6,7=1,11=2,16=1,25=1,30=1,71=2,74=-5/1,2,3;
 4//1;
 5/5=2,38=5/2;
 8/6=4,10=90,11=11/1;
 11/6=1,8=1,9=11,15=111,16=1/1,2,10;
 10/6=1,7=6,13=1/2;
 6/7=2,8=2,9=2,10=2,28=1/1;
 7/10=1,18=20,25=1/1,2,3,16;
 1/6=1000,10=4,14=-1,18=20,19=15/3(2);
 2/9=110,12=1/2;
 99//99;
 2/9=110,12=1/2;
 3/5=1,6=6,7=1,11=2,16=1,25=1,30=1,71=1,74=-5/1,2,3;
 4/5=5,16=3/1;
 5/5=2,38=5/2;
 7//1,2,3,16;
 1/6=1000,14=-1,18=20,19=15/3(-5);
 2/9=110,12=1/2;
 6/7=2,8=2,9=2,10=2,19=2,28=1/1;
 99/9=1/99;
 ------------------
 Phi Psi fixed scan
 ------------------
 Symbolic Z-matrix:
 Charge =  0 Multiplicity = 1
 H                     2.5153    1.        1.923 
 C                     2.5153    2.09      1.923 
 H                     2.5153    2.4538    2.9505 
 H                     1.6255    2.4539    1.4093 
 C                     3.7515    2.6408    1.2093 
 O                     4.5856    1.8774    0.7277 
 N                     3.8623    3.9697    1.1453 
 H                     3.1502    4.5562    1.5565 
 C                     4.9863    4.6139    0.4964 
 H                     5.9112    4.3155    0.9898 
 C                     5.07      4.2208   -0.9747 
 H                     4.1545    4.5214   -1.4843 
 H                     5.9225    4.7189   -1.4365 
 H                     5.1929    3.1409   -1.0563 
 C                     4.8645    6.1294    0.5667 
 O                     3.9015    6.6527    1.1227 
 N                     5.846     6.8349    0. 
 H                     6.6176    6.3592   -0.4455 
 C                     5.8461    8.2839    0. 
 H                     5.3323    8.6477   -0.8898 
 C                     5.1347    8.8329    1.2322 
 H                     5.6431    8.4846    2.1312 
 H                     5.1499    9.9224    1.2058 
 H                     4.1019    8.4846    1.2414 
 C                     7.266     8.8318    0. 
 O                     7.6574    9.5503    0.9171 
 N                     8.0386    8.4902   -1.0338 
 H                     7.6716    7.8967   -1.764 
 C                     9.4087    8.9471   -1.1497 
 H                     9.4275    10.0365  -1.1807 
 C                     10.2458   8.4788    0.0359 
 H                     10.244    7.3895    0.0749 
 H                     11.2693   8.8362   -0.0776 
 H                     9.8232    8.8756    0.959 
 C                     10.0589   8.4132   -2.418 
 O                     9.4267    7.693    -3.1875 
 N                     11.3274   8.7686   -2.6346 
 H                     11.8055   9.3628   -1.9725 
 C                     12.0574   8.3257   -3.8054 
 H                     11.4129   7.6969   -4.4197 
 H                     12.3771   9.1923   -4.3841 
 H                     12.932    7.7544   -3.4943 
 
 The following ModRedundant input section has been read:
 D   15   17   19   25 F                                                       
 D   17   19   25   27 F                                                       

 GradGradGradGradGradGradGradGradGradGradGradGradGradGradGradGradGradGrad
 Berny optimization.
 Initialization pass.
                           ----------------------------
                           !    Initial Parameters    !
                           ! (Angstroms and Degrees)  !
 --------------------------                            --------------------------
 ! Name  Definition              Value          Derivative Info.                !
 --------------------------------------------------------------------------------
 ! R1    R(1,2)                  1.09           calculate D2E/DX2 analytically  !
 ! R2    R(2,3)                  1.09           calculate D2E/DX2 analytically  !
 ! R3    R(2,4)                  1.09           calculate D2E/DX2 analytically  !
 ! R4    R(2,5)                  1.53           calculate D2E/DX2 analytically  !
 ! R5    R(5,6)                  1.229          calculate D2E/DX2 analytically  !
 ! R6    R(5,7)                  1.335          calculate D2E/DX2 analytically  !
 ! R7    R(7,8)                  1.01           calculate D2E/DX2 analytically  !
 ! R8    R(7,9)                  1.4489         calculate D2E/DX2 analytically  !
 ! R9    R(9,10)                 1.0899         calculate D2E/DX2 analytically  !
 ! R10   R(9,11)                 1.525          calculate D2E/DX2 analytically  !
 ! R11   R(9,15)                 1.522          calculate D2E/DX2 analytically  !
 ! R12   R(11,12)                1.09           calculate D2E/DX2 analytically  !
 ! R13   R(11,13)                1.09           calculate D2E/DX2 analytically  !
 ! R14   R(11,14)                1.0899         calculate D2E/DX2 analytically  !
 ! R15   R(15,16)                1.229          calculate D2E/DX2 analytically  !
 ! R16   R(15,17)                1.335          calculate D2E/DX2 analytically  !
 ! R17   R(17,18)                1.01           calculate D2E/DX2 analytically  !
 ! R18   R(17,19)                1.449          calculate D2E/DX2 analytically  !
 ! R19   R(19,20)                1.09           calculate D2E/DX2 analytically  !
 ! R20   R(19,21)                1.5251         calculate D2E/DX2 analytically  !
 ! R21   R(19,25)                1.5219         calculate D2E/DX2 analytically  !
 ! R22   R(21,22)                1.0899         calculate D2E/DX2 analytically  !
 ! R23   R(21,23)                1.0899         calculate D2E/DX2 analytically  !
 ! R24   R(21,24)                1.09           calculate D2E/DX2 analytically  !
 ! R25   R(25,26)                1.229          calculate D2E/DX2 analytically  !
 ! R26   R(25,27)                1.335          calculate D2E/DX2 analytically  !
 ! R27   R(27,28)                1.01           calculate D2E/DX2 analytically  !
 ! R28   R(27,29)                1.4489         calculate D2E/DX2 analytically  !
 ! R29   R(29,30)                1.09           calculate D2E/DX2 analytically  !
 ! R30   R(29,31)                1.525          calculate D2E/DX2 analytically  !
 ! R31   R(29,35)                1.522          calculate D2E/DX2 analytically  !
 ! R32   R(31,32)                1.09           calculate D2E/DX2 analytically  !
 ! R33   R(31,33)                1.09           calculate D2E/DX2 analytically  !
 ! R34   R(31,34)                1.09           calculate D2E/DX2 analytically  !
 ! R35   R(35,36)                1.229          calculate D2E/DX2 analytically  !
 ! R36   R(35,37)                1.335          calculate D2E/DX2 analytically  !
 ! R37   R(37,38)                1.01           calculate D2E/DX2 analytically  !
 ! R38   R(37,39)                1.4491         calculate D2E/DX2 analytically  !
 ! R39   R(39,40)                1.09           calculate D2E/DX2 analytically  !
 ! R40   R(39,41)                1.09           calculate D2E/DX2 analytically  !
 ! R41   R(39,42)                1.09           calculate D2E/DX2 analytically  !
 ! A1    A(1,2,3)              109.4972         calculate D2E/DX2 analytically  !
 ! A2    A(1,2,4)              109.5032         calculate D2E/DX2 analytically  !
 ! A3    A(1,2,5)              111.1            calculate D2E/DX2 analytically  !
 ! A4    A(3,2,4)              109.4412         calculate D2E/DX2 analytically  !
 ! A5    A(3,2,5)              108.6367         calculate D2E/DX2 analytically  !
 ! A6    A(4,2,5)              108.6357         calculate D2E/DX2 analytically  !
 ! A7    A(2,5,6)              120.4994         calculate D2E/DX2 analytically  !
 ! A8    A(2,5,7)              116.5999         calculate D2E/DX2 analytically  !
 ! A9    A(6,5,7)              122.9007         calculate D2E/DX2 analytically  !
 ! A10   A(5,7,8)              119.9983         calculate D2E/DX2 analytically  !
 ! A11   A(5,7,9)              121.8976         calculate D2E/DX2 analytically  !
 ! A12   A(8,7,9)              118.1041         calculate D2E/DX2 analytically  !
 ! A13   A(7,9,10)             109.5012         calculate D2E/DX2 analytically  !
 ! A14   A(7,9,11)             111.0992         calculate D2E/DX2 analytically  !
 ! A15   A(7,9,15)             111.0961         calculate D2E/DX2 analytically  !
 ! A16   A(10,9,11)            108.6353         calculate D2E/DX2 analytically  !
 ! A17   A(10,9,15)            108.6394         calculate D2E/DX2 analytically  !
 ! A18   A(11,9,15)            107.7951         calculate D2E/DX2 analytically  !
 ! A19   A(9,11,12)            109.4993         calculate D2E/DX2 analytically  !
 ! A20   A(9,11,13)            109.5009         calculate D2E/DX2 analytically  !
 ! A21   A(9,11,14)            109.4999         calculate D2E/DX2 analytically  !
 ! A22   A(12,11,13)           109.438          calculate D2E/DX2 analytically  !
 ! A23   A(12,11,14)           109.447          calculate D2E/DX2 analytically  !
 ! A24   A(13,11,14)           109.4422         calculate D2E/DX2 analytically  !
 ! A25   A(9,15,16)            120.5033         calculate D2E/DX2 analytically  !
 ! A26   A(9,15,17)            116.6002         calculate D2E/DX2 analytically  !
 ! A27   A(16,15,17)           122.8965         calculate D2E/DX2 analytically  !
 ! A28   A(15,17,18)           120.0            calculate D2E/DX2 analytically  !
 ! A29   A(15,17,19)           121.9052         calculate D2E/DX2 analytically  !
 ! A30   A(18,17,19)           118.0948         calculate D2E/DX2 analytically  !
 ! A31   A(17,19,20)           109.4954         calculate D2E/DX2 analytically  !
 ! A32   A(17,19,21)           111.0974         calculate D2E/DX2 analytically  !
 ! A33   A(17,19,25)           111.1042         calculate D2E/DX2 analytically  !
 ! A34   A(20,19,21)           108.6349         calculate D2E/DX2 analytically  !
 ! A35   A(20,19,25)           108.6399         calculate D2E/DX2 analytically  !
 ! A36   A(21,19,25)           107.7944         calculate D2E/DX2 analytically  !
 ! A37   A(19,21,22)           109.4996         calculate D2E/DX2 analytically  !
 ! A38   A(19,21,23)           109.4977         calculate D2E/DX2 analytically  !
 ! A39   A(19,21,24)           109.4988         calculate D2E/DX2 analytically  !
 ! A40   A(22,21,23)           109.4452         calculate D2E/DX2 analytically  !
 ! A41   A(22,21,24)           109.4447         calculate D2E/DX2 analytically  !
 ! A42   A(23,21,24)           109.4412         calculate D2E/DX2 analytically  !
 ! A43   A(19,25,26)           120.5021         calculate D2E/DX2 analytically  !
 ! A44   A(19,25,27)           116.6021         calculate D2E/DX2 analytically  !
 ! A45   A(26,25,27)           122.8958         calculate D2E/DX2 analytically  !
 ! A46   A(25,27,28)           119.9937         calculate D2E/DX2 analytically  !
 ! A47   A(25,27,29)           121.9029         calculate D2E/DX2 analytically  !
 ! A48   A(28,27,29)           118.1034         calculate D2E/DX2 analytically  !
 ! A49   A(27,29,30)           109.4965         calculate D2E/DX2 analytically  !
 ! A50   A(27,29,31)           111.102          calculate D2E/DX2 analytically  !
 ! A51   A(27,29,35)           111.1008         calculate D2E/DX2 analytically  !
 ! A52   A(30,29,31)           108.6358         calculate D2E/DX2 analytically  !
 ! A53   A(30,29,35)           108.6347         calculate D2E/DX2 analytically  !
 ! A54   A(31,29,35)           107.7963         calculate D2E/DX2 analytically  !
 ! A55   A(29,31,32)           109.499          calculate D2E/DX2 analytically  !
 ! A56   A(29,31,33)           109.4979         calculate D2E/DX2 analytically  !
 ! A57   A(29,31,34)           109.4984         calculate D2E/DX2 analytically  !
 ! A58   A(32,31,33)           109.4477         calculate D2E/DX2 analytically  !
 ! A59   A(32,31,34)           109.4421         calculate D2E/DX2 analytically  !
 ! A60   A(33,31,34)           109.4422         calculate D2E/DX2 analytically  !
 ! A61   A(29,35,36)           120.5017         calculate D2E/DX2 analytically  !
 ! A62   A(29,35,37)           116.5984         calculate D2E/DX2 analytically  !
 ! A63   A(36,35,37)           122.8999         calculate D2E/DX2 analytically  !
 ! A64   A(35,37,38)           120.0034         calculate D2E/DX2 analytically  !
 ! A65   A(35,37,39)           121.8962         calculate D2E/DX2 analytically  !
 ! A66   A(38,37,39)           118.1004         calculate D2E/DX2 analytically  !
 ! A67   A(37,39,40)           109.4992         calculate D2E/DX2 analytically  !
 ! A68   A(37,39,41)           109.4946         calculate D2E/DX2 analytically  !
 ! A69   A(37,39,42)           109.5002         calculate D2E/DX2 analytically  !
 ! A70   A(40,39,41)           109.4421         calculate D2E/DX2 analytically  !
 ! A71   A(40,39,42)           109.4465         calculate D2E/DX2 analytically  !
 ! A72   A(41,39,42)           109.4447         calculate D2E/DX2 analytically  !
 ! D1    D(1,2,5,6)              0.0022         calculate D2E/DX2 analytically  !
 ! D2    D(1,2,5,7)            179.9987         calculate D2E/DX2 analytically  !
 ! D3    D(3,2,5,6)            120.5114         calculate D2E/DX2 analytically  !
 ! D4    D(3,2,5,7)            -59.4921         calculate D2E/DX2 analytically  !
 ! D5    D(4,2,5,6)           -120.5139         calculate D2E/DX2 analytically  !
 ! D6    D(4,2,5,7)             59.4827         calculate D2E/DX2 analytically  !
 ! D7    D(2,5,7,8)              0.0058         calculate D2E/DX2 analytically  !
 ! D8    D(2,5,7,9)            179.9989         calculate D2E/DX2 analytically  !
 ! D9    D(6,5,7,8)           -179.9977         calculate D2E/DX2 analytically  !
 ! D10   D(6,5,7,9)             -0.0046         calculate D2E/DX2 analytically  !
 ! D11   D(5,7,9,10)           -59.9963         calculate D2E/DX2 analytically  !
 ! D12   D(5,7,9,11)            60.0033         calculate D2E/DX2 analytically  !
 ! D13   D(5,7,9,15)          -179.9991         calculate D2E/DX2 analytically  !
 ! D14   D(8,7,9,10)           119.9969         calculate D2E/DX2 analytically  !
 ! D15   D(8,7,9,11)          -120.0035         calculate D2E/DX2 analytically  !
 ! D16   D(8,7,9,15)            -0.0059         calculate D2E/DX2 analytically  !
 ! D17   D(7,9,11,12)           60.0013         calculate D2E/DX2 analytically  !
 ! D18   D(7,9,11,13)          179.996          calculate D2E/DX2 analytically  !
 ! D19   D(7,9,11,14)          -60.0039         calculate D2E/DX2 analytically  !
 ! D20   D(10,9,11,12)        -179.486          calculate D2E/DX2 analytically  !
 ! D21   D(10,9,11,13)         -59.4913         calculate D2E/DX2 analytically  !
 ! D22   D(10,9,11,14)          60.5089         calculate D2E/DX2 analytically  !
 ! D23   D(15,9,11,12)         -61.9387         calculate D2E/DX2 analytically  !
 ! D24   D(15,9,11,13)          58.056          calculate D2E/DX2 analytically  !
 ! D25   D(15,9,11,14)         178.0562         calculate D2E/DX2 analytically  !
 ! D26   D(7,9,15,16)            0.0028         calculate D2E/DX2 analytically  !
 ! D27   D(7,9,15,17)         -179.9973         calculate D2E/DX2 analytically  !
 ! D28   D(10,9,15,16)        -120.5108         calculate D2E/DX2 analytically  !
 ! D29   D(10,9,15,17)          59.4892         calculate D2E/DX2 analytically  !
 ! D30   D(11,9,15,16)         121.9446         calculate D2E/DX2 analytically  !
 ! D31   D(11,9,15,17)         -58.0555         calculate D2E/DX2 analytically  !
 ! D32   D(9,15,17,18)           0.0005         calculate D2E/DX2 analytically  !
 ! D33   D(9,15,17,19)        -179.9968         calculate D2E/DX2 analytically  !
 ! D34   D(16,15,17,18)       -179.9995         calculate D2E/DX2 analytically  !
 ! D35   D(16,15,17,19)          0.0032         calculate D2E/DX2 analytically  !
 ! D36   D(15,17,19,20)        -89.9978         calculate D2E/DX2 analytically  !
 ! D37   D(15,17,19,21)         29.9965         calculate D2E/DX2 analytically  !
 ! D38   D(15,17,19,25)        149.9974         frozen, calculate D2E/DX2 analyt!
 ! D39   D(18,17,19,20)         90.0049         calculate D2E/DX2 analytically  !
 ! D40   D(18,17,19,21)       -150.0008         calculate D2E/DX2 analytically  !
 ! D41   D(18,17,19,25)        -29.9999         calculate D2E/DX2 analytically  !
 ! D42   D(17,19,21,22)         60.0039         calculate D2E/DX2 analytically  !
 ! D43   D(17,19,21,23)       -179.9943         calculate D2E/DX2 analytically  !
 ! D44   D(17,19,21,24)        -59.998          calculate D2E/DX2 analytically  !
 ! D45   D(20,19,21,22)       -179.4919         calculate D2E/DX2 analytically  !
 ! D46   D(20,19,21,23)        -59.4901         calculate D2E/DX2 analytically  !
 ! D47   D(20,19,21,24)         60.5062         calculate D2E/DX2 analytically  !
 ! D48   D(25,19,21,22)        -61.9445         calculate D2E/DX2 analytically  !
 ! D49   D(25,19,21,23)         58.0573         calculate D2E/DX2 analytically  !
 ! D50   D(25,19,21,24)        178.0536         calculate D2E/DX2 analytically  !
 ! D51   D(17,19,25,26)       -119.9969         calculate D2E/DX2 analytically  !
 ! D52   D(17,19,25,27)         60.0013         frozen, calculate D2E/DX2 analyt!
 ! D53   D(20,19,25,26)        119.4914         calculate D2E/DX2 analytically  !
 ! D54   D(20,19,25,27)        -60.5103         calculate D2E/DX2 analytically  !
 ! D55   D(21,19,25,26)          1.9472         calculate D2E/DX2 analytically  !
 ! D56   D(21,19,25,27)       -178.0545         calculate D2E/DX2 analytically  !
 ! D57   D(19,25,27,28)         -0.0016         calculate D2E/DX2 analytically  !
 ! D58   D(19,25,27,29)       -179.9976         calculate D2E/DX2 analytically  !
 ! D59   D(26,25,27,28)        179.9966         calculate D2E/DX2 analytically  !
 ! D60   D(26,25,27,29)          0.0006         calculate D2E/DX2 analytically  !
 ! D61   D(25,27,29,30)        -60.0023         calculate D2E/DX2 analytically  !
 ! D62   D(25,27,29,31)         59.9967         calculate D2E/DX2 analytically  !
 ! D63   D(25,27,29,35)       -179.9991         calculate D2E/DX2 analytically  !
 ! D64   D(28,27,29,30)        120.0016         calculate D2E/DX2 analytically  !
 ! D65   D(28,27,29,31)       -119.9994         calculate D2E/DX2 analytically  !
 ! D66   D(28,27,29,35)          0.0048         calculate D2E/DX2 analytically  !
 ! D67   D(27,29,31,32)         59.9987         calculate D2E/DX2 analytically  !
 ! D68   D(27,29,31,33)       -179.9968         calculate D2E/DX2 analytically  !
 ! D69   D(27,29,31,34)        -59.9993         calculate D2E/DX2 analytically  !
 ! D70   D(30,29,31,32)       -179.4923         calculate D2E/DX2 analytically  !
 ! D71   D(30,29,31,33)        -59.4878         calculate D2E/DX2 analytically  !
 ! D72   D(30,29,31,34)         60.5096         calculate D2E/DX2 analytically  !
 ! D73   D(35,29,31,32)        -61.9496         calculate D2E/DX2 analytically  !
 ! D74   D(35,29,31,33)         58.0549         calculate D2E/DX2 analytically  !
 ! D75   D(35,29,31,34)        178.0524         calculate D2E/DX2 analytically  !
 ! D76   D(27,29,35,36)         -0.0068         calculate D2E/DX2 analytically  !
 ! D77   D(27,29,35,37)        179.9997         calculate D2E/DX2 analytically  !
 ! D78   D(30,29,35,36)       -120.5143         calculate D2E/DX2 analytically  !
 ! D79   D(30,29,35,37)         59.4922         calculate D2E/DX2 analytically  !
 ! D80   D(31,29,35,36)        121.9423         calculate D2E/DX2 analytically  !
 ! D81   D(31,29,35,37)        -58.0512         calculate D2E/DX2 analytically  !
 ! D82   D(29,35,37,38)         -0.0031         calculate D2E/DX2 analytically  !
 ! D83   D(29,35,37,39)        179.9956         calculate D2E/DX2 analytically  !
 ! D84   D(36,35,37,38)       -179.9964         calculate D2E/DX2 analytically  !
 ! D85   D(36,35,37,39)          0.0023         calculate D2E/DX2 analytically  !
 ! D86   D(35,37,39,40)          0.0021         calculate D2E/DX2 analytically  !
 ! D87   D(35,37,39,41)        119.9979         calculate D2E/DX2 analytically  !
 ! D88   D(35,37,39,42)       -120.0025         calculate D2E/DX2 analytically  !
 ! D89   D(38,37,39,40)       -179.9991         calculate D2E/DX2 analytically  !
 ! D90   D(38,37,39,41)        -60.0033         calculate D2E/DX2 analytically  !
 ! D91   D(38,37,39,42)         59.9962         calculate D2E/DX2 analytically  !
 --------------------------------------------------------------------------------
 Trust Radius=3.00D-01 FncErr=1.00D-07 GrdErr=1.00D-06
 Number of steps in this run= 252 maximum allowed number of steps= 252.
 GradGradGradGradGradGradGradGradGradGradGradGradGradGradGradGradGradGrad

                          Input orientation:                          
 ---------------------------------------------------------------------
 Center     Atomic      Atomic             Coordinates (Angstroms)
 Number     Number       Type             X           Y           Z
 ---------------------------------------------------------------------
      1          1           0        2.515300    1.000000    1.923000
      2          6           0        2.515300    2.090000    1.923000
      3          1           0        2.515300    2.453800    2.950500
      4          1           0        1.625500    2.453900    1.409300
      5          6           0        3.751500    2.640800    1.209300
      6          8           0        4.585600    1.877400    0.727700
      7          7           0        3.862300    3.969700    1.145300
      8          1           0        3.150200    4.556200    1.556500
      9          6           0        4.986300    4.613900    0.496400
     10          1           0        5.911200    4.315500    0.989800
     11          6           0        5.070000    4.220800   -0.974700
     12          1           0        4.154500    4.521400   -1.484300
     13          1           0        5.922500    4.718900   -1.436500
     14          1           0        5.192900    3.140900   -1.056300
     15          6           0        4.864500    6.129400    0.566700
     16          8           0        3.901500    6.652700    1.122700
     17          7           0        5.846000    6.834900    0.000000
     18          1           0        6.617600    6.359200   -0.445500
     19          6           0        5.846100    8.283900    0.000000
     20          1           0        5.332300    8.647700   -0.889800
     21          6           0        5.134700    8.832900    1.232200
     22          1           0        5.643100    8.484600    2.131200
     23          1           0        5.149900    9.922400    1.205800
     24          1           0        4.101900    8.484600    1.241400
     25          6           0        7.266000    8.831800    0.000000
     26          8           0        7.657400    9.550300    0.917100
     27          7           0        8.038600    8.490200   -1.033800
     28          1           0        7.671600    7.896700   -1.764000
     29          6           0        9.408700    8.947100   -1.149700
     30          1           0        9.427500   10.036500   -1.180700
     31          6           0       10.245800    8.478800    0.035900
     32          1           0       10.244000    7.389500    0.074900
     33          1           0       11.269300    8.836200   -0.077600
     34          1           0        9.823200    8.875600    0.959000
     35          6           0       10.058900    8.413200   -2.418000
     36          8           0        9.426700    7.693000   -3.187500
     37          7           0       11.327400    8.768600   -2.634600
     38          1           0       11.805500    9.362800   -1.972500
     39          6           0       12.057400    8.325700   -3.805400
     40          1           0       11.412900    7.696900   -4.419700
     41          1           0       12.377100    9.192300   -4.384100
     42          1           0       12.932000    7.754400   -3.494300
 ---------------------------------------------------------------------
                    Distance matrix (angstroms):
                    1          2          3          4          5
     1  H    0.000000
     2  C    1.090000   0.000000
     3  H    1.780250   1.090003   0.000000
     4  H    1.780297   1.089979   1.779618   0.000000
     5  C    2.174806   1.530013   2.143580   2.143550   0.000000
     6  O    2.546510   2.400017   3.091799   3.091783   1.229000
     7  N    3.352364   2.439774   2.714979   2.714889   1.335046
     8  H    3.630975   2.572851   2.601234   2.601162   2.037368
     9  C    4.604487   3.809344   4.098107   4.098044   2.434354
    10  H    4.836894   4.166035   4.340784   4.691349   2.741734
    11  C    5.029583   4.411742   5.005594   4.546424   3.000783
    12  H    5.166907   4.495373   5.160368   4.363865   3.309765
    13  H    6.060154   5.459521   5.998788   5.629655   4.003998
    14  H    4.541940   4.141275   4.867863   4.390614   2.731424
    15  C    5.802502   4.865701   4.971044   4.970955   3.717800
    16  O    5.874951   4.835314   4.784680   4.784583   4.015637
    17  N    6.988387   6.107828   6.244442   6.244350   4.841468
    18  H    7.152600   6.376890   6.604077   6.603992   4.977890
    19  C    8.236951   7.290854   7.334149   7.334064   6.139571
    20  H    8.621754   7.671425   7.813309   7.575578   6.556523
    21  C    8.288111   7.266716   7.106809   7.282684   6.344751
    22  H    8.114537   7.121614   6.842875   7.282279   6.211123
    23  H    9.330847   8.294696   8.109567   8.260829   7.414663
    24  H    7.681218   6.623654   6.465978   6.521510   5.854384
    25  C    9.359710   8.468704   8.482540   8.630120   7.220983
    26  O   10.027994   9.116419   8.996456   9.326573   7.942457
    27  N    9.764866   8.956119   9.100528   9.139667   7.591193
    28  H    9.367277   8.596462   8.856585   8.732081   7.199457
    29  C   10.959783  10.197072  10.319571  10.454106   8.794215
    30  H   11.792786  10.979905  11.060862  11.183699   9.624212
    31  C   10.920358  10.204829  10.225270  10.606376   8.811075
    32  H   10.196764   9.551596   9.610568  10.020944   8.123397
    33  H   11.918093  11.231479  11.248864  11.659653   9.826312
    34  H   10.787019  10.018935   9.930307  10.423209   8.706372
    35  C   11.432660  10.757929  11.010956  11.012889   9.287691
    36  O   10.894077  10.260520  10.625051  10.461236   8.778637
    37  N   12.600634  11.959453  12.195210  12.261950  10.474720
    38  H   13.092714  12.424828  12.580860  12.759384  10.962484
    39  C   13.324118  12.757358  13.083313  13.057399  11.245145
    40  H   12.815834  12.281468  12.687680  12.540315  10.767861
    41  H   14.288051  13.692234  14.016378  13.948707  12.190539
    42  H   13.545357  13.036112  13.346889  13.415571  11.513224
                    6          7          8          9         10
     6  O    0.000000
     7  N    2.252836   0.000000
     8  H    3.150119   1.010027   0.000000
     9  C    2.775336   1.448945   2.120944   0.000000
    10  H    2.787516   2.083686   2.828817   1.089920   0.000000
    11  C    2.936721   2.452752   3.194542   1.525014   2.139123
    12  H    3.474123   2.702693   3.202545   2.150260   3.041309
    13  H    3.813815   3.386948   4.082912   2.150255   2.459632
    14  H    2.268899   2.702674   3.605887   2.150184   2.466205
    15  C    4.264178   2.450201   2.528535   1.522011   2.136546
    16  O    4.840197   2.683382   2.268909   2.392854   3.085297
    17  N    5.166717   3.668262   3.857785   2.432763   2.707643
    18  H    5.058849   3.978949   4.391090   2.567954   2.595341
    19  C    6.569753   4.884618   4.856575   3.801916   4.090494
    20  H    7.000773   5.309069   5.242739   4.279347   4.757728
    21  C    6.995356   5.027650   4.725841   4.285252   4.590056
    22  H    6.836901   4.952532   4.687980   4.252796   4.330827
    23  H    8.078926   6.090666   5.737412   5.358189   5.662470
    24  H    6.644768   4.522274   4.054300   4.039741   4.551732
    25  C    7.488509   6.044576   6.135410   4.820179   4.817899
    26  O    8.267117   6.752626   6.757568   5.628482   5.518843
    27  N    7.665195   6.528773   6.788407   5.165632   5.103813
    28  H    7.208602   6.196460   6.528991   4.805936   4.848445
    29  C    8.761711   7.797698   8.110015   6.406550   6.185603
    30  H    9.677649   8.554986   8.771000   7.207046   7.057285
    31  C    8.723241   7.893784   8.249034   6.543077   6.085372
    32  H    7.926341   7.318940   7.781049   5.960287   5.390703
    33  H    9.682213   8.946617   9.322471   7.591665   7.091213
    34  H    8.744184   7.722363   7.971396   6.463102   6.008261
    35  C    9.086755   8.416629   8.854560   6.975649   6.753344
    36  O    8.519756   7.974877   8.469918   6.539811   6.419975
    37  N   10.210072   9.645973  10.108226   8.202088   7.893136
    38  H   10.744731  10.094584  10.510541   8.668853   8.306216
    39  C   10.860818  10.518737  11.058812   9.071020   8.766494
    40  H   10.342840  10.093206  10.670107   8.658759   8.424088
    41  H   11.846760  11.417164  11.913011   9.970203   9.719560
    42  H   11.046574  10.867810  11.463973   9.429877   9.012481
                   11         12         13         14         15
    11  C    0.000000
    12  H    1.090043   0.000000
    13  H    1.090009   1.779639   0.000000
    14  H    1.089930   1.779674   1.779593   0.000000
    15  C    2.461889   2.701178   2.668648   3.416593   0.000000
    16  O    3.417399   3.376818   3.791244   4.329953   1.228962
    17  N    2.895813   3.227476   2.558679   3.897171   1.334999
    18  H    2.692187   3.243991   2.038585   3.572156   2.037331
    19  C    4.249842   4.384183   3.844294   5.290831   2.434452
    20  H    4.435477   4.332089   4.010322   5.511080   2.946534
    21  C    5.113322   5.189335   4.966647   6.135103   2.797286
    22  H    5.306133   5.567291   5.194906   6.238427   2.932720
    23  H    6.104851   6.115412   5.886856   7.148964   3.857039
    24  H    4.901868   4.810318   4.966511   5.918178   2.565881
    25  C    5.199402   5.519432   4.558999   6.148159   3.659415
    26  O    6.219093   6.582315   5.647277   7.144822   4.430082
    27  N    5.200371   5.571405   4.343127   6.059169   4.267305
    28  H    4.572041   4.882712   3.642118   5.409476   4.054050
    29  C    6.418166   6.877892   5.487579   7.175908   5.615622
    30  H    7.269980   7.636297   6.373957   8.092998   6.256181
    31  C    6.777963   7.421318   5.915719   7.430873   5.895746
    32  H    6.157321   6.909350   5.300169   6.696553   5.546958
    33  H    7.780619   8.438998   6.883824   8.385519   6.983076
    34  H    6.928150   7.554001   6.183206   7.641197   5.681920
    35  C    6.674463   7.133011   5.632140   7.302693   6.411394
    36  O    5.994455   6.384045   4.918403   6.571810   6.111672
    37  N    7.911562   8.415010   6.859188   8.473142   7.680024
    38  H    8.532452   9.067265   7.514173   9.125675   8.067211
    39  C    8.584103   9.072818   7.500513   9.031116   8.699241
    40  H    8.011472   8.448949   6.921883   8.411777   8.378710
    41  H    9.472778   9.891274   8.388177   9.965261   9.504259
    42  H    8.980298   9.567492   7.910872   9.333911   9.176977
                   16         17         18         19         20
    16  O    0.000000
    17  N    2.252717   0.000000
    18  H    3.150015   1.010014   0.000000
    19  C    2.775381   1.449000   2.120885   0.000000
    20  H    3.174487   2.083717   2.662073   1.089993   0.000000
    21  C    2.507199   2.452808   3.336594   1.525060   2.139212
    22  H    2.721415   2.702719   3.479419   2.150233   3.041322
    23  H    3.500906   3.386911   4.192533   2.150193   2.459608
    24  H    1.846648   2.702678   3.700230   2.150253   2.466272
    25  C    4.162787   2.450308   2.594734   1.521943   2.136547
    26  O    4.748172   3.390522   3.622290   2.392833   3.079881
    27  N    5.014229   2.935346   2.628022   2.432768   2.714701
    28  H    4.908587   2.751714   2.283257   2.567892   2.607787
    29  C    6.384146   4.298375   3.870835   3.801811   4.095635
    30  H    6.876949   4.946861   4.686000   4.158375   4.334057
    31  C    6.690734   4.697014   4.229454   4.404161   5.002792
    32  H    6.470554   4.433463   3.805668   4.488551   5.161251
    33  H    7.777716   5.781298   5.282915   5.451803   5.995262
    34  H    6.327291   4.571899   4.310541   4.133656   4.861911
    35  C    7.317752   5.107473   4.466791   4.859128   4.973041
    36  O    7.084341   4.870103   4.145917   4.830115   4.791136
    37  N    8.587102   6.381697   5.725346   6.100877   6.245011
    38  H    8.910562   6.767324   6.186085   6.369398   6.601964
    39  C    9.674906   7.435391   6.689355   7.284440   7.336987
    40  H    9.393066   7.160109   6.370134   7.132151   7.094921
    41  H   10.421622   8.211756   7.530662   7.918301   7.882635
    42  H   10.201978   7.954056   7.149364   7.918364   8.083121
                   21         22         23         24         25
    21  C    0.000000
    22  H    1.089947   0.000000
    23  H    1.089926   1.779573   0.000000
    24  H    1.089988   1.779618   1.779562   0.000000
    25  C    2.461861   2.701179   2.668565   3.416599   0.000000
    26  O    2.641584   2.582084   2.551345   3.725918   1.229028
    27  N    3.699302   3.969342   3.925760   4.546886   1.335044
    28  H    4.036031   4.430917   4.391144   4.703277   2.037307
    29  C    4.894238   5.015771   4.963564   5.838955   2.434393
    30  H    5.069405   5.262961   4.899619   6.052849   2.741794
    31  C    5.261166   5.057189   5.424098   6.261052   3.000851
    32  H    5.433939   5.157121   5.800377   6.347075   3.309732
    33  H    6.272870   6.054465   6.346180   7.296232   4.004054
    34  H    4.696647   4.358918   4.795460   5.741594   2.731460
    35  C    6.143928   6.340316   6.285530   6.991577   3.717827
    36  O    6.265332   6.575016   6.523981   6.971032   4.015675
    37  N    7.301083   7.423259   7.364878   8.204382   4.841496
    38  H    7.419600   7.455653   7.396739   8.393202   4.977929
    39  C    8.576622   8.741379   8.681885   9.422602   6.139603
    40  H    8.523512   8.765007   8.707713   9.280046   6.165916
    41  H    9.171933   9.396634   9.165830  10.031252   6.743414
    42  H    9.181550   9.236206   9.346242  10.046428   6.743477
                   26         27         28         29         30
    26  O    0.000000
    27  N    2.252806   0.000000
    28  H    3.150062   1.010012   0.000000
    29  C    2.775349   1.448918   2.120901   0.000000
    30  H    2.787545   2.083667   2.828810   1.090003   0.000000
    31  C    2.936740   2.452778   3.194524   1.525021   2.139196
    32  H    3.474026   2.702692   3.202506   2.150230   3.041350
    33  H    3.813815   3.386954   4.082897   2.150239   2.459629
    34  H    2.268847   2.702699   3.605878   2.150241   2.466289
    35  C    4.264164   2.450214   2.528575   1.521970   2.136511
    36  O    4.840220   2.683426   2.268969   2.392848   3.085326
    37  N    5.166675   3.668279   3.857853   2.432735   2.707585
    38  H    5.058822   3.978960   4.391133   2.567967   2.595323
    39  C    6.569753   4.884627   4.856603   3.801906   4.090509
    40  H    6.783827   4.845570   4.592384   4.033946   4.461688
    41  H    7.106789   5.526304   5.539425   4.396915   4.435604
    42  H    7.106836   5.526375   5.539494   4.396968   4.779356
                   31         32         33         34         35
    31  C    0.000000
    32  H    1.089999   0.000000
    33  H    1.090032   1.779730   0.000000
    34  H    1.090025   1.779663   1.779690   0.000000
    35  C    2.461881   2.701254   2.668608   3.416650   0.000000
    36  O    3.417413   3.376884   3.791248   4.330037   1.229022
    37  N    2.895758   3.227547   2.558553   3.897182   1.335034
    38  H    2.692172   3.244078   2.038496   3.572194   2.037357
    39  C    4.249814   4.384247   3.844243   5.290893   2.434448
    40  H    4.671816   4.654272   4.491376   5.731221   2.520556
    41  H    4.958621   5.261453   4.460938   5.930550   3.137929
    42  H    4.494746   4.483044   3.950785   5.545594   3.138016
                   36         37         38         39         40
    36  O    0.000000
    37  N    2.252837   0.000000
    38  H    3.150103   1.009965   0.000000
    39  C    2.775372   1.449080   2.120979   0.000000
    40  H    2.337375   2.083851   2.986326   1.090016   0.000000
    41  H    3.519178   2.083781   2.484273   1.089999   1.779655
    42  H    3.519236   2.083849   2.484316   1.089996   1.779701
                   41         42
    41  H    0.000000
    42  H    1.779667   0.000000
 Stoichiometry    C12H22N4O4
 Framework group  C1[X(C12H22N4O4)]
 Deg. of freedom   120
 Full point group                 C1      NOp   1
 Largest Abelian subgroup         C1      NOp   1
 Largest concise Abelian subgroup C1      NOp   1
                         Standard orientation:                         
 ---------------------------------------------------------------------
 Center     Atomic      Atomic             Coordinates (Angstroms)
 Number     Number       Type             X           Y           Z
 ---------------------------------------------------------------------
      1          1           0       -7.227283   -1.712496    0.695412
      2          6           0       -6.598804   -0.863558    0.426302
      3          1           0       -6.752017   -0.056072    1.142263
      4          1           0       -6.863048   -0.517452   -0.572917
      5          6           0       -5.118366   -1.249793    0.434341
      6          8           0       -4.773903   -2.394436    0.719958
      7          7           0       -4.247903   -0.287874    0.119134
      8          1           0       -4.579614    0.638557   -0.108568
      9          6           0       -2.819163   -0.527362    0.091059
     10          1           0       -2.484123   -0.845619    1.078169
     11          6           0       -2.464475   -1.614501   -0.917898
     12          1           0       -2.785598   -1.306224   -1.912904
     13          1           0       -1.386088   -1.773251   -0.917730
     14          1           0       -2.967761   -2.542050   -0.645311
     15          6           0       -2.059914    0.733285   -0.297308
     16          8           0       -2.664060    1.775923   -0.538680
     17          7           0       -0.729849    0.635477   -0.357175
     18          1           0       -0.278301   -0.243870   -0.149856
     19          6           0        0.105697    1.763982   -0.714861
     20          1           0        0.251264    1.780935   -1.794957
     21          6           0       -0.537146    3.079755   -0.289067
     22          1           0       -0.681004    3.081537    0.791343
     23          1           0        0.111568    3.909288   -0.570104
     24          1           0       -1.502105    3.190098   -0.783791
     25          6           0        1.467677    1.672517   -0.041841
     26          8           0        1.846331    2.557099    0.722779
     27          7           0        2.205105    0.597147   -0.328413
     28          1           0        1.850476   -0.103645   -0.963434
     29          6           0        3.518870    0.393859    0.247835
     30          1           0        4.171804    1.219655   -0.034735
     31          6           0        3.446737    0.328421    1.769742
     32          1           0        2.803559   -0.499420    2.068239
     33          1           0        4.446937    0.175355    2.175132
     34          1           0        3.038094    1.262580    2.155115
     35          6           0        4.138086   -0.906233   -0.244836
     36          8           0        3.528908   -1.628967   -1.030363
     37          7           0        5.354049   -1.202863    0.219664
     38          1           0        5.814989   -0.576811    0.864352
     39          6           0        6.050082   -2.411468   -0.173586
     40          1           0        5.429716   -2.979357   -0.866971
     41          1           0        6.989712   -2.148402   -0.659372
     42          1           0        6.255114   -3.016909    0.709305
 ---------------------------------------------------------------------
 Rotational constants (GHZ):      0.5789065      0.1256091      0.1092323
 Standard basis: 6-31G(d) (6D, 7F)
 There are   344 symmetry adapted basis functions of A   symmetry.
 Integral buffers will be    131072 words long.
 Raffenetti 2 integral format.
 Two-electron integral symmetry is turned on.
   344 basis functions,   648 primitive gaussians,   344 cartesian basis functions
    77 alpha electrons       77 beta electrons
       nuclear repulsion energy      1605.6379102945 Hartrees.
 NAtoms=   42 NActive=   42 NUniq=   42 SFac= 7.50D-01 NAtFMM=   80 NAOKFM=F Big=F
 One-electron integrals computed using PRISM.
 NBasis=   344 RedAO= T  NBF=   344
 NBsUse=   344 1.00D-06 NBFU=   344
 Harris functional with IExCor=  402 diagonalized for initial guess.
 ExpMin= 1.61D-01 ExpMax= 5.48D+03 ExpMxC= 8.25D+02 IAcc=1 IRadAn=         1 AccDes= 0.00D+00
 HarFok:  IExCor=  402 AccDes= 0.00D+00 IRadAn=         1 IDoV= 1
 ScaDFX=  1.000000  1.000000  1.000000  1.000000
 FoFCou: FMM=F IPFlag=           0 FMFlag=      100000 FMFlg1=           0
         NFxFlg=           0 DoJE=T BraDBF=F KetDBF=T FulRan=T
         Omega=  0.000000  0.000000  1.000000  0.000000  0.000000 ICntrl=     500 IOpCl=  0
         NMat0=    1 NMatS0=    1 NMatT0=    0 NMatD0=    1 NMtDS0=    0 NMtDT0=    0
         I1Cent=           4 NGrid=           0.
 Petite list used in FoFCou.
 Initial guess orbital symmetries:
       Occupied  (A) (A) (A) (A) (A) (A) (A) (A) (A) (A) (A) (A)
                 (A) (A) (A) (A) (A) (A) (A) (A) (A) (A) (A) (A)
                 (A) (A) (A) (A) (A) (A) (A) (A) (A) (A) (A) (A)
                 (A) (A) (A) (A) (A) (A) (A) (A) (A) (A) (A) (A)
                 (A) (A) (A) (A) (A) (A) (A) (A) (A) (A) (A) (A)
                 (A) (A) (A) (A) (A) (A) (A) (A) (A) (A) (A) (A)
                 (A) (A) (A) (A) (A)
       Virtual   (A) (A) (A) (A) (A) (A) (A) (A) (A) (A) (A) (A)
                 (A) (A) (A) (A) (A) (A) (A) (A) (A) (A) (A) (A)
                 (A) (A) (A) (A) (A) (A) (A) (A) (A) (A) (A) (A)
                 (A) (A) (A) (A) (A) (A) (A) (A) (A) (A) (A) (A)
                 (A) (A) (A) (A) (A) (A) (A) (A) (A) (A) (A) (A)
                 (A) (A) (A) (A) (A) (A) (A) (A) (A) (A) (A) (A)
                 (A) (A) (A) (A) (A) (A) (A) (A) (A) (A) (A) (A)
                 (A) (A) (A) (A) (A) (A) (A) (A) (A) (A) (A) (A)
                 (A) (A) (A) (A) (A) (A) (A) (A) (A) (A) (A) (A)
                 (A) (A) (A) (A) (A) (A) (A) (A) (A) (A) (A) (A)
                 (A) (A) (A) (A) (A) (A) (A) (A) (A) (A) (A) (A)
                 (A) (A) (A) (A) (A) (A) (A) (A) (A) (A) (A) (A)
                 (A) (A) (A) (A) (A) (A) (A) (A) (A) (A) (A) (A)
                 (A) (A) (A) (A) (A) (A) (A) (A) (A) (A) (A) (A)
                 (A) (A) (A) (A) (A) (A) (A) (A) (A) (A) (A) (A)
                 (A) (A) (A) (A) (A) (A) (A) (A) (A) (A) (A) (A)
                 (A) (A) (A) (A) (A) (A) (A) (A) (A) (A) (A) (A)
                 (A) (A) (A) (A) (A) (A) (A) (A) (A) (A) (A) (A)
                 (A) (A) (A) (A) (A) (A) (A) (A) (A) (A) (A) (A)
                 (A) (A) (A) (A) (A) (A) (A) (A) (A) (A) (A) (A)
                 (A) (A) (A) (A) (A) (A) (A) (A) (A) (A) (A) (A)
                 (A) (A) (A) (A) (A) (A) (A) (A) (A) (A) (A) (A)
                 (A) (A) (A)
 The electronic state of the initial guess is 1-A.
 Requested convergence on RMS density matrix=1.00D-08 within 128 cycles.
 Requested convergence on MAX density matrix=1.00D-06.
 Requested convergence on             energy=1.00D-06.
 No special actions if energy rises.
 Integral accuracy reduced to 1.0D-05 until final iterations.
 Initial convergence to 1.0D-05 achieved.  Increase integral accuracy.
 SCF Done:  E(RB3LYP) =  -990.467041373     A.U. after   15 cycles
             Convg  =    0.5213D-08             -V/T =  2.0085
 Range of M.O.s used for correlation:     1   344
 NBasis=   344 NAE=    77 NBE=    77 NFC=     0 NFV=     0
 NROrb=    344 NOA=    77 NOB=    77 NVA=   267 NVB=   267
 Symmetrizing basis deriv contribution to polar:
 IMax=3 JMax=2 DiffMx= 0.00D+00
 G2DrvN: will do    43 centers at a time, making    1 passes doing MaxLOS=2.
 Calling FoFCou, ICntrl=  3107 FMM=F I1Cent=   0 AccDes= 0.00D+00.
 FoFDir/FoFCou used for L=0 through L=2.
 End of G2Drv Frequency-dependent properties file   721 does not exist.
 End of G2Drv Frequency-dependent properties file   722 does not exist.
          IDoAtm=111111111111111111111111111111111111111111
          Differentiating once with respect to nuclear coordinates.
          There are   129 degrees of freedom in the 1st order CPHF.  IDoFFX=5.
    123 vectors produced by pass  0 Test12= 2.06D-10 1.00D-07 XBig12= 2.01D-01 7.63D-02.
 AX will form   123 AO Fock derivatives at one time.
    123 vectors produced by pass  1 Test12= 2.06D-10 1.00D-07 XBig12= 6.16D-02 6.59D-02.
    123 vectors produced by pass  2 Test12= 2.06D-10 1.00D-07 XBig12= 3.98D-05 9.01D-04.
    123 vectors produced by pass  3 Test12= 2.06D-10 1.00D-07 XBig12= 1.12D-07 5.40D-05.
     65 vectors produced by pass  4 Test12= 2.06D-10 1.00D-07 XBig12= 1.21D-10 1.22D-06.
 Inverted reduced A of dimension   557 with in-core refinement.
 End of Minotr Frequency-dependent properties file   721 does not exist.
 End of Minotr Frequency-dependent properties file   722 does not exist.

 **********************************************************************

            Population analysis using the SCF density.

 **********************************************************************

 Orbital symmetries:
       Occupied  (A) (A) (A) (A) (A) (A) (A) (A) (A) (A) (A) (A)
                 (A) (A) (A) (A) (A) (A) (A) (A) (A) (A) (A) (A)
                 (A) (A) (A) (A) (A) (A) (A) (A) (A) (A) (A) (A)
                 (A) (A) (A) (A) (A) (A) (A) (A) (A) (A) (A) (A)
                 (A) (A) (A) (A) (A) (A) (A) (A) (A) (A) (A) (A)
                 (A) (A) (A) (A) (A) (A) (A) (A) (A) (A) (A) (A)
                 (A) (A) (A) (A) (A)
       Virtual   (A) (A) (A) (A) (A) (A) (A) (A) (A) (A) (A) (A)
                 (A) (A) (A) (A) (A) (A) (A) (A) (A) (A) (A) (A)
                 (A) (A) (A) (A) (A) (A) (A) (A) (A) (A) (A) (A)
                 (A) (A) (A) (A) (A) (A) (A) (A) (A) (A) (A) (A)
                 (A) (A) (A) (A) (A) (A) (A) (A) (A) (A) (A) (A)
                 (A) (A) (A) (A) (A) (A) (A) (A) (A) (A) (A) (A)
                 (A) (A) (A) (A) (A) (A) (A) (A) (A) (A) (A) (A)
                 (A) (A) (A) (A) (A) (A) (A) (A) (A) (A) (A) (A)
                 (A) (A) (A) (A) (A) (A) (A) (A) (A) (A) (A) (A)
                 (A) (A) (A) (A) (A) (A) (A) (A) (A) (A) (A) (A)
                 (A) (A) (A) (A) (A) (A) (A) (A) (A) (A) (A) (A)
                 (A) (A) (A) (A) (A) (A) (A) (A) (A) (A) (A) (A)
                 (A) (A) (A) (A) (A) (A) (A) (A) (A) (A) (A) (A)
                 (A) (A) (A) (A) (A) (A) (A) (A) (A) (A) (A) (A)
                 (A) (A) (A) (A) (A) (A) (A) (A) (A) (A) (A) (A)
                 (A) (A) (A) (A) (A) (A) (A) (A) (A) (A) (A) (A)
                 (A) (A) (A) (A) (A) (A) (A) (A) (A) (A) (A) (A)
                 (A) (A) (A) (A) (A) (A) (A) (A) (A) (A) (A) (A)
                 (A) (A) (A) (A) (A) (A) (A) (A) (A) (A) (A) (A)
                 (A) (A) (A) (A) (A) (A) (A) (A) (A) (A) (A) (A)
                 (A) (A) (A) (A) (A) (A) (A) (A) (A) (A) (A) (A)
                 (A) (A) (A) (A) (A) (A) (A) (A) (A) (A) (A) (A)
                 (A) (A) (A)
 The electronic state is 1-A.
 Alpha  occ. eigenvalues --  -19.12864 -19.11828 -19.11639 -19.09571 -14.38326
 Alpha  occ. eigenvalues --  -14.37701 -14.37350 -14.35266 -10.30246 -10.29580
 Alpha  occ. eigenvalues --  -10.29028 -10.27546 -10.24940 -10.23649 -10.23631
 Alpha  occ. eigenvalues --  -10.23240 -10.19058 -10.18238 -10.17852 -10.15072
 Alpha  occ. eigenvalues --   -1.05605  -1.05138  -1.04068  -1.02091  -0.94823
 Alpha  occ. eigenvalues --   -0.94577  -0.93601  -0.92034  -0.80671  -0.78990
 Alpha  occ. eigenvalues --   -0.75692  -0.72460  -0.71989  -0.67923  -0.66003
 Alpha  occ. eigenvalues --   -0.64042  -0.61298  -0.59758  -0.58553  -0.57523
 Alpha  occ. eigenvalues --   -0.57237  -0.53752  -0.51043  -0.50095  -0.49589
 Alpha  occ. eigenvalues --   -0.48820  -0.47216  -0.46817  -0.45311  -0.44894
 Alpha  occ. eigenvalues --   -0.44635  -0.43580  -0.43119  -0.41702  -0.41382
 Alpha  occ. eigenvalues --   -0.41245  -0.41067  -0.40678  -0.39305  -0.38738
 Alpha  occ. eigenvalues --   -0.38381  -0.38121  -0.38031  -0.37033  -0.36711
 Alpha  occ. eigenvalues --   -0.36430  -0.36101  -0.34981  -0.34172  -0.27717
 Alpha  occ. eigenvalues --   -0.27498  -0.27013  -0.26353  -0.25131  -0.24559
 Alpha  occ. eigenvalues --   -0.24356  -0.23300
 Alpha virt. eigenvalues --    0.00766   0.01578   0.02414   0.03960   0.04994
 Alpha virt. eigenvalues --    0.05731   0.09983   0.10734   0.11121   0.12106
 Alpha virt. eigenvalues --    0.12902   0.13808   0.14078   0.14181   0.14643
 Alpha virt. eigenvalues --    0.15272   0.15531   0.15917   0.16231   0.16814
 Alpha virt. eigenvalues --    0.17766   0.18102   0.18641   0.18933   0.19205
 Alpha virt. eigenvalues --    0.19714   0.20187   0.20646   0.21811   0.22655
 Alpha virt. eigenvalues --    0.23242   0.24333   0.25032   0.25178   0.26462
 Alpha virt. eigenvalues --    0.29487   0.29697   0.33403   0.33586   0.34875
 Alpha virt. eigenvalues --    0.37368   0.39643   0.41477   0.42256   0.43418
 Alpha virt. eigenvalues --    0.49220   0.50425   0.50978   0.51358   0.51617
 Alpha virt. eigenvalues --    0.52603   0.52818   0.53415   0.54315   0.54749
 Alpha virt. eigenvalues --    0.55039   0.55895   0.56849   0.57367   0.58733
 Alpha virt. eigenvalues --    0.59507   0.60828   0.61606   0.63164   0.63906
 Alpha virt. eigenvalues --    0.64378   0.65115   0.65882   0.67308   0.67622
 Alpha virt. eigenvalues --    0.68543   0.69318   0.70475   0.71319   0.72617
 Alpha virt. eigenvalues --    0.73340   0.73984   0.74325   0.75269   0.77003
 Alpha virt. eigenvalues --    0.77736   0.78894   0.79052   0.80225   0.81829
 Alpha virt. eigenvalues --    0.82772   0.83522   0.84253   0.84611   0.85184
 Alpha virt. eigenvalues --    0.86289   0.86929   0.87287   0.87743   0.88314
 Alpha virt. eigenvalues --    0.88386   0.89079   0.89586   0.90366   0.90672
 Alpha virt. eigenvalues --    0.91365   0.91892   0.92388   0.92933   0.93276
 Alpha virt. eigenvalues --    0.94280   0.94832   0.95201   0.95952   0.97228
 Alpha virt. eigenvalues --    0.97536   0.98836   1.00275   1.00934   1.03052
 Alpha virt. eigenvalues --    1.03234   1.04923   1.06161   1.08418   1.08780
 Alpha virt. eigenvalues --    1.10813   1.11055   1.12437   1.13791   1.16209
 Alpha virt. eigenvalues --    1.18029   1.22819   1.24862   1.26471   1.28374
 Alpha virt. eigenvalues --    1.28599   1.30136   1.30237   1.32643   1.34199
 Alpha virt. eigenvalues --    1.34930   1.36437   1.37823   1.38180   1.42535
 Alpha virt. eigenvalues --    1.43434   1.44720   1.46579   1.47003   1.47517
 Alpha virt. eigenvalues --    1.50002   1.50829   1.52179   1.54288   1.58989
 Alpha virt. eigenvalues --    1.62928   1.63496   1.67302   1.69346   1.69550
 Alpha virt. eigenvalues --    1.70813   1.72402   1.74676   1.75291   1.76573
 Alpha virt. eigenvalues --    1.77336   1.79882   1.81041   1.81537   1.82426
 Alpha virt. eigenvalues --    1.82917   1.83286   1.84412   1.84823   1.85001
 Alpha virt. eigenvalues --    1.86042   1.86896   1.87384   1.88985   1.89706
 Alpha virt. eigenvalues --    1.90761   1.91639   1.92538   1.93578   1.95244
 Alpha virt. eigenvalues --    1.96094   1.97620   1.97983   1.99592   2.01349
 Alpha virt. eigenvalues --    2.02562   2.03168   2.04602   2.04848   2.06043
 Alpha virt. eigenvalues --    2.07709   2.09283   2.11353   2.13754   2.15018
 Alpha virt. eigenvalues --    2.17328   2.18994   2.19817   2.23680   2.24206
 Alpha virt. eigenvalues --    2.24813   2.26959   2.27360   2.28571   2.28723
 Alpha virt. eigenvalues --    2.29272   2.30476   2.32050   2.33210   2.34778
 Alpha virt. eigenvalues --    2.35795   2.36869   2.39221   2.40222   2.41574
 Alpha virt. eigenvalues --    2.44193   2.44411   2.46302   2.47109   2.50872
 Alpha virt. eigenvalues --    2.54670   2.55197   2.57628   2.59435   2.60783
 Alpha virt. eigenvalues --    2.63642   2.64582   2.67077   2.70201   2.70491
 Alpha virt. eigenvalues --    2.72518   2.73183   2.76318   2.80443   2.85120
 Alpha virt. eigenvalues --    2.87780   2.89694   2.93678   2.95591   2.97688
 Alpha virt. eigenvalues --    2.98348   3.00783   3.05665   3.14796   3.17284
 Alpha virt. eigenvalues --    3.22611   3.25504   3.94078   3.96503   4.01558
 Alpha virt. eigenvalues --    4.02891   4.05358   4.07504   4.11574   4.16927
 Alpha virt. eigenvalues --    4.20826   4.22426   4.27389   4.28190   4.30180
 Alpha virt. eigenvalues --    4.39672   4.43225   4.45553   4.47004   4.57730
 Alpha virt. eigenvalues --    4.62235   4.68568
          Condensed to atoms (all electrons):
              1          2          3          4          5          6
     1  H    0.505644   0.360446  -0.021620  -0.021602  -0.018268   0.005041
     2  C    0.360446   5.324886   0.351314   0.351716   0.358231  -0.079267
     3  H   -0.021620   0.351314   0.549411  -0.026584  -0.025125   0.001461
     4  H   -0.021602   0.351716  -0.026584   0.551419  -0.026602   0.001294
     5  C   -0.018268   0.358231  -0.025125  -0.026602   4.337124   0.592779
     6  O    0.005041  -0.079267   0.001461   0.001294   0.592779   8.084902
     7  N    0.004597  -0.135080   0.004187   0.004586   0.227046  -0.107884
     8  H   -0.000145  -0.001149   0.001166   0.000865  -0.016095   0.003066
     9  C   -0.000147   0.007373  -0.000275   0.000007  -0.021262   0.013355
    10  H    0.000002   0.000151  -0.000019  -0.000002  -0.001293   0.004903
    11  C    0.000014  -0.000752   0.000017   0.000031  -0.006339  -0.018417
    12  H    0.000000  -0.000004  -0.000001   0.000002   0.000898  -0.000166
    13  H    0.000000   0.000007   0.000000  -0.000001   0.000344   0.000333
    14  H    0.000000   0.000616  -0.000008  -0.000055   0.003082   0.023678
    15  C    0.000000  -0.000036  -0.000017  -0.000014   0.006632   0.000838
    16  O    0.000000  -0.000047   0.000000  -0.000001   0.000503  -0.000005
    17  N    0.000000   0.000001   0.000000   0.000000  -0.000074  -0.000003
    18  H    0.000000   0.000000   0.000000   0.000000   0.000002   0.000003
    19  C    0.000000   0.000000   0.000000   0.000000   0.000001   0.000000
    20  H    0.000000   0.000000   0.000000   0.000000   0.000000   0.000000
    21  C    0.000000   0.000000   0.000000   0.000000   0.000000   0.000000
    22  H    0.000000   0.000000   0.000000   0.000000   0.000000   0.000000
    23  H    0.000000   0.000000   0.000000   0.000000   0.000000   0.000000
    24  H    0.000000   0.000000   0.000000   0.000000   0.000000   0.000000
    25  C    0.000000   0.000000   0.000000   0.000000   0.000000   0.000000
    26  O    0.000000   0.000000   0.000000   0.000000   0.000000   0.000000
    27  N    0.000000   0.000000   0.000000   0.000000   0.000000   0.000000
    28  H    0.000000   0.000000   0.000000   0.000000   0.000000   0.000000
    29  C    0.000000   0.000000   0.000000   0.000000   0.000000   0.000000
    30  H    0.000000   0.000000   0.000000   0.000000   0.000000   0.000000
    31  C    0.000000   0.000000   0.000000   0.000000   0.000000   0.000000
    32  H    0.000000   0.000000   0.000000   0.000000   0.000000   0.000000
    33  H    0.000000   0.000000   0.000000   0.000000   0.000000   0.000000
    34  H    0.000000   0.000000   0.000000   0.000000   0.000000   0.000000
    35  C    0.000000   0.000000   0.000000   0.000000   0.000000   0.000000
    36  O    0.000000   0.000000   0.000000   0.000000   0.000000   0.000000
    37  N    0.000000   0.000000   0.000000   0.000000   0.000000   0.000000
    38  H    0.000000   0.000000   0.000000   0.000000   0.000000   0.000000
    39  C    0.000000   0.000000   0.000000   0.000000   0.000000   0.000000
    40  H    0.000000   0.000000   0.000000   0.000000   0.000000   0.000000
    41  H    0.000000   0.000000   0.000000   0.000000   0.000000   0.000000
    42  H    0.000000   0.000000   0.000000   0.000000   0.000000   0.000000
              7          8          9         10         11         12
     1  H    0.004597  -0.000145  -0.000147   0.000002   0.000014   0.000000
     2  C   -0.135080  -0.001149   0.007373   0.000151  -0.000752  -0.000004
     3  H    0.004187   0.001166  -0.000275  -0.000019   0.000017  -0.000001
     4  H    0.004586   0.000865   0.000007  -0.000002   0.000031   0.000002
     5  C    0.227046  -0.016095  -0.021262  -0.001293  -0.006339   0.000898
     6  O   -0.107884   0.003066   0.013355   0.004903  -0.018417  -0.000166
     7  N    7.197993   0.290782   0.249203  -0.049172  -0.054975   0.000060
     8  H    0.290782   0.387882  -0.051132   0.004198   0.004407   0.000640
     9  C    0.249203  -0.051132   5.073166   0.372081   0.347273  -0.037021
    10  H   -0.049172   0.004198   0.372081   0.581017  -0.050771   0.006239
    11  C   -0.054975   0.004407   0.347273  -0.050771   5.205406   0.367702
    12  H    0.000060   0.000640  -0.037021   0.006239   0.367702   0.562541
    13  H    0.005201  -0.000130  -0.035872  -0.000124   0.350690  -0.027043
    14  H   -0.010592  -0.000289  -0.021177  -0.005954   0.360172  -0.025490
    15  C   -0.026274   0.000936   0.319039  -0.036592  -0.045892  -0.003097
    16  O   -0.009623   0.030134  -0.078364   0.001027  -0.000876   0.000921
    17  N    0.003318   0.001326  -0.121652   0.001423   0.002748  -0.000432
    18  H    0.000070  -0.000041  -0.000630   0.001046   0.001420  -0.000113
    19  C   -0.000063  -0.000010   0.004099   0.000009   0.000018  -0.000033
    20  H    0.000002   0.000001   0.000000   0.000000   0.000000   0.000012
    21  C    0.000006   0.000048  -0.000790  -0.000008   0.000023   0.000001
    22  H    0.000001   0.000003  -0.000094   0.000013   0.000001   0.000000
    23  H    0.000000  -0.000001   0.000023  -0.000001   0.000000   0.000000
    24  H   -0.000007   0.000010   0.000592  -0.000005  -0.000039   0.000000
    25  C    0.000000   0.000000  -0.000137   0.000014  -0.000021   0.000001
    26  O    0.000000   0.000000   0.000001   0.000000   0.000000   0.000000
    27  N    0.000000   0.000000  -0.000030   0.000000   0.000001   0.000000
    28  H    0.000000   0.000000  -0.000002  -0.000002  -0.000014   0.000000
    29  C    0.000000   0.000000   0.000000   0.000000   0.000000   0.000000
    30  H    0.000000   0.000000   0.000000   0.000000   0.000000   0.000000
    31  C    0.000000   0.000000   0.000000   0.000000   0.000000   0.000000
    32  H    0.000000   0.000000   0.000000   0.000000   0.000000   0.000000
    33  H    0.000000   0.000000   0.000000   0.000000   0.000000   0.000000
    34  H    0.000000   0.000000   0.000000   0.000000   0.000000   0.000000
    35  C    0.000000   0.000000   0.000000   0.000000   0.000000   0.000000
    36  O    0.000000   0.000000   0.000000   0.000000   0.000000   0.000000
    37  N    0.000000   0.000000   0.000000   0.000000   0.000000   0.000000
    38  H    0.000000   0.000000   0.000000   0.000000   0.000000   0.000000
    39  C    0.000000   0.000000   0.000000   0.000000   0.000000   0.000000
    40  H    0.000000   0.000000   0.000000   0.000000   0.000000   0.000000
    41  H    0.000000   0.000000   0.000000   0.000000   0.000000   0.000000
    42  H    0.000000   0.000000   0.000000   0.000000   0.000000   0.000000
             13         14         15         16         17         18
     1  H    0.000000   0.000000   0.000000   0.000000   0.000000   0.000000
     2  C    0.000007   0.000616  -0.000036  -0.000047   0.000001   0.000000
     3  H    0.000000  -0.000008  -0.000017   0.000000   0.000000   0.000000
     4  H   -0.000001  -0.000055  -0.000014  -0.000001   0.000000   0.000000
     5  C    0.000344   0.003082   0.006632   0.000503  -0.000074   0.000002
     6  O    0.000333   0.023678   0.000838  -0.000005  -0.000003   0.000003
     7  N    0.005201  -0.010592  -0.026274  -0.009623   0.003318   0.000070
     8  H   -0.000130  -0.000289   0.000936   0.030134   0.001326  -0.000041
     9  C   -0.035872  -0.021177   0.319039  -0.078364  -0.121652  -0.000630
    10  H   -0.000124  -0.005954  -0.036592   0.001027   0.001423   0.001046
    11  C    0.350690   0.360172  -0.045892  -0.000876   0.002748   0.001420
    12  H   -0.027043  -0.025490  -0.003097   0.000921  -0.000432  -0.000113
    13  H    0.601343  -0.020810  -0.008922  -0.000041   0.004332   0.006902
    14  H   -0.020810   0.480528   0.004080  -0.000078   0.000190  -0.000239
    15  C   -0.008922   0.004080   4.388230   0.563426   0.257227  -0.017169
    16  O   -0.000041  -0.000078   0.563426   8.162650  -0.101001   0.003564
    17  N    0.004332   0.000190   0.257227  -0.101001   7.201821   0.289174
    18  H    0.006902  -0.000239  -0.017169   0.003564   0.289174   0.405178
    19  C    0.000296   0.000004  -0.030044  -0.000244   0.224345  -0.039606
    20  H   -0.000012  -0.000002  -0.002894   0.000743  -0.057143   0.002726
    21  C    0.000001   0.000000  -0.003376  -0.046730  -0.047035   0.004644
    22  H    0.000000   0.000000   0.001721  -0.002876  -0.001592   0.000064
    23  H    0.000000   0.000000   0.000840   0.002328   0.004071  -0.000102
    24  H   -0.000002   0.000000  -0.003414   0.011958  -0.003916  -0.000256
    25  C   -0.000018   0.000000   0.002556   0.000372  -0.025401  -0.004085
    26  O    0.000000   0.000000  -0.000153  -0.000001   0.000352  -0.000221
    27  N   -0.000086   0.000000   0.000443  -0.000003  -0.003026   0.013202
    28  H    0.000122   0.000001   0.000015   0.000003   0.001632   0.002020
    29  C   -0.000001   0.000000   0.000005   0.000000   0.000130  -0.000400
    30  H    0.000000   0.000000   0.000001   0.000000  -0.000002   0.000033
    31  C    0.000000   0.000000  -0.000003   0.000000  -0.000003  -0.000050
    32  H   -0.000001   0.000000   0.000003   0.000000  -0.000006   0.000191
    33  H    0.000000   0.000000   0.000000   0.000000   0.000000   0.000001
    34  H    0.000000   0.000000   0.000000   0.000000  -0.000030  -0.000024
    35  C    0.000001   0.000000   0.000000   0.000000  -0.000006  -0.000026
    36  O    0.000003   0.000000   0.000000   0.000000  -0.000002  -0.000034
    37  N    0.000000   0.000000   0.000000   0.000000   0.000000  -0.000001
    38  H    0.000000   0.000000   0.000000   0.000000   0.000000   0.000000
    39  C    0.000000   0.000000   0.000000   0.000000   0.000000   0.000000
    40  H    0.000000   0.000000   0.000000   0.000000   0.000000   0.000000
    41  H    0.000000   0.000000   0.000000   0.000000   0.000000   0.000000
    42  H    0.000000   0.000000   0.000000   0.000000   0.000000   0.000000
             19         20         21         22         23         24
     1  H    0.000000   0.000000   0.000000   0.000000   0.000000   0.000000
     2  C    0.000000   0.000000   0.000000   0.000000   0.000000   0.000000
     3  H    0.000000   0.000000   0.000000   0.000000   0.000000   0.000000
     4  H    0.000000   0.000000   0.000000   0.000000   0.000000   0.000000
     5  C    0.000001   0.000000   0.000000   0.000000   0.000000   0.000000
     6  O    0.000000   0.000000   0.000000   0.000000   0.000000   0.000000
     7  N   -0.000063   0.000002   0.000006   0.000001   0.000000  -0.000007
     8  H   -0.000010   0.000001   0.000048   0.000003  -0.000001   0.000010
     9  C    0.004099   0.000000  -0.000790  -0.000094   0.000023   0.000592
    10  H    0.000009   0.000000  -0.000008   0.000013  -0.000001  -0.000005
    11  C    0.000018   0.000000   0.000023   0.000001   0.000000  -0.000039
    12  H   -0.000033   0.000012   0.000001   0.000000   0.000000   0.000000
    13  H    0.000296  -0.000012   0.000001   0.000000   0.000000  -0.000002
    14  H    0.000004  -0.000002   0.000000   0.000000   0.000000   0.000000
    15  C   -0.030044  -0.002894  -0.003376   0.001721   0.000840  -0.003414
    16  O   -0.000244   0.000743  -0.046730  -0.002876   0.002328   0.011958
    17  N    0.224345  -0.057143  -0.047035  -0.001592   0.004071  -0.003916
    18  H   -0.039606   0.002726   0.004644   0.000064  -0.000102  -0.000256
    19  C    5.099969   0.368463   0.384379  -0.033377  -0.028301  -0.023431
    20  H    0.368463   0.600754  -0.040895   0.005897  -0.002111  -0.002096
    21  C    0.384379  -0.040895   5.133927   0.380341   0.350975   0.355316
    22  H   -0.033377   0.005897   0.380341   0.551919  -0.025578  -0.026096
    23  H   -0.028301  -0.002111   0.350975  -0.025578   0.581598  -0.024180
    24  H   -0.023431  -0.002096   0.355316  -0.026096  -0.024180   0.502346
    25  C    0.316381  -0.038103  -0.036592  -0.007580  -0.003747   0.004839
    26  O   -0.086427   0.001812  -0.002991   0.004763   0.002742   0.001009
    27  N   -0.127804  -0.000140   0.005634   0.000179   0.000181  -0.000051
    28  H    0.000557   0.000481   0.000080   0.000000  -0.000005  -0.000016
    29  C    0.007749  -0.000336  -0.000175  -0.000013   0.000003   0.000001
    30  H   -0.000028  -0.000011  -0.000005   0.000000   0.000001   0.000000
    31  C   -0.000698   0.000012   0.000024   0.000004   0.000001   0.000000
    32  H   -0.000041   0.000000   0.000000   0.000000   0.000000   0.000000
    33  H    0.000005   0.000000   0.000000   0.000000   0.000000   0.000000
    34  H    0.000648  -0.000010  -0.000006  -0.000008  -0.000001   0.000000
    35  C   -0.000040  -0.000023   0.000000   0.000000   0.000000   0.000000
    36  O   -0.000078   0.000000   0.000000   0.000000   0.000000   0.000000
    37  N    0.000000   0.000000   0.000000   0.000000   0.000000   0.000000
    38  H    0.000000   0.000000   0.000000   0.000000   0.000000   0.000000
    39  C    0.000000   0.000000   0.000000   0.000000   0.000000   0.000000
    40  H    0.000000   0.000000   0.000000   0.000000   0.000000   0.000000
    41  H    0.000000   0.000000   0.000000   0.000000   0.000000   0.000000
    42  H    0.000000   0.000000   0.000000   0.000000   0.000000   0.000000
             25         26         27         28         29         30
     1  H    0.000000   0.000000   0.000000   0.000000   0.000000   0.000000
     2  C    0.000000   0.000000   0.000000   0.000000   0.000000   0.000000
     3  H    0.000000   0.000000   0.000000   0.000000   0.000000   0.000000
     4  H    0.000000   0.000000   0.000000   0.000000   0.000000   0.000000
     5  C    0.000000   0.000000   0.000000   0.000000   0.000000   0.000000
     6  O    0.000000   0.000000   0.000000   0.000000   0.000000   0.000000
     7  N    0.000000   0.000000   0.000000   0.000000   0.000000   0.000000
     8  H    0.000000   0.000000   0.000000   0.000000   0.000000   0.000000
     9  C   -0.000137   0.000001  -0.000030  -0.000002   0.000000   0.000000
    10  H    0.000014   0.000000   0.000000  -0.000002   0.000000   0.000000
    11  C   -0.000021   0.000000   0.000001  -0.000014   0.000000   0.000000
    12  H    0.000001   0.000000   0.000000   0.000000   0.000000   0.000000
    13  H   -0.000018   0.000000  -0.000086   0.000122  -0.000001   0.000000
    14  H    0.000000   0.000000   0.000000   0.000001   0.000000   0.000000
    15  C    0.002556  -0.000153   0.000443   0.000015   0.000005   0.000001
    16  O    0.000372  -0.000001  -0.000003   0.000003   0.000000   0.000000
    17  N   -0.025401   0.000352  -0.003026   0.001632   0.000130  -0.000002
    18  H   -0.004085  -0.000221   0.013202   0.002020  -0.000400   0.000033
    19  C    0.316381  -0.086427  -0.127804   0.000557   0.007749  -0.000028
    20  H   -0.038103   0.001812  -0.000140   0.000481  -0.000336  -0.000011
    21  C   -0.036592  -0.002991   0.005634   0.000080  -0.000175  -0.000005
    22  H   -0.007580   0.004763   0.000179   0.000000  -0.000013   0.000000
    23  H   -0.003747   0.002742   0.000181  -0.000005   0.000003   0.000001
    24  H    0.004839   0.001009  -0.000051  -0.000016   0.000001   0.000000
    25  C    4.397722   0.570267   0.252412  -0.021788  -0.022839  -0.001773
    26  O    0.570267   8.106543  -0.101926   0.003052   0.012813   0.004648
    27  N    0.252412  -0.101926   7.195826   0.285807   0.243397  -0.048188
    28  H   -0.021788   0.003052   0.285807   0.391428  -0.050497   0.003757
    29  C   -0.022839   0.012813   0.243397  -0.050497   5.102784   0.372250
    30  H   -0.001773   0.004648  -0.048188   0.003757   0.372250   0.572602
    31  C   -0.004957  -0.017258  -0.055742   0.004807   0.348546  -0.049216
    32  H    0.000701  -0.000176  -0.000025   0.000548  -0.037570   0.006164
    33  H    0.000273   0.000295   0.005171  -0.000129  -0.035984  -0.000218
    34  H    0.002787   0.021477  -0.009664  -0.000279  -0.021740  -0.006002
    35  C    0.005888   0.000656  -0.025499   0.000641   0.306038  -0.032941
    36  O    0.000869  -0.000004  -0.008980   0.033400  -0.090596   0.001260
    37  N   -0.000056  -0.000001   0.003343   0.001323  -0.122559   0.000827
    38  H    0.000001   0.000003   0.000047  -0.000053   0.000931   0.001022
    39  C    0.000001   0.000000  -0.000068  -0.000012   0.005761  -0.000262
    40  H    0.000000   0.000000  -0.000001  -0.000033   0.001188  -0.000034
    41  H    0.000000   0.000000   0.000000   0.000000  -0.000198   0.000020
    42  H    0.000000   0.000000   0.000001   0.000000  -0.000029  -0.000006
             31         32         33         34         35         36
     1  H    0.000000   0.000000   0.000000   0.000000   0.000000   0.000000
     2  C    0.000000   0.000000   0.000000   0.000000   0.000000   0.000000
     3  H    0.000000   0.000000   0.000000   0.000000   0.000000   0.000000
     4  H    0.000000   0.000000   0.000000   0.000000   0.000000   0.000000
     5  C    0.000000   0.000000   0.000000   0.000000   0.000000   0.000000
     6  O    0.000000   0.000000   0.000000   0.000000   0.000000   0.000000
     7  N    0.000000   0.000000   0.000000   0.000000   0.000000   0.000000
     8  H    0.000000   0.000000   0.000000   0.000000   0.000000   0.000000
     9  C    0.000000   0.000000   0.000000   0.000000   0.000000   0.000000
    10  H    0.000000   0.000000   0.000000   0.000000   0.000000   0.000000
    11  C    0.000000   0.000000   0.000000   0.000000   0.000000   0.000000
    12  H    0.000000   0.000000   0.000000   0.000000   0.000000   0.000000
    13  H    0.000000  -0.000001   0.000000   0.000000   0.000001   0.000003
    14  H    0.000000   0.000000   0.000000   0.000000   0.000000   0.000000
    15  C   -0.000003   0.000003   0.000000   0.000000   0.000000   0.000000
    16  O    0.000000   0.000000   0.000000   0.000000   0.000000   0.000000
    17  N   -0.000003  -0.000006   0.000000  -0.000030  -0.000006  -0.000002
    18  H   -0.000050   0.000191   0.000001  -0.000024  -0.000026  -0.000034
    19  C   -0.000698  -0.000041   0.000005   0.000648  -0.000040  -0.000078
    20  H    0.000012   0.000000   0.000000  -0.000010  -0.000023   0.000000
    21  C    0.000024   0.000000   0.000000  -0.000006   0.000000   0.000000
    22  H    0.000004   0.000000   0.000000  -0.000008   0.000000   0.000000
    23  H    0.000001   0.000000   0.000000  -0.000001   0.000000   0.000000
    24  H    0.000000   0.000000   0.000000   0.000000   0.000000   0.000000
    25  C   -0.004957   0.000701   0.000273   0.002787   0.005888   0.000869
    26  O   -0.017258  -0.000176   0.000295   0.021477   0.000656  -0.000004
    27  N   -0.055742  -0.000025   0.005171  -0.009664  -0.025499  -0.008980
    28  H    0.004807   0.000548  -0.000129  -0.000279   0.000641   0.033400
    29  C    0.348546  -0.037570  -0.035984  -0.021740   0.306038  -0.090596
    30  H   -0.049216   0.006164  -0.000218  -0.006002  -0.032941   0.001260
    31  C    5.193912   0.368302   0.354653   0.362262  -0.045473  -0.000661
    32  H    0.368302   0.562376  -0.026318  -0.026099  -0.002818   0.000984
    33  H    0.354653  -0.026318   0.593604  -0.021245  -0.007996  -0.000024
    34  H    0.362262  -0.026099  -0.021245   0.481349   0.003802  -0.000089
    35  C   -0.045473  -0.002818  -0.007996   0.003802   4.362457   0.597678
    36  O   -0.000661   0.000984  -0.000024  -0.000089   0.597678   8.090563
    37  N    0.002438  -0.000459   0.003550   0.000224   0.276649  -0.101362
    38  H    0.000671  -0.000109   0.006969  -0.000192  -0.021699   0.003587
    39  C    0.000019  -0.000071   0.000075   0.000005  -0.024764  -0.008970
    40  H   -0.000070  -0.000007  -0.000005   0.000001  -0.001448   0.020527
    41  H   -0.000005   0.000001   0.000004   0.000000   0.001319   0.000563
    42  H    0.000010   0.000002   0.000000  -0.000002   0.001368   0.000567
             37         38         39         40         41         42
     1  H    0.000000   0.000000   0.000000   0.000000   0.000000   0.000000
     2  C    0.000000   0.000000   0.000000   0.000000   0.000000   0.000000
     3  H    0.000000   0.000000   0.000000   0.000000   0.000000   0.000000
     4  H    0.000000   0.000000   0.000000   0.000000   0.000000   0.000000
     5  C    0.000000   0.000000   0.000000   0.000000   0.000000   0.000000
     6  O    0.000000   0.000000   0.000000   0.000000   0.000000   0.000000
     7  N    0.000000   0.000000   0.000000   0.000000   0.000000   0.000000
     8  H    0.000000   0.000000   0.000000   0.000000   0.000000   0.000000
     9  C    0.000000   0.000000   0.000000   0.000000   0.000000   0.000000
    10  H    0.000000   0.000000   0.000000   0.000000   0.000000   0.000000
    11  C    0.000000   0.000000   0.000000   0.000000   0.000000   0.000000
    12  H    0.000000   0.000000   0.000000   0.000000   0.000000   0.000000
    13  H    0.000000   0.000000   0.000000   0.000000   0.000000   0.000000
    14  H    0.000000   0.000000   0.000000   0.000000   0.000000   0.000000
    15  C    0.000000   0.000000   0.000000   0.000000   0.000000   0.000000
    16  O    0.000000   0.000000   0.000000   0.000000   0.000000   0.000000
    17  N    0.000000   0.000000   0.000000   0.000000   0.000000   0.000000
    18  H   -0.000001   0.000000   0.000000   0.000000   0.000000   0.000000
    19  C    0.000000   0.000000   0.000000   0.000000   0.000000   0.000000
    20  H    0.000000   0.000000   0.000000   0.000000   0.000000   0.000000
    21  C    0.000000   0.000000   0.000000   0.000000   0.000000   0.000000
    22  H    0.000000   0.000000   0.000000   0.000000   0.000000   0.000000
    23  H    0.000000   0.000000   0.000000   0.000000   0.000000   0.000000
    24  H    0.000000   0.000000   0.000000   0.000000   0.000000   0.000000
    25  C   -0.000056   0.000001   0.000001   0.000000   0.000000   0.000000
    26  O   -0.000001   0.000003   0.000000   0.000000   0.000000   0.000000
    27  N    0.003343   0.000047  -0.000068  -0.000001   0.000000   0.000001
    28  H    0.001323  -0.000053  -0.000012  -0.000033   0.000000   0.000000
    29  C   -0.122559   0.000931   0.005761   0.001188  -0.000198  -0.000029
    30  H    0.000827   0.001022  -0.000262  -0.000034   0.000020  -0.000006
    31  C    0.002438   0.000671   0.000019  -0.000070  -0.000005   0.000010
    32  H   -0.000459  -0.000109  -0.000071  -0.000007   0.000001   0.000002
    33  H    0.003550   0.006969   0.000075  -0.000005   0.000004   0.000000
    34  H    0.000224  -0.000192   0.000005   0.000001   0.000000  -0.000002
    35  C    0.276649  -0.021699  -0.024764  -0.001448   0.001319   0.001368
    36  O   -0.101362   0.003587  -0.008970   0.020527   0.000563   0.000567
    37  N    7.079796   0.303462   0.264859  -0.036386  -0.042945  -0.043968
[...]
    28  H    0.000086   0.000000  -0.000069   0.000001   0.001331   0.000025
    29  C    0.000000   0.000000   0.000004   0.000000   0.000130  -0.000730
    30  H    0.000000   0.000000   0.000001   0.000000  -0.000014   0.000057
    31  C    0.000000   0.000000  -0.000003   0.000000   0.000022   0.000056
    32  H    0.000001   0.000000   0.000002   0.000000  -0.000029   0.000265
    33  H    0.000000   0.000000   0.000000   0.000000   0.000000   0.000003
    34  H    0.000000   0.000000   0.000000   0.000000  -0.000021  -0.000016
    35  C    0.000000   0.000000   0.000000   0.000000  -0.000003  -0.000034
    36  O    0.000001   0.000000   0.000000   0.000000   0.000001  -0.000020
    37  N    0.000000   0.000000   0.000000   0.000000   0.000000   0.000000
    38  H    0.000000   0.000000   0.000000   0.000000   0.000000   0.000000
    39  C    0.000000   0.000000   0.000000   0.000000   0.000000   0.000000
    40  H    0.000000   0.000000   0.000000   0.000000   0.000000   0.000000
    41  H    0.000000   0.000000   0.000000   0.000000   0.000000   0.000000
    42  H    0.000000   0.000000   0.000000   0.000000   0.000000   0.000000
             19         20         21         22         23         24
     1  H    0.000000   0.000000   0.000000   0.000000   0.000000   0.000000
     2  C    0.000000   0.000000   0.000000   0.000000   0.000000   0.000000
     3  H    0.000000   0.000000   0.000000   0.000000   0.000000   0.000000
     4  H    0.000000   0.000000   0.000000   0.000000   0.000000   0.000000
     5  C    0.000001   0.000000   0.000000   0.000000   0.000000   0.000000
     6  O    0.000000   0.000000   0.000000   0.000000   0.000000   0.000000
     7  N   -0.000073   0.000000   0.000004   0.000000   0.000000   0.000000
     8  H   -0.000025   0.000000   0.000014   0.000002   0.000000  -0.000019
     9  C    0.004730  -0.000125  -0.000194  -0.000075   0.000009   0.000310
    10  H    0.000022   0.000002  -0.000016   0.000008  -0.000001  -0.000007
    11  C   -0.000188   0.000023   0.000000   0.000001   0.000000  -0.000006
    12  H   -0.000009   0.000002   0.000000   0.000000   0.000000  -0.000001
    13  H    0.000056  -0.000016   0.000002   0.000000   0.000000   0.000000
    14  H    0.000005  -0.000001   0.000000   0.000000   0.000000   0.000000
    15  C   -0.021019  -0.002622  -0.002404   0.000787   0.000395   0.001611
    16  O    0.002811   0.000439  -0.008506  -0.001023   0.000460   0.013166
    17  N    0.223543  -0.052860  -0.044804  -0.000747   0.003884  -0.004982
    18  H   -0.042937   0.003465   0.003919   0.000184  -0.000102  -0.000122
    19  C    5.047871   0.364525   0.376234  -0.031850  -0.029561  -0.022028
    20  H    0.364525   0.601039  -0.042788   0.005435  -0.001344  -0.003208
    21  C    0.376234  -0.042788   5.091355   0.376722   0.359912   0.357924
    22  H   -0.031850   0.005435   0.376722   0.541984  -0.026483  -0.026972
    23  H   -0.029561  -0.001344   0.359912  -0.026483   0.563239  -0.024274
    24  H   -0.022028  -0.003208   0.357924  -0.026972  -0.024274   0.517903
    25  C    0.322049  -0.036188  -0.033834  -0.006510  -0.002841   0.004407
    26  O   -0.078309   0.002037   0.001958   0.004937   0.002981   0.000564
    27  N   -0.119038  -0.000424   0.005352   0.000151   0.000168  -0.000054
    28  H    0.001216   0.001063   0.000026   0.000002  -0.000014  -0.000010
    29  C    0.006943  -0.000338  -0.000151  -0.000008  -0.000004   0.000001
    30  H    0.000516  -0.000042  -0.000011  -0.000002  -0.000001   0.000000
    31  C   -0.000416   0.000007   0.000009   0.000001   0.000000   0.000000
    32  H    0.000002   0.000000   0.000000   0.000000   0.000000   0.000000
    33  H    0.000002   0.000000   0.000000   0.000000   0.000000   0.000000
    34  H    0.000193  -0.000003  -0.000002  -0.000002   0.000000   0.000000
    35  C   -0.000058  -0.000022   0.000000   0.000000   0.000000   0.000000
    36  O   -0.000122  -0.000006   0.000000   0.000000   0.000000   0.000000
    37  N    0.000000   0.000000   0.000000   0.000000   0.000000   0.000000
    38  H    0.000000   0.000000   0.000000   0.000000   0.000000   0.000000
    39  C    0.000000   0.000000   0.000000   0.000000   0.000000   0.000000
    40  H    0.000000   0.000000   0.000000   0.000000   0.000000   0.000000
    41  H    0.000000   0.000000   0.000000   0.000000   0.000000   0.000000
    42  H    0.000000   0.000000   0.000000   0.000000   0.000000   0.000000
             25         26         27         28         29         30
     1  H    0.000000   0.000000   0.000000   0.000000   0.000000   0.000000
     2  C    0.000000   0.000000   0.000000   0.000000   0.000000   0.000000
     3  H    0.000000   0.000000   0.000000   0.000000   0.000000   0.000000
     4  H    0.000000   0.000000   0.000000   0.000000   0.000000   0.000000
     5  C    0.000000   0.000000   0.000000   0.000000   0.000000   0.000000
     6  O    0.000000   0.000000   0.000000   0.000000   0.000000   0.000000
     7  N    0.000001   0.000000   0.000000   0.000000   0.000000   0.000000
     8  H    0.000000   0.000000   0.000000   0.000000   0.000000   0.000000
     9  C   -0.000106   0.000001  -0.000083   0.000004   0.000000   0.000000
    10  H   -0.000008   0.000000  -0.000004  -0.000002   0.000000   0.000000
    11  C   -0.000003   0.000000  -0.000003  -0.000001   0.000000   0.000000
    12  H    0.000000   0.000000   0.000000  -0.000001   0.000000   0.000000
    13  H   -0.000018   0.000000  -0.000022   0.000086   0.000000   0.000000
    14  H    0.000000   0.000000   0.000000   0.000000   0.000000   0.000000
    15  C    0.003007  -0.000105   0.000571  -0.000069   0.000004   0.000001
    16  O    0.000214   0.000000  -0.000004   0.000001   0.000000   0.000000
    17  N   -0.024924  -0.000043  -0.007858   0.001331   0.000130  -0.000014
    18  H   -0.004595  -0.000394   0.019925   0.000025  -0.000730   0.000057
    19  C    0.322049  -0.078309  -0.119038   0.001216   0.006943   0.000516
    20  H   -0.036188   0.002037  -0.000424   0.001063  -0.000338  -0.000042
    21  C   -0.033834   0.001958   0.005352   0.000026  -0.000151  -0.000011
    22  H   -0.006510   0.004937   0.000151   0.000002  -0.000008  -0.000002
    23  H   -0.002841   0.002981   0.000168  -0.000014  -0.000004  -0.000001
    24  H    0.004407   0.000564  -0.000054  -0.000010   0.000001   0.000000
    25  C    4.417131   0.574608   0.244340  -0.016391  -0.019267  -0.000344
    26  O    0.574608   8.074026  -0.100289   0.002493   0.008892   0.010896
    27  N    0.244340  -0.100289   7.208331   0.276099   0.253958  -0.052763
    28  H   -0.016391   0.002493   0.276099   0.378367  -0.052517   0.004025
    29  C   -0.019267   0.008892   0.253958  -0.052517   5.088184   0.372312
    30  H   -0.000344   0.010896  -0.052763   0.004025   0.372312   0.566834
    31  C   -0.004072  -0.005316  -0.053581   0.004139   0.348714  -0.048145
    32  H    0.000340  -0.000021  -0.000042   0.000591  -0.034224   0.005376
    33  H    0.000025   0.000005   0.004726  -0.000126  -0.029858   0.000195
    34  H    0.003436   0.007746  -0.008369  -0.000181  -0.022904  -0.004881
    35  C    0.005164   0.000543  -0.030096  -0.002965   0.305413  -0.033968
    36  O    0.001015  -0.000005  -0.017660   0.044456  -0.083497   0.001587
    37  N   -0.000042  -0.000001   0.002717   0.001874  -0.113003   0.000902
    38  H   -0.000003   0.000001   0.000081  -0.000079   0.001448   0.001449
    39  C    0.000001   0.000000  -0.000087  -0.000019   0.005560  -0.000134
    40  H    0.000000   0.000000   0.000007  -0.000050   0.001069  -0.000030
    41  H    0.000000   0.000000   0.000001   0.000000  -0.000162   0.000010
    42  H    0.000000   0.000000   0.000001   0.000000  -0.000074  -0.000006
             31         32         33         34         35         36
     1  H    0.000000   0.000000   0.000000   0.000000   0.000000   0.000000
     2  C    0.000000   0.000000   0.000000   0.000000   0.000000   0.000000
     3  H    0.000000   0.000000   0.000000   0.000000   0.000000   0.000000
     4  H    0.000000   0.000000   0.000000   0.000000   0.000000   0.000000
     5  C    0.000000   0.000000   0.000000   0.000000   0.000000   0.000000
     6  O    0.000000   0.000000   0.000000   0.000000   0.000000   0.000000
     7  N    0.000000   0.000000   0.000000   0.000000   0.000000   0.000000
     8  H    0.000000   0.000000   0.000000   0.000000   0.000000   0.000000
     9  C    0.000000  -0.000001   0.000000   0.000000   0.000000   0.000000
    10  H    0.000000   0.000001   0.000000   0.000000   0.000000   0.000000
    11  C    0.000000   0.000000   0.000000   0.000000   0.000000   0.000000
    12  H    0.000000   0.000000   0.000000   0.000000   0.000000   0.000000
    13  H    0.000000   0.000001   0.000000   0.000000   0.000000   0.000001
    14  H    0.000000   0.000000   0.000000   0.000000   0.000000   0.000000
    15  C   -0.000003   0.000002   0.000000   0.000000   0.000000   0.000000
    16  O    0.000000   0.000000   0.000000   0.000000   0.000000   0.000000
    17  N    0.000022  -0.000029   0.000000  -0.000021  -0.000003   0.000001
    18  H    0.000056   0.000265   0.000003  -0.000016  -0.000034  -0.000020
    19  C   -0.000416   0.000002   0.000002   0.000193  -0.000058  -0.000122
    20  H    0.000007   0.000000   0.000000  -0.000003  -0.000022  -0.000006
    21  C    0.000009   0.000000   0.000000  -0.000002   0.000000   0.000000
    22  H    0.000001   0.000000   0.000000  -0.000002   0.000000   0.000000
    23  H    0.000000   0.000000   0.000000   0.000000   0.000000   0.000000
    24  H    0.000000   0.000000   0.000000   0.000000   0.000000   0.000000
    25  C   -0.004072   0.000340   0.000025   0.003436   0.005164   0.001015
    26  O   -0.005316  -0.000021   0.000005   0.007746   0.000543  -0.000005
    27  N   -0.053581  -0.000042   0.004726  -0.008369  -0.030096  -0.017660
    28  H    0.004139   0.000591  -0.000126  -0.000181  -0.002965   0.044456
    29  C    0.348714  -0.034224  -0.029858  -0.022904   0.305413  -0.083497
    30  H   -0.048145   0.005376   0.000195  -0.004881  -0.033968   0.001587
    31  C    5.140268   0.370793   0.357014   0.370164  -0.034684  -0.001015
    32  H    0.370793   0.553769  -0.027123  -0.027483  -0.003810   0.001083
    33  H    0.357014  -0.027123   0.579857  -0.025533  -0.004089  -0.000008
    34  H    0.370164  -0.027483  -0.025533   0.513074   0.003552  -0.000083
    35  C   -0.034684  -0.003810  -0.004089   0.003552   4.367610   0.574785
    36  O   -0.001015   0.001083  -0.000008  -0.000083   0.574785   8.085031
    37  N    0.001546  -0.000019   0.002991   0.000062   0.291045  -0.091758
    38  H    0.000667  -0.000053   0.003186  -0.000105  -0.022861   0.003276
    39  C   -0.000189  -0.000018  -0.000031   0.000005  -0.023017  -0.007486
    40  H   -0.000042  -0.000006  -0.000001   0.000001  -0.001482   0.019045
    41  H   -0.000003   0.000000   0.000003   0.000000   0.000810   0.000428
    42  H    0.000022  -0.000002  -0.000009  -0.000001   0.001416   0.000438
             37         38         39         40         41         42
     1  H    0.000000   0.000000   0.000000   0.000000   0.000000   0.000000
     2  C    0.000000   0.000000   0.000000   0.000000   0.000000   0.000000
     3  H    0.000000   0.000000   0.000000   0.000000   0.000000   0.000000
     4  H    0.000000   0.000000   0.000000   0.000000   0.000000   0.000000
     5  C    0.000000   0.000000   0.000000   0.000000   0.000000   0.000000
     6  O    0.000000   0.000000   0.000000   0.000000   0.000000   0.000000
     7  N    0.000000   0.000000   0.000000   0.000000   0.000000   0.000000
     8  H    0.000000   0.000000   0.000000   0.000000   0.000000   0.000000
     9  C    0.000000   0.000000   0.000000   0.000000   0.000000   0.000000
    10  H    0.000000   0.000000   0.000000   0.000000   0.000000   0.000000
    11  C    0.000000   0.000000   0.000000   0.000000   0.000000   0.000000
    12  H    0.000000   0.000000   0.000000   0.000000   0.000000   0.000000
    13  H    0.000000   0.000000   0.000000   0.000000   0.000000   0.000000
    14  H    0.000000   0.000000   0.000000   0.000000   0.000000   0.000000
    15  C    0.000000   0.000000   0.000000   0.000000   0.000000   0.000000
    16  O    0.000000   0.000000   0.000000   0.000000   0.000000   0.000000
    17  N    0.000000   0.000000   0.000000   0.000000   0.000000   0.000000
    18  H    0.000000   0.000000   0.000000   0.000000   0.000000   0.000000
    19  C    0.000000   0.000000   0.000000   0.000000   0.000000   0.000000
    20  H    0.000000   0.000000   0.000000   0.000000   0.000000   0.000000
    21  C    0.000000   0.000000   0.000000   0.000000   0.000000   0.000000
    22  H    0.000000   0.000000   0.000000   0.000000   0.000000   0.000000
    23  H    0.000000   0.000000   0.000000   0.000000   0.000000   0.000000
    24  H    0.000000   0.000000   0.000000   0.000000   0.000000   0.000000
    25  C   -0.000042  -0.000003   0.000001   0.000000   0.000000   0.000000
    26  O   -0.000001   0.000001   0.000000   0.000000   0.000000   0.000000
    27  N    0.002717   0.000081  -0.000087   0.000007   0.000001   0.000001
    28  H    0.001874  -0.000079  -0.000019  -0.000050   0.000000   0.000000
    29  C   -0.113003   0.001448   0.005560   0.001069  -0.000162  -0.000074
    30  H    0.000902   0.001449  -0.000134  -0.000030   0.000010  -0.000006
    31  C    0.001546   0.000667  -0.000189  -0.000042  -0.000003   0.000022
    32  H   -0.000019  -0.000053  -0.000018  -0.000006   0.000000  -0.000002
    33  H    0.002991   0.003186  -0.000031  -0.000001   0.000003  -0.000009
    34  H    0.000062  -0.000105   0.000005   0.000001   0.000000  -0.000001
    35  C    0.291045  -0.022861  -0.023017  -0.001482   0.000810   0.001416
    36  O   -0.091758   0.003276  -0.007486   0.019045   0.000428   0.000438
    37  N    7.044164   0.306675   0.264532  -0.038531  -0.040331  -0.040802
    38  H    0.306675   0.401426  -0.031180   0.003931  -0.001123  -0.000656
    39  C    0.264532  -0.031180   4.964085   0.378704   0.382551   0.381638
    40  H   -0.038531   0.003931   0.378704   0.476099  -0.024101  -0.024155
    41  H   -0.040331  -0.001123   0.382551  -0.024101   0.554441  -0.038823
    42  H   -0.040802  -0.000656   0.381638  -0.024155  -0.038823   0.555067
 Mulliken atomic charges:
              1
     1  H    0.181562
     2  C   -0.532897
     3  H    0.148281
     4  H    0.181321
     5  C    0.596131
     6  O   -0.525954
     7  N   -0.604884
     8  H    0.346967
     9  C   -0.035008
    10  H    0.169013
    11  C   -0.444463
    12  H    0.157196
    13  H    0.136847
    14  H    0.190480
    15  C    0.620091
    16  O   -0.528912
    17  N   -0.641143
    18  H    0.338512
    19  C   -0.005086
    20  H    0.161948
    21  C   -0.440722
    22  H    0.163460
    23  H    0.153576
    24  H    0.185797
    25  C    0.573410
    26  O   -0.507204
    27  N   -0.626050
    28  H    0.356628
    29  C   -0.035891
    30  H    0.176179
    31  C   -0.445955
    32  H    0.160607
    33  H    0.138773
    34  H    0.191350
    35  C    0.606751
    36  O   -0.529488
    37  N   -0.592021
    38  H    0.333920
    39  C   -0.314914
    40  H    0.209543
    41  H    0.166297
    42  H    0.165949
 Sum of Mulliken atomic charges =   0.00000
 Mulliken charges with hydrogens summed into heavy atoms:
              1
     2  C   -0.021733
     5  C    0.596131
     6  O   -0.525954
     7  N   -0.257916
     9  C    0.134005
    11  C    0.040061
    15  C    0.620091
    16  O   -0.528912
    17  N   -0.302631
    19  C    0.156863
    21  C    0.062111
    25  C    0.573410
    26  O   -0.507204
    27  N   -0.269422
    29  C    0.140288
    31  C    0.044776
    35  C    0.606751
    36  O   -0.529488
    37  N   -0.258101
    39  C    0.226876
 Sum of Mulliken charges with hydrogens summed into heavy atoms =   0.00000
 Electronic spatial extent (au):  <R**2>=           9489.4604
 Charge=              0.0000 electrons
 Dipole moment (field-independent basis, Debye):
    X=              6.0350    Y=             -0.5805    Z=             -0.1023  Tot=              6.0637
 Quadrupole moment (field-independent basis, Debye-Ang):
   XX=            -87.8377   YY=           -133.3288   ZZ=           -123.8662
   XY=            -13.6740   XZ=              9.4664   YZ=             -1.1099
 Traceless Quadrupole moment (field-independent basis, Debye-Ang):
   XX=             27.1732   YY=            -18.3179   ZZ=             -8.8553
   XY=            -13.6740   XZ=              9.4664   YZ=             -1.1099
 Octapole moment (field-independent basis, Debye-Ang**2):
  XXX=            185.2491  YYY=              4.3100  ZZZ=              1.9884  XYY=             44.0333
  XXY=             -6.9453  XXZ=             20.7710  XZZ=              7.7246  YZZ=             -1.8401
  YYZ=            -22.8071  XYZ=            -41.3041
 Hexadecapole moment (field-independent basis, Debye-Ang**3):
 XXXX=          -7675.2798 YYYY=          -1877.5122 ZZZZ=           -735.5653 XXXY=           -415.2140
 XXXZ=            187.3423 YYYX=           -123.6694 YYYZ=              1.0678 ZZZX=              4.8161
 ZZZY=             -6.0783 XXYY=          -2050.5988 XXZZ=          -1745.5013 YYZZ=           -463.8391
 XXYZ=             81.8447 YYXZ=             14.5130 ZZXY=            -23.6525
 N-N= 1.593332662676D+03 E-N=-5.495657765708D+03  KE= 9.813183388310D+02
 1\1\GINC-NODE003\FOpt\RB3LYP\6-31G(d)\C12H22N4O4\MANAGER\29-Dec-2016\0
 \\# b3lyp/6-31G* Opt=(ModRedundant, maxcycles=1000, calcfc) geom=nocro
 wd\\Phi Psi fixed scan\\0,1\H,3.0840452483,2.0463160724,3.3213080461\C
 ,2.771006671,2.2779769912,2.2985362901\H,1.9423024636,2.9918738802,2.3
 310623787\H,2.4194274218,1.3450311568,1.8467850711\C,3.9783151569,2.77
 75828772,1.5184850599\O,5.0008770313,2.1071183994,1.4003787904\N,3.844
 809218,4.0108506688,0.9562285341\H,3.0343157657,4.5977083189,1.1180948
 827\C,4.9317019124,4.6522518469,0.2444721887\H,5.8630038918,4.45209325
 28,0.7899124995\C,5.0805279552,4.1099259451,-1.1909436956\H,4.17129085
 72,4.3048476628,-1.7690528971\H,5.9279228081,4.571627339,-1.7104414986
 \H,5.2496755121,3.0315225239,-1.1422272784\C,4.6351300785,6.1667676777
 ,0.2479656348\O,3.5148956121,6.5897349425,0.5196828478\N,5.6931124802,
 6.9374503106,-0.1297507276\H,6.5692616648,6.4496331953,-0.2654297005\C
 ,5.8005405565,8.4116828628,-0.086061386\H,5.5049257414,8.8105026071,-1
 .0686878301\C,4.9585052325,9.080795464,0.999267896\H,5.2365970161,8.70
 49784435,1.9871422032\H,5.1610063698,10.1553398548,0.9832700824\H,3.89
 80644667,8.8992367372,0.8338633239\C,7.2981443634,8.7388803107,0.13503
 02127\O,7.7142156426,9.3345101204,1.119351013\N,8.1234085586,8.2678586
 927,-0.8471571094\H,7.7635995481,7.9861124752,-1.7563303189\C,9.548279
 5764,8.5566244076,-0.8475191932\H,9.6945093486,9.5804549938,-0.4783575
 816\C,10.3255460986,7.5919786198,0.0667063305\H,10.22011073,6.55990594
 3,-0.283454535\H,11.3926370244,7.8388412866,0.0986521845\H,9.928011006
 9,7.667413303,1.0820347186\C,10.0108619755,8.4672372946,-2.3142725752\
 O,9.2730027867,8.0166288538,-3.188693654\N,11.2734863242,8.9058903539,
 -2.5493165228\H,11.8029549675,9.284756445,-1.7768824077\C,11.891166659
 9,8.8756341391,-3.86580772\H,11.1677629039,8.4438214026,-4.5579046037\
 H,12.1498122576,9.8863029,-4.2010672714\H,12.7972290955,8.2593994272,-
 3.8601716817\\Version=EM64L-G09RevA.02\State=1-A\HF=-990.4974676\RMSD=
 8.158e-09\RMSF=7.140e-04\Dipole=1.8192932,1.1760737,-0.9991898\Quadrup
 ole=18.7465234,-12.7472117,-5.9993117,11.2090299,-7.4823663,-3.9325603
 \PG=C01 [X(C12H22N4O4)]\\@


 IBM COMPATIBILITY IS LIKE PREGNANCY. YOU ARE OR
 OR YOU ARE NOT. -- ADAM OSBORNE
 Job cpu time:  0 days  6 hours 33 minutes 46.4 seconds.
 File lengths (MBytes):  RWF=    608 Int=      0 D2E=      0 Chk=     11 Scr=      1
 Normal termination of Gaussian 09 at Thu Dec 29 11:55:50 2016.
