 Entering Gaussian System, Link 0=g09
 Initial command:
 /home/steboss/Software/g09/l1.exe /tmp/Gau-5618.inp -scrdir=/tmp/
 Entering Link 1 = /home/steboss/Software/g09/l1.exe PID=      5620.
  
 Copyright (c) 1988,1990,1992,1993,1995,1998,2003,2009, Gaussian, Inc.
                  All Rights Reserved.
  
 This is part of the Gaussian(R) 09 program.  It is based on
 the Gaussian(R) 03 system (copyright 2003, Gaussian, Inc.),
 the Gaussian(R) 98 system (copyright 1998, Gaussian, Inc.),
 the Gaussian(R) 94 system (copyright 1995, Gaussian, Inc.),
 the Gaussian 92(TM) system (copyright 1992, Gaussian, Inc.),
 the Gaussian 90(TM) system (copyright 1990, Gaussian, Inc.),
 the Gaussian 88(TM) system (copyright 1988, Gaussian, Inc.),
 the Gaussian 86(TM) system (copyright 1986, Carnegie Mellon
 University), and the Gaussian 82(TM) system (copyright 1983,
 Carnegie Mellon University). Gaussian is a federally registered
 trademark of Gaussian, Inc.
  
 This software contains proprietary and confidential information,
 including trade secrets, belonging to Gaussian, Inc.
  
 This software is provided under written license and may be
 used, copied, transmitted, or stored only in accord with that
 written license.
  
 The following legend is applicable only to US Government
 contracts under FAR:
  
                    RESTRICTED RIGHTS LEGEND
  
 Use, reproduction and disclosure by the US Government is
 subject to restrictions as set forth in subparagraphs (a)
 and (c) of the Commercial Computer Software - Restricted
 Rights clause in FAR 52.227-19.
  
 Gaussian, Inc.
 340 Quinnipiac St., Bldg. 40, Wallingford CT 06492
  
  
 ---------------------------------------------------------------
 Warning -- This program may not be used in any manner that
 competes with the business of Gaussian, Inc. or will provide
 assistance to any competitor of Gaussian, Inc.  The licensee
 of this program is prohibited from giving any competitor of
 Gaussian, Inc. access to this program.  By using this program,
 the user acknowledges that Gaussian, Inc. is engaged in the
 business of creating and licensing software in the field of
 computational chemistry and represents and warrants to the
 licensee that it is not a competitor of Gaussian, Inc. and that
 it will not use this program in any manner prohibited above.
 ---------------------------------------------------------------
  

 Cite this work as:
 Gaussian 09, Revision A.02,
 M. J. Frisch, G. W. Trucks, H. B. Schlegel, G. E. Scuseria, 
 M. A. Robb, J. R. Cheeseman, G. Scalmani, V. Barone, B. Mennucci, 
 G. A. Petersson, H. Nakatsuji, M. Caricato, X. Li, H. P. Hratchian, 
 A. F. Izmaylov, J. Bloino, G. Zheng, J. L. Sonnenberg, M. Hada, 
 M. Ehara, K. Toyota, R. Fukuda, J. Hasegawa, M. Ishida, T. Nakajima, 
 Y. Honda, O. Kitao, H. Nakai, T. Vreven, J. A. Montgomery, Jr., 
 J. E. Peralta, F. Ogliaro, M. Bearpark, J. J. Heyd, E. Brothers, 
 K. N. Kudin, V. N. Staroverov, R. Kobayashi, J. Normand, 
 K. Raghavachari, A. Rendell, J. C. Burant, S. S. Iyengar, J. Tomasi, 
 M. Cossi, N. Rega, J. M. Millam, M. Klene, J. E. Knox, J. B. Cross, 
 V. Bakken, C. Adamo, J. Jaramillo, R. Gomperts, R. E. Stratmann, 
 O. Yazyev, A. J. Austin, R. Cammi, C. Pomelli, J. W. Ochterski, 
 R. L. Martin, K. Morokuma, V. G. Zakrzewski, G. A. Voth, 
 P. Salvador, J. J. Dannenberg, S. Dapprich, A. D. Daniels, 
 O. Farkas, J. B. Foresman, J. V. Ortiz, J. Cioslowski, 
 and D. J. Fox, Gaussian, Inc., Wallingford CT, 2009.
 
 ******************************************
 Gaussian 09:  EM64L-G09RevA.02 11-Jun-2009
                29-Dec-2016 
 ******************************************
 %chk=structure_30.chk
 ----------------------------------------------------------------------
 # b3lyp/6-31G* Opt=(ModRedundant, maxcycles=1000, calcfc) geom=nocrowd
 ----------------------------------------------------------------------
 1/6=1000,10=4,14=-1,18=120,19=15,26=3,38=1/1,3;
 2/9=110,12=1,17=6,18=5,40=1/2;
 3/5=1,6=6,7=1,11=2,16=1,25=1,30=1,71=2,74=-5/1,2,3;
 4//1;
 5/5=2,38=5/2;
 8/6=4,10=90,11=11/1;
 11/6=1,8=1,9=11,15=111,16=1/1,2,10;
 10/6=1,7=6,13=1/2;
 6/7=2,8=2,9=2,10=2,28=1/1;
 7/10=1,18=20,25=1/1,2,3,16;
 1/6=1000,10=4,14=-1,18=20,19=15/3(2);
 2/9=110,12=1/2;
 99//99;
 2/9=110,12=1/2;
 3/5=1,6=6,7=1,11=2,16=1,25=1,30=1,71=1,74=-5/1,2,3;
 4/5=5,16=3/1;
 5/5=2,38=5/2;
 7//1,2,3,16;
 1/6=1000,14=-1,18=20,19=15/3(-5);
 2/9=110,12=1/2;
 6/7=2,8=2,9=2,10=2,19=2,28=1/1;
 99/9=1/99;
 ------------------
 Phi Psi fixed scan
 ------------------
 Symbolic Z-matrix:
 Charge =  0 Multiplicity = 1
 H                     2.5153    1.        1.923 
 C                     2.5153    2.09      1.923 
 H                     2.5153    2.4538    2.9505 
 H                     1.6255    2.4539    1.4093 
 C                     3.7515    2.6408    1.2093 
 O                     4.5856    1.8774    0.7277 
 N                     3.8623    3.9697    1.1453 
 H                     3.1502    4.5562    1.5565 
 C                     4.9863    4.6139    0.4964 
 H                     5.9112    4.3155    0.9898 
 C                     5.07      4.2208   -0.9747 
 H                     4.1545    4.5214   -1.4843 
 H                     5.9225    4.7189   -1.4365 
 H                     5.1929    3.1409   -1.0563 
 C                     4.8645    6.1294    0.5667 
 O                     3.9015    6.6527    1.1227 
 N                     5.846     6.8349    0. 
 H                     6.6176    6.3592   -0.4455 
 C                     5.8461    8.2839    0. 
 H                     5.3323    8.6477   -0.8898 
 C                     5.1347    8.8329    1.2322 
 H                     5.6431    8.4846    2.1312 
 H                     5.1499    9.9224    1.2058 
 H                     4.1019    8.4846    1.2414 
 C                     7.266     8.8318    0. 
 O                     7.5178    9.9119    0.5295 
 N                     8.1958    8.0825   -0.5969 
 H                     7.94      7.2011   -1.0185 
 C                     9.5836    8.4938   -0.6638 
 H                     9.6567    9.4425   -1.1954 
 C                     10.1717   8.6708    0.7321 
 H                     10.114    7.7266    1.2737 
 H                     11.2139   8.9796    0.6514 
 H                     9.6082    9.4329    1.2704 
 C                     10.4268   7.4597   -1.396 
 O                     9.9117    6.4362   -1.8403 
 N                     11.7283   7.7297   -1.5211 
 H                     12.1056   8.585    -1.1388 
 C                     12.6364   6.8252   -2.197 
 H                     12.0854   5.9542   -2.5517 
 H                     13.0938   7.3352   -3.0449 
 H                     13.4141   6.505    -1.5037 
 
 The following ModRedundant input section has been read:
 D   15   17   19   25 F                                                       
 D   17   19   25   27 F                                                       

 GradGradGradGradGradGradGradGradGradGradGradGradGradGradGradGradGradGrad
 Berny optimization.
 Initialization pass.
                           ----------------------------
                           !    Initial Parameters    !
                           ! (Angstroms and Degrees)  !
 --------------------------                            --------------------------
 ! Name  Definition              Value          Derivative Info.                !
 --------------------------------------------------------------------------------
 ! R1    R(1,2)                  1.09           calculate D2E/DX2 analytically  !
 ! R2    R(2,3)                  1.09           calculate D2E/DX2 analytically  !
 ! R3    R(2,4)                  1.09           calculate D2E/DX2 analytically  !
 ! R4    R(2,5)                  1.53           calculate D2E/DX2 analytically  !
 ! R5    R(5,6)                  1.229          calculate D2E/DX2 analytically  !
 ! R6    R(5,7)                  1.335          calculate D2E/DX2 analytically  !
 ! R7    R(7,8)                  1.01           calculate D2E/DX2 analytically  !
 ! R8    R(7,9)                  1.4489         calculate D2E/DX2 analytically  !
 ! R9    R(9,10)                 1.0899         calculate D2E/DX2 analytically  !
 ! R10   R(9,11)                 1.525          calculate D2E/DX2 analytically  !
 ! R11   R(9,15)                 1.522          calculate D2E/DX2 analytically  !
 ! R12   R(11,12)                1.09           calculate D2E/DX2 analytically  !
 ! R13   R(11,13)                1.09           calculate D2E/DX2 analytically  !
 ! R14   R(11,14)                1.0899         calculate D2E/DX2 analytically  !
 ! R15   R(15,16)                1.229          calculate D2E/DX2 analytically  !
 ! R16   R(15,17)                1.335          calculate D2E/DX2 analytically  !
 ! R17   R(17,18)                1.01           calculate D2E/DX2 analytically  !
 ! R18   R(17,19)                1.449          calculate D2E/DX2 analytically  !
 ! R19   R(19,20)                1.09           calculate D2E/DX2 analytically  !
 ! R20   R(19,21)                1.5251         calculate D2E/DX2 analytically  !
 ! R21   R(19,25)                1.5219         calculate D2E/DX2 analytically  !
 ! R22   R(21,22)                1.0899         calculate D2E/DX2 analytically  !
 ! R23   R(21,23)                1.0899         calculate D2E/DX2 analytically  !
 ! R24   R(21,24)                1.09           calculate D2E/DX2 analytically  !
 ! R25   R(25,26)                1.229          calculate D2E/DX2 analytically  !
 ! R26   R(25,27)                1.335          calculate D2E/DX2 analytically  !
 ! R27   R(27,28)                1.01           calculate D2E/DX2 analytically  !
 ! R28   R(27,29)                1.449          calculate D2E/DX2 analytically  !
 ! R29   R(29,30)                1.0899         calculate D2E/DX2 analytically  !
 ! R30   R(29,31)                1.525          calculate D2E/DX2 analytically  !
 ! R31   R(29,35)                1.522          calculate D2E/DX2 analytically  !
 ! R32   R(31,32)                1.09           calculate D2E/DX2 analytically  !
 ! R33   R(31,33)                1.09           calculate D2E/DX2 analytically  !
 ! R34   R(31,34)                1.09           calculate D2E/DX2 analytically  !
 ! R35   R(35,36)                1.2289         calculate D2E/DX2 analytically  !
 ! R36   R(35,37)                1.3351         calculate D2E/DX2 analytically  !
 ! R37   R(37,38)                1.01           calculate D2E/DX2 analytically  !
 ! R38   R(37,39)                1.449          calculate D2E/DX2 analytically  !
 ! R39   R(39,40)                1.09           calculate D2E/DX2 analytically  !
 ! R40   R(39,41)                1.0901         calculate D2E/DX2 analytically  !
 ! R41   R(39,42)                1.09           calculate D2E/DX2 analytically  !
 ! A1    A(1,2,3)              109.4972         calculate D2E/DX2 analytically  !
 ! A2    A(1,2,4)              109.5032         calculate D2E/DX2 analytically  !
 ! A3    A(1,2,5)              111.1            calculate D2E/DX2 analytically  !
 ! A4    A(3,2,4)              109.4412         calculate D2E/DX2 analytically  !
 ! A5    A(3,2,5)              108.6367         calculate D2E/DX2 analytically  !
 ! A6    A(4,2,5)              108.6357         calculate D2E/DX2 analytically  !
 ! A7    A(2,5,6)              120.4994         calculate D2E/DX2 analytically  !
 ! A8    A(2,5,7)              116.5999         calculate D2E/DX2 analytically  !
 ! A9    A(6,5,7)              122.9007         calculate D2E/DX2 analytically  !
 ! A10   A(5,7,8)              119.9983         calculate D2E/DX2 analytically  !
 ! A11   A(5,7,9)              121.8976         calculate D2E/DX2 analytically  !
 ! A12   A(8,7,9)              118.1041         calculate D2E/DX2 analytically  !
 ! A13   A(7,9,10)             109.5012         calculate D2E/DX2 analytically  !
 ! A14   A(7,9,11)             111.0992         calculate D2E/DX2 analytically  !
 ! A15   A(7,9,15)             111.0961         calculate D2E/DX2 analytically  !
 ! A16   A(10,9,11)            108.6353         calculate D2E/DX2 analytically  !
 ! A17   A(10,9,15)            108.6394         calculate D2E/DX2 analytically  !
 ! A18   A(11,9,15)            107.7951         calculate D2E/DX2 analytically  !
 ! A19   A(9,11,12)            109.4993         calculate D2E/DX2 analytically  !
 ! A20   A(9,11,13)            109.5009         calculate D2E/DX2 analytically  !
 ! A21   A(9,11,14)            109.4999         calculate D2E/DX2 analytically  !
 ! A22   A(12,11,13)           109.438          calculate D2E/DX2 analytically  !
 ! A23   A(12,11,14)           109.447          calculate D2E/DX2 analytically  !
 ! A24   A(13,11,14)           109.4422         calculate D2E/DX2 analytically  !
 ! A25   A(9,15,16)            120.5033         calculate D2E/DX2 analytically  !
 ! A26   A(9,15,17)            116.6002         calculate D2E/DX2 analytically  !
 ! A27   A(16,15,17)           122.8965         calculate D2E/DX2 analytically  !
 ! A28   A(15,17,18)           120.0            calculate D2E/DX2 analytically  !
 ! A29   A(15,17,19)           121.9052         calculate D2E/DX2 analytically  !
 ! A30   A(18,17,19)           118.0948         calculate D2E/DX2 analytically  !
 ! A31   A(17,19,20)           109.4954         calculate D2E/DX2 analytically  !
 ! A32   A(17,19,21)           111.0974         calculate D2E/DX2 analytically  !
 ! A33   A(17,19,25)           111.1042         calculate D2E/DX2 analytically  !
 ! A34   A(20,19,21)           108.6349         calculate D2E/DX2 analytically  !
 ! A35   A(20,19,25)           108.6399         calculate D2E/DX2 analytically  !
 ! A36   A(21,19,25)           107.7944         calculate D2E/DX2 analytically  !
 ! A37   A(19,21,22)           109.4996         calculate D2E/DX2 analytically  !
 ! A38   A(19,21,23)           109.4977         calculate D2E/DX2 analytically  !
 ! A39   A(19,21,24)           109.4988         calculate D2E/DX2 analytically  !
 ! A40   A(22,21,23)           109.4452         calculate D2E/DX2 analytically  !
 ! A41   A(22,21,24)           109.4447         calculate D2E/DX2 analytically  !
 ! A42   A(23,21,24)           109.4412         calculate D2E/DX2 analytically  !
 ! A43   A(19,25,26)           120.5            calculate D2E/DX2 analytically  !
 ! A44   A(19,25,27)           116.5974         calculate D2E/DX2 analytically  !
 ! A45   A(26,25,27)           122.9027         calculate D2E/DX2 analytically  !
 ! A46   A(25,27,28)           120.0038         calculate D2E/DX2 analytically  !
 ! A47   A(25,27,29)           121.8959         calculate D2E/DX2 analytically  !
 ! A48   A(28,27,29)           118.1003         calculate D2E/DX2 analytically  !
 ! A49   A(27,29,30)           109.5007         calculate D2E/DX2 analytically  !
 ! A50   A(27,29,31)           111.1017         calculate D2E/DX2 analytically  !
 ! A51   A(27,29,35)           111.0978         calculate D2E/DX2 analytically  !
 ! A52   A(30,29,31)           108.6355         calculate D2E/DX2 analytically  !
 ! A53   A(30,29,35)           108.6386         calculate D2E/DX2 analytically  !
 ! A54   A(31,29,35)           107.7917         calculate D2E/DX2 analytically  !
 ! A55   A(29,31,32)           109.5023         calculate D2E/DX2 analytically  !
 ! A56   A(29,31,33)           109.502          calculate D2E/DX2 analytically  !
 ! A57   A(29,31,34)           109.501          calculate D2E/DX2 analytically  !
 ! A58   A(32,31,33)           109.4392         calculate D2E/DX2 analytically  !
 ! A59   A(32,31,34)           109.4443         calculate D2E/DX2 analytically  !
 ! A60   A(33,31,34)           109.4385         calculate D2E/DX2 analytically  !
 ! A61   A(29,35,36)           120.5025         calculate D2E/DX2 analytically  !
 ! A62   A(29,35,37)           116.5992         calculate D2E/DX2 analytically  !
 ! A63   A(36,35,37)           122.8984         calculate D2E/DX2 analytically  !
 ! A64   A(35,37,38)           119.9981         calculate D2E/DX2 analytically  !
 ! A65   A(35,37,39)           121.8981         calculate D2E/DX2 analytically  !
 ! A66   A(38,37,39)           118.1038         calculate D2E/DX2 analytically  !
 ! A67   A(37,39,40)           109.4996         calculate D2E/DX2 analytically  !
 ! A68   A(37,39,41)           109.4967         calculate D2E/DX2 analytically  !
 ! A69   A(37,39,42)           109.5019         calculate D2E/DX2 analytically  !
 ! A70   A(40,39,41)           109.4424         calculate D2E/DX2 analytically  !
 ! A71   A(40,39,42)           109.4467         calculate D2E/DX2 analytically  !
 ! A72   A(41,39,42)           109.4399         calculate D2E/DX2 analytically  !
 ! D1    D(1,2,5,6)              0.0022         calculate D2E/DX2 analytically  !
 ! D2    D(1,2,5,7)            179.9987         calculate D2E/DX2 analytically  !
 ! D3    D(3,2,5,6)            120.5114         calculate D2E/DX2 analytically  !
 ! D4    D(3,2,5,7)            -59.4921         calculate D2E/DX2 analytically  !
 ! D5    D(4,2,5,6)           -120.5139         calculate D2E/DX2 analytically  !
 ! D6    D(4,2,5,7)             59.4827         calculate D2E/DX2 analytically  !
 ! D7    D(2,5,7,8)              0.0058         calculate D2E/DX2 analytically  !
 ! D8    D(2,5,7,9)            179.9989         calculate D2E/DX2 analytically  !
 ! D9    D(6,5,7,8)           -179.9977         calculate D2E/DX2 analytically  !
 ! D10   D(6,5,7,9)             -0.0046         calculate D2E/DX2 analytically  !
 ! D11   D(5,7,9,10)           -59.9963         calculate D2E/DX2 analytically  !
 ! D12   D(5,7,9,11)            60.0033         calculate D2E/DX2 analytically  !
 ! D13   D(5,7,9,15)          -179.9991         calculate D2E/DX2 analytically  !
 ! D14   D(8,7,9,10)           119.9969         calculate D2E/DX2 analytically  !
 ! D15   D(8,7,9,11)          -120.0035         calculate D2E/DX2 analytically  !
 ! D16   D(8,7,9,15)            -0.0059         calculate D2E/DX2 analytically  !
 ! D17   D(7,9,11,12)           60.0013         calculate D2E/DX2 analytically  !
 ! D18   D(7,9,11,13)          179.996          calculate D2E/DX2 analytically  !
 ! D19   D(7,9,11,14)          -60.0039         calculate D2E/DX2 analytically  !
 ! D20   D(10,9,11,12)        -179.486          calculate D2E/DX2 analytically  !
 ! D21   D(10,9,11,13)         -59.4913         calculate D2E/DX2 analytically  !
 ! D22   D(10,9,11,14)          60.5089         calculate D2E/DX2 analytically  !
 ! D23   D(15,9,11,12)         -61.9387         calculate D2E/DX2 analytically  !
 ! D24   D(15,9,11,13)          58.056          calculate D2E/DX2 analytically  !
 ! D25   D(15,9,11,14)         178.0562         calculate D2E/DX2 analytically  !
 ! D26   D(7,9,15,16)            0.0028         calculate D2E/DX2 analytically  !
 ! D27   D(7,9,15,17)         -179.9973         calculate D2E/DX2 analytically  !
 ! D28   D(10,9,15,16)        -120.5108         calculate D2E/DX2 analytically  !
 ! D29   D(10,9,15,17)          59.4892         calculate D2E/DX2 analytically  !
 ! D30   D(11,9,15,16)         121.9446         calculate D2E/DX2 analytically  !
 ! D31   D(11,9,15,17)         -58.0555         calculate D2E/DX2 analytically  !
 ! D32   D(9,15,17,18)           0.0005         calculate D2E/DX2 analytically  !
 ! D33   D(9,15,17,19)        -179.9968         calculate D2E/DX2 analytically  !
 ! D34   D(16,15,17,18)       -179.9995         calculate D2E/DX2 analytically  !
 ! D35   D(16,15,17,19)          0.0032         calculate D2E/DX2 analytically  !
 ! D36   D(15,17,19,20)        -89.9978         calculate D2E/DX2 analytically  !
 ! D37   D(15,17,19,21)         29.9965         calculate D2E/DX2 analytically  !
 ! D38   D(15,17,19,25)        149.9974         frozen, calculate D2E/DX2 analyt!
 ! D39   D(18,17,19,20)         90.0049         calculate D2E/DX2 analytically  !
 ! D40   D(18,17,19,21)       -150.0008         calculate D2E/DX2 analytically  !
 ! D41   D(18,17,19,25)        -29.9999         calculate D2E/DX2 analytically  !
 ! D42   D(17,19,21,22)         60.0039         calculate D2E/DX2 analytically  !
 ! D43   D(17,19,21,23)       -179.9943         calculate D2E/DX2 analytically  !
 ! D44   D(17,19,21,24)        -59.998          calculate D2E/DX2 analytically  !
 ! D45   D(20,19,21,22)       -179.4919         calculate D2E/DX2 analytically  !
 ! D46   D(20,19,21,23)        -59.4901         calculate D2E/DX2 analytically  !
 ! D47   D(20,19,21,24)         60.5062         calculate D2E/DX2 analytically  !
 ! D48   D(25,19,21,22)        -61.9445         calculate D2E/DX2 analytically  !
 ! D49   D(25,19,21,23)         58.0573         calculate D2E/DX2 analytically  !
 ! D50   D(25,19,21,24)        178.0536         calculate D2E/DX2 analytically  !
 ! D51   D(17,19,25,26)       -149.9976         calculate D2E/DX2 analytically  !
 ! D52   D(17,19,25,27)         30.0017         frozen, calculate D2E/DX2 analyt!
 ! D53   D(20,19,25,26)         89.4907         calculate D2E/DX2 analytically  !
 ! D54   D(20,19,25,27)        -90.5099         calculate D2E/DX2 analytically  !
 ! D55   D(21,19,25,26)        -28.0535         calculate D2E/DX2 analytically  !
 ! D56   D(21,19,25,27)        151.9459         calculate D2E/DX2 analytically  !
 ! D57   D(19,25,27,28)         -0.0011         calculate D2E/DX2 analytically  !
 ! D58   D(19,25,27,29)       -179.9996         calculate D2E/DX2 analytically  !
 ! D59   D(26,25,27,28)        179.9982         calculate D2E/DX2 analytically  !
 ! D60   D(26,25,27,29)         -0.0002         calculate D2E/DX2 analytically  !
 ! D61   D(25,27,29,30)        -60.0016         calculate D2E/DX2 analytically  !
 ! D62   D(25,27,29,31)         59.9997         calculate D2E/DX2 analytically  !
 ! D63   D(25,27,29,35)        179.9959         calculate D2E/DX2 analytically  !
 ! D64   D(28,27,29,30)        120.0            calculate D2E/DX2 analytically  !
 ! D65   D(28,27,29,31)       -119.9988         calculate D2E/DX2 analytically  !
 ! D66   D(28,27,29,35)         -0.0026         calculate D2E/DX2 analytically  !
 ! D67   D(27,29,31,32)         60.0004         calculate D2E/DX2 analytically  !
 ! D68   D(27,29,31,33)        179.9991         calculate D2E/DX2 analytically  !
 ! D69   D(27,29,31,34)        -60.0039         calculate D2E/DX2 analytically  !
 ! D70   D(30,29,31,32)       -179.4857         calculate D2E/DX2 analytically  !
 ! D71   D(30,29,31,33)        -59.487          calculate D2E/DX2 analytically  !
 ! D72   D(30,29,31,34)         60.51           calculate D2E/DX2 analytically  !
 ! D73   D(35,29,31,32)        -61.941          calculate D2E/DX2 analytically  !
 ! D74   D(35,29,31,33)         58.0577         calculate D2E/DX2 analytically  !
 ! D75   D(35,29,31,34)        178.0547         calculate D2E/DX2 analytically  !
 ! D76   D(27,29,35,36)          0.0048         calculate D2E/DX2 analytically  !
 ! D77   D(27,29,35,37)        179.9987         calculate D2E/DX2 analytically  !
 ! D78   D(30,29,35,36)       -120.5087         calculate D2E/DX2 analytically  !
 ! D79   D(30,29,35,37)         59.4852         calculate D2E/DX2 analytically  !
 ! D80   D(31,29,35,36)        121.9486         calculate D2E/DX2 analytically  !
 ! D81   D(31,29,35,37)        -58.0575         calculate D2E/DX2 analytically  !
 ! D82   D(29,35,37,38)          0.0044         calculate D2E/DX2 analytically  !
 ! D83   D(29,35,37,39)       -179.9996         calculate D2E/DX2 analytically  !
 ! D84   D(36,35,37,38)        179.9981         calculate D2E/DX2 analytically  !
 ! D85   D(36,35,37,39)         -0.0059         calculate D2E/DX2 analytically  !
 ! D86   D(35,37,39,40)          0.0057         calculate D2E/DX2 analytically  !
 ! D87   D(35,37,39,41)        120.0034         calculate D2E/DX2 analytically  !
 ! D88   D(35,37,39,42)       -120.0005         calculate D2E/DX2 analytically  !
 ! D89   D(38,37,39,40)       -179.9982         calculate D2E/DX2 analytically  !
 ! D90   D(38,37,39,41)        -60.0005         calculate D2E/DX2 analytically  !
 ! D91   D(38,37,39,42)         59.9956         calculate D2E/DX2 analytically  !
 --------------------------------------------------------------------------------
 Trust Radius=3.00D-01 FncErr=1.00D-07 GrdErr=1.00D-06
 Number of steps in this run= 252 maximum allowed number of steps= 252.
 GradGradGradGradGradGradGradGradGradGradGradGradGradGradGradGradGradGrad

                          Input orientation:                          
 ---------------------------------------------------------------------
 Center     Atomic      Atomic             Coordinates (Angstroms)
 Number     Number       Type             X           Y           Z
 ---------------------------------------------------------------------
      1          1           0        2.515300    1.000000    1.923000
      2          6           0        2.515300    2.090000    1.923000
      3          1           0        2.515300    2.453800    2.950500
      4          1           0        1.625500    2.453900    1.409300
      5          6           0        3.751500    2.640800    1.209300
      6          8           0        4.585600    1.877400    0.727700
      7          7           0        3.862300    3.969700    1.145300
      8          1           0        3.150200    4.556200    1.556500
      9          6           0        4.986300    4.613900    0.496400
     10          1           0        5.911200    4.315500    0.989800
     11          6           0        5.070000    4.220800   -0.974700
     12          1           0        4.154500    4.521400   -1.484300
     13          1           0        5.922500    4.718900   -1.436500
     14          1           0        5.192900    3.140900   -1.056300
     15          6           0        4.864500    6.129400    0.566700
     16          8           0        3.901500    6.652700    1.122700
     17          7           0        5.846000    6.834900    0.000000
     18          1           0        6.617600    6.359200   -0.445500
     19          6           0        5.846100    8.283900    0.000000
     20          1           0        5.332300    8.647700   -0.889800
     21          6           0        5.134700    8.832900    1.232200
     22          1           0        5.643100    8.484600    2.131200
     23          1           0        5.149900    9.922400    1.205800
     24          1           0        4.101900    8.484600    1.241400
     25          6           0        7.266000    8.831800    0.000000
     26          8           0        7.517800    9.911900    0.529500
     27          7           0        8.195800    8.082500   -0.596900
     28          1           0        7.940000    7.201100   -1.018500
     29          6           0        9.583600    8.493800   -0.663800
     30          1           0        9.656700    9.442500   -1.195400
     31          6           0       10.171700    8.670800    0.732100
     32          1           0       10.114000    7.726600    1.273700
     33          1           0       11.213900    8.979600    0.651400
     34          1           0        9.608200    9.432900    1.270400
     35          6           0       10.426800    7.459700   -1.396000
     36          8           0        9.911700    6.436200   -1.840300
     37          7           0       11.728300    7.729700   -1.521100
     38          1           0       12.105600    8.585000   -1.138800
     39          6           0       12.636400    6.825200   -2.197000
     40          1           0       12.085400    5.954200   -2.551700
     41          1           0       13.093800    7.335200   -3.044900
     42          1           0       13.414100    6.505000   -1.503700
 ---------------------------------------------------------------------
                    Distance matrix (angstroms):
                    1          2          3          4          5
     1  H    0.000000
     2  C    1.090000   0.000000
     3  H    1.780250   1.090003   0.000000
     4  H    1.780297   1.089979   1.779618   0.000000
     5  C    2.174806   1.530013   2.143580   2.143550   0.000000
     6  O    2.546510   2.400017   3.091799   3.091783   1.229000
     7  N    3.352364   2.439774   2.714979   2.714889   1.335046
     8  H    3.630975   2.572851   2.601234   2.601162   2.037368
     9  C    4.604487   3.809344   4.098107   4.098044   2.434354
    10  H    4.836894   4.166035   4.340784   4.691349   2.741734
    11  C    5.029583   4.411742   5.005594   4.546424   3.000783
    12  H    5.166907   4.495373   5.160368   4.363865   3.309765
    13  H    6.060154   5.459521   5.998788   5.629655   4.003998
    14  H    4.541940   4.141275   4.867863   4.390614   2.731424
    15  C    5.802502   4.865701   4.971044   4.970955   3.717800
    16  O    5.874951   4.835314   4.784680   4.784583   4.015637
    17  N    6.988387   6.107828   6.244442   6.244350   4.841468
    18  H    7.152600   6.376890   6.604077   6.603992   4.977890
    19  C    8.236951   7.290854   7.334149   7.334064   6.139571
    20  H    8.621754   7.671425   7.813309   7.575578   6.556523
    21  C    8.288111   7.266716   7.106809   7.282684   6.344751
    22  H    8.114537   7.121614   6.842875   7.282279   6.211123
    23  H    9.330847   8.294696   8.109567   8.260829   7.414663
    24  H    7.681218   6.623654   6.465978   6.521510   5.854384
    25  C    9.359710   8.468704   8.482540   8.630120   7.220983
    26  O   10.314495   9.388768   9.301048   9.545418   8.216814
    27  N    9.422302   8.632962   8.748394   8.881150   7.254396
    28  H    8.748339   8.012686   8.229045   8.264565   6.580499
    29  C   10.621179   9.882361   9.975251  10.203406   8.472279
    30  H   11.489117  10.713695  10.818041  10.960163   9.322934
    31  C   10.903205  10.165905  10.109048  10.589900   8.820861
    32  H   10.169021   9.483306   9.399698   9.993717   8.145607
    33  H   11.872516  11.169118  11.114746  11.623106   9.807092
    34  H   11.038520  10.230019  10.091571  10.604208   8.968684
    35  C   10.739428  10.121328  10.321963  10.506694   8.635335
    36  O    9.920758   9.367957   9.670471   9.750883   7.851954
    37  N   11.917636  11.337875  11.519969  11.768087   9.847910
    38  H   12.604789  11.980547  12.094951  12.406277  10.518463
    39  C   12.383215  11.909374  12.167274  12.383601  10.394880
    40  H   11.668498  11.249080  11.580752  11.719690   9.725103
    41  H   13.293587  12.810028  13.102578  13.235894  11.287789
    42  H   12.681922  12.248197  12.451344  12.801096  10.754453
                    6          7          8          9         10
     6  O    0.000000
     7  N    2.252836   0.000000
     8  H    3.150119   1.010027   0.000000
     9  C    2.775336   1.448945   2.120944   0.000000
    10  H    2.787516   2.083686   2.828817   1.089920   0.000000
    11  C    2.936721   2.452752   3.194542   1.525014   2.139123
    12  H    3.474123   2.702693   3.202545   2.150260   3.041309
    13  H    3.813815   3.386948   4.082912   2.150255   2.459632
    14  H    2.268899   2.702674   3.605887   2.150184   2.466205
    15  C    4.264178   2.450201   2.528535   1.522011   2.136546
    16  O    4.840197   2.683382   2.268909   2.392854   3.085297
    17  N    5.166717   3.668262   3.857785   2.432763   2.707643
    18  H    5.058849   3.978949   4.391090   2.567954   2.595341
    19  C    6.569753   4.884618   4.856575   3.801916   4.090494
    20  H    7.000773   5.309069   5.242739   4.279347   4.757728
    21  C    6.995356   5.027650   4.725841   4.285252   4.590056
    22  H    6.836901   4.952532   4.687980   4.252796   4.330827
    23  H    8.078926   6.090666   5.737412   5.358189   5.662470
    24  H    6.644768   4.522274   4.054300   4.039741   4.551732
    25  C    7.488509   6.044576   6.135410   4.820179   4.817899
    26  O    8.555131   7.003687   6.986715   5.871830   5.840611
    27  N    7.300094   6.223312   6.521503   4.850503   4.682660
    28  H    6.530160   5.634857   6.047173   4.208666   4.059062
    29  C    8.407914   7.514892   7.862764   6.126570   5.803370
    30  H    9.308335   8.306954   8.589728   6.927496   6.714909
    31  C    8.795159   7.879061   8.179916   6.588047   6.098107
    32  H    8.066874   7.294829   7.656757   6.048670   5.420307
    33  H    9.715010   8.910054   9.241695   7.606994   7.070146
    34  H    9.088818   7.929538   8.097519   6.721889   6.319361
    35  C    8.354148   7.856906   8.372364   6.424858   5.997389
    36  O    7.466232   7.182804   7.796828   5.748087   5.339554
    37  N    9.503930   9.117085   9.650208   7.696303   7.197224
    38  H   10.248225   9.719573  10.183077   8.314322   7.818578
    39  C    9.891915   9.813750  10.451082   8.406443   7.853827
    40  H    9.144494   9.231762   9.933253   7.841208   7.303992
    41  H   10.789326  10.681992  11.303579   9.256232   8.774231
    42  H   10.214511  10.231414  10.886243   8.865916   8.203960
                   11         12         13         14         15
    11  C    0.000000
    12  H    1.090043   0.000000
    13  H    1.090009   1.779639   0.000000
    14  H    1.089930   1.779674   1.779593   0.000000
    15  C    2.461889   2.701178   2.668648   3.416593   0.000000
    16  O    3.417399   3.376818   3.791244   4.329953   1.228962
    17  N    2.895813   3.227476   2.558679   3.897171   1.334999
    18  H    2.692187   3.243991   2.038585   3.572156   2.037331
    19  C    4.249842   4.384183   3.844294   5.290831   2.434452
    20  H    4.435477   4.332089   4.010322   5.511080   2.946534
    21  C    5.113322   5.189335   4.966647   6.135103   2.797286
    22  H    5.306133   5.567291   5.194906   6.238427   2.932720
    23  H    6.104851   6.115412   5.886856   7.148964   3.857039
    24  H    4.901868   4.810318   4.966511   5.918178   2.565881
    25  C    5.199402   5.519432   4.558999   6.148159   3.659415
    26  O    6.375183   6.665183   5.777317   7.332555   4.620464
    27  N    4.982578   5.459031   4.145676   5.800678   4.033128
    28  H    4.137754   4.661306   3.225887   4.902368   3.622168
    29  C    6.223164   6.777043   5.315128   6.934396   5.419818
    30  H    6.953609   7.387482   6.026174   7.723666   6.086609
    31  C    6.981619   7.637843   6.194840   7.652883   5.886633
    32  H    6.541244   7.307223   5.827531   7.118621   5.532463
    33  H    7.939640   8.618114   7.107166   8.559153   6.960294
    34  H    7.266479   7.839263   6.567609   8.031044   5.823315
    35  C    6.274016   6.926987   5.272793   6.794199   6.046575
    36  O    5.394379   6.077709   4.361868   5.808677   5.600179
    37  N    7.546118   8.225387   6.540595   7.999036   7.350620
    38  H    8.280872   8.936006   7.298361   8.799458   7.834043
    39  C    8.094895   8.818053   7.077522   8.383374   8.277959
    40  H    7.396448   8.129664   6.383649   7.593249   7.867434
    41  H    8.852490   9.500738   7.801251   9.163564   9.067469
    42  H    8.667261   9.469701   7.701866   8.894125   8.804731
                   16         17         18         19         20
    16  O    0.000000
    17  N    2.252717   0.000000
    18  H    3.150015   1.010014   0.000000
    19  C    2.775381   1.449000   2.120885   0.000000
    20  H    3.174487   2.083717   2.662073   1.089993   0.000000
    21  C    2.507199   2.452808   3.336594   1.525060   2.139212
    22  H    2.721415   2.702719   3.479419   2.150233   3.041322
    23  H    3.500906   3.386911   4.192533   2.150193   2.459608
    24  H    1.846648   2.702678   3.700230   2.150253   2.466272
    25  C    4.162787   2.450308   2.594734   1.521943   2.136547
    26  O    4.904273   3.541640   3.792448   2.392767   2.896381
    27  N    4.841732   2.726601   2.341666   2.432682   2.933407
    28  H    4.603799   2.357176   1.669091   2.567920   2.984847
    29  C    6.234380   4.142733   3.660782   3.801788   4.260084
    30  H    6.802860   4.769695   4.393770   4.158366   4.407441
    31  C    6.598538   4.755857   4.400212   4.404143   5.104007
    32  H    6.306443   4.542385   4.129194   4.488637   5.328584
    33  H    7.688158   5.817079   5.403301   5.451752   6.089226
    34  H    6.349626   4.745279   4.619051   4.133705   4.854516
    35  C    7.040926   4.829381   4.077322   4.859108   5.255617
    36  O    6.704383   4.480578   3.578057   4.830093   5.173499
    37  N    8.331171   6.141324   5.399485   6.100915   6.492309
    38  H    8.726707   6.598660   5.962633   6.369369   6.778165
    39  C    9.346050   7.136977   6.285767   7.284421   7.640691
    40  H    8.998074   6.798303   5.873410   7.132148   7.457963
    41  H   10.115981   7.877330   7.046320   7.918371   8.161372
    42  H    9.869618   7.723088   6.879931   7.918347   8.383527
                   21         22         23         24         25
    21  C    0.000000
    22  H    1.089947   0.000000
    23  H    1.089926   1.779573   0.000000
    24  H    1.089988   1.779618   1.779562   0.000000
    25  C    2.461861   2.701179   2.668565   3.416599   0.000000
    26  O    2.708726   2.849057   2.462609   3.769928   1.228979
    27  N    3.644042   3.757724   3.989043   4.505668   1.335016
    28  H    3.949447   4.104112   4.487498   4.635249   2.037351
    29  C    4.847939   4.831113   5.019362   5.803353   2.434367
    30  H    5.168495   5.300266   5.129065   6.140958   2.741784
    31  C    5.064360   4.743455   5.197054   6.093975   3.000831
    32  H    5.100887   4.615064   5.428484   6.059782   3.309816
    33  H    6.108643   5.785209   6.161844   7.153577   4.004008
    34  H    4.513719   4.166805   4.485557   5.587437   2.731508
    35  C    6.066254   6.031198   6.378082   6.928972   3.717813
    36  O    6.164751   6.179782   6.641314   6.888149   4.015636
    37  N    7.230026   7.137144   7.451125   8.146365   4.841538
    38  H    7.367262   7.243403   7.461069   8.350727   4.977902
    39  C    8.489156   8.390064   8.787456   9.349540   6.139581
    40  H    8.421226   8.356776   8.829869   9.193846   6.165904
    41  H    9.158819   9.144729   9.373772  10.027350   6.743477
    42  H    9.025117   8.804530   9.344357   9.908151   6.743459
                   26         27         28         29         30
    26  O    0.000000
    27  N    2.252813   0.000000
    28  H    3.150078   1.009973   0.000000
    29  C    2.775338   1.449011   2.120921   0.000000
    30  H    2.787563   2.083754   2.828821   1.089942   0.000000
    31  C    2.936760   2.452859   3.194543   1.525034   2.139159
    32  H    3.474136   2.702832   3.202594   2.150308   3.041363
    33  H    3.813817   3.387030   4.082897   2.150263   2.459638
    34  H    2.268953   2.702825   3.605951   2.150266   2.466296
    35  C    4.264167   2.450266   2.528548   1.521994   2.136537
    36  O    4.840165   2.683405   2.268927   2.392806   3.085249
    37  N    5.166746   3.668402   3.857880   2.432807   2.707636
    38  H    5.058834   3.979032   4.391113   2.567962   2.595308
    39  C    6.569748   4.884675   4.856577   3.801910   4.090486
    40  H    6.783815   4.845605   4.592364   4.033948   4.461656
    41  H    7.106862   5.526442   5.539489   4.396987   4.435653
    42  H    7.106843   5.526432   5.539472   4.396986   4.779332
                   31         32         33         34         35
    31  C    0.000000
    32  H    1.090034   0.000000
    33  H    1.089977   1.779620   0.000000
    34  H    1.089998   1.779692   1.779583   0.000000
    35  C    2.461839   2.701181   2.668608   3.416623   0.000000
    36  O    3.417350   3.376841   3.791197   4.329986   1.228936
    37  N    2.895787   3.227519   2.558635   3.897202   1.335085
    38  H    2.692136   3.243991   2.038542   3.572140   2.037356
    39  C    4.249778   4.384151   3.844259   5.290837   2.434445
    40  H    4.671778   4.654192   4.491370   5.731171   2.520541
    41  H    4.958652   5.261436   4.461021   5.930562   3.138034
    42  H    4.494736   4.482959   3.950820   5.545548   3.137995
                   36         37         38         39         40
    36  O    0.000000
    37  N    2.252791   0.000000
    38  H    3.150022   1.009974   0.000000
    39  C    2.775346   1.449002   2.120951   0.000000
    40  H    2.337389   2.083760   2.986269   1.089979   0.000000
    41  H    3.519236   2.083791   2.484302   1.090068   1.779685
    42  H    3.519210   2.083774   2.484296   1.089959   1.779643
                   41         42
    41  H    0.000000
    42  H    1.779641   0.000000
 Stoichiometry    C12H22N4O4
 Framework group  C1[X(C12H22N4O4)]
 Deg. of freedom   120
 Full point group                 C1      NOp   1
 Largest Abelian subgroup         C1      NOp   1
 Largest concise Abelian subgroup C1      NOp   1
                         Standard orientation:                         
 ---------------------------------------------------------------------
 Center     Atomic      Atomic             Coordinates (Angstroms)
 Number     Number       Type             X           Y           Z
 ---------------------------------------------------------------------
      1          1           0       -6.909024   -1.958587    0.865609
      2          6           0       -6.332228   -1.046390    0.712964
      3          1           0       -6.394096   -0.423263    1.605149
      4          1           0       -6.734641   -0.499824   -0.139904
      5          6           0       -4.860775   -1.364373    0.439741
      6          8           0       -4.468562   -2.528831    0.414298
      7          7           0       -4.051789   -0.322070    0.236036
      8          1           0       -4.421168    0.617483    0.266931
      9          6           0       -2.638015   -0.491184   -0.032449
     10          1           0       -2.167429   -1.005061    0.805647
     11          6           0       -2.413898   -1.314162   -1.296627
     12          1           0       -2.871681   -0.807707   -2.146410
     13          1           0       -1.344105   -1.425056   -1.473724
     14          1           0       -2.865403   -2.298649   -1.174663
     15          6           0       -1.952312    0.853847   -0.225378
     16          8           0       -2.594613    1.898586   -0.145882
     17          7           0       -0.642103    0.825802   -0.479908
     18          1           0       -0.157310   -0.058499   -0.535710
     19          6           0        0.124748    2.038395   -0.682790
     20          1           0        0.120553    2.298638   -1.741251
     21          6           0       -0.467164    3.200874    0.107204
     22          1           0       -0.461428    2.958891    1.169935
     23          1           0        0.128240    4.097610   -0.063959
     24          1           0       -1.491967    3.378087   -0.219060
     25          6           0        1.567064    1.856474   -0.232301
     26          8           0        2.211892    2.811032    0.195958
     27          7           0        2.072952    0.624891   -0.330016
     28          1           0        1.503311   -0.128111   -0.688546
     29          6           0        3.433494    0.322383    0.066277
     30          1           0        4.126456    0.918487   -0.527388
     31          6           0        3.658869    0.638173    1.541136
     32          1           0        2.978311    0.041990    2.149067
     33          1           0        4.688100    0.401488    1.810793
     34          1           0        3.471549    1.697074    1.719280
     35          6           0        3.751886   -1.150444   -0.147901
     36          8           0        2.902224   -1.912449   -0.603647
     37          7           0        4.982024   -1.550328    0.182715
     38          1           0        5.646192   -0.886160    0.553941
     39          6           0        5.407732   -2.926508    0.026163
     40          1           0        4.587449   -3.516907   -0.382026
     41          1           0        6.258749   -2.968978   -0.653700
     42          1           0        5.697826   -3.330238    0.996141
 ---------------------------------------------------------------------
 Rotational constants (GHZ):      0.5025415      0.1411331      0.1157678
 Standard basis: 6-31G(d) (6D, 7F)
 There are   344 symmetry adapted basis functions of A   symmetry.
 Integral buffers will be    131072 words long.
 Raffenetti 2 integral format.
 Two-electron integral symmetry is turned on.
   344 basis functions,   648 primitive gaussians,   344 cartesian basis functions
    77 alpha electrons       77 beta electrons
       nuclear repulsion energy      1618.7641097314 Hartrees.
 NAtoms=   42 NActive=   42 NUniq=   42 SFac= 7.50D-01 NAtFMM=   80 NAOKFM=F Big=F
 One-electron integrals computed using PRISM.
 NBasis=   344 RedAO= T  NBF=   344
 NBsUse=   344 1.00D-06 NBFU=   344
 Harris functional with IExCor=  402 diagonalized for initial guess.
 ExpMin= 1.61D-01 ExpMax= 5.48D+03 ExpMxC= 8.25D+02 IAcc=1 IRadAn=         1 AccDes= 0.00D+00
 HarFok:  IExCor=  402 AccDes= 0.00D+00 IRadAn=         1 IDoV= 1
 ScaDFX=  1.000000  1.000000  1.000000  1.000000
 FoFCou: FMM=F IPFlag=           0 FMFlag=      100000 FMFlg1=           0
         NFxFlg=           0 DoJE=T BraDBF=F KetDBF=T FulRan=T
         Omega=  0.000000  0.000000  1.000000  0.000000  0.000000 ICntrl=     500 IOpCl=  0
         NMat0=    1 NMatS0=    1 NMatT0=    0 NMatD0=    1 NMtDS0=    0 NMtDT0=    0
         I1Cent=           4 NGrid=           0.
 Petite list used in FoFCou.
 Initial guess orbital symmetries:
       Occupied  (A) (A) (A) (A) (A) (A) (A) (A) (A) (A) (A) (A)
                 (A) (A) (A) (A) (A) (A) (A) (A) (A) (A) (A) (A)
                 (A) (A) (A) (A) (A) (A) (A) (A) (A) (A) (A) (A)
                 (A) (A) (A) (A) (A) (A) (A) (A) (A) (A) (A) (A)
                 (A) (A) (A) (A) (A) (A) (A) (A) (A) (A) (A) (A)
                 (A) (A) (A) (A) (A) (A) (A) (A) (A) (A) (A) (A)
                 (A) (A) (A) (A) (A)
       Virtual   (A) (A) (A) (A) (A) (A) (A) (A) (A) (A) (A) (A)
                 (A) (A) (A) (A) (A) (A) (A) (A) (A) (A) (A) (A)
                 (A) (A) (A) (A) (A) (A) (A) (A) (A) (A) (A) (A)
                 (A) (A) (A) (A) (A) (A) (A) (A) (A) (A) (A) (A)
                 (A) (A) (A) (A) (A) (A) (A) (A) (A) (A) (A) (A)
                 (A) (A) (A) (A) (A) (A) (A) (A) (A) (A) (A) (A)
                 (A) (A) (A) (A) (A) (A) (A) (A) (A) (A) (A) (A)
                 (A) (A) (A) (A) (A) (A) (A) (A) (A) (A) (A) (A)
                 (A) (A) (A) (A) (A) (A) (A) (A) (A) (A) (A) (A)
                 (A) (A) (A) (A) (A) (A) (A) (A) (A) (A) (A) (A)
                 (A) (A) (A) (A) (A) (A) (A) (A) (A) (A) (A) (A)
                 (A) (A) (A) (A) (A) (A) (A) (A) (A) (A) (A) (A)
                 (A) (A) (A) (A) (A) (A) (A) (A) (A) (A) (A) (A)
                 (A) (A) (A) (A) (A) (A) (A) (A) (A) (A) (A) (A)
                 (A) (A) (A) (A) (A) (A) (A) (A) (A) (A) (A) (A)
                 (A) (A) (A) (A) (A) (A) (A) (A) (A) (A) (A) (A)
                 (A) (A) (A) (A) (A) (A) (A) (A) (A) (A) (A) (A)
                 (A) (A) (A) (A) (A) (A) (A) (A) (A) (A) (A) (A)
                 (A) (A) (A) (A) (A) (A) (A) (A) (A) (A) (A) (A)
                 (A) (A) (A) (A) (A) (A) (A) (A) (A) (A) (A) (A)
                 (A) (A) (A) (A) (A) (A) (A) (A) (A) (A) (A) (A)
                 (A) (A) (A) (A) (A) (A) (A) (A) (A) (A) (A) (A)
                 (A) (A) (A)
 The electronic state of the initial guess is 1-A.
 Requested convergence on RMS density matrix=1.00D-08 within 128 cycles.
 Requested convergence on MAX density matrix=1.00D-06.
 Requested convergence on             energy=1.00D-06.
 No special actions if energy rises.
 Integral accuracy reduced to 1.0D-05 until final iterations.
 Initial convergence to 1.0D-05 achieved.  Increase integral accuracy.
 SCF Done:  E(RB3LYP) =  -990.463049378     A.U. after   15 cycles
             Convg  =    0.5981D-08             -V/T =  2.0085
 Range of M.O.s used for correlation:     1   344
 NBasis=   344 NAE=    77 NBE=    77 NFC=     0 NFV=     0
 NROrb=    344 NOA=    77 NOB=    77 NVA=   267 NVB=   267
 Symmetrizing basis deriv contribution to polar:
 IMax=3 JMax=2 DiffMx= 0.00D+00
 G2DrvN: will do    43 centers at a time, making    1 passes doing MaxLOS=2.
 Calling FoFCou, ICntrl=  3107 FMM=F I1Cent=   0 AccDes= 0.00D+00.
 FoFDir/FoFCou used for L=0 through L=2.
 End of G2Drv Frequency-dependent properties file   721 does not exist.
 End of G2Drv Frequency-dependent properties file   722 does not exist.
          IDoAtm=111111111111111111111111111111111111111111
          Differentiating once with respect to nuclear coordinates.
          There are   129 degrees of freedom in the 1st order CPHF.  IDoFFX=5.
    123 vectors produced by pass  0 Test12= 2.06D-10 1.00D-07 XBig12= 2.08D-01 7.64D-02.
 AX will form   123 AO Fock derivatives at one time.
    123 vectors produced by pass  1 Test12= 2.06D-10 1.00D-07 XBig12= 6.85D-02 6.78D-02.
    123 vectors produced by pass  2 Test12= 2.06D-10 1.00D-07 XBig12= 4.72D-05 8.79D-04.
    123 vectors produced by pass  3 Test12= 2.06D-10 1.00D-07 XBig12= 1.19D-07 5.54D-05.
     65 vectors produced by pass  4 Test12= 2.06D-10 1.00D-07 XBig12= 1.22D-10 1.18D-06.
 Inverted reduced A of dimension   557 with in-core refinement.
 End of Minotr Frequency-dependent properties file   721 does not exist.
 End of Minotr Frequency-dependent properties file   722 does not exist.

 **********************************************************************

            Population analysis using the SCF density.

 **********************************************************************

 Orbital symmetries:
       Occupied  (A) (A) (A) (A) (A) (A) (A) (A) (A) (A) (A) (A)
                 (A) (A) (A) (A) (A) (A) (A) (A) (A) (A) (A) (A)
                 (A) (A) (A) (A) (A) (A) (A) (A) (A) (A) (A) (A)
                 (A) (A) (A) (A) (A) (A) (A) (A) (A) (A) (A) (A)
                 (A) (A) (A) (A) (A) (A) (A) (A) (A) (A) (A) (A)
                 (A) (A) (A) (A) (A) (A) (A) (A) (A) (A) (A) (A)
                 (A) (A) (A) (A) (A)
       Virtual   (A) (A) (A) (A) (A) (A) (A) (A) (A) (A) (A) (A)
                 (A) (A) (A) (A) (A) (A) (A) (A) (A) (A) (A) (A)
                 (A) (A) (A) (A) (A) (A) (A) (A) (A) (A) (A) (A)
                 (A) (A) (A) (A) (A) (A) (A) (A) (A) (A) (A) (A)
                 (A) (A) (A) (A) (A) (A) (A) (A) (A) (A) (A) (A)
                 (A) (A) (A) (A) (A) (A) (A) (A) (A) (A) (A) (A)
                 (A) (A) (A) (A) (A) (A) (A) (A) (A) (A) (A) (A)
                 (A) (A) (A) (A) (A) (A) (A) (A) (A) (A) (A) (A)
                 (A) (A) (A) (A) (A) (A) (A) (A) (A) (A) (A) (A)
                 (A) (A) (A) (A) (A) (A) (A) (A) (A) (A) (A) (A)
                 (A) (A) (A) (A) (A) (A) (A) (A) (A) (A) (A) (A)
                 (A) (A) (A) (A) (A) (A) (A) (A) (A) (A) (A) (A)
                 (A) (A) (A) (A) (A) (A) (A) (A) (A) (A) (A) (A)
                 (A) (A) (A) (A) (A) (A) (A) (A) (A) (A) (A) (A)
                 (A) (A) (A) (A) (A) (A) (A) (A) (A) (A) (A) (A)
                 (A) (A) (A) (A) (A) (A) (A) (A) (A) (A) (A) (A)
                 (A) (A) (A) (A) (A) (A) (A) (A) (A) (A) (A) (A)
                 (A) (A) (A) (A) (A) (A) (A) (A) (A) (A) (A) (A)
                 (A) (A) (A) (A) (A) (A) (A) (A) (A) (A) (A) (A)
                 (A) (A) (A) (A) (A) (A) (A) (A) (A) (A) (A) (A)
                 (A) (A) (A) (A) (A) (A) (A) (A) (A) (A) (A) (A)
                 (A) (A) (A) (A) (A) (A) (A) (A) (A) (A) (A) (A)
                 (A) (A) (A)
 The electronic state is 1-A.
 Alpha  occ. eigenvalues --  -19.12991 -19.11927 -19.11513 -19.09575 -14.38379
 Alpha  occ. eigenvalues --  -14.37801 -14.37441 -14.35283 -10.30326 -10.29696
 Alpha  occ. eigenvalues --  -10.29105 -10.27554 -10.24993 -10.23798 -10.23647
 Alpha  occ. eigenvalues --  -10.23258 -10.18999 -10.18252 -10.17826 -10.15344
 Alpha  occ. eigenvalues --   -1.05708  -1.05250  -1.04045  -1.02099  -0.95336
 Alpha  occ. eigenvalues --   -0.94651  -0.93413  -0.92052  -0.80711  -0.79007
 Alpha  occ. eigenvalues --   -0.75829  -0.72494  -0.72013  -0.67946  -0.66035
 Alpha  occ. eigenvalues --   -0.64127  -0.61706  -0.60738  -0.58024  -0.57544
 Alpha  occ. eigenvalues --   -0.57235  -0.54028  -0.50872  -0.50043  -0.49681
 Alpha  occ. eigenvalues --   -0.48939  -0.47261  -0.46908  -0.45347  -0.44806
 Alpha  occ. eigenvalues --   -0.44568  -0.43522  -0.43134  -0.41800  -0.41374
 Alpha  occ. eigenvalues --   -0.41254  -0.41134  -0.40649  -0.39443  -0.39135
 Alpha  occ. eigenvalues --   -0.38451  -0.38221  -0.38028  -0.37172  -0.37034
 Alpha  occ. eigenvalues --   -0.36377  -0.35548  -0.35332  -0.34171  -0.27868
 Alpha  occ. eigenvalues --   -0.27580  -0.27082  -0.26283  -0.25148  -0.24612
 Alpha  occ. eigenvalues --   -0.24450  -0.23306
 Alpha virt. eigenvalues --    0.00998   0.01608   0.02427   0.03403   0.04517
 Alpha virt. eigenvalues --    0.05320   0.09943   0.10826   0.12140   0.12718
 Alpha virt. eigenvalues --    0.12967   0.13961   0.14265   0.14374   0.14819
 Alpha virt. eigenvalues --    0.15239   0.15484   0.15709   0.16202   0.16990
 Alpha virt. eigenvalues --    0.17726   0.18038   0.18828   0.19003   0.19682
 Alpha virt. eigenvalues --    0.20035   0.20270   0.20490   0.21908   0.22552
 Alpha virt. eigenvalues --    0.23822   0.24416   0.24948   0.26223   0.27072
 Alpha virt. eigenvalues --    0.28698   0.30400   0.33535   0.34107   0.35665
 Alpha virt. eigenvalues --    0.37928   0.39584   0.42011   0.43493   0.44394
 Alpha virt. eigenvalues --    0.49244   0.50362   0.50810   0.51357   0.51508
 Alpha virt. eigenvalues --    0.52453   0.53007   0.53289   0.54403   0.54536
 Alpha virt. eigenvalues --    0.55277   0.55860   0.56421   0.57345   0.58941
 Alpha virt. eigenvalues --    0.59344   0.60776   0.61451   0.62236   0.63805
 Alpha virt. eigenvalues --    0.64523   0.65093   0.66079   0.67049   0.67237
 Alpha virt. eigenvalues --    0.68151   0.69256   0.70175   0.71613   0.72860
 Alpha virt. eigenvalues --    0.72915   0.73827   0.74639   0.75350   0.76927
 Alpha virt. eigenvalues --    0.77762   0.78752   0.79476   0.80363   0.81611
 Alpha virt. eigenvalues --    0.82158   0.83578   0.84739   0.84924   0.85491
 Alpha virt. eigenvalues --    0.86279   0.86935   0.87559   0.88159   0.88556
 Alpha virt. eigenvalues --    0.88795   0.88996   0.89723   0.89993   0.90937
 Alpha virt. eigenvalues --    0.91676   0.91800   0.92720   0.93321   0.93706
 Alpha virt. eigenvalues --    0.94856   0.95210   0.95404   0.96384   0.97021
 Alpha virt. eigenvalues --    0.98868   0.99781   1.00381   1.01710   1.02903
 Alpha virt. eigenvalues --    1.03398   1.04895   1.07177   1.08222   1.10005
 Alpha virt. eigenvalues --    1.10656   1.11671   1.12811   1.15643   1.17164
 Alpha virt. eigenvalues --    1.19616   1.22643   1.25768   1.26277   1.28060
 Alpha virt. eigenvalues --    1.29654   1.30209   1.31002   1.33313   1.33810
 Alpha virt. eigenvalues --    1.34506   1.35256   1.37717   1.38083   1.42033
 Alpha virt. eigenvalues --    1.43223   1.44517   1.45696   1.46742   1.47096
 Alpha virt. eigenvalues --    1.49448   1.50732   1.51534   1.53084   1.60568
 Alpha virt. eigenvalues --    1.62988   1.64325   1.67204   1.69563   1.70237
 Alpha virt. eigenvalues --    1.71319   1.72337   1.74327   1.74743   1.77273
 Alpha virt. eigenvalues --    1.77494   1.79507   1.80973   1.81354   1.81832
 Alpha virt. eigenvalues --    1.82899   1.83172   1.83796   1.84299   1.84408
 Alpha virt. eigenvalues --    1.85382   1.86268   1.86889   1.88111   1.90457
 Alpha virt. eigenvalues --    1.90856   1.91860   1.92561   1.94834   1.95267
 Alpha virt. eigenvalues --    1.95825   1.96317   1.99434   2.00481   2.01773
 Alpha virt. eigenvalues --    2.02848   2.04354   2.04614   2.05524   2.05915
 Alpha virt. eigenvalues --    2.07231   2.09839   2.10750   2.13454   2.14018
 Alpha virt. eigenvalues --    2.17428   2.19424   2.20894   2.23824   2.24294
 Alpha virt. eigenvalues --    2.26043   2.26688   2.27382   2.28715   2.28898
 Alpha virt. eigenvalues --    2.29358   2.30743   2.31823   2.33646   2.34371
 Alpha virt. eigenvalues --    2.35886   2.37391   2.39990   2.40279   2.42898
 Alpha virt. eigenvalues --    2.43762   2.44208   2.45648   2.46610   2.50919
 Alpha virt. eigenvalues --    2.53784   2.54688   2.57930   2.59191   2.60725
 Alpha virt. eigenvalues --    2.61413   2.64697   2.66963   2.69375   2.71422
 Alpha virt. eigenvalues --    2.72258   2.74016   2.74605   2.80970   2.84343
 Alpha virt. eigenvalues --    2.85605   2.90038   2.93354   2.95857   2.97724
 Alpha virt. eigenvalues --    2.98636   3.00747   3.06144   3.14519   3.16831
 Alpha virt. eigenvalues --    3.22927   3.26008   3.95750   3.98426   4.01589
 Alpha virt. eigenvalues --    4.04071   4.05870   4.09901   4.11659   4.16698
 Alpha virt. eigenvalues --    4.20809   4.22464   4.25100   4.27816   4.29597
 Alpha virt. eigenvalues --    4.38268   4.42436   4.46050   4.48103   4.57460
 Alpha virt. eigenvalues --    4.62288   4.70673
          Condensed to atoms (all electrons):
              1          2          3          4          5          6
     1  H    0.505457   0.360461  -0.021625  -0.021582  -0.018246   0.005044
     2  C    0.360461   5.325333   0.351216   0.351710   0.358065  -0.079259
     3  H   -0.021625   0.351216   0.549846  -0.026611  -0.025134   0.001462
     4  H   -0.021582   0.351710  -0.026611   0.551409  -0.026614   0.001292
     5  C   -0.018246   0.358065  -0.025134  -0.026614   4.337573   0.592969
     6  O    0.005044  -0.079259   0.001462   0.001292   0.592969   8.084090
     7  N    0.004596  -0.135236   0.004201   0.004603   0.226734  -0.107941
     8  H   -0.000145  -0.001144   0.001167   0.000865  -0.016133   0.003070
     9  C   -0.000147   0.007372  -0.000276   0.000007  -0.021219   0.013397
    10  H    0.000002   0.000151  -0.000019  -0.000002  -0.001288   0.004892
    11  C    0.000014  -0.000751   0.000017   0.000031  -0.006334  -0.018407
    12  H    0.000000  -0.000005  -0.000001   0.000002   0.000893  -0.000165
    13  H    0.000000   0.000007   0.000000  -0.000001   0.000343   0.000331
    14  H    0.000000   0.000617  -0.000008  -0.000055   0.003075   0.023639
    15  C    0.000000  -0.000037  -0.000017  -0.000014   0.006615   0.000838
    16  O    0.000000  -0.000047   0.000000  -0.000001   0.000496  -0.000005
    17  N    0.000000   0.000001   0.000000   0.000000  -0.000076  -0.000003
    18  H    0.000000   0.000000   0.000000   0.000000   0.000003   0.000003
    19  C    0.000000   0.000000   0.000000   0.000000   0.000001   0.000000
    20  H    0.000000   0.000000   0.000000   0.000000   0.000000   0.000000
    21  C    0.000000   0.000000   0.000000   0.000000   0.000000   0.000000
    22  H    0.000000   0.000000   0.000000   0.000000   0.000000   0.000000
    23  H    0.000000   0.000000   0.000000   0.000000   0.000000   0.000000
    24  H    0.000000   0.000000   0.000000   0.000000   0.000000   0.000000
    25  C    0.000000   0.000000   0.000000   0.000000   0.000000   0.000000
    26  O    0.000000   0.000000   0.000000   0.000000   0.000000   0.000000
    27  N    0.000000   0.000000   0.000000   0.000000   0.000000   0.000000
    28  H    0.000000   0.000000   0.000000   0.000000   0.000000   0.000000
    29  C    0.000000   0.000000   0.000000   0.000000   0.000000   0.000000
    30  H    0.000000   0.000000   0.000000   0.000000   0.000000   0.000000
    31  C    0.000000   0.000000   0.000000   0.000000   0.000000   0.000000
    32  H    0.000000   0.000000   0.000000   0.000000   0.000000   0.000000
    33  H    0.000000   0.000000   0.000000   0.000000   0.000000   0.000000
    34  H    0.000000   0.000000   0.000000   0.000000   0.000000   0.000000
    35  C    0.000000   0.000000   0.000000   0.000000   0.000000   0.000000
    36  O    0.000000   0.000000   0.000000   0.000000   0.000000   0.000000
    37  N    0.000000   0.000000   0.000000   0.000000   0.000000   0.000000
    38  H    0.000000   0.000000   0.000000   0.000000   0.000000   0.000000
    39  C    0.000000   0.000000   0.000000   0.000000   0.000000   0.000000
    40  H    0.000000   0.000000   0.000000   0.000000   0.000000   0.000000
    41  H    0.000000   0.000000   0.000000   0.000000   0.000000   0.000000
    42  H    0.000000   0.000000   0.000000   0.000000   0.000000   0.000000
              7          8          9         10         11         12
     1  H    0.004596  -0.000145  -0.000147   0.000002   0.000014   0.000000
     2  C   -0.135236  -0.001144   0.007372   0.000151  -0.000751  -0.000005
     3  H    0.004201   0.001167  -0.000276  -0.000019   0.000017  -0.000001
     4  H    0.004603   0.000865   0.000007  -0.000002   0.000031   0.000002
     5  C    0.226734  -0.016133  -0.021219  -0.001288  -0.006334   0.000893
     6  O   -0.107941   0.003070   0.013397   0.004892  -0.018407  -0.000165
     7  N    7.199412   0.290781   0.248618  -0.049288  -0.055063   0.000028
     8  H    0.290781   0.388104  -0.051018   0.004193   0.004401   0.000640
     9  C    0.248618  -0.051018   5.074341   0.371795   0.346855  -0.037084
    10  H   -0.049288   0.004193   0.371795   0.580083  -0.050553   0.006247
    11  C   -0.055063   0.004401   0.346855  -0.050553   5.206828   0.367392
    12  H    0.000028   0.000640  -0.037084   0.006247   0.367392   0.563554
    13  H    0.005196  -0.000132  -0.036199  -0.000259   0.350055  -0.026995
    14  H   -0.010494  -0.000288  -0.021207  -0.005970   0.359934  -0.025540
    15  C   -0.026164   0.000908   0.320970  -0.035988  -0.044894  -0.003130
    16  O   -0.009659   0.030077  -0.078557   0.001057  -0.000854   0.000917
    17  N    0.003359   0.001324  -0.122319   0.001092   0.001728  -0.000430
    18  H    0.000052  -0.000037  -0.000139   0.001257   0.003153  -0.000160
    19  C   -0.000058  -0.000010   0.003720   0.000021  -0.000051  -0.000027
    20  H    0.000002   0.000001  -0.000056   0.000000   0.000008   0.000013
    21  C    0.000007   0.000049  -0.000838  -0.000011   0.000026   0.000001
    22  H    0.000001   0.000003  -0.000118   0.000013   0.000001   0.000000
    23  H    0.000000  -0.000001   0.000024  -0.000001   0.000000   0.000000
    24  H   -0.000005   0.000008   0.000609  -0.000005  -0.000039   0.000000
    25  C    0.000000   0.000000  -0.000101   0.000016  -0.000019   0.000001
    26  O    0.000000   0.000000   0.000001   0.000000   0.000000   0.000000
    27  N    0.000000   0.000000  -0.000087   0.000000   0.000017   0.000000
    28  H    0.000000   0.000000   0.000001  -0.000015  -0.000187   0.000001
    29  C    0.000000   0.000000   0.000000   0.000000   0.000000   0.000000
    30  H    0.000000   0.000000   0.000000   0.000000   0.000000   0.000000
    31  C    0.000000   0.000000   0.000000   0.000000   0.000000   0.000000
    32  H    0.000000   0.000000   0.000000   0.000000   0.000000   0.000000
    33  H    0.000000   0.000000   0.000000   0.000000   0.000000   0.000000
    34  H    0.000000   0.000000   0.000000   0.000000   0.000000   0.000000
    35  C    0.000000   0.000000   0.000000   0.000000   0.000000   0.000000
    36  O    0.000000   0.000000   0.000000   0.000000  -0.000004   0.000000
    37  N    0.000000   0.000000   0.000000   0.000000   0.000000   0.000000
    38  H    0.000000   0.000000   0.000000   0.000000   0.000000   0.000000
    39  C    0.000000   0.000000   0.000000   0.000000   0.000000   0.000000
    40  H    0.000000   0.000000   0.000000   0.000000   0.000000   0.000000
    41  H    0.000000   0.000000   0.000000   0.000000   0.000000   0.000000
    42  H    0.000000   0.000000   0.000000   0.000000   0.000000   0.000000
             13         14         15         16         17         18
     1  H    0.000000   0.000000   0.000000   0.000000   0.000000   0.000000
     2  C    0.000007   0.000617  -0.000037  -0.000047   0.000001   0.000000
     3  H    0.000000  -0.000008  -0.000017   0.000000   0.000000   0.000000
     4  H   -0.000001  -0.000055  -0.000014  -0.000001   0.000000   0.000000
     5  C    0.000343   0.003075   0.006615   0.000496  -0.000076   0.000003
     6  O    0.000331   0.023639   0.000838  -0.000005  -0.000003   0.000003
     7  N    0.005196  -0.010494  -0.026164  -0.009659   0.003359   0.000052
     8  H   -0.000132  -0.000288   0.000908   0.030077   0.001324  -0.000037
     9  C   -0.036199  -0.021207   0.320970  -0.078557  -0.122319  -0.000139
    10  H   -0.000259  -0.005970  -0.035988   0.001057   0.001092   0.001257
    11  C    0.350055   0.359934  -0.044894  -0.000854   0.001728   0.003153
    12  H   -0.026995  -0.025540  -0.003130   0.000917  -0.000430  -0.000160
    13  H    0.597212  -0.020179  -0.008660  -0.000045   0.004378   0.007215
    14  H   -0.020179   0.479569   0.003998  -0.000078   0.000227  -0.000307
    15  C   -0.008660   0.003998   4.377990   0.565158   0.255929  -0.016377
    16  O   -0.000045  -0.000078   0.565158   8.161403  -0.101567   0.003514
    17  N    0.004378   0.000227   0.255929  -0.101567   7.253099   0.276650
    18  H    0.007215  -0.000307  -0.016377   0.003514   0.276650   0.405000
    19  C    0.000368   0.000006  -0.028327   0.000081   0.206929  -0.039933
    20  H   -0.000031  -0.000002  -0.001563   0.000642  -0.053183   0.003596
    21  C    0.000003   0.000000  -0.003947  -0.047588  -0.049712   0.004304
    22  H   -0.000001   0.000000   0.001722  -0.002764  -0.001383   0.000155
    23  H    0.000000   0.000000   0.000782   0.002266   0.004105  -0.000107
    24  H   -0.000001   0.000000  -0.003265   0.012422  -0.003723  -0.000322
    25  C    0.000005   0.000000   0.001972   0.000334  -0.028113  -0.008144
    26  O    0.000000   0.000000  -0.000053  -0.000001   0.001675  -0.000044
    27  N   -0.000177   0.000000   0.001256  -0.000003  -0.002448   0.014499
    28  H    0.000301   0.000006   0.000177   0.000013   0.000869   0.011211
    29  C   -0.000004   0.000000   0.000001   0.000000   0.000517  -0.000176
    30  H    0.000000   0.000000   0.000001   0.000000  -0.000005   0.000049
    31  C    0.000000   0.000000  -0.000002   0.000000  -0.000020  -0.000067
    32  H    0.000000   0.000000   0.000001   0.000000  -0.000003   0.000047
    33  H    0.000000   0.000000   0.000000   0.000000   0.000000   0.000000
    34  H    0.000000   0.000000   0.000000   0.000000  -0.000023  -0.000009
    35  C    0.000005   0.000000  -0.000001   0.000000  -0.000067  -0.000093
    36  O    0.000051   0.000000  -0.000002   0.000000  -0.000033  -0.000380
    37  N    0.000000   0.000000   0.000000   0.000000   0.000000  -0.000003
    38  H    0.000000   0.000000   0.000000   0.000000   0.000000   0.000000
    39  C    0.000000   0.000000   0.000000   0.000000   0.000000   0.000000
    40  H    0.000000   0.000000   0.000000   0.000000   0.000000   0.000000
    41  H    0.000000   0.000000   0.000000   0.000000   0.000000   0.000000
    42  H    0.000000   0.000000   0.000000   0.000000   0.000000   0.000000
             19         20         21         22         23         24
     1  H    0.000000   0.000000   0.000000   0.000000   0.000000   0.000000
     2  C    0.000000   0.000000   0.000000   0.000000   0.000000   0.000000
     3  H    0.000000   0.000000   0.000000   0.000000   0.000000   0.000000
     4  H    0.000000   0.000000   0.000000   0.000000   0.000000   0.000000
     5  C    0.000001   0.000000   0.000000   0.000000   0.000000   0.000000
     6  O    0.000000   0.000000   0.000000   0.000000   0.000000   0.000000
     7  N   -0.000058   0.000002   0.000007   0.000001   0.000000  -0.000005
     8  H   -0.000010   0.000001   0.000049   0.000003  -0.000001   0.000008
     9  C    0.003720  -0.000056  -0.000838  -0.000118   0.000024   0.000609
    10  H    0.000021   0.000000  -0.000011   0.000013  -0.000001  -0.000005
    11  C   -0.000051   0.000008   0.000026   0.000001   0.000000  -0.000039
    12  H   -0.000027   0.000013   0.000001   0.000000   0.000000   0.000000
    13  H    0.000368  -0.000031   0.000003  -0.000001   0.000000  -0.000001
    14  H    0.000006  -0.000002   0.000000   0.000000   0.000000   0.000000
    15  C   -0.028327  -0.001563  -0.003947   0.001722   0.000782  -0.003265
    16  O    0.000081   0.000642  -0.047588  -0.002764   0.002266   0.012422
    17  N    0.206929  -0.053183  -0.049712  -0.001383   0.004105  -0.003723
    18  H   -0.039933   0.003596   0.004304   0.000155  -0.000107  -0.000322
    19  C    5.110578   0.368954   0.380617  -0.037348  -0.026986  -0.025542
    20  H    0.368954   0.575882  -0.040107   0.005785  -0.001638  -0.002611
    21  C    0.380617  -0.040107   5.155855   0.380206   0.348172   0.360303
    22  H   -0.037348   0.005785   0.380206   0.569424  -0.025422  -0.026068
    23  H   -0.026986  -0.001638   0.348172  -0.025422   0.559768  -0.022865
    24  H   -0.025542  -0.002611   0.360303  -0.026068  -0.022865   0.493328
    25  C    0.332320  -0.031309  -0.038781  -0.005850  -0.005822   0.004705
    26  O   -0.083532   0.000685  -0.004038   0.000908   0.009230   0.000722
    27  N   -0.128484  -0.001264   0.003644   0.000231   0.000442  -0.000057
    28  H   -0.001090  -0.000279   0.000239  -0.000019  -0.000016  -0.000011
    29  C    0.007554  -0.000304  -0.000112  -0.000036  -0.000003   0.000001
    30  H   -0.000047   0.000019  -0.000021   0.000001   0.000001   0.000000
    31  C   -0.000704   0.000001   0.000036   0.000012   0.000004   0.000000
    32  H   -0.000001   0.000001  -0.000009   0.000006   0.000000   0.000000
    33  H    0.000006   0.000000  -0.000001   0.000000   0.000000   0.000000
    34  H    0.000551  -0.000005   0.000006  -0.000005  -0.000007   0.000000
    35  C    0.000021  -0.000005   0.000000   0.000000   0.000000   0.000000
    36  O   -0.000053   0.000000   0.000000   0.000000   0.000000   0.000000
    37  N    0.000001   0.000000   0.000000   0.000000   0.000000   0.000000
    38  H    0.000000   0.000000   0.000000   0.000000   0.000000   0.000000
    39  C    0.000000   0.000000   0.000000   0.000000   0.000000   0.000000
    40  H    0.000000   0.000000   0.000000   0.000000   0.000000   0.000000
    41  H    0.000000   0.000000   0.000000   0.000000   0.000000   0.000000
    42  H    0.000000   0.000000   0.000000   0.000000   0.000000   0.000000
             25         26         27         28         29         30
     1  H    0.000000   0.000000   0.000000   0.000000   0.000000   0.000000
     2  C    0.000000   0.000000   0.000000   0.000000   0.000000   0.000000
     3  H    0.000000   0.000000   0.000000   0.000000   0.000000   0.000000
     4  H    0.000000   0.000000   0.000000   0.000000   0.000000   0.000000
     5  C    0.000000   0.000000   0.000000   0.000000   0.000000   0.000000
     6  O    0.000000   0.000000   0.000000   0.000000   0.000000   0.000000
     7  N    0.000000   0.000000   0.000000   0.000000   0.000000   0.000000
     8  H    0.000000   0.000000   0.000000   0.000000   0.000000   0.000000
     9  C   -0.000101   0.000001  -0.000087   0.000001   0.000000   0.000000
    10  H    0.000016   0.000000   0.000000  -0.000015   0.000000   0.000000
    11  C   -0.000019   0.000000   0.000017  -0.000187   0.000000   0.000000
    12  H    0.000001   0.000000   0.000000   0.000001   0.000000   0.000000
    13  H    0.000005   0.000000  -0.000177   0.000301  -0.000004   0.000000
    14  H    0.000000   0.000000   0.000000   0.000006   0.000000   0.000000
    15  C    0.001972  -0.000053   0.001256   0.000177   0.000001   0.000001
    16  O    0.000334  -0.000001  -0.000003   0.000013   0.000000   0.000000
    17  N   -0.028113   0.001675  -0.002448   0.000869   0.000517  -0.000005
    18  H   -0.008144  -0.000044   0.014499   0.011211  -0.000176   0.000049
    19  C    0.332320  -0.083532  -0.128484  -0.001090   0.007554  -0.000047
    20  H   -0.031309   0.000685  -0.001264  -0.000279  -0.000304   0.000019
    21  C   -0.038781  -0.004038   0.003644   0.000239  -0.000112  -0.000021
    22  H   -0.005850   0.000908   0.000231  -0.000019  -0.000036   0.000001
    23  H   -0.005822   0.009230   0.000442  -0.000016  -0.000003   0.000001
    24  H    0.004705   0.000722  -0.000057  -0.000011   0.000001   0.000000
    25  C    4.350220   0.563909   0.270949  -0.019362  -0.024607  -0.000770
    26  O    0.563909   8.117703  -0.100960   0.003112   0.012510   0.004636
    27  N    0.270949  -0.100960   7.216467   0.262960   0.245906  -0.048247
    28  H   -0.019362   0.003112   0.262960   0.403433  -0.051288   0.003298
    29  C   -0.024607   0.012510   0.245906  -0.051288   5.093263   0.371871
    30  H   -0.000770   0.004636  -0.048247   0.003298   0.371871   0.572833
    31  C   -0.005563  -0.016808  -0.056312   0.005571   0.350358  -0.049224
    32  H    0.000786  -0.000167  -0.000212   0.000485  -0.037421   0.006090
    33  H    0.000301   0.000304   0.005237  -0.000149  -0.036129  -0.000282
    34  H    0.002735   0.021048  -0.009448  -0.000280  -0.021756  -0.005908
    35  C    0.005629   0.000655  -0.025369   0.000590   0.308217  -0.032927
    36  O    0.000657  -0.000004  -0.011918   0.039441  -0.088891   0.001268
    37  N   -0.000074  -0.000001   0.003175   0.001496  -0.120878   0.000859
    38  H    0.000004   0.000003   0.000065  -0.000066   0.000812   0.001020
    39  C    0.000001   0.000000  -0.000068  -0.000013   0.005750  -0.000260
    40  H    0.000000   0.000000   0.000001  -0.000037   0.001170  -0.000033
    41  H    0.000000   0.000000   0.000000   0.000000  -0.000199   0.000020
    42  H    0.000000   0.000000   0.000001   0.000000  -0.000030  -0.000006
             31         32         33         34         35         36
     1  H    0.000000   0.000000   0.000000   0.000000   0.000000   0.000000
     2  C    0.000000   0.000000   0.000000   0.000000   0.000000   0.000000
     3  H    0.000000   0.000000   0.000000   0.000000   0.000000   0.000000
     4  H    0.000000   0.000000   0.000000   0.000000   0.000000   0.000000
     5  C    0.000000   0.000000   0.000000   0.000000   0.000000   0.000000
     6  O    0.000000   0.000000   0.000000   0.000000   0.000000   0.000000
     7  N    0.000000   0.000000   0.000000   0.000000   0.000000   0.000000
     8  H    0.000000   0.000000   0.000000   0.000000   0.000000   0.000000
     9  C    0.000000   0.000000   0.000000   0.000000   0.000000   0.000000
    10  H    0.000000   0.000000   0.000000   0.000000   0.000000   0.000000
    11  C    0.000000   0.000000   0.000000   0.000000   0.000000  -0.000004
    12  H    0.000000   0.000000   0.000000   0.000000   0.000000   0.000000
    13  H    0.000000   0.000000   0.000000   0.000000   0.000005   0.000051
    14  H    0.000000   0.000000   0.000000   0.000000   0.000000   0.000000
    15  C   -0.000002   0.000001   0.000000   0.000000  -0.000001  -0.000002
    16  O    0.000000   0.000000   0.000000   0.000000   0.000000   0.000000
    17  N   -0.000020  -0.000003   0.000000  -0.000023  -0.000067  -0.000033
    18  H   -0.000067   0.000047   0.000000  -0.000009  -0.000093  -0.000380
    19  C   -0.000704  -0.000001   0.000006   0.000551   0.000021  -0.000053
    20  H    0.000001   0.000001   0.000000  -0.000005  -0.000005   0.000000
    21  C    0.000036  -0.000009  -0.000001   0.000006   0.000000   0.000000
    22  H    0.000012   0.000006   0.000000  -0.000005   0.000000   0.000000
    23  H    0.000004   0.000000   0.000000  -0.000007   0.000000   0.000000
    24  H    0.000000   0.000000   0.000000   0.000000   0.000000   0.000000
    25  C   -0.005563   0.000786   0.000301   0.002735   0.005629   0.000657
    26  O   -0.016808  -0.000167   0.000304   0.021048   0.000655  -0.000004
    27  N   -0.056312  -0.000212   0.005237  -0.009448  -0.025369  -0.011918
    28  H    0.005571   0.000485  -0.000149  -0.000280   0.000590   0.039441
    29  C    0.350358  -0.037421  -0.036129  -0.021756   0.308217  -0.088891
    30  H   -0.049224   0.006090  -0.000282  -0.005908  -0.032927   0.001268
    31  C    5.191014   0.369395   0.354410   0.362823  -0.045615  -0.000651
    32  H    0.369395   0.557513  -0.026479  -0.025638  -0.002769   0.000976
    33  H    0.354410  -0.026479   0.594910  -0.021257  -0.008135  -0.000027
    34  H    0.362823  -0.025638  -0.021257   0.479837   0.003768  -0.000089
    35  C   -0.045615  -0.002769  -0.008135   0.003768   4.361839   0.594146
    36  O   -0.000651   0.000976  -0.000027  -0.000089   0.594146   8.090179
    37  N    0.002304  -0.000459   0.003561   0.000224   0.278069  -0.101015
    38  H    0.000659  -0.000111   0.006992  -0.000193  -0.021819   0.003573
    39  C    0.000013  -0.000071   0.000079   0.000005  -0.024647  -0.008868
    40  H   -0.000070  -0.000007  -0.000005   0.000001  -0.001511   0.020390
    41  H   -0.000005   0.000001   0.000004   0.000000   0.001293   0.000562
    42  H    0.000011   0.000002   0.000001  -0.000002   0.001367   0.000564
             37         38         39         40         41         42
     1  H    0.000000   0.000000   0.000000   0.000000   0.000000   0.000000
     2  C    0.000000   0.000000   0.000000   0.000000   0.000000   0.000000
     3  H    0.000000   0.000000   0.000000   0.000000   0.000000   0.000000
     4  H    0.000000   0.000000   0.000000   0.000000   0.000000   0.000000
     5  C    0.000000   0.000000   0.000000   0.000000   0.000000   0.000000
     6  O    0.000000   0.000000   0.000000   0.000000   0.000000   0.000000
     7  N    0.000000   0.000000   0.000000   0.000000   0.000000   0.000000
     8  H    0.000000   0.000000   0.000000   0.000000   0.000000   0.000000
     9  C    0.000000   0.000000   0.000000   0.000000   0.000000   0.000000
    10  H    0.000000   0.000000   0.000000   0.000000   0.000000   0.000000
    11  C    0.000000   0.000000   0.000000   0.000000   0.000000   0.000000
    12  H    0.000000   0.000000   0.000000   0.000000   0.000000   0.000000
    13  H    0.000000   0.000000   0.000000   0.000000   0.000000   0.000000
    14  H    0.000000   0.000000   0.000000   0.000000   0.000000   0.000000
    15  C    0.000000   0.000000   0.000000   0.000000   0.000000   0.000000
    16  O    0.000000   0.000000   0.000000   0.000000   0.000000   0.000000
    17  N    0.000000   0.000000   0.000000   0.000000   0.000000   0.000000
    18  H   -0.000003   0.000000   0.000000   0.000000   0.000000   0.000000
    19  C    0.000001   0.000000   0.000000   0.000000   0.000000   0.000000
    20  H    0.000000   0.000000   0.000000   0.000000   0.000000   0.000000
    21  C    0.000000   0.000000   0.000000   0.000000   0.000000   0.000000
    22  H    0.000000   0.000000   0.000000   0.000000   0.000000   0.000000
    23  H    0.000000   0.000000   0.000000   0.000000   0.000000   0.000000
    24  H    0.000000   0.000000   0.000000   0.000000   0.000000   0.000000
    25  C   -0.000074   0.000004   0.000001   0.000000   0.000000   0.000000
    26  O   -0.000001   0.000003   0.000000   0.000000   0.000000   0.000000
    27  N    0.003175   0.000065  -0.000068   0.000001   0.000000   0.000001
    28  H    0.001496  -0.000066  -0.000013  -0.000037   0.000000   0.000000
    29  C   -0.120878   0.000812   0.005750   0.001170  -0.000199  -0.000030
    30  H    0.000859   0.001020  -0.000260  -0.000033   0.000020  -0.000006
    31  C    0.002304   0.000659   0.000013  -0.000070  -0.000005   0.000011
    32  H   -0.000459  -0.000111  -0.000071  -0.000007   0.000001   0.000002
    33  H    0.003561   0.006992   0.000079  -0.000005   0.000004   0.000001
    34  H    0.000224  -0.000193   0.000005   0.000001   0.000000  -0.000002
    35  C    0.278069  -0.021819  -0.024647  -0.001511   0.001293   0.001367
    36  O   -0.101015   0.003573  -0.008868   0.020390   0.000562   0.000564
    37  N    7.076095   0.303798   0.264476  -0.036306  -0.042896  -0.043900
[...]
    29  C   -0.000001   0.000000  -0.000003   0.000000   0.000522  -0.000818
    30  H    0.000000   0.000000   0.000001   0.000000  -0.000026   0.000094
    31  C    0.000000   0.000000  -0.000001   0.000000   0.000021  -0.000125
    32  H    0.000000   0.000000   0.000001   0.000000  -0.000024   0.000189
    33  H    0.000000   0.000000   0.000000   0.000000   0.000000   0.000004
    34  H    0.000000   0.000000   0.000000   0.000000  -0.000010  -0.000029
    35  C    0.000002   0.000000   0.000000   0.000000  -0.000052  -0.000066
    36  O    0.000047   0.000000  -0.000001   0.000000  -0.000027  -0.000024
    37  N    0.000000   0.000000   0.000000   0.000000   0.000000  -0.000001
    38  H    0.000000   0.000000   0.000000   0.000000   0.000000   0.000000
    39  C    0.000000   0.000000   0.000000   0.000000   0.000000   0.000000
    40  H    0.000000   0.000000   0.000000   0.000000   0.000000   0.000000
    41  H    0.000000   0.000000   0.000000   0.000000   0.000000   0.000000
    42  H    0.000000   0.000000   0.000000   0.000000   0.000000   0.000000
             19         20         21         22         23         24
     1  H    0.000000   0.000000   0.000000   0.000000   0.000000   0.000000
     2  C    0.000000   0.000000   0.000000   0.000000   0.000000   0.000000
     3  H    0.000000   0.000000   0.000000   0.000000   0.000000   0.000000
     4  H    0.000000   0.000000   0.000000   0.000000   0.000000   0.000000
     5  C    0.000001   0.000000   0.000000   0.000000   0.000000   0.000000
     6  O    0.000000   0.000000   0.000000   0.000000   0.000000   0.000000
     7  N   -0.000063   0.000001   0.000001   0.000001   0.000000   0.000000
     8  H   -0.000037   0.000000   0.000023   0.000003   0.000000  -0.000022
     9  C    0.004903  -0.000148  -0.000327  -0.000144   0.000009   0.000375
    10  H   -0.000089   0.000001  -0.000005   0.000023  -0.000001  -0.000012
    11  C   -0.000050   0.000003   0.000002   0.000001   0.000000  -0.000006
    12  H   -0.000024   0.000002   0.000000   0.000000   0.000000  -0.000001
    13  H    0.000110  -0.000014   0.000003   0.000000   0.000000   0.000000
    14  H    0.000005  -0.000001   0.000000   0.000000   0.000000   0.000000
    15  C   -0.020658  -0.001985  -0.002497   0.001036   0.000353   0.001299
    16  O    0.004602   0.000497  -0.009778  -0.000864   0.000370   0.013300
    17  N    0.221970  -0.046183  -0.051090  -0.000848   0.004086  -0.004617
    18  H   -0.048242   0.005306   0.002083   0.000706  -0.000081  -0.000196
    19  C    5.064179   0.363874   0.375520  -0.035106  -0.028401  -0.023876
    20  H    0.363874   0.573071  -0.042525   0.005247  -0.000433  -0.004191
    21  C    0.375520  -0.042525   5.116583   0.376436   0.357765   0.361417
    22  H   -0.035106   0.005247   0.376436   0.564094  -0.025460  -0.028518
    23  H   -0.028401  -0.000433   0.357765  -0.025460   0.537452  -0.023246
    24  H   -0.023876  -0.004191   0.361417  -0.028518  -0.023246   0.515309
    25  C    0.330731  -0.031689  -0.035569  -0.005307  -0.004780   0.004508
    26  O   -0.078221   0.000956  -0.002599   0.001265   0.010258   0.000535
    27  N   -0.117829  -0.001197   0.004343   0.000060   0.000385  -0.000053
    28  H    0.001470  -0.000668   0.000266  -0.000011  -0.000026  -0.000004
    29  C    0.006345  -0.000337  -0.000082  -0.000020  -0.000011   0.000001
    30  H    0.000569  -0.000009  -0.000030   0.000000   0.000000   0.000000
    31  C   -0.000390   0.000000   0.000016   0.000002   0.000001   0.000000
    32  H    0.000006   0.000001  -0.000001   0.000000   0.000000   0.000000
    33  H    0.000003   0.000000   0.000000   0.000000   0.000000   0.000000
    34  H    0.000160   0.000000  -0.000002   0.000000  -0.000002   0.000000
    35  C    0.000015   0.000005  -0.000001   0.000000   0.000000   0.000000
    36  O   -0.000098   0.000002   0.000000   0.000000   0.000000   0.000000
    37  N    0.000001   0.000000   0.000000   0.000000   0.000000   0.000000
    38  H    0.000000   0.000000   0.000000   0.000000   0.000000   0.000000
    39  C    0.000000   0.000000   0.000000   0.000000   0.000000   0.000000
    40  H    0.000000   0.000000   0.000000   0.000000   0.000000   0.000000
    41  H    0.000000   0.000000   0.000000   0.000000   0.000000   0.000000
    42  H    0.000000   0.000000   0.000000   0.000000   0.000000   0.000000
             25         26         27         28         29         30
     1  H    0.000000   0.000000   0.000000   0.000000   0.000000   0.000000
     2  C    0.000000   0.000000   0.000000   0.000000   0.000000   0.000000
     3  H    0.000000   0.000000   0.000000   0.000000   0.000000   0.000000
     4  H    0.000000   0.000000   0.000000   0.000000   0.000000   0.000000
     5  C    0.000000   0.000000   0.000000   0.000000   0.000000   0.000000
     6  O    0.000000   0.000000   0.000000   0.000000   0.000000   0.000000
     7  N    0.000000   0.000000   0.000000   0.000000   0.000000   0.000000
     8  H    0.000000   0.000000   0.000000   0.000000   0.000000   0.000000
     9  C   -0.000038   0.000001  -0.000167   0.000041   0.000001   0.000000
    10  H   -0.000005   0.000000  -0.000013  -0.000014  -0.000001   0.000000
    11  C   -0.000006   0.000000   0.000002  -0.000020   0.000000   0.000000
    12  H    0.000000   0.000000   0.000000  -0.000003   0.000000   0.000000
    13  H   -0.000022   0.000000  -0.000088   0.000478  -0.000001   0.000000
    14  H    0.000000   0.000000   0.000000   0.000002   0.000000   0.000000
    15  C    0.002913  -0.000036   0.000912  -0.000198  -0.000003   0.000001
    16  O    0.000254   0.000000  -0.000004   0.000000   0.000000   0.000000
    17  N   -0.025148   0.001488  -0.009158   0.005301   0.000522  -0.000026
    18  H   -0.005723  -0.000123   0.027053  -0.002651  -0.000818   0.000094
    19  C    0.330731  -0.078221  -0.117829   0.001470   0.006345   0.000569
    20  H   -0.031689   0.000956  -0.001197  -0.000668  -0.000337  -0.000009
    21  C   -0.035569  -0.002599   0.004343   0.000266  -0.000082  -0.000030
    22  H   -0.005307   0.001265   0.000060  -0.000011  -0.000020   0.000000
    23  H   -0.004780   0.010258   0.000385  -0.000026  -0.000011   0.000000
    24  H    0.004508   0.000535  -0.000053  -0.000004   0.000001   0.000000
    25  C    4.387787   0.567791   0.256728  -0.018335  -0.021893   0.001114
    26  O    0.567791   8.084085  -0.099639   0.002236   0.007517   0.012396
    27  N    0.256728  -0.099639   7.214518   0.266960   0.257422  -0.052683
    28  H   -0.018335   0.002236   0.266960   0.383175  -0.051919   0.003249
    29  C   -0.021893   0.007517   0.257422  -0.051919   5.087321   0.370561
    30  H    0.001114   0.012396  -0.052683   0.003249   0.370561   0.563712
    31  C   -0.004834  -0.005144  -0.054395   0.004834   0.349487  -0.048091
    32  H    0.000524  -0.000018   0.000101   0.000370  -0.034302   0.005287
    33  H    0.000059   0.000011   0.004730  -0.000154  -0.029930   0.000351
    34  H    0.003204   0.007467  -0.008063  -0.000145  -0.022963  -0.004834
    35  C    0.004959   0.000592  -0.030803  -0.003588   0.307833  -0.033278
    36  O    0.000921  -0.000006  -0.019943   0.047821  -0.082725   0.001356
    37  N   -0.000038  -0.000001   0.002639   0.002002  -0.112616   0.000502
    38  H   -0.000002   0.000002   0.000116  -0.000089   0.001153   0.001181
    39  C    0.000001   0.000000  -0.000083  -0.000022   0.005472  -0.000146
    40  H    0.000000   0.000000   0.000009  -0.000055   0.001056  -0.000028
    41  H    0.000000   0.000000   0.000001   0.000000  -0.000169   0.000015
    42  H    0.000000   0.000000   0.000001   0.000000  -0.000064  -0.000006
             31         32         33         34         35         36
     1  H    0.000000   0.000000   0.000000   0.000000   0.000000   0.000000
     2  C    0.000000   0.000000   0.000000   0.000000   0.000000   0.000000
     3  H    0.000000   0.000000   0.000000   0.000000   0.000000   0.000000
     4  H    0.000000   0.000000   0.000000   0.000000   0.000000   0.000000
     5  C    0.000000   0.000000   0.000000   0.000000   0.000000   0.000000
     6  O    0.000000   0.000000   0.000000   0.000000   0.000000   0.000000
     7  N    0.000000   0.000000   0.000000   0.000000   0.000000   0.000000
     8  H    0.000000   0.000000   0.000000   0.000000   0.000000   0.000000
     9  C    0.000000  -0.000001   0.000000   0.000000   0.000000   0.000000
    10  H    0.000000   0.000001   0.000000   0.000000   0.000000   0.000000
    11  C    0.000000   0.000000   0.000000   0.000000   0.000000  -0.000004
    12  H    0.000000   0.000000   0.000000   0.000000   0.000000   0.000000
    13  H    0.000000   0.000000   0.000000   0.000000   0.000002   0.000047
    14  H    0.000000   0.000000   0.000000   0.000000   0.000000   0.000000
    15  C   -0.000001   0.000001   0.000000   0.000000   0.000000  -0.000001
    16  O    0.000000   0.000000   0.000000   0.000000   0.000000   0.000000
    17  N    0.000021  -0.000024   0.000000  -0.000010  -0.000052  -0.000027
    18  H   -0.000125   0.000189   0.000004  -0.000029  -0.000066  -0.000024
    19  C   -0.000390   0.000006   0.000003   0.000160   0.000015  -0.000098
    20  H    0.000000   0.000001   0.000000   0.000000   0.000005   0.000002
    21  C    0.000016  -0.000001   0.000000  -0.000002  -0.000001   0.000000
    22  H    0.000002   0.000000   0.000000   0.000000   0.000000   0.000000
    23  H    0.000001   0.000000   0.000000  -0.000002   0.000000   0.000000
    24  H    0.000000   0.000000   0.000000   0.000000   0.000000   0.000000
    25  C   -0.004834   0.000524   0.000059   0.003204   0.004959   0.000921
    26  O   -0.005144  -0.000018   0.000011   0.007467   0.000592  -0.000006
    27  N   -0.054395   0.000101   0.004730  -0.008063  -0.030803  -0.019943
    28  H    0.004834   0.000370  -0.000154  -0.000145  -0.003588   0.047821
    29  C    0.349487  -0.034302  -0.029930  -0.022963   0.307833  -0.082725
    30  H   -0.048091   0.005287   0.000351  -0.004834  -0.033278   0.001356
    31  C    5.137251   0.371713   0.356318   0.370291  -0.034500  -0.000573
    32  H    0.371713   0.550992  -0.027284  -0.027298  -0.003599   0.000854
    33  H    0.356318  -0.027284   0.582840  -0.025725  -0.004532  -0.000006
    34  H    0.370291  -0.027298  -0.025725   0.513865   0.003482  -0.000083
    35  C   -0.034500  -0.003599  -0.004532   0.003482   4.367896   0.571895
    36  O   -0.000573   0.000854  -0.000006  -0.000083   0.571895   8.086400
    37  N    0.001988   0.000001   0.002711   0.000077   0.292432  -0.091494
    38  H    0.000933  -0.000077   0.003909  -0.000120  -0.023123   0.003263
    39  C   -0.000164  -0.000025  -0.000015   0.000004  -0.023063  -0.007493
    40  H   -0.000044  -0.000005  -0.000001   0.000001  -0.001542   0.018960
    41  H   -0.000002   0.000001   0.000003   0.000000   0.000747   0.000435
    42  H    0.000013  -0.000002  -0.000006  -0.000001   0.001463   0.000438
             37         38         39         40         41         42
     1  H    0.000000   0.000000   0.000000   0.000000   0.000000   0.000000
     2  C    0.000000   0.000000   0.000000   0.000000   0.000000   0.000000
     3  H    0.000000   0.000000   0.000000   0.000000   0.000000   0.000000
     4  H    0.000000   0.000000   0.000000   0.000000   0.000000   0.000000
     5  C    0.000000   0.000000   0.000000   0.000000   0.000000   0.000000
     6  O    0.000000   0.000000   0.000000   0.000000   0.000000   0.000000
     7  N    0.000000   0.000000   0.000000   0.000000   0.000000   0.000000
     8  H    0.000000   0.000000   0.000000   0.000000   0.000000   0.000000
     9  C    0.000000   0.000000   0.000000   0.000000   0.000000   0.000000
    10  H    0.000000   0.000000   0.000000   0.000000   0.000000   0.000000
    11  C    0.000000   0.000000   0.000000   0.000000   0.000000   0.000000
    12  H    0.000000   0.000000   0.000000   0.000000   0.000000   0.000000
    13  H    0.000000   0.000000   0.000000   0.000000   0.000000   0.000000
    14  H    0.000000   0.000000   0.000000   0.000000   0.000000   0.000000
    15  C    0.000000   0.000000   0.000000   0.000000   0.000000   0.000000
    16  O    0.000000   0.000000   0.000000   0.000000   0.000000   0.000000
    17  N    0.000000   0.000000   0.000000   0.000000   0.000000   0.000000
    18  H   -0.000001   0.000000   0.000000   0.000000   0.000000   0.000000
    19  C    0.000001   0.000000   0.000000   0.000000   0.000000   0.000000
    20  H    0.000000   0.000000   0.000000   0.000000   0.000000   0.000000
    21  C    0.000000   0.000000   0.000000   0.000000   0.000000   0.000000
    22  H    0.000000   0.000000   0.000000   0.000000   0.000000   0.000000
    23  H    0.000000   0.000000   0.000000   0.000000   0.000000   0.000000
    24  H    0.000000   0.000000   0.000000   0.000000   0.000000   0.000000
    25  C   -0.000038  -0.000002   0.000001   0.000000   0.000000   0.000000
    26  O   -0.000001   0.000002   0.000000   0.000000   0.000000   0.000000
    27  N    0.002639   0.000116  -0.000083   0.000009   0.000001   0.000001
    28  H    0.002002  -0.000089  -0.000022  -0.000055   0.000000   0.000000
    29  C   -0.112616   0.001153   0.005472   0.001056  -0.000169  -0.000064
    30  H    0.000502   0.001181  -0.000146  -0.000028   0.000015  -0.000006
    31  C    0.001988   0.000933  -0.000164  -0.000044  -0.000002   0.000013
    32  H    0.000001  -0.000077  -0.000025  -0.000005   0.000001  -0.000002
    33  H    0.002711   0.003909  -0.000015  -0.000001   0.000003  -0.000006
    34  H    0.000077  -0.000120   0.000004   0.000001   0.000000  -0.000001
    35  C    0.292432  -0.023123  -0.023063  -0.001542   0.000747   0.001463
    36  O   -0.091494   0.003263  -0.007493   0.018960   0.000435   0.000438
    37  N    7.042073   0.306724   0.264634  -0.038404  -0.040595  -0.040540
    38  H    0.306724   0.400802  -0.031116   0.003912  -0.001083  -0.000675
    39  C    0.264634  -0.031116   4.963844   0.378832   0.382754   0.381450
    40  H   -0.038404   0.003912   0.378832   0.475604  -0.024332  -0.023867
    41  H   -0.040595  -0.001083   0.382754  -0.024332   0.554528  -0.038798
    42  H   -0.040540  -0.000675   0.381450  -0.023867  -0.038798   0.554579
 Mulliken atomic charges:
              1
     1  H    0.181948
     2  C   -0.533074
     3  H    0.181266
     4  H    0.148321
     5  C    0.595155
     6  O   -0.524882
     7  N   -0.604323
     8  H    0.346759
     9  C   -0.037455
    10  H    0.168928
    11  C   -0.443215
    12  H    0.156511
    13  H    0.143967
    14  H    0.189250
    15  C    0.613800
    16  O   -0.521542
    17  N   -0.648770
    18  H    0.338204
    19  C   -0.021382
    20  H    0.180413
    21  C   -0.449953
    22  H    0.147403
    23  H    0.171765
    24  H    0.187996
    25  C    0.591897
    26  O   -0.510811
    27  N   -0.641861
    28  H    0.359696
    29  C   -0.036838
    30  H    0.178743
    31  C   -0.444605
    32  H    0.162597
    33  H    0.136716
    34  H    0.190723
    35  C    0.606826
    36  O   -0.529914
    37  N   -0.592096
    38  H    0.334289
    39  C   -0.314865
    40  H    0.209905
    41  H    0.166496
    42  H    0.166014
 Sum of Mulliken atomic charges =   0.00000
 Mulliken charges with hydrogens summed into heavy atoms:
              1
     2  C   -0.021538
     5  C    0.595155
     6  O   -0.524882
     7  N   -0.257565
     9  C    0.131473
    11  C    0.046513
    15  C    0.613800
    16  O   -0.521542
    17  N   -0.310566
    19  C    0.159031
    21  C    0.057211
    25  C    0.591897
    26  O   -0.510811
    27  N   -0.282165
    29  C    0.141905
    31  C    0.045431
    35  C    0.606826
    36  O   -0.529914
    37  N   -0.257807
    39  C    0.227549
 Sum of Mulliken charges with hydrogens summed into heavy atoms =   0.00000
 Electronic spatial extent (au):  <R**2>=           9070.9777
 Charge=              0.0000 electrons
 Dipole moment (field-independent basis, Debye):
    X=              5.5833    Y=             -0.6264    Z=              0.0940  Tot=              5.6191
 Quadrupole moment (field-independent basis, Debye-Ang):
   XX=            -87.6134   YY=           -135.3557   ZZ=           -122.0524
   XY=            -15.4222   XZ=              7.1054   YZ=              1.0938
 Traceless Quadrupole moment (field-independent basis, Debye-Ang):
   XX=             27.3938   YY=            -20.3486   ZZ=             -7.0453
   XY=            -15.4222   XZ=              7.1054   YZ=              1.0938
 Octapole moment (field-independent basis, Debye-Ang**2):
  XXX=            160.0030  YYY=             -9.8484  ZZZ=              1.2233  XYY=             34.1838
  XXY=            -31.3567  XXZ=             11.4639  XZZ=             13.3328  YZZ=              5.2386
  YYZ=            -22.8506  XYZ=            -37.9933
 Hexadecapole moment (field-independent basis, Debye-Ang**3):
 XXXX=          -7057.5299 YYYY=          -2212.1494 ZZZZ=           -699.2569 XXXY=           -379.9127
 XXXZ=            109.3066 YYYX=           -177.0884 YYYZ=             -1.6130 ZZZX=              1.5305
 ZZZY=              4.0615 XXYY=          -1934.6583 XXZZ=          -1606.8463 YYZZ=           -498.5262
 XXYZ=             81.1262 YYXZ=             13.8232 ZZXY=            -19.7494
 N-N= 1.603221278599D+03 E-N=-5.515384077379D+03  KE= 9.813159563910D+02
 1\1\GINC-NODE007\FOpt\RB3LYP\6-31G(d)\C12H22N4O4\MANAGER\29-Dec-2016\0
 \\# b3lyp/6-31G* Opt=(ModRedundant, maxcycles=1000, calcfc) geom=nocro
 wd\\Phi Psi fixed scan\\0,1\H,2.2715895121,1.4049266495,1.8811683387\C
 ,2.5025070054,2.4100653944,2.2473278298\H,2.6147684084,2.3425421007,3.
 3340238283\H,1.6649268927,3.0749468544,2.0152031175\C,3.8253204861,2.8
 604145161,1.6447807461\O,4.8633252937,2.2223701959,1.7999831719\N,3.77
 75930552,4.012180599,0.9186177425\H,2.9459477071,4.590010047,0.8748061
 261\C,4.9701562494,4.6131838234,0.3563010772\H,5.7831845302,4.50577261
 76,1.0867824427\C,5.4015262864,3.925604538,-0.954315177\H,4.6167780845
 ,4.0215994287,-1.7117901968\H,6.3241547425,4.361293975,-1.353017547\H,
 5.5758413624,2.8660668272,-0.7519514975\C,4.6594945722,6.1084618313,0.
 1397907845\O,3.5094864672,6.5310298919,0.1983709704\N,5.7511225675,6.8
 623894066,-0.201791981\H,6.6296885799,6.3974173872,-0.0047467193\C,5.8
 370279233,8.3385356933,-0.1134853913\H,5.5694880253,8.7526841224,-1.09
 71166342\C,4.9301390487,8.9755160908,0.9448414905\H,5.1460435034,8.564
 5293206,1.9366084886\H,5.1345224431,10.0474406818,0.9744785032\H,3.881
 745051,8.7964973734,0.7120885452\C,7.3044921929,8.7513290028,0.1596606
 442\O,7.5830291502,9.7543549701,0.8028781796\N,8.2658115425,7.91419790
 83,-0.3424431098\H,8.0664795287,7.300530768,-1.1311460107\C,9.67456385
 79,8.2721852828,-0.2596983606\H,9.766730805,9.3612021749,-0.3689356625
 \C,10.279980461,7.8640565457,1.0948390005\H,10.2208162054,6.7797009393
 ,1.2330078817\H,11.3298078019,8.1673417159,1.1765086291\H,9.7224773901
 ,8.3561205908,1.8958149138\C,10.3672663221,7.5801296682,-1.4499615752\
 O,9.7542848925,6.7995921471,-2.1768818069\N,11.6760610628,7.8934462587
 ,-1.6216825081\H,12.097689396,8.5623544696,-0.9930781471\C,12.49337666
 19,7.3296329808,-2.6847308421\H,11.8707467754,6.6283860334,-3.24079795
 88\H,12.8481781725,8.1122055946,-3.3648844753\H,13.3576299835,6.796953
 5828,-2.2727268509\\Version=EM64L-G09RevA.02\State=1-A\HF=-990.4959746
 \RMSD=9.849e-09\RMSF=1.289e-03\Dipole=1.9191881,0.8927608,-0.6380059\Q
 uadrupole=21.1345617,-16.4718215,-4.6627401,9.8588287,-5.2430035,-1.02
 17275\PG=C01 [X(C12H22N4O4)]\\@


 HICKORY, DICKORY, DOCK
 TWO MICE RAN UP THE CLOCK
 THE CLOCK STRUCK ONE...
 THE OTHER ESCAPED WITH MINOR INJURIES.
 Job cpu time:  0 days  3 hours 53 minutes 11.0 seconds.
 File lengths (MBytes):  RWF=    608 Int=      0 D2E=      0 Chk=     11 Scr=      1
 Normal termination of Gaussian 09 at Thu Dec 29 09:08:15 2016.
