 Entering Gaussian System, Link 0=g09
 Initial command:
 /home/steboss/Software/g09/l1.exe /home/steboss/projects/phi_psi_scan/alanine/225/4370/Gau-14555.inp -scrdir=/home/steboss/projects/phi_psi_scan/alanine/225/4370/
 Entering Link 1 = /home/steboss/Software/g09/l1.exe PID=     14566.
  
 Copyright (c) 1988,1990,1992,1993,1995,1998,2003,2009, Gaussian, Inc.
                  All Rights Reserved.
  
 This is part of the Gaussian(R) 09 program.  It is based on
 the Gaussian(R) 03 system (copyright 2003, Gaussian, Inc.),
 the Gaussian(R) 98 system (copyright 1998, Gaussian, Inc.),
 the Gaussian(R) 94 system (copyright 1995, Gaussian, Inc.),
 the Gaussian 92(TM) system (copyright 1992, Gaussian, Inc.),
 the Gaussian 90(TM) system (copyright 1990, Gaussian, Inc.),
 the Gaussian 88(TM) system (copyright 1988, Gaussian, Inc.),
 the Gaussian 86(TM) system (copyright 1986, Carnegie Mellon
 University), and the Gaussian 82(TM) system (copyright 1983,
 Carnegie Mellon University). Gaussian is a federally registered
 trademark of Gaussian, Inc.
  
 This software contains proprietary and confidential information,
 including trade secrets, belonging to Gaussian, Inc.
  
 This software is provided under written license and may be
 used, copied, transmitted, or stored only in accord with that
 written license.
  
 The following legend is applicable only to US Government
 contracts under FAR:
  
                    RESTRICTED RIGHTS LEGEND
  
 Use, reproduction and disclosure by the US Government is
 subject to restrictions as set forth in subparagraphs (a)
 and (c) of the Commercial Computer Software - Restricted
 Rights clause in FAR 52.227-19.
  
 Gaussian, Inc.
 340 Quinnipiac St., Bldg. 40, Wallingford CT 06492
  
  
 ---------------------------------------------------------------
 Warning -- This program may not be used in any manner that
 competes with the business of Gaussian, Inc. or will provide
 assistance to any competitor of Gaussian, Inc.  The licensee
 of this program is prohibited from giving any competitor of
 Gaussian, Inc. access to this program.  By using this program,
 the user acknowledges that Gaussian, Inc. is engaged in the
 business of creating and licensing software in the field of
 computational chemistry and represents and warrants to the
 licensee that it is not a competitor of Gaussian, Inc. and that
 it will not use this program in any manner prohibited above.
 ---------------------------------------------------------------
  

 Cite this work as:
 Gaussian 09, Revision A.02,
 M. J. Frisch, G. W. Trucks, H. B. Schlegel, G. E. Scuseria, 
 M. A. Robb, J. R. Cheeseman, G. Scalmani, V. Barone, B. Mennucci, 
 G. A. Petersson, H. Nakatsuji, M. Caricato, X. Li, H. P. Hratchian, 
 A. F. Izmaylov, J. Bloino, G. Zheng, J. L. Sonnenberg, M. Hada, 
 M. Ehara, K. Toyota, R. Fukuda, J. Hasegawa, M. Ishida, T. Nakajima, 
 Y. Honda, O. Kitao, H. Nakai, T. Vreven, J. A. Montgomery, Jr., 
 J. E. Peralta, F. Ogliaro, M. Bearpark, J. J. Heyd, E. Brothers, 
 K. N. Kudin, V. N. Staroverov, R. Kobayashi, J. Normand, 
 K. Raghavachari, A. Rendell, J. C. Burant, S. S. Iyengar, J. Tomasi, 
 M. Cossi, N. Rega, J. M. Millam, M. Klene, J. E. Knox, J. B. Cross, 
 V. Bakken, C. Adamo, J. Jaramillo, R. Gomperts, R. E. Stratmann, 
 O. Yazyev, A. J. Austin, R. Cammi, C. Pomelli, J. W. Ochterski, 
 R. L. Martin, K. Morokuma, V. G. Zakrzewski, G. A. Voth, 
 P. Salvador, J. J. Dannenberg, S. Dapprich, A. D. Daniels, 
 O. Farkas, J. B. Foresman, J. V. Ortiz, J. Cioslowski, 
 and D. J. Fox, Gaussian, Inc., Wallingford CT, 2009.
 
 ******************************************
 Gaussian 09:  EM64L-G09RevA.02 11-Jun-2009
                10-Feb-2017 
 ******************************************
 %chk=structure_135.chk
 %NProcShared=8
 Will use up to    8 processors via shared memory.
 ----------------------------------------------------------------------
 # b3lyp/6-31G* Opt=(ModRedundant, maxcycles=1000, calcfc) geom=nocrowd
 ----------------------------------------------------------------------
 1/6=1000,10=4,14=-1,18=120,19=15,26=3,38=1/1,3;
 2/9=110,12=1,17=6,18=5,40=1/2;
 3/5=1,6=6,7=1,11=2,16=1,25=1,30=1,71=2,74=-5/1,2,3;
 4//1;
 5/5=2,38=5/2;
 8/6=4,10=90,11=11/1;
 11/6=1,8=1,9=11,15=111,16=1/1,2,10;
 10/6=1,7=6,13=1/2;
 6/7=2,8=2,9=2,10=2,28=1/1;
 7/10=1,18=20,25=1/1,2,3,16;
 1/6=1000,10=4,14=-1,18=20,19=15/3(2);
 2/9=110,12=1/2;
 99//99;
 2/9=110,12=1/2;
 3/5=1,6=6,7=1,11=2,16=1,25=1,30=1,71=1,74=-5/1,2,3;
 4/5=5,16=3/1;
 5/5=2,38=5/2;
 7//1,2,3,16;
 1/6=1000,14=-1,18=20,19=15/3(-5);
 2/9=110,12=1/2;
 6/7=2,8=2,9=2,10=2,19=2,28=1/1;
 99/9=1/99;
 ------------------
 Phi Psi fixed scan
 ------------------
 Symbolic Z-matrix:
 Charge =  0 Multiplicity = 1
 H                     1.7437    1.5164    1.3919 
 C                     1.8708    2.3503    0.7015 
 H                     1.1495    3.1323    0.9387 
 H                     1.709     2.0051   -0.3197 
 C                     3.2798    2.9381    0.8014 
 O                     4.0982    2.4665    1.5877 
 N                     3.5554    3.9697    0. 
 H                     2.8491    4.3224   -0.63 
 C                     4.8533    4.6139    0. 
 H                     5.4076    4.3155    0.8898 
 C                     5.6613    4.2208   -1.2322 
 H                     5.1233    4.5214   -2.1312 
 H                     6.6305    4.7189   -1.2058 
 H                     5.8085    3.1409   -1.2414 
 C                     4.7127    6.1294    0. 
 O                     3.9095    6.6814   -0.7488 
 N                     5.4979    6.8026    0.8441 
 H                     6.143     6.3041    1.4403 
 C                     5.4589    8.248     0.9387 
 H                     4.72      8.6386    0.2391 
 H                     5.1871    8.5389    1.9534 
 H                     6.4402    8.6552    0.695 
 
 The following ModRedundant input section has been read:
 D    5    7    9   15 F                                                       
 D    7    9   15   17 F                                                       

 GradGradGradGradGradGradGradGradGradGradGradGradGradGradGradGradGradGrad
 Berny optimization.
 Initialization pass.
                           ----------------------------
                           !    Initial Parameters    !
                           ! (Angstroms and Degrees)  !
 --------------------------                            --------------------------
 ! Name  Definition              Value          Derivative Info.                !
 --------------------------------------------------------------------------------
 ! R1    R(1,2)                  1.09           calculate D2E/DX2 analytically  !
 ! R2    R(2,3)                  1.09           calculate D2E/DX2 analytically  !
 ! R3    R(2,4)                  1.09           calculate D2E/DX2 analytically  !
 ! R4    R(2,5)                  1.53           calculate D2E/DX2 analytically  !
 ! R5    R(5,6)                  1.229          calculate D2E/DX2 analytically  !
 ! R6    R(5,7)                  1.3351         calculate D2E/DX2 analytically  !
 ! R7    R(7,8)                  1.01           calculate D2E/DX2 analytically  !
 ! R8    R(7,9)                  1.449          calculate D2E/DX2 analytically  !
 ! R9    R(9,10)                 1.09           calculate D2E/DX2 analytically  !
 ! R10   R(9,11)                 1.525          calculate D2E/DX2 analytically  !
 ! R11   R(9,15)                 1.522          calculate D2E/DX2 analytically  !
 ! R12   R(11,12)                1.09           calculate D2E/DX2 analytically  !
 ! R13   R(11,13)                1.09           calculate D2E/DX2 analytically  !
 ! R14   R(11,14)                1.0899         calculate D2E/DX2 analytically  !
 ! R15   R(15,16)                1.229          calculate D2E/DX2 analytically  !
 ! R16   R(15,17)                1.335          calculate D2E/DX2 analytically  !
 ! R17   R(17,18)                1.01           calculate D2E/DX2 analytically  !
 ! R18   R(17,19)                1.449          calculate D2E/DX2 analytically  !
 ! R19   R(19,20)                1.0899         calculate D2E/DX2 analytically  !
 ! R20   R(19,21)                1.09           calculate D2E/DX2 analytically  !
 ! R21   R(19,22)                1.09           calculate D2E/DX2 analytically  !
 ! A1    A(1,2,3)              109.5033         calculate D2E/DX2 analytically  !
 ! A2    A(1,2,4)              109.4991         calculate D2E/DX2 analytically  !
 ! A3    A(1,2,5)              111.0965         calculate D2E/DX2 analytically  !
 ! A4    A(3,2,4)              109.4419         calculate D2E/DX2 analytically  !
 ! A5    A(3,2,5)              108.6381         calculate D2E/DX2 analytically  !
 ! A6    A(4,2,5)              108.6351         calculate D2E/DX2 analytically  !
 ! A7    A(2,5,6)              120.5047         calculate D2E/DX2 analytically  !
 ! A8    A(2,5,7)              116.6015         calculate D2E/DX2 analytically  !
 ! A9    A(6,5,7)              122.8938         calculate D2E/DX2 analytically  !
 ! A10   A(5,7,8)              119.9924         calculate D2E/DX2 analytically  !
 ! A11   A(5,7,9)              121.9002         calculate D2E/DX2 analytically  !
 ! A12   A(8,7,9)              118.1074         calculate D2E/DX2 analytically  !
 ! A13   A(7,9,10)             109.5            calculate D2E/DX2 analytically  !
 ! A14   A(7,9,11)             111.0992         calculate D2E/DX2 analytically  !
 ! A15   A(7,9,15)             111.0966         calculate D2E/DX2 analytically  !
 ! A16   A(10,9,11)            108.6382         calculate D2E/DX2 analytically  !
 ! A17   A(10,9,15)            108.6373         calculate D2E/DX2 analytically  !
 ! A18   A(11,9,15)            107.7947         calculate D2E/DX2 analytically  !
 ! A19   A(9,11,12)            109.5007         calculate D2E/DX2 analytically  !
 ! A20   A(9,11,13)            109.4959         calculate D2E/DX2 analytically  !
 ! A21   A(9,11,14)            109.4978         calculate D2E/DX2 analytically  !
 ! A22   A(12,11,13)           109.441          calculate D2E/DX2 analytically  !
 ! A23   A(12,11,14)           109.4482         calculate D2E/DX2 analytically  !
 ! A24   A(13,11,14)           109.4436         calculate D2E/DX2 analytically  !
 ! A25   A(9,15,16)            120.5029         calculate D2E/DX2 analytically  !
 ! A26   A(9,15,17)            116.6012         calculate D2E/DX2 analytically  !
 ! A27   A(16,15,17)           122.8959         calculate D2E/DX2 analytically  !
 ! A28   A(15,17,18)           120.0006         calculate D2E/DX2 analytically  !
 ! A29   A(15,17,19)           121.9013         calculate D2E/DX2 analytically  !
 ! A30   A(18,17,19)           118.0981         calculate D2E/DX2 analytically  !
 ! A31   A(17,19,20)           109.5004         calculate D2E/DX2 analytically  !
 ! A32   A(17,19,21)           109.4935         calculate D2E/DX2 analytically  !
 ! A33   A(17,19,22)           109.5003         calculate D2E/DX2 analytically  !
 ! A34   A(20,19,21)           109.441          calculate D2E/DX2 analytically  !
 ! A35   A(20,19,22)           109.4464         calculate D2E/DX2 analytically  !
 ! A36   A(21,19,22)           109.4457         calculate D2E/DX2 analytically  !
 ! D1    D(1,2,5,6)             -0.0029         calculate D2E/DX2 analytically  !
 ! D2    D(1,2,5,7)           -179.998          calculate D2E/DX2 analytically  !
 ! D3    D(3,2,5,6)            120.5126         calculate D2E/DX2 analytically  !
 ! D4    D(3,2,5,7)            -59.4825         calculate D2E/DX2 analytically  !
 ! D5    D(4,2,5,6)           -120.5113         calculate D2E/DX2 analytically  !
 ! D6    D(4,2,5,7)             59.4936         calculate D2E/DX2 analytically  !
 ! D7    D(2,5,7,8)             -0.0069         calculate D2E/DX2 analytically  !
 ! D8    D(2,5,7,9)           -180.0            calculate D2E/DX2 analytically  !
 ! D9    D(6,5,7,8)            179.9982         calculate D2E/DX2 analytically  !
 ! D10   D(6,5,7,9)              0.0051         calculate D2E/DX2 analytically  !
 ! D11   D(5,7,9,10)           -15.0041         calculate D2E/DX2 analytically  !
 ! D12   D(5,7,9,11)           104.9985         calculate D2E/DX2 analytically  !
 ! D13   D(5,7,9,15)          -135.004          frozen, calculate D2E/DX2 analyt!
 ! D14   D(8,7,9,10)           165.0026         calculate D2E/DX2 analytically  !
 ! D15   D(8,7,9,11)           -74.9948         calculate D2E/DX2 analytically  !
 ! D16   D(8,7,9,15)            45.0028         calculate D2E/DX2 analytically  !
 ! D17   D(7,9,11,12)           60.0024         calculate D2E/DX2 analytically  !
 ! D18   D(7,9,11,13)          179.9986         calculate D2E/DX2 analytically  !
 ! D19   D(7,9,11,14)          -60.0038         calculate D2E/DX2 analytically  !
 ! D20   D(10,9,11,12)        -179.4843         calculate D2E/DX2 analytically  !
 ! D21   D(10,9,11,13)         -59.4881         calculate D2E/DX2 analytically  !
 ! D22   D(10,9,11,14)          60.5095         calculate D2E/DX2 analytically  !
 ! D23   D(15,9,11,12)         -61.938          calculate D2E/DX2 analytically  !
 ! D24   D(15,9,11,13)          58.0582         calculate D2E/DX2 analytically  !
 ! D25   D(15,9,11,14)         178.0558         calculate D2E/DX2 analytically  !
 ! D26   D(7,9,15,16)          -45.001          calculate D2E/DX2 analytically  !
 ! D27   D(7,9,15,17)          134.9977         frozen, calculate D2E/DX2 analyt!
 ! D28   D(10,9,15,16)        -165.5121         calculate D2E/DX2 analytically  !
 ! D29   D(10,9,15,17)          14.4866         calculate D2E/DX2 analytically  !
 ! D30   D(11,9,15,16)          76.941          calculate D2E/DX2 analytically  !
 ! D31   D(11,9,15,17)        -103.0603         calculate D2E/DX2 analytically  !
 ! D32   D(9,15,17,18)           0.0065         calculate D2E/DX2 analytically  !
 ! D33   D(9,15,17,19)         179.9968         calculate D2E/DX2 analytically  !
 ! D34   D(16,15,17,18)       -179.9949         calculate D2E/DX2 analytically  !
 ! D35   D(16,15,17,19)         -0.0045         calculate D2E/DX2 analytically  !
 ! D36   D(15,17,19,20)          0.0072         calculate D2E/DX2 analytically  !
 ! D37   D(15,17,19,21)        120.0017         calculate D2E/DX2 analytically  !
 ! D38   D(15,17,19,22)       -119.9981         calculate D2E/DX2 analytically  !
 ! D39   D(18,17,19,20)        179.9977         calculate D2E/DX2 analytically  !
 ! D40   D(18,17,19,21)        -60.0078         calculate D2E/DX2 analytically  !
 ! D41   D(18,17,19,22)         59.9924         calculate D2E/DX2 analytically  !
 --------------------------------------------------------------------------------
 Trust Radius=3.00D-01 FncErr=1.00D-07 GrdErr=1.00D-06
 Number of steps in this run= 132 maximum allowed number of steps= 132.
 GradGradGradGradGradGradGradGradGradGradGradGradGradGradGradGradGradGrad

                          Input orientation:                          
 ---------------------------------------------------------------------
 Center     Atomic      Atomic             Coordinates (Angstroms)
 Number     Number       Type             X           Y           Z
 ---------------------------------------------------------------------
      1          1           0        1.743700    1.516400    1.391900
      2          6           0        1.870800    2.350300    0.701500
      3          1           0        1.149500    3.132300    0.938700
      4          1           0        1.709000    2.005100   -0.319700
      5          6           0        3.279800    2.938100    0.801400
      6          8           0        4.098200    2.466500    1.587700
      7          7           0        3.555400    3.969700    0.000000
      8          1           0        2.849100    4.322400   -0.630000
      9          6           0        4.853300    4.613900    0.000000
     10          1           0        5.407600    4.315500    0.889800
     11          6           0        5.661300    4.220800   -1.232200
     12          1           0        5.123300    4.521400   -2.131200
     13          1           0        6.630500    4.718900   -1.205800
     14          1           0        5.808500    3.140900   -1.241400
     15          6           0        4.712700    6.129400    0.000000
     16          8           0        3.909500    6.681400   -0.748800
     17          7           0        5.497900    6.802600    0.844100
     18          1           0        6.143000    6.304100    1.440300
     19          6           0        5.458900    8.248000    0.938700
     20          1           0        4.720000    8.638600    0.239100
     21          1           0        5.187100    8.538900    1.953400
     22          1           0        6.440200    8.655200    0.695000
 ---------------------------------------------------------------------
                    Distance matrix (angstroms):
                    1          2          3          4          5
     1  H    0.000000
     2  C    1.090044   0.000000
     3  H    1.780336   1.089982   0.000000
     4  H    1.780339   1.090042   1.779660   0.000000
     5  C    2.174747   1.529957   2.143535   2.143541   0.000000
     6  O    2.546507   2.400034   3.091815   3.091818   1.229005
     7  N    3.352361   2.439761   2.714913   2.714969   1.335064
     8  H    3.630926   2.572769   2.601115   2.601152   2.037325
     9  C    4.604509   3.809369   4.098101   4.098130   2.434430
    10  H    4.638020   4.050484   4.419702   4.525536   2.536253
    11  C    5.435740   4.648210   5.123864   4.621976   3.384138
    12  H    5.732709   4.828729   5.210084   4.612022   3.808605
    13  H    6.394127   5.648257   6.095699   5.689556   4.292702
    14  H    5.108412   4.461546   5.143850   4.352640   3.257067
    15  C    5.659692   4.780177   4.749754   5.112169   3.588849
    16  O    5.995875   5.001809   4.802225   5.185953   4.100236
    17  N    6.506767   5.744490   5.691101   6.223038   4.456024
    18  H    6.502173   5.867713   5.936915   6.421788   4.464982
    19  C    7.702113   6.907502   6.688895   7.390475   5.741286
    20  H    7.804681   6.919138   6.599792   7.306278   5.906442
    21  H    7.841415   7.131891   6.823720   7.743042   6.027757
    22  H    8.573520   7.786605   7.652014   8.224214   6.533351
                    6          7          8          9         10
     6  O    0.000000
     7  N    2.252783   0.000000
     8  H    3.150049   1.010028   0.000000
     9  C    2.775301   1.448978   2.121012   0.000000
    10  H    2.370737   2.083739   2.975863   1.089970   0.000000
    11  C    3.670516   2.452791   2.877748   1.525027   2.139209
    12  H    4.370774   2.702720   2.732250   2.150225   3.041326
    13  H    4.391980   3.386959   3.845484   2.150214   2.459625
    14  H    3.373981   2.702673   3.244657   2.150165   2.466256
    15  C    4.039213   2.450234   2.671171   1.522008   2.136554
    16  O    4.822885   2.835384   2.589101   2.392910   3.244502
    17  N    4.616694   3.537108   3.916696   2.432781   2.489158
    18  H    4.350874   3.770883   4.366126   2.567989   2.190524
    19  C    5.974818   4.775806   4.968119   3.801919   3.933139
    20  H    6.348242   4.817893   4.783846   4.033999   4.425539
    21  H    6.180087   5.230278   5.469833   4.396910   4.360845
    22  H    6.676967   5.546080   5.781417   4.396974   4.465110
                   11         12         13         14         15
    11  C    0.000000
    12  H    1.089957   0.000000
    13  H    1.090023   1.779613   0.000000
    14  H    1.089925   1.779613   1.779617   0.000000
    15  C    2.461892   2.701161   2.668599   3.416575   0.000000
    16  O    3.058926   2.837242   3.385867   4.047715   1.229039
    17  N    3.317139   3.767839   3.134753   4.225379   1.335006
    18  H    3.422635   4.119881   3.122877   4.160437   2.037337
    19  C    4.579532   4.839882   4.292560   5.563949   2.434428
    20  H    4.750550   4.767841   4.593669   5.796673   2.520577
    21  H    5.386919   5.729602   5.162979   6.303276   3.137916
    22  H    4.897417   5.177831   4.375353   5.878452   3.137985
                   16         17         18         19         20
    16  O    0.000000
    17  N    2.252784   0.000000
    18  H    3.150085   1.010005   0.000000
    19  C    2.775344   1.449017   2.120930   0.000000
    20  H    2.337411   2.083758   2.986252   1.089946   0.000000
    21  H    3.519155   2.083718   2.484220   1.090006   1.779592
    22  H    3.519217   2.083815   2.484245   1.090023   1.779665
                   21         22
    21  H    0.000000
    22  H    1.779707   0.000000
 Stoichiometry    C6H12N2O2
 Framework group  C1[X(C6H12N2O2)]
 Deg. of freedom    60
 Full point group                 C1      NOp   1
 Largest Abelian subgroup         C1      NOp   1
 Largest concise Abelian subgroup C1      NOp   1
                         Standard orientation:                         
 ---------------------------------------------------------------------
 Center     Atomic      Atomic             Coordinates (Angstroms)
 Number     Number       Type             X           Y           Z
 ---------------------------------------------------------------------
      1          1           0       -4.193575   -1.174593   -0.093637
      2          6           0       -3.343676   -0.954019    0.552285
      3          1           0       -2.972706   -1.878818    0.994087
      4          1           0       -3.655660   -0.273169    1.344309
      5          6           0       -2.208034   -0.298930   -0.236350
      6          8           0       -2.326636   -0.086608   -1.441051
      7          7           0       -1.108510    0.018721    0.451067
      8          1           0       -1.058130   -0.175722    1.440921
      9          6           0        0.035937    0.643399   -0.181038
     10          1           0       -0.049451    0.548453   -1.263502
     11          6           0        0.118349    2.124394    0.173324
     12          1           0        0.213441    2.235325    1.253443
     13          1           0        0.986487    2.567459   -0.314712
     14          1           0       -0.785727    2.630314   -0.165243
     15          6           0        1.334349   -0.014305    0.264000
     16          8           0        1.529213   -0.270669    1.450104
     17          7           0        2.224555   -0.287547   -0.692616
     18          1           0        2.018909   -0.057750   -1.654393
     19          6           0        3.498079   -0.912643   -0.397589
     20          1           0        3.572896   -1.097914    0.673886
     21          1           0        3.572542   -1.857874   -0.935277
     22          1           0        4.308019   -0.253087   -0.709252
 ---------------------------------------------------------------------
 Rotational constants (GHZ):      2.4186412      0.6649631      0.6514907
 Standard basis: 6-31G(d) (6D, 7F)
 There are   174 symmetry adapted basis functions of A   symmetry.
 Integral buffers will be    131072 words long.
 Raffenetti 2 integral format.
 Two-electron integral symmetry is turned on.
   174 basis functions,   328 primitive gaussians,   174 cartesian basis functions
    39 alpha electrons       39 beta electrons
       nuclear repulsion energy       551.3892216406 Hartrees.
 NAtoms=   22 NActive=   22 NUniq=   22 SFac= 7.50D-01 NAtFMM=   80 NAOKFM=F Big=F
 One-electron integrals computed using PRISM.
 NBasis=   174 RedAO= T  NBF=   174
 NBsUse=   174 1.00D-06 NBFU=   174
 Harris functional with IExCor=  402 diagonalized for initial guess.
 ExpMin= 1.61D-01 ExpMax= 5.48D+03 ExpMxC= 8.25D+02 IAcc=1 IRadAn=         1 AccDes= 0.00D+00
 HarFok:  IExCor=  402 AccDes= 0.00D+00 IRadAn=         1 IDoV= 1
 ScaDFX=  1.000000  1.000000  1.000000  1.000000
 FoFCou: FMM=F IPFlag=           0 FMFlag=      100000 FMFlg1=           0
         NFxFlg=           0 DoJE=T BraDBF=F KetDBF=T FulRan=T
         Omega=  0.000000  0.000000  1.000000  0.000000  0.000000 ICntrl=     500 IOpCl=  0
         NMat0=    1 NMatS0=    1 NMatT0=    0 NMatD0=    1 NMtDS0=    0 NMtDT0=    0
         I1Cent=           4 NGrid=           0.
 Petite list used in FoFCou.
 Initial guess orbital symmetries:
       Occupied  (A) (A) (A) (A) (A) (A) (A) (A) (A) (A) (A) (A)
                 (A) (A) (A) (A) (A) (A) (A) (A) (A) (A) (A) (A)
                 (A) (A) (A) (A) (A) (A) (A) (A) (A) (A) (A) (A)
                 (A) (A) (A)
       Virtual   (A) (A) (A) (A) (A) (A) (A) (A) (A) (A) (A) (A)
                 (A) (A) (A) (A) (A) (A) (A) (A) (A) (A) (A) (A)
                 (A) (A) (A) (A) (A) (A) (A) (A) (A) (A) (A) (A)
                 (A) (A) (A) (A) (A) (A) (A) (A) (A) (A) (A) (A)
                 (A) (A) (A) (A) (A) (A) (A) (A) (A) (A) (A) (A)
                 (A) (A) (A) (A) (A) (A) (A) (A) (A) (A) (A) (A)
                 (A) (A) (A) (A) (A) (A) (A) (A) (A) (A) (A) (A)
                 (A) (A) (A) (A) (A) (A) (A) (A) (A) (A) (A) (A)
                 (A) (A) (A) (A) (A) (A) (A) (A) (A) (A) (A) (A)
                 (A) (A) (A) (A) (A) (A) (A) (A) (A) (A) (A) (A)
                 (A) (A) (A) (A) (A) (A) (A) (A) (A) (A) (A) (A)
                 (A) (A) (A)
 The electronic state of the initial guess is 1-A.
 Requested convergence on RMS density matrix=1.00D-08 within 128 cycles.
 Requested convergence on MAX density matrix=1.00D-06.
 Requested convergence on             energy=1.00D-06.
 No special actions if energy rises.
 Integral accuracy reduced to 1.0D-05 until final iterations.
 Initial convergence to 1.0D-05 achieved.  Increase integral accuracy.
 SCF Done:  E(RB3LYP) =  -495.845990618     A.U. after   14 cycles
             Convg  =    0.7294D-08             -V/T =  2.0088
 Range of M.O.s used for correlation:     1   174
 NBasis=   174 NAE=    39 NBE=    39 NFC=     0 NFV=     0
 NROrb=    174 NOA=    39 NOB=    39 NVA=   135 NVB=   135
 Symmetrizing basis deriv contribution to polar:
 IMax=3 JMax=2 DiffMx= 0.00D+00
 G2DrvN: will do    23 centers at a time, making    1 passes doing MaxLOS=2.
 Calling FoFCou, ICntrl=  3107 FMM=F I1Cent=   0 AccDes= 0.00D+00.
 FoFDir/FoFCou used for L=0 through L=2.
 End of G2Drv Frequency-dependent properties file   721 does not exist.
 End of G2Drv Frequency-dependent properties file   722 does not exist.
          IDoAtm=1111111111111111111111
          Differentiating once with respect to nuclear coordinates.
          There are    69 degrees of freedom in the 1st order CPHF.  IDoFFX=5.
     63 vectors produced by pass  0 Test12= 7.63D-11 1.45D-07 XBig12= 2.01D-01 9.82D-02.
 AX will form    63 AO Fock derivatives at one time.
     63 vectors produced by pass  1 Test12= 7.63D-11 1.45D-07 XBig12= 4.50D-02 6.39D-02.
     63 vectors produced by pass  2 Test12= 7.63D-11 1.45D-07 XBig12= 4.63D-05 1.32D-03.
     63 vectors produced by pass  3 Test12= 7.63D-11 1.45D-07 XBig12= 8.32D-08 4.81D-05.
     30 vectors produced by pass  4 Test12= 7.63D-11 1.45D-07 XBig12= 7.21D-11 1.50D-06.
 Inverted reduced A of dimension   282 with in-core refinement.
 End of Minotr Frequency-dependent properties file   721 does not exist.
 End of Minotr Frequency-dependent properties file   722 does not exist.

 **********************************************************************

            Population analysis using the SCF density.

 **********************************************************************

 Orbital symmetries:
       Occupied  (A) (A) (A) (A) (A) (A) (A) (A) (A) (A) (A) (A)
                 (A) (A) (A) (A) (A) (A) (A) (A) (A) (A) (A) (A)
                 (A) (A) (A) (A) (A) (A) (A) (A) (A) (A) (A) (A)
                 (A) (A) (A)
       Virtual   (A) (A) (A) (A) (A) (A) (A) (A) (A) (A) (A) (A)
                 (A) (A) (A) (A) (A) (A) (A) (A) (A) (A) (A) (A)
                 (A) (A) (A) (A) (A) (A) (A) (A) (A) (A) (A) (A)
                 (A) (A) (A) (A) (A) (A) (A) (A) (A) (A) (A) (A)
                 (A) (A) (A) (A) (A) (A) (A) (A) (A) (A) (A) (A)
                 (A) (A) (A) (A) (A) (A) (A) (A) (A) (A) (A) (A)
                 (A) (A) (A) (A) (A) (A) (A) (A) (A) (A) (A) (A)
                 (A) (A) (A) (A) (A) (A) (A) (A) (A) (A) (A) (A)
                 (A) (A) (A) (A) (A) (A) (A) (A) (A) (A) (A) (A)
                 (A) (A) (A) (A) (A) (A) (A) (A) (A) (A) (A) (A)
                 (A) (A) (A) (A) (A) (A) (A) (A) (A) (A) (A) (A)
                 (A) (A) (A)
 The electronic state is 1-A.
 Alpha  occ. eigenvalues --  -19.11045 -19.09679 -14.37219 -14.35735 -10.28452
 Alpha  occ. eigenvalues --  -10.27781 -10.23239 -10.22222 -10.18499 -10.18273
 Alpha  occ. eigenvalues --   -1.03790  -1.02119  -0.93180  -0.92305  -0.78644
 Alpha  occ. eigenvalues --   -0.72812  -0.71606  -0.64453  -0.59939  -0.58589
 Alpha  occ. eigenvalues --   -0.54157  -0.48051  -0.47107  -0.46329  -0.45726
 Alpha  occ. eigenvalues --   -0.44683  -0.42436  -0.41806  -0.40884  -0.39698
 Alpha  occ. eigenvalues --   -0.38775  -0.37947  -0.36654  -0.36392  -0.34588
 Alpha  occ. eigenvalues --   -0.26198  -0.25882  -0.24232  -0.23489
 Alpha virt. eigenvalues --    0.02522   0.04433   0.06503   0.08953   0.11938
 Alpha virt. eigenvalues --    0.12993   0.13984   0.14965   0.15757   0.16529
 Alpha virt. eigenvalues --    0.16747   0.17118   0.17542   0.18389   0.19773
 Alpha virt. eigenvalues --    0.21903   0.23212   0.24488   0.27929   0.33484
 Alpha virt. eigenvalues --    0.33978   0.39805   0.42033   0.50164   0.50969
 Alpha virt. eigenvalues --    0.52741   0.52959   0.53671   0.55327   0.56337
 Alpha virt. eigenvalues --    0.58120   0.59080   0.61472   0.62592   0.65838
 Alpha virt. eigenvalues --    0.66281   0.68883   0.70181   0.70324   0.75045
 Alpha virt. eigenvalues --    0.75553   0.77752   0.79160   0.82096   0.83385
 Alpha virt. eigenvalues --    0.84865   0.85449   0.86910   0.87524   0.88657
 Alpha virt. eigenvalues --    0.88766   0.90824   0.91279   0.92448   0.92559
 Alpha virt. eigenvalues --    0.94712   0.94876   0.96405   0.96785   0.97610
 Alpha virt. eigenvalues --    1.04241   1.06603   1.08270   1.10788   1.14382
 Alpha virt. eigenvalues --    1.17069   1.23151   1.30430   1.32850   1.33455
 Alpha virt. eigenvalues --    1.38271   1.40579   1.44888   1.46749   1.51536
 Alpha virt. eigenvalues --    1.51961   1.55220   1.61886   1.63737   1.65320
 Alpha virt. eigenvalues --    1.72230   1.75348   1.77467   1.81353   1.82437
 Alpha virt. eigenvalues --    1.83882   1.84779   1.86622   1.91215   1.92429
 Alpha virt. eigenvalues --    1.94136   1.95568   1.96909   2.00670   2.02413
 Alpha virt. eigenvalues --    2.04941   2.09334   2.13057   2.14326   2.15700
 Alpha virt. eigenvalues --    2.19925   2.21694   2.24213   2.27569   2.29068
 Alpha virt. eigenvalues --    2.29715   2.31884   2.35584   2.37807   2.41860
 Alpha virt. eigenvalues --    2.44887   2.48408   2.51137   2.60985   2.63463
 Alpha virt. eigenvalues --    2.70239   2.70489   2.72237   2.76162   2.87221
 Alpha virt. eigenvalues --    2.93393   2.97447   3.00949   3.14548   3.19474
 Alpha virt. eigenvalues --    3.95743   4.00459   4.05645   4.18620   4.20971
 Alpha virt. eigenvalues --    4.24228   4.25787   4.38720   4.47355   4.64797
          Condensed to atoms (all electrons):
              1          2          3          4          5          6
     1  H    0.503396   0.361118  -0.021430  -0.021560  -0.018273   0.005065
     2  C    0.361118   5.338631   0.350026   0.350626   0.348550  -0.082986
     3  H   -0.021430   0.350026   0.549167  -0.026570  -0.024429   0.001511
     4  H   -0.021560   0.350626  -0.026570   0.552954  -0.025784   0.001463
     5  C   -0.018273   0.348550  -0.024429  -0.025784   4.332026   0.611604
     6  O    0.005065  -0.082986   0.001511   0.001463   0.611604   8.068766
     7  N    0.004489  -0.133823   0.004275   0.004578   0.227226  -0.107964
     8  H   -0.000138  -0.001008   0.000960   0.001025  -0.016321   0.003148
     9  C   -0.000142   0.007332  -0.000235  -0.000302  -0.018983  -0.001020
    10  H   -0.000010   0.001216  -0.000057  -0.000032   0.000777   0.021670
    11  C    0.000004  -0.000324  -0.000005   0.000066  -0.002161  -0.000644
    12  H    0.000000  -0.000004   0.000001   0.000000  -0.000110  -0.000025
    13  H    0.000000   0.000004   0.000000   0.000000  -0.000007  -0.000032
    14  H    0.000000  -0.000003   0.000000  -0.000019   0.002294   0.001111
    15  C    0.000001  -0.000134   0.000024  -0.000013   0.004470   0.000629
    16  O    0.000000  -0.000018  -0.000001   0.000000   0.000371  -0.000003
    17  N    0.000000  -0.000002   0.000000   0.000000  -0.000042  -0.000025
    18  H    0.000000   0.000000   0.000000   0.000000  -0.000045  -0.000034
    19  C    0.000000   0.000000   0.000000   0.000000  -0.000003   0.000000
    20  H    0.000000   0.000000   0.000000   0.000000   0.000000   0.000000
    21  H    0.000000   0.000000   0.000000   0.000000   0.000000   0.000000
    22  H    0.000000   0.000000   0.000000   0.000000   0.000000   0.000000
              7          8          9         10         11         12
     1  H    0.004489  -0.000138  -0.000142  -0.000010   0.000004   0.000000
     2  C   -0.133823  -0.001008   0.007332   0.001216  -0.000324  -0.000004
     3  H    0.004275   0.000960  -0.000235  -0.000057  -0.000005   0.000001
     4  H    0.004578   0.001025  -0.000302  -0.000032   0.000066   0.000000
     5  C    0.227226  -0.016321  -0.018983   0.000777  -0.002161  -0.000110
     6  O   -0.107964   0.003148  -0.001020   0.021670  -0.000644  -0.000025
     7  N    7.174253   0.295001   0.246368  -0.048110  -0.060251  -0.003309
     8  H    0.295001   0.396368  -0.038690   0.004904   0.000359   0.003130
     9  C    0.246368  -0.038690   5.107288   0.355925   0.358665  -0.035118
    10  H   -0.048110   0.004904   0.355925   0.561440  -0.039505   0.005353
    11  C   -0.060251   0.000359   0.358665  -0.039505   5.128068   0.373289
    12  H   -0.003309   0.003130  -0.035118   0.005353   0.373289   0.546054
    13  H    0.005550  -0.000071  -0.031996  -0.000636   0.358318  -0.025378
    14  H   -0.003807  -0.000323  -0.028387  -0.004126   0.371773  -0.028275
    15  C   -0.032988  -0.001763   0.303105  -0.039422  -0.040775  -0.007109
    16  O   -0.003793   0.015246  -0.087427   0.003160  -0.003514   0.006783
    17  N    0.001563   0.000692  -0.101450   0.004165  -0.002656   0.000546
    18  H    0.000053  -0.000034   0.001684   0.003595  -0.000034  -0.000021
    19  C   -0.000148  -0.000001   0.007015  -0.000130  -0.000297   0.000005
    20  H   -0.000005  -0.000017   0.001135  -0.000050  -0.000021  -0.000015
    21  H    0.000012   0.000000  -0.000154  -0.000018  -0.000009   0.000000
    22  H   -0.000002   0.000000  -0.000212  -0.000011   0.000060  -0.000001
             13         14         15         16         17         18
     1  H    0.000000   0.000000   0.000001   0.000000   0.000000   0.000000
     2  C    0.000004  -0.000003  -0.000134  -0.000018  -0.000002   0.000000
     3  H    0.000000   0.000000   0.000024  -0.000001   0.000000   0.000000
     4  H    0.000000  -0.000019  -0.000013   0.000000   0.000000   0.000000
     5  C   -0.000007   0.002294   0.004470   0.000371  -0.000042  -0.000045
     6  O   -0.000032   0.001111   0.000629  -0.000003  -0.000025  -0.000034
     7  N    0.005550  -0.003807  -0.032988  -0.003793   0.001563   0.000053
     8  H   -0.000071  -0.000323  -0.001763   0.015246   0.000692  -0.000034
     9  C   -0.031996  -0.028387   0.303105  -0.087427  -0.101450   0.001684
    10  H   -0.000636  -0.004126  -0.039422   0.003160   0.004165   0.003595
    11  C    0.358318   0.371773  -0.040775  -0.003514  -0.002656  -0.000034
    12  H   -0.025378  -0.028275  -0.007109   0.006783   0.000546  -0.000021
    13  H    0.574714  -0.026125  -0.001111  -0.000357   0.002704   0.000117
    14  H   -0.026125   0.542876   0.004896   0.000001  -0.000107  -0.000040
    15  C   -0.001111   0.004896   4.385032   0.580386   0.275194  -0.017517
    16  O   -0.000357   0.000001   0.580386   8.116719  -0.100394   0.003565
    17  N    0.002704  -0.000107   0.275194  -0.100394   7.063294   0.303524
    18  H    0.000117  -0.000040  -0.017517   0.003565   0.303524   0.402352
    19  C   -0.000078   0.000006  -0.027919  -0.008952   0.261340  -0.031576
    20  H   -0.000003   0.000000  -0.001112   0.021746  -0.037049   0.003784
    21  H    0.000003   0.000000   0.001195   0.000575  -0.042888  -0.000794
    22  H   -0.000020  -0.000001   0.002067   0.000583  -0.043537  -0.000951
             19         20         21         22
     1  H    0.000000   0.000000   0.000000   0.000000
     2  C    0.000000   0.000000   0.000000   0.000000
     3  H    0.000000   0.000000   0.000000   0.000000
     4  H    0.000000   0.000000   0.000000   0.000000
     5  C   -0.000003   0.000000   0.000000   0.000000
     6  O    0.000000   0.000000   0.000000   0.000000
     7  N   -0.000148  -0.000005   0.000012  -0.000002
     8  H   -0.000001  -0.000017   0.000000   0.000000
     9  C    0.007015   0.001135  -0.000154  -0.000212
    10  H   -0.000130  -0.000050  -0.000018  -0.000011
    11  C   -0.000297  -0.000021  -0.000009   0.000060
    12  H    0.000005  -0.000015   0.000000  -0.000001
    13  H   -0.000078  -0.000003   0.000003  -0.000020
    14  H    0.000006   0.000000   0.000000  -0.000001
    15  C   -0.027919  -0.001112   0.001195   0.002067
    16  O   -0.008952   0.021746   0.000575   0.000583
    17  N    0.261340  -0.037049  -0.042888  -0.043537
    18  H   -0.031576   0.003784  -0.000794  -0.000951
    19  C    4.974784   0.376608   0.383079   0.381866
    20  H    0.376608   0.471980  -0.023868  -0.024122
    21  H    0.383079  -0.023868   0.557706  -0.038040
    22  H    0.381866  -0.024122  -0.038040   0.562166
 Mulliken atomic charges:
              1
     1  H    0.187480
     2  C   -0.539200
     3  H    0.166764
     4  H    0.163568
     5  C    0.578842
     6  O   -0.522234
     7  N   -0.569165
     8  H    0.337533
     9  C   -0.044402
    10  H    0.169902
    11  C   -0.440406
    12  H    0.164204
    13  H    0.144405
    14  H    0.168254
    15  C    0.612865
    16  O   -0.544676
    17  N   -0.584872
    18  H    0.332372
    19  C   -0.315598
    20  H    0.211010
    21  H    0.163200
    22  H    0.160154
 Sum of Mulliken atomic charges =   0.00000
 Mulliken charges with hydrogens summed into heavy atoms:
              1
     2  C   -0.021388
     5  C    0.578842
     6  O   -0.522234
     7  N   -0.231633
     9  C    0.125501
    11  C    0.036457
    15  C    0.612865
    16  O   -0.544676
    17  N   -0.252500
    19  C    0.218767
 Sum of Mulliken charges with hydrogens summed into heavy atoms =   0.00000
 APT atomic charges:
              1
     1  H    0.717733
     2  C   -1.233046
     3  H    0.306573
     4  H    0.420814
     5  C   -0.035079
     6  O   -0.155493
     7  N   -0.643769
     8  H    0.532963
     9  C   -0.350648
    10  H    0.344000
    11  C   -1.201996
    12  H    0.381130
    13  H    0.425056
    14  H    0.447027
    15  C   -0.081101
    16  O   -0.199221
    17  N   -0.355483
    18  H    0.526631
    19  C   -1.404568
    20  H    0.427134
    21  H    0.507248
    22  H    0.624097
 Sum of APT charges=   0.00000
 APT Atomic charges with hydrogens summed into heavy atoms:
              1
     1  H    0.000000
     2  C    0.212074
     3  H    0.000000
     4  H    0.000000
     5  C   -0.035079
     6  O   -0.155493
     7  N   -0.110806
     8  H    0.000000
     9  C   -0.006648
    10  H    0.000000
    11  C    0.051218
    12  H    0.000000
    13  H    0.000000
    14  H    0.000000
    15  C   -0.081101
    16  O   -0.199221
    17  N    0.171147
    18  H    0.000000
    19  C    0.153911
    20  H    0.000000
    21  H    0.000000
    22  H    0.000000
 Sum of APT charges=   0.00000
 Electronic spatial extent (au):  <R**2>=           1923.5887
 Charge=              0.0000 electrons
 Dipole moment (field-independent basis, Debye):
    X=              1.9589    Y=              0.0933    Z=             -0.1437  Tot=              1.9664
 Quadrupole moment (field-independent basis, Debye-Ang):
   XX=            -55.5231   YY=            -58.0840   ZZ=            -63.9438
   XY=              0.4658   XZ=            -14.9466   YZ=              0.2105
 Traceless Quadrupole moment (field-independent basis, Debye-Ang):
   XX=              3.6605   YY=              1.0996   ZZ=             -4.7602
   XY=              0.4658   XZ=            -14.9466   YZ=              0.2105
 Octapole moment (field-independent basis, Debye-Ang**2):
  XXX=             24.3331  YYY=             -3.7060  ZZZ=             -2.2806  XYY=              0.2291
  XXY=            -11.5753  XXZ=              5.2666  XZZ=              8.5299  YZZ=              0.9041
  YYZ=             -0.5755  XYZ=              1.8501
 Hexadecapole moment (field-independent basis, Debye-Ang**3):
 XXXX=          -1676.3158 YYYY=           -392.2350 ZZZZ=           -288.9854 XXXY=            -10.5404
 XXXZ=            -47.9871 YYYX=             -5.6054 YYYZ=             -1.6788 ZZZX=            -32.9252
 ZZZY=              1.2131 XXYY=           -350.5896 XXZZ=           -369.9906 YYZZ=           -112.0619
 XXYZ=              2.8569 YYXZ=              2.9341 ZZXY=             -1.3747
 N-N= 5.513892216406D+02 E-N=-2.259075755311D+03  KE= 4.915110739360D+02
  Exact polarizability:   0.000   0.000   0.000   0.000   0.000   0.000
 Approx polarizability: 112.810  -0.140  86.385   1.021  -4.292 135.741
 Calling FoFJK, ICntrl=    100147 FMM=F ISym2X=0 I1Cent= 0 IOpClX= 0 NMat=1 NMatS=1 NMatT=0.
 ***** Axes restored to original set *****
 -------------------------------------------------------------------
 Center     Atomic                   Forces (Hartrees/Bohr)
 Number     Number              X              Y              Z
 -------------------------------------------------------------------
      1        1           0.003681471    0.001015415    0.000593265
      2        6           0.006562015    0.007684938   -0.004002581
      3        1          -0.006253409    0.000817677   -0.001147947
      4        1          -0.005325602   -0.001438813   -0.003501425
      5        6          -0.005634591   -0.031140361    0.025847676
      6        8           0.004081917    0.000729319    0.001221302
      7        7           0.002151184    0.018644981   -0.010164207
      8        1           0.001277832    0.005007360   -0.001238224
      9        6           0.009367338    0.003955143   -0.002237368
     10        1          -0.005525096   -0.007285828    0.002900549
     11        6           0.000423562   -0.003171017   -0.000276499
     12        1           0.000525107    0.001049763   -0.003657352
     13        1           0.004381644    0.000453307   -0.003141820
     14        1           0.001646580   -0.002641599   -0.001252465
     15        6          -0.023016420   -0.006635259   -0.010423860
     16        8          -0.004402911    0.000006736   -0.004874626
     17        7           0.011398160    0.007917664    0.010371435
     18        1          -0.001136669   -0.000833971    0.000493300
     19        6           0.003850109    0.000787991    0.002060140
     20        1          -0.000180981   -0.003223317   -0.000492114
     21        1          -0.000590924    0.003650445    0.003123034
     22        1           0.002719683    0.004649425   -0.000200213
 -------------------------------------------------------------------
 Cartesian Forces:  Max     0.031140361 RMS     0.007553622

 GradGradGradGradGradGradGradGradGradGradGradGradGradGradGradGradGradGrad
 Berny optimization.
 Internal  Forces:  Max     0.029274597 RMS     0.005364351
 Search for a local minimum.
 Step number   1 out of a maximum of  132
 All quantities printed in internal units (Hartrees-Bohrs-Radians)
 Mixed Optimization -- RFO/linear search
 Second derivative matrix not updated -- analytic derivatives used.
     Eigenvalues ---   -0.00064  -0.00011   0.00311   0.00360   0.00433
     Eigenvalues ---    0.01749   0.01870   0.02195   0.03916   0.04060
     Eigenvalues ---    0.04636   0.04841   0.04951   0.05420   0.05831
     Eigenvalues ---    0.05978   0.06401   0.06586   0.10989   0.11993
     Eigenvalues ---    0.12457   0.12613   0.13305   0.13363   0.13412
     Eigenvalues ---    0.13857   0.14322   0.16739   0.17419   0.17932
     Eigenvalues ---    0.18531   0.19896   0.21258   0.22140   0.22743
     Eigenvalues ---    0.24345   0.24982   0.30112   0.33541   0.34265
     Eigenvalues ---    0.34610   0.34939   0.35076   0.35082   0.35195
     Eigenvalues ---    0.35218   0.35613   0.35793   0.35908   0.36128
     Eigenvalues ---    0.37765   0.39373   0.46968   0.47091   0.53761
     Eigenvalues ---    0.54595   0.83154   0.832081000.000001000.00000
     Eigenvalues --- 1000.000001000.000001000.000001000.000001000.00000
     Eigenvalues --- 1000.000001000.000001000.000001000.000001000.00000
     Eigenvalues --- 1000.000001000.000001000.000001000.000001000.00000
     Eigenvalues --- 1000.000001000.000001000.000001000.000001000.00000
     Eigenvalues --- 1000.000001000.000001000.000001000.000001000.00000
     Eigenvalues --- 1000.000001000.000001000.000001000.000001000.00000
     Eigenvalues --- 1000.000001000.000001000.000001000.000001000.00000
     Eigenvalues --- 1000.000001000.000001000.00000
 RFO step:  Lambda=-9.33202319D-03 EMin=-6.44979997D-04
 Linear search not attempted -- first point.
 Maximum step size (   0.300) exceeded in Quadratic search.
    -- Step size scaled by   0.320
 Iteration  1 RMS(Cart)=  0.04930219 RMS(Int)=  0.00212000
 Iteration  2 RMS(Cart)=  0.00224792 RMS(Int)=  0.00004816
 Iteration  3 RMS(Cart)=  0.00000415 RMS(Int)=  0.00004806
 Iteration  4 RMS(Cart)=  0.00000000 RMS(Int)=  0.00004806
 Iteration  1 RMS(Cart)=  0.00002424 RMS(Int)=  0.00001109
 Iteration  2 RMS(Cart)=  0.00001391 RMS(Int)=  0.00001228
 Iteration  3 RMS(Cart)=  0.00000827 RMS(Int)=  0.00001407
 Iteration  4 RMS(Cart)=  0.00000509 RMS(Int)=  0.00001553
 Iteration  5 RMS(Cart)=  0.00000323 RMS(Int)=  0.00001658
 Iteration  6 RMS(Cart)=  0.00000210 RMS(Int)=  0.00001731
 Iteration  7 RMS(Cart)=  0.00000138 RMS(Int)=  0.00001781
 Iteration  8 RMS(Cart)=  0.00000092 RMS(Int)=  0.00001815
 Variable       Old X    -DE/DX   Delta X   Delta X   Delta X     New X
                                 (Linear)    (Quad)   (Total)
    R1        2.05988  -0.00083   0.00000   0.00019   0.00019   2.06008
    R2        2.05977   0.00447   0.00000   0.00384   0.00384   2.06361
    R3        2.05988   0.00453   0.00000   0.00345   0.00345   2.06334
    R4        2.89120  -0.00136   0.00000  -0.00408  -0.00408   2.88712
    R5        2.32248   0.00322   0.00000  -0.00143  -0.00143   2.32105
    R6        2.52291   0.02927   0.00000   0.01728   0.01728   2.54019
    R7        1.90868   0.00163   0.00000   0.00122   0.00122   1.90990
    R8        2.73817  -0.00108   0.00000   0.00115   0.00115   2.73932
    R9        2.05975   0.00155   0.00000   0.00214   0.00214   2.06189
   R10        2.88188   0.01154   0.00000   0.00761   0.00761   2.88949
   R11        2.87618   0.00735   0.00000   0.00719   0.00719   2.88337
   R12        2.05972   0.00305   0.00000   0.00276   0.00276   2.06248
   R13        2.05984   0.00403   0.00000   0.00365   0.00365   2.06349
   R14        2.05966   0.00285   0.00000   0.00236   0.00236   2.06202
   R15        2.32255   0.00585   0.00000   0.00000   0.00000   2.32255
   R16        2.52280   0.02568   0.00000   0.01382   0.01382   2.53662
   R17        1.90863  -0.00002   0.00000  -0.00007  -0.00007   1.90857
   R18        2.73825   0.00599   0.00000   0.00252   0.00252   2.74076
   R19        2.05970  -0.00072   0.00000   0.00038   0.00038   2.06008
   R20        2.05981   0.00403   0.00000   0.00406   0.00406   2.06387
   R21        2.05985   0.00423   0.00000   0.00297   0.00297   2.06281
    A1        1.91119   0.00004   0.00000  -0.00366  -0.00367   1.90752
    A2        1.91112  -0.00013   0.00000   0.00120   0.00124   1.91236
    A3        1.93900  -0.00783   0.00000  -0.01290  -0.01289   1.92611
    A4        1.91012  -0.00517   0.00000  -0.00898  -0.00905   1.90107
    A5        1.89609   0.00645   0.00000   0.00468   0.00463   1.90073
    A6        1.89604   0.00668   0.00000   0.01977   0.01976   1.91580
    A7        2.10320   0.00813   0.00000   0.01209   0.01207   2.11528
    A8        2.03508  -0.00955   0.00000  -0.01075  -0.01076   2.02432
    A9        2.14490   0.00142   0.00000  -0.00134  -0.00136   2.14354
   A10        2.09426   0.00227   0.00000   0.00653   0.00649   2.10075
   A11        2.12756   0.00442   0.00000   0.00560   0.00556   2.13312
   A12        2.06136  -0.00668   0.00000  -0.01212  -0.01216   2.04920
   A13        1.91114  -0.00344   0.00000  -0.01535  -0.01529   1.89585
   A14        1.93905   0.00496   0.00000   0.00656   0.00661   1.94566
   A15        1.93900  -0.00850   0.00000  -0.01993  -0.01995   1.91905
   A16        1.89609  -0.00115   0.00000   0.00389   0.00377   1.89987
   A17        1.89608   0.00470   0.00000   0.01545   0.01518   1.91126
   A18        1.88137   0.00369   0.00000   0.01051   0.01054   1.89192
   A19        1.91115   0.00185   0.00000   0.00357   0.00357   1.91471
   A20        1.91106   0.00437   0.00000   0.00712   0.00711   1.91818
   A21        1.91110   0.00138   0.00000   0.00145   0.00144   1.91254
   A22        1.91011  -0.00331   0.00000  -0.00603  -0.00604   1.90406
   A23        1.91023  -0.00149   0.00000  -0.00198  -0.00198   1.90825
   A24        1.91015  -0.00281   0.00000  -0.00415  -0.00416   1.90599
   A25        2.10317  -0.00160   0.00000  -0.00060  -0.00060   2.10257
   A26        2.03507  -0.00368   0.00000  -0.00418  -0.00419   2.03089
   A27        2.14494   0.00529   0.00000   0.00478   0.00478   2.14971
   A28        2.09441  -0.00347   0.00000  -0.00805  -0.00808   2.08633
   A29        2.12758   0.00526   0.00000   0.00489   0.00486   2.13244
   A30        2.06120  -0.00179   0.00000   0.00316   0.00312   2.06432
   A31        1.91114  -0.00649   0.00000  -0.01154  -0.01152   1.89962
   A32        1.91102   0.00409   0.00000   0.01092   0.01090   1.92193
   A33        1.91114   0.00530   0.00000   0.00545   0.00543   1.91657
   A34        1.91011   0.00022   0.00000  -0.00312  -0.00309   1.90701
   A35        1.91020  -0.00008   0.00000   0.00115   0.00116   1.91136
   A36        1.91019  -0.00304   0.00000  -0.00286  -0.00292   1.90727
    D1       -0.00005   0.00000   0.00000  -0.09786  -0.09790  -0.09796
    D2       -3.14156  -0.00005   0.00000  -0.08768  -0.08769   3.05394
    D3        2.10334  -0.00063   0.00000  -0.10736  -0.10740   1.99594
    D4       -1.03817  -0.00067   0.00000  -0.09718  -0.09718  -1.13535
    D5       -2.10332   0.00068   0.00000  -0.10414  -0.10411  -2.20743
    D6        1.03836   0.00064   0.00000  -0.09396  -0.09390   0.94446
    D7       -0.00012   0.00044   0.00000  -0.00365  -0.00354  -0.00366
    D8       -3.14159  -0.00022   0.00000  -0.02021  -0.02027   3.12132
    D9        3.14156   0.00040   0.00000   0.00680   0.00686  -3.13477
   D10        0.00009  -0.00027   0.00000  -0.00976  -0.00987  -0.00979
   D11       -0.26187  -0.00053   0.00000  -0.00335  -0.00319  -0.26507
   D12        1.83257  -0.00107   0.00000  -0.00434  -0.00431   1.82825
   D13       -2.35626   0.00123   0.00000   0.00000   0.00000  -2.35627
   D14        2.87984  -0.00119   0.00000  -0.01961  -0.01946   2.86038
   D15       -1.30891  -0.00172   0.00000  -0.02060  -0.02058  -1.32948
   D16        0.78545   0.00058   0.00000  -0.01626  -0.01627   0.76918
   D17        1.04724  -0.00081   0.00000   0.00183   0.00183   1.04907
   D18        3.14157  -0.00105   0.00000   0.00100   0.00101  -3.14061
   D19       -1.04726  -0.00096   0.00000   0.00118   0.00118  -1.04608
   D20       -3.13259  -0.00275   0.00000  -0.01059  -0.01058   3.14002
   D21       -1.03826  -0.00299   0.00000  -0.01142  -0.01140  -1.04967
   D22        1.05609  -0.00290   0.00000  -0.01125  -0.01123   1.04486
   D23       -1.08102   0.00422   0.00000   0.01556   0.01554  -1.06548
   D24        1.01331   0.00398   0.00000   0.01473   0.01471   1.02802
   D25        3.10766   0.00407   0.00000   0.01490   0.01488   3.12254
   D26       -0.78542  -0.00376   0.00000  -0.00595  -0.00597  -0.79139
   D27        2.35615  -0.00260   0.00000   0.00000   0.00000   2.35615
   D28       -2.88873   0.00273   0.00000   0.01539   0.01554  -2.87319
   D29        0.25284   0.00389   0.00000   0.02134   0.02151   0.27435
   D30        1.34287  -0.00046   0.00000  -0.00328  -0.00336   1.33951
   D31       -1.79874   0.00070   0.00000   0.00267   0.00261  -1.79614
   D32        0.00011  -0.00158   0.00000  -0.02152  -0.02151  -0.02140
   D33        3.14154  -0.00158   0.00000  -0.00586  -0.00591   3.13563
   D34       -3.14150  -0.00040   0.00000  -0.01542  -0.01537   3.12632
   D35       -0.00008  -0.00039   0.00000   0.00025   0.00024   0.00016
   D36        0.00013   0.00012   0.00000  -0.07033  -0.07034  -0.07021
   D37        2.09442  -0.00108   0.00000  -0.07454  -0.07459   2.01984
   D38       -2.09436   0.00095   0.00000  -0.06800  -0.06800  -2.16236
   D39        3.14155   0.00012   0.00000  -0.05495  -0.05492   3.08663
   D40       -1.04733  -0.00108   0.00000  -0.05916  -0.05917  -1.10650
   D41        1.04706   0.00096   0.00000  -0.05263  -0.05258   0.99448
         Item               Value     Threshold  Converged?
 Maximum Force            0.029275     0.000450     NO 
 RMS     Force            0.005402     0.000300     NO 
 Maximum Displacement     0.232567     0.001800     NO 
 RMS     Displacement     0.049396     0.001200     NO 
 Predicted change in Energy=-2.560537D-03
 GradGradGradGradGradGradGradGradGradGradGradGradGradGradGradGradGradGrad

                          Input orientation:                          
 ---------------------------------------------------------------------
 Center     Atomic      Atomic             Coordinates (Angstroms)
 Number     Number       Type             X           Y           Z
 ---------------------------------------------------------------------
      1          1           0        1.762147    1.485764    1.335117
      2          6           0        1.865550    2.375701    0.714040
      3          1           0        1.168812    3.141298    1.061769
      4          1           0        1.630216    2.127421   -0.322857
      5          6           0        3.288711    2.924073    0.803827
      6          8           0        4.109299    2.440017    1.579015
      7          7           0        3.571529    3.962732   -0.001219
      8          1           0        2.865706    4.335692   -0.621042
      9          6           0        4.871795    4.603485   -0.008187
     10          1           0        5.416685    4.295776    0.885633
     11          6           0        5.683796    4.208853   -1.242255
     12          1           0        5.149915    4.509204   -2.145554
     13          1           0        6.656751    4.704096   -1.221032
     14          1           0        5.831454    3.127763   -1.252483
     15          6           0        4.704910    6.120143   -0.006288
     16          8           0        3.892405    6.658637   -0.754884
     17          7           0        5.489850    6.805081    0.840206
     18          1           0        6.129684    6.305252    1.440891
     19          6           0        5.441086    8.251157    0.940195
     20          1           0        4.747168    8.632645    0.190949
     21          1           0        5.097533    8.547649    1.933605
     22          1           0        6.434299    8.667960    0.763057
 ---------------------------------------------------------------------
                    Distance matrix (angstroms):
                    1          2          3          4          5
     1  H    0.000000
     2  C    1.090145   0.000000
     3  H    1.779764   1.092016   0.000000
     4  H    1.782697   1.091870   1.777085   0.000000
     5  C    2.163655   1.527797   2.146554   2.157470   0.000000
     6  O    2.545428   2.405561   3.066888   3.140173   1.228247
     7  N    3.345897   2.437340   2.752770   2.690820   1.344208
     8  H    3.628566   2.573776   2.671681   2.547903   2.049842
     9  C    4.603756   3.810793   4.122485   4.091179   2.446619
    10  H    4.631830   4.040630   4.405482   4.527644   2.533087
    11  C    5.425623   4.665462   5.180085   4.648565   3.401990
    12  H    5.721297   4.849347   5.292190   4.624219   3.830870
    13  H    6.391299   5.667586   6.145811   5.719443   4.314189
    14  H    5.094221   4.490123   5.205399   4.417611   3.276498
    15  C    5.651256   4.754123   4.745340   5.049336   3.588421
    16  O    5.971995   4.960789   4.805191   5.082919   4.091575
    17  N    6.514280   5.724585   5.669547   6.174949   4.461900
    18  H    6.504924   5.844016   5.896151   6.388294   4.461989
    19  C    7.711103   6.881613   6.661664   7.322443   5.747098
    20  H    7.829265   6.908451   6.611948   7.231689   5.923724
    21  H    7.832829   7.072905   6.739701   7.637619   6.014385
    22  H    8.587212   7.776143   7.639278   8.187617   6.548940
                    6          7          8          9         10
     6  O    0.000000
     7  N    2.259425   0.000000
     8  H    3.159171   1.010676   0.000000
     9  C    2.789482   1.449588   2.114639   0.000000
    10  H    2.373579   2.074133   2.962965   1.091103   0.000000
    11  C    3.683393   2.462198   2.888533   1.529053   2.146348
    12  H    4.385982   2.718107   2.751701   2.157447   3.050379
    13  H    4.410877   3.399436   3.855870   2.160366   2.478412
    14  H    3.384700   2.714792   3.263966   2.155684   2.471402
    15  C    4.051083   2.437007   2.635311   1.525813   2.151851
    16  O    4.826063   2.817601   2.543246   2.395915   3.255432
    17  N    4.637408   3.530850   3.888350   2.439014   2.510783
    18  H    4.363609   3.756493   4.334085   2.564785   2.203333
    19  C    5.995924   4.772011   4.939728   3.811697   3.955833
    20  H    6.378264   4.819455   4.760571   4.036003   4.442891
    21  H    6.197218   5.205160   5.408128   4.402038   4.390732
    22  H    6.697664   5.560462   5.780929   4.422238   4.490720
                   11         12         13         14         15
    11  C    0.000000
    12  H    1.091416   0.000000
    13  H    1.091952   1.778561   0.000000
    14  H    1.091175   1.780576   1.779587   0.000000
    15  C    2.477672   2.714703   2.700088   3.431682   0.000000
    16  O    3.073769   2.852254   3.417475   4.058890   1.229039
    17  N    3.333865   3.781715   3.166149   4.244845   1.342320
    18  H    3.434091   4.128962   3.150767   4.176080   2.039258
    19  C    4.600241   4.858893   4.327862   5.586537   2.445200
    20  H    4.743552   4.756492   4.590610   5.793350   2.520586
    21  H    5.408783   5.740323   5.211122   6.329689   3.132111
    22  H    4.946531   5.234970   4.438278   5.926180   3.173964
                   16         17         18         19         20
    16  O    0.000000
    17  N    2.262208   0.000000
    18  H    3.154636   1.009970   0.000000
    19  C    2.794249   1.450349   2.124008   0.000000
    20  H    2.349878   2.076801   2.981689   1.090149   0.000000
    21  H    3.499810   2.094272   2.517230   1.092154   1.779559
    22  H    3.578093   2.090037   2.476820   1.091593   1.781844
                   21         22
    21  H    0.000000
    22  H    1.780899   0.000000
 Stoichiometry    C6H12N2O2
 Framework group  C1[X(C6H12N2O2)]
 Deg. of freedom    60
 Full point group                 C1      NOp   1
 Largest Abelian subgroup         C1      NOp   1
 Largest concise Abelian subgroup C1      NOp   1
                         Standard orientation:                         
 ---------------------------------------------------------------------
 Center     Atomic      Atomic             Coordinates (Angstroms)
 Number     Number       Type             X           Y           Z
 ---------------------------------------------------------------------
      1          1           0       -4.203191   -1.122628   -0.091208
      2          6           0       -3.316070   -1.002735    0.530933
      3          1           0       -2.953859   -1.986642    0.836268
      4          1           0       -3.570039   -0.426435    1.422873
      5          6           0       -2.212745   -0.289093   -0.248524
      6          8           0       -2.345307   -0.024017   -1.440477
      7          7           0       -1.101615    0.011919    0.445508
      8          1           0       -1.029812   -0.228818    1.424464
      9          6           0        0.038106    0.666326   -0.166124
     10          1           0       -0.063593    0.601755   -1.250556
     11          6           0        0.119990    2.139372    0.235660
     12          1           0        0.220498    2.220171    1.319431
     13          1           0        0.985185    2.606659   -0.239145
     14          1           0       -0.786811    2.656177   -0.082595
     15          6           0        1.328557   -0.023328    0.266564
     16          8           0        1.511716   -0.319969    1.445120
     17          7           0        2.226138   -0.269360   -0.700720
     18          1           0        2.013045   -0.014028   -1.654363
     19          6           0        3.497622   -0.912134   -0.429272
     20          1           0        3.591124   -1.067557    0.645682
     21          1           0        3.547046   -1.877042   -0.938497
     22          1           0        4.314712   -0.278083   -0.778438
 ---------------------------------------------------------------------
 Rotational constants (GHZ):      2.3797866      0.6669297      0.6508952
 Standard basis: 6-31G(d) (6D, 7F)
 There are   174 symmetry adapted basis functions of A   symmetry.
 Integral buffers will be    131072 words long.
 Raffenetti 2 integral format.
 Two-electron integral symmetry is turned on.
   174 basis functions,   328 primitive gaussians,   174 cartesian basis functions
    39 alpha electrons       39 beta electrons
       nuclear repulsion energy       550.4647436573 Hartrees.
 NAtoms=   22 NActive=   22 NUniq=   22 SFac= 7.50D-01 NAtFMM=   80 NAOKFM=F Big=F
 One-electron integrals computed using PRISM.
 NBasis=   174 RedAO= T  NBF=   174
 NBsUse=   174 1.00D-06 NBFU=   174
 Initial guess read from the read-write file.
 B after Tr=     0.000000    0.000000    0.000000
         Rot=    1.000000    0.000000    0.000000    0.000000 Ang=   0.00 deg.
 Initial guess orbital symmetries:
       Occupied  (A) (A) (A) (A) (A) (A) (A) (A) (A) (A) (A) (A)
                 (A) (A) (A) (A) (A) (A) (A) (A) (A) (A) (A) (A)
                 (A) (A) (A) (A) (A) (A) (A) (A) (A) (A) (A) (A)
                 (A) (A) (A)
       Virtual   (A) (A) (A) (A) (A) (A) (A) (A) (A) (A) (A) (A)
                 (A) (A) (A) (A) (A) (A) (A) (A) (A) (A) (A) (A)
                 (A) (A) (A) (A) (A) (A) (A) (A) (A) (A) (A) (A)
                 (A) (A) (A) (A) (A) (A) (A) (A) (A) (A) (A) (A)
                 (A) (A) (A) (A) (A) (A) (A) (A) (A) (A) (A) (A)
                 (A) (A) (A) (A) (A) (A) (A) (A) (A) (A) (A) (A)
                 (A) (A) (A) (A) (A) (A) (A) (A) (A) (A) (A) (A)
                 (A) (A) (A) (A) (A) (A) (A) (A) (A) (A) (A) (A)
                 (A) (A) (A) (A) (A) (A) (A) (A) (A) (A) (A) (A)
                 (A) (A) (A) (A) (A) (A) (A) (A) (A) (A) (A) (A)
                 (A) (A) (A) (A) (A) (A) (A) (A) (A) (A) (A) (A)
                 (A) (A) (A)
 Harris functional with IExCor=  402 diagonalized for initial guess.
 ExpMin= 1.61D-01 ExpMax= 5.48D+03 ExpMxC= 8.25D+02 IAcc=1 IRadAn=         1 AccDes= 0.00D+00
 HarFok:  IExCor=  402 AccDes= 0.00D+00 IRadAn=         1 IDoV= 1
 ScaDFX=  1.000000  1.000000  1.000000  1.000000
 FoFCou: FMM=F IPFlag=           0 FMFlag=      100000 FMFlg1=           0
         NFxFlg=           0 DoJE=T BraDBF=F KetDBF=T FulRan=T
         Omega=  0.000000  0.000000  1.000000  0.000000  0.000000 ICntrl=     500 IOpCl=  0
         NMat0=    1 NMatS0=    1 NMatT0=    0 NMatD0=    1 NMtDS0=    0 NMtDT0=    0
         I1Cent=           4 NGrid=           0.
 Petite list used in FoFCou.
 Requested convergence on RMS density matrix=1.00D-08 within 128 cycles.
 Requested convergence on MAX density matrix=1.00D-06.
 Requested convergence on             energy=1.00D-06.
 No special actions if energy rises.
 Integral accuracy reduced to 1.0D-05 until final iterations.
 Initial convergence to 1.0D-05 achieved.  Increase integral accuracy.
 SCF Done:  E(RB3LYP) =  -495.848538511     A.U. after   12 cycles
             Convg  =    0.4017D-08             -V/T =  2.0090
 Calling FoFJK, ICntrl=      2127 FMM=F ISym2X=0 I1Cent= 0 IOpClX= 0 NMat=1 NMatS=1 NMatT=0.
 ***** Axes restored to original set *****
 -------------------------------------------------------------------
 Center     Atomic                   Forces (Hartrees/Bohr)
 Number     Number              X              Y              Z
 -------------------------------------------------------------------
      1        1           0.002552999    0.000587591    0.000321609
      2        6           0.004808359    0.005387420   -0.002923709
      3        1          -0.004405893    0.000594993   -0.000441334
      4        1          -0.003864317   -0.000693783   -0.002215979
      5        6          -0.004011262   -0.021892221    0.017635852
      6        8           0.002780116    0.000492476    0.000829029
      7        7           0.001679746    0.012523590   -0.007550247
      8        1           0.000844608    0.003740083   -0.000551280
      9        6           0.007177032    0.003331619   -0.001319260
     10        1          -0.004151005   -0.005191450    0.002068076
     11        6           0.000175128   -0.002292923   -0.000081885
     12        1           0.000417709    0.000713245   -0.002570183
     13        1           0.003031605    0.000268200   -0.002205022
     14        1           0.001142393   -0.001823986   -0.000889121
     15        6          -0.016295510   -0.004812430   -0.007286123
     16        8          -0.003060023   -0.000037317   -0.003255819
     17        7           0.008242744    0.005660139    0.006767711
     18        1          -0.000900899   -0.000618339    0.000427899
     19        6           0.002683127    0.000445510    0.001532710
     20        1          -0.000086785   -0.002185365   -0.000343769
     21        1          -0.000582781    0.002553936    0.002088134
     22        1           0.001822908    0.003249014   -0.000037289
 -------------------------------------------------------------------
 Cartesian Forces:  Max     0.021892221 RMS     0.005291884

 GradGradGradGradGradGradGradGradGradGradGradGradGradGradGradGradGradGrad
 Berny optimization.
 Using GEDIIS/GDIIS optimizer.
 Internal  Forces:  Max     0.020366377 RMS     0.003724714
 Search for a local minimum.
 Step number   2 out of a maximum of  132
 All quantities printed in internal units (Hartrees-Bohrs-Radians)
 Mixed Optimization -- RFO/linear search
 Update second derivatives using D2CorX and points    1    2
 DE= -2.55D-03 DEPred=-2.56D-03 R= 9.95D-01
 SS=  1.41D+00  RLast= 3.00D-01 DXNew= 5.0454D-01 9.0000D-01
 Trust test= 9.95D-01 RLast= 3.00D-01 DXMaxT set to 5.05D-01
 Use linear search instead of GDIIS.
 Linear search step of   0.594 exceeds DXMaxT=   0.505 but not scaled.
 Quartic linear search produced a step of  2.00000.
 Iteration  1 RMS(Cart)=  0.09685378 RMS(Int)=  0.00835082
 Iteration  2 RMS(Cart)=  0.00900182 RMS(Int)=  0.00029452
 Iteration  3 RMS(Cart)=  0.00007942 RMS(Int)=  0.00028801
 Iteration  4 RMS(Cart)=  0.00000001 RMS(Int)=  0.00028801
 Iteration  1 RMS(Cart)=  0.00014916 RMS(Int)=  0.00006852
 Iteration  2 RMS(Cart)=  0.00008640 RMS(Int)=  0.00007588
 Iteration  3 RMS(Cart)=  0.00005155 RMS(Int)=  0.00008695
 Iteration  4 RMS(Cart)=  0.00003169 RMS(Int)=  0.00009594
 Iteration  5 RMS(Cart)=  0.00002001 RMS(Int)=  0.00010239
 Iteration  6 RMS(Cart)=  0.00001290 RMS(Int)=  0.00010684
 Iteration  7 RMS(Cart)=  0.00000845 RMS(Int)=  0.00010987
 Iteration  8 RMS(Cart)=  0.00000559 RMS(Int)=  0.00011190
 Iteration  9 RMS(Cart)=  0.00000372 RMS(Int)=  0.00011327
 Iteration 10 RMS(Cart)=  0.00000249 RMS(Int)=  0.00011419
 Iteration 11 RMS(Cart)=  0.00000167 RMS(Int)=  0.00011481
 Iteration 12 RMS(Cart)=  0.00000112 RMS(Int)=  0.00011522
 Iteration 13 RMS(Cart)=  0.00000075 RMS(Int)=  0.00011550
 Variable       Old X    -DE/DX   Delta X   Delta X   Delta X     New X
                                 (Linear)    (Quad)   (Total)
    R1        2.06008  -0.00053   0.00038   0.00000   0.00038   2.06046
    R2        2.06361   0.00308   0.00769   0.00000   0.00769   2.07130
    R3        2.06334   0.00309   0.00691   0.00000   0.00691   2.07024
    R4        2.88712  -0.00097  -0.00817   0.00000  -0.00817   2.87895
    R5        2.32105   0.00219  -0.00286   0.00000  -0.00286   2.31819
    R6        2.54019   0.02037   0.03456   0.00000   0.03456   2.57475
    R7        1.90990   0.00113   0.00245   0.00000   0.00245   1.91235
    R8        2.73932  -0.00066   0.00231   0.00000   0.00231   2.74163
    R9        2.06189   0.00108   0.00428   0.00000   0.00428   2.06617
   R10        2.88949   0.00798   0.01521   0.00000   0.01521   2.90470
   R11        2.88337   0.00513   0.01438   0.00000   0.01438   2.89775
   R12        2.06248   0.00213   0.00552   0.00000   0.00552   2.06799
   R13        2.06349   0.00278   0.00729   0.00000   0.00729   2.07078
   R14        2.06202   0.00196   0.00472   0.00000   0.00472   2.06675
   R15        2.32255   0.00399   0.00000   0.00000   0.00000   2.32255
   R16        2.53662   0.01777   0.02764   0.00000   0.02764   2.56426
   R17        1.90857  -0.00001  -0.00013   0.00000  -0.00013   1.90843
   R18        2.74076   0.00415   0.00503   0.00000   0.00503   2.74579
   R19        2.06008  -0.00048   0.00077   0.00000   0.00077   2.06085
   R20        2.06387   0.00278   0.00812   0.00000   0.00812   2.07199
   R21        2.06281   0.00290   0.00593   0.00000   0.00593   2.06874
    A1        1.90752  -0.00003  -0.00735   0.00000  -0.00742   1.90010
    A2        1.91236  -0.00008   0.00248   0.00000   0.00275   1.91511
    A3        1.92611  -0.00539  -0.02578   0.00000  -0.02567   1.90045
    A4        1.90107  -0.00364  -0.01811   0.00000  -0.01855   1.88252
    A5        1.90073   0.00454   0.00927   0.00000   0.00900   1.90973
    A6        1.91580   0.00461   0.03952   0.00000   0.03943   1.95523
    A7        2.11528   0.00555   0.02415   0.00000   0.02405   2.13932
    A8        2.02432  -0.00653  -0.02152   0.00000  -0.02162   2.00270
    A9        2.14354   0.00098  -0.00272   0.00000  -0.00281   2.14073
   A10        2.10075   0.00162   0.01298   0.00000   0.01271   2.11347
   A11        2.13312   0.00304   0.01112   0.00000   0.01088   2.14400
   A12        2.04920  -0.00467  -0.02432   0.00000  -0.02453   2.02467
   A13        1.89585  -0.00246  -0.03058   0.00000  -0.03021   1.86563
   A14        1.94566   0.00340   0.01322   0.00000   0.01351   1.95917
   A15        1.91905  -0.00593  -0.03990   0.00000  -0.03999   1.87906
   A16        1.89987  -0.00077   0.00754   0.00000   0.00684   1.90671
   A17        1.91126   0.00325   0.03037   0.00000   0.02874   1.94000
   A18        1.89192   0.00262   0.02108   0.00000   0.02126   1.91318
   A19        1.91471   0.00133   0.00713   0.00000   0.00708   1.92180
   A20        1.91818   0.00304   0.01423   0.00000   0.01417   1.93234
   A21        1.91254   0.00096   0.00289   0.00000   0.00285   1.91539
   A22        1.90406  -0.00234  -0.01209   0.00000  -0.01216   1.89190
   A23        1.90825  -0.00107  -0.00396   0.00000  -0.00398   1.90427
   A24        1.90599  -0.00197  -0.00831   0.00000  -0.00836   1.89763
   A25        2.10257  -0.00103  -0.00121   0.00000  -0.00124   2.10133
   A26        2.03089  -0.00260  -0.00838   0.00000  -0.00841   2.02248
   A27        2.14971   0.00363   0.00955   0.00000   0.00951   2.15923
   A28        2.08633  -0.00245  -0.01616   0.00000  -0.01635   2.06997
   A29        2.13244   0.00365   0.00972   0.00000   0.00952   2.14195
   A30        2.06432  -0.00120   0.00624   0.00000   0.00603   2.07035
   A31        1.89962  -0.00443  -0.02305   0.00000  -0.02293   1.87669
   A32        1.92193   0.00282   0.02181   0.00000   0.02172   1.94365
   A33        1.91657   0.00367   0.01086   0.00000   0.01072   1.92729
   A34        1.90701   0.00014  -0.00619   0.00000  -0.00602   1.90100
   A35        1.91136  -0.00009   0.00232   0.00000   0.00238   1.91374
   A36        1.90727  -0.00214  -0.00584   0.00000  -0.00615   1.90112
    D1       -0.09796  -0.00006  -0.19581   0.00000  -0.19605  -0.29400
    D2        3.05394  -0.00011  -0.17538   0.00000  -0.17541   2.87853
    D3        1.99594  -0.00053  -0.21480   0.00000  -0.21505   1.78090
    D4       -1.13535  -0.00058  -0.19437   0.00000  -0.19441  -1.32976
    D5       -2.20743   0.00050  -0.20822   0.00000  -0.20804  -2.41547
    D6        0.94446   0.00046  -0.18779   0.00000  -0.18741   0.75705
    D7       -0.00366   0.00043  -0.00708   0.00000  -0.00641  -0.01006
    D8        3.12132  -0.00020  -0.04054   0.00000  -0.04090   3.08043
    D9       -3.13477   0.00035   0.01372   0.00000   0.01407  -3.12069
   D10       -0.00979  -0.00027  -0.01975   0.00000  -0.02042  -0.03020
   D11       -0.26507  -0.00034  -0.00639   0.00000  -0.00545  -0.27051
   D12        1.82825  -0.00080  -0.00863   0.00000  -0.00844   1.81981
   D13       -2.35627   0.00074  -0.00001   0.00000   0.00000  -2.35627
   D14        2.86038  -0.00090  -0.03892   0.00000  -0.03799   2.82239
   D15       -1.32948  -0.00136  -0.04116   0.00000  -0.04099  -1.37047
   D16        0.76918   0.00018  -0.03254   0.00000  -0.03254   0.73664
   D17        1.04907  -0.00053   0.00367   0.00000   0.00367   1.05275
   D18       -3.14061  -0.00069   0.00201   0.00000   0.00204  -3.13857
   D19       -1.04608  -0.00064   0.00236   0.00000   0.00239  -1.04370
   D20        3.14002  -0.00198  -0.02115   0.00000  -0.02105   3.11896
   D21       -1.04967  -0.00214  -0.02280   0.00000  -0.02269  -1.07235
   D22        1.04486  -0.00209  -0.02246   0.00000  -0.02234   1.02252
   D23       -1.06548   0.00299   0.03108   0.00000   0.03093  -1.03455
   D24        1.02802   0.00282   0.02942   0.00000   0.02930   1.05732
   D25        3.12254   0.00288   0.02977   0.00000   0.02964  -3.13100
   D26       -0.79139  -0.00257  -0.01195   0.00000  -0.01207  -0.80346
   D27        2.35615  -0.00171  -0.00001   0.00000   0.00000   2.35615
   D28       -2.87319   0.00207   0.03108   0.00000   0.03195  -2.84125
   D29        0.27435   0.00292   0.04302   0.00000   0.04402   0.31837
   D30        1.33951  -0.00039  -0.00673   0.00000  -0.00721   1.33230
   D31       -1.79614   0.00046   0.00521   0.00000   0.00487  -1.79127
   D32       -0.02140  -0.00120  -0.04303   0.00000  -0.04299  -0.06439
   D33        3.13563  -0.00117  -0.01181   0.00000  -0.01212   3.12351
   D34        3.12632  -0.00030  -0.03073   0.00000  -0.03043   3.09589
   D35        0.00016  -0.00027   0.00048   0.00000   0.00044   0.00060
   D36       -0.07021   0.00007  -0.14068   0.00000  -0.14075  -0.21096
   D37        2.01984  -0.00079  -0.14918   0.00000  -0.14948   1.87035
   D38       -2.16236   0.00068  -0.13600   0.00000  -0.13596  -2.29833
   D39        3.08663   0.00012  -0.10984   0.00000  -0.10968   2.97695
   D40       -1.10650  -0.00075  -0.11834   0.00000  -0.11842  -1.22492
   D41        0.99448   0.00072  -0.10516   0.00000  -0.10490   0.88958
         Item               Value     Threshold  Converged?
 Maximum Force            0.020366     0.000450     NO 
 RMS     Force            0.003753     0.000300     NO 
 Maximum Displacement     0.483434     0.001800     NO 
 RMS     Displacement     0.098588     0.001200     NO 
 Predicted change in Energy=-2.534099D-03
 GradGradGradGradGradGradGradGradGradGradGradGradGradGradGradGradGradGrad

                          Input orientation:                          
 ---------------------------------------------------------------------
 Center     Atomic      Atomic             Coordinates (Angstroms)
 Number     Number       Type             X           Y           Z
 ---------------------------------------------------------------------
      1          1           0        1.782201    1.444293    1.202359
      2          6           0        1.856734    2.429153    0.740456
      3          1           0        1.221124    3.129505    1.294448
      4          1           0        1.487474    2.383243   -0.289940
      5          6           0        3.304934    2.897258    0.808076
      6          8           0        4.129156    2.388123    1.560613
      7          7           0        3.602728    3.949547   -0.004577
      8          1           0        2.899325    4.362928   -0.603262
      9          6           0        4.907752    4.583056   -0.025206
     10          1           0        5.433631    4.256700    0.876124
     11          6           0        5.728342    4.185356   -1.262604
     12          1           0        5.203179    4.485237   -2.174659
     13          1           0        6.708736    4.674743   -1.251232
     14          1           0        5.876865    3.101882   -1.274831
     15          6           0        4.688348    6.100688   -0.018959
     16          8           0        3.858413    6.612142   -0.767396
     17          7           0        5.472208    6.808946    0.832650
     18          1           0        6.100905    6.306156    1.442437
     19          6           0        5.404303    8.256156    0.943174
     20          1           0        4.811700    8.622170    0.104026
     21          1           0        4.922715    8.563088    1.879157
     22          1           0        6.408526    8.690031    0.901644
 ---------------------------------------------------------------------
                    Distance matrix (angstroms):
                    1          2          3          4          5
     1  H    0.000000
     2  C    1.090348   0.000000
     3  H    1.778546   1.096084   0.000000
     4  H    1.787582   1.095526   1.771478   0.000000
     5  C    2.141326   1.523475   2.152384   2.184722   0.000000
     6  O    2.554869   2.416245   3.012829   3.225377   1.226732
     7  N    3.323749   2.432112   2.834073   2.647460   1.362497
     8  H    3.609247   2.575279   2.817622   2.451662   2.074749
     9  C    4.596500   3.812380   4.176783   4.075238   2.470891
    10  H    4.620498   4.019020   4.380728   4.521250   2.526671
    11  C    5.400139   4.699558   5.288511   4.709422   3.437997
    12  H    5.688118   4.891224   5.452475   4.666585   3.875787
    13  H    6.381744   5.705384   6.243567   5.782441   4.357301
    14  H    5.064616   4.547020   5.317695   4.555569   3.315901
    15  C    5.623106   4.698396   4.751275   4.913088   3.586055
    16  O    5.907390   4.876242   4.830658   4.871643   4.072938
    17  N    6.521682   5.680030   5.641210   6.060129   4.472023
    18  H    6.507423   5.791107   5.824540   6.298740   4.454263
    19  C    7.719344   6.824976   6.626079   7.166116   5.757030
    20  H    7.868044   6.891322   6.669236   7.080247   5.961598
    21  H    7.810130   6.951406   6.600567   7.395698   5.988828
    22  H    8.601978   7.742311   7.614649   8.087781   6.572463
                    6          7          8          9         10
     6  O    0.000000
     7  N    2.272661   0.000000
     8  H    3.177215   1.011970   0.000000
[...]
    16  O    5.715312   4.879717   5.449969   4.531106   4.065274
    17  N    6.537970   5.683886   6.024209   5.739237   4.469074
    18  H    6.583847   5.789263   6.065793   6.029434   4.448135
    19  C    7.761584   6.835766   7.101749   6.758597   5.758058
    20  H    7.761398   6.821090   7.148213   6.570320   5.900706
    21  H    8.033631   7.048738   7.148154   7.012144   6.049903
    22  H    8.622656   7.748130   8.061820   7.706938   6.576018
                    6          7          8          9         10
     6  O    0.000000
     7  N    2.276254   0.000000
     8  H    3.180173   1.012086   0.000000
     9  C    2.817003   1.454122   2.100191   0.000000
    10  H    2.369711   2.049721   2.916166   1.094268   0.000000
    11  C    3.685250   2.482044   2.959252   1.537856   2.163955
    12  H    4.401817   2.757130   2.864782   2.174479   3.072613
    13  H    4.420906   3.428492   3.918022   2.184408   2.521557
    14  H    3.364445   2.730456   3.356987   2.166082   2.484280
    15  C    4.081405   2.405948   2.511162   1.534919   2.188380
    16  O    4.832816   2.772167   2.393857   2.404350   3.279878
    17  N    4.690451   3.515863   3.771218   2.452408   2.562029
    18  H    4.398294   3.722738   4.212774   2.553551   2.233406
    19  C    6.055704   4.765439   4.817505   3.834096   4.009744
    20  H    6.402025   4.783602   4.607193   4.041377   4.473698
    21  H    6.286216   5.228677   5.304679   4.449539   4.458236
    22  H    6.777874   5.558962   5.669240   4.445729   4.566541
                   11         12         13         14         15
    11  C    0.000000
    12  H    1.094642   0.000000
    13  H    1.096396   1.776597   0.000000
    14  H    1.093920   1.782171   1.778659   0.000000
    15  C    2.521273   2.750213   2.790868   3.469906   0.000000
    16  O    3.122381   2.902516   3.519741   4.091045   1.228874
    17  N    3.379929   3.816746   3.257648   4.297143   1.360100
    18  H    3.459582   4.144856   3.219370   4.214238   2.043048
    19  C    4.655401   4.905692   4.429364   5.646047   2.472080
    20  H    4.797585   4.807359   4.702612   5.844554   2.520273
    21  H    5.478528   5.808847   5.316036   6.401975   3.182295
    22  H    4.996051   5.259472   4.534456   5.991370   3.200379
                   16         17         18         19         20
    16  O    0.000000
    17  N    2.284954   0.000000
    18  H    3.164436   1.009991   0.000000
    19  C    2.841319   1.453376   2.131334   0.000000
    20  H    2.376844   2.061006   2.972886   1.090676   0.000000
    21  H    3.570112   2.111869   2.525371   1.096146   1.781580
    22  H    3.611399   2.111858   2.528641   1.096056   1.783180
                   21         22
    21  H    0.000000
    22  H    1.783500   0.000000
 Stoichiometry    C6H12N2O2
 Framework group  C1[X(C6H12N2O2)]
 Deg. of freedom    60
 Full point group                 C1      NOp   1
 Largest Abelian subgroup         C1      NOp   1
 Largest concise Abelian subgroup C1      NOp   1
                         Standard orientation:                         
 ---------------------------------------------------------------------
 Center     Atomic      Atomic             Coordinates (Angstroms)
 Number     Number       Type             X           Y           Z
 ---------------------------------------------------------------------
      1          1           0       -4.172526   -0.518830    0.567247
      2          6           0       -3.257739   -1.111430    0.465500
      3          1           0       -3.502718   -1.986003   -0.144634
      4          1           0       -2.939108   -1.444259    1.458084
      5          6           0       -2.214437   -0.280724   -0.266885
      6          8           0       -2.393435    0.125881   -1.410568
      7          7           0       -1.079818   -0.008628    0.443522
      8          1           0       -0.916103   -0.425462    1.351137
      9          6           0        0.045587    0.712597   -0.128990
     10          1           0       -0.102931    0.700435   -1.213064
     11          6           0        0.109607    2.168357    0.362605
     12          1           0        0.235257    2.195919    1.449662
     13          1           0        0.951809    2.699884   -0.095935
     14          1           0       -0.816292    2.686917    0.097145
     15          6           0        1.319978   -0.041644    0.274772
     16          8           0        1.476425   -0.427771    1.430869
     17          7           0        2.231668   -0.230807   -0.716647
     18          1           0        1.998187    0.080931   -1.648521
     19          6           0        3.505814   -0.896167   -0.501818
     20          1           0        3.562603   -1.156751    0.555748
     21          1           0        3.578966   -1.810941   -1.101296
     22          1           0        4.343128   -0.236606   -0.757205
 ---------------------------------------------------------------------
 Rotational constants (GHZ):      2.3063970      0.6706173      0.6473480

 **********************************************************************

            Population analysis using the SCF density.

 **********************************************************************

 Orbital symmetries:
       Occupied  (A) (A) (A) (A) (A) (A) (A) (A) (A) (A) (A) (A)
                 (A) (A) (A) (A) (A) (A) (A) (A) (A) (A) (A) (A)
                 (A) (A) (A) (A) (A) (A) (A) (A) (A) (A) (A) (A)
                 (A) (A) (A)
       Virtual   (A) (A) (A) (A) (A) (A) (A) (A) (A) (A) (A) (A)
                 (A) (A) (A) (A) (A) (A) (A) (A) (A) (A) (A) (A)
                 (A) (A) (A) (A) (A) (A) (A) (A) (A) (A) (A) (A)
                 (A) (A) (A) (A) (A) (A) (A) (A) (A) (A) (A) (A)
                 (A) (A) (A) (A) (A) (A) (A) (A) (A) (A) (A) (A)
                 (A) (A) (A) (A) (A) (A) (A) (A) (A) (A) (A) (A)
                 (A) (A) (A) (A) (A) (A) (A) (A) (A) (A) (A) (A)
                 (A) (A) (A) (A) (A) (A) (A) (A) (A) (A) (A) (A)
                 (A) (A) (A) (A) (A) (A) (A) (A) (A) (A) (A) (A)
                 (A) (A) (A) (A) (A) (A) (A) (A) (A) (A) (A) (A)
                 (A) (A) (A) (A) (A) (A) (A) (A) (A) (A) (A) (A)
                 (A) (A) (A)
 The electronic state is 1-A.
 Alpha  occ. eigenvalues --  -19.11886 -19.10133 -14.37355 -14.35432 -10.29165
 Alpha  occ. eigenvalues --  -10.28206 -10.23419 -10.22508 -10.18750 -10.18449
 Alpha  occ. eigenvalues --   -1.03954  -1.02114  -0.92943  -0.91704  -0.77900
 Alpha  occ. eigenvalues --   -0.72721  -0.71414  -0.64347  -0.59517  -0.58033
 Alpha  occ. eigenvalues --   -0.53636  -0.48117  -0.46781  -0.46223  -0.45619
 Alpha  occ. eigenvalues --   -0.44395  -0.42546  -0.41761  -0.40640  -0.39790
 Alpha  occ. eigenvalues --   -0.39098  -0.37795  -0.36730  -0.36468  -0.34361
 Alpha  occ. eigenvalues --   -0.26564  -0.26216  -0.24422  -0.24047
 Alpha virt. eigenvalues --    0.01806   0.03947   0.06807   0.09135   0.11795
 Alpha virt. eigenvalues --    0.12882   0.13330   0.15408   0.15841   0.16291
 Alpha virt. eigenvalues --    0.16676   0.17322   0.17967   0.18322   0.19602
 Alpha virt. eigenvalues --    0.21687   0.23069   0.23884   0.27177   0.33036
 Alpha virt. eigenvalues --    0.33800   0.40030   0.41751   0.49975   0.51022
 Alpha virt. eigenvalues --    0.52336   0.52591   0.53137   0.54922   0.55840
 Alpha virt. eigenvalues --    0.57702   0.58719   0.61621   0.63120   0.64798
 Alpha virt. eigenvalues --    0.67739   0.69678   0.70322   0.70849   0.74910
 Alpha virt. eigenvalues --    0.75278   0.78099   0.78309   0.81277   0.83046
 Alpha virt. eigenvalues --    0.83553   0.85052   0.86002   0.86901   0.88551
 Alpha virt. eigenvalues --    0.89325   0.90487   0.91326   0.91655   0.93750
 Alpha virt. eigenvalues --    0.94116   0.95266   0.95716   0.96180   0.98429
 Alpha virt. eigenvalues --    1.02570   1.06172   1.06764   1.10469   1.13617
 Alpha virt. eigenvalues --    1.17536   1.23586   1.26177   1.29059   1.30106
 Alpha virt. eigenvalues --    1.37191   1.40652   1.43506   1.47303   1.50556
 Alpha virt. eigenvalues --    1.52264   1.55476   1.59981   1.65066   1.69228
 Alpha virt. eigenvalues --    1.72333   1.74312   1.77739   1.79196   1.81621
 Alpha virt. eigenvalues --    1.82728   1.83958   1.85624   1.90569   1.91105
 Alpha virt. eigenvalues --    1.92498   1.94962   1.96524   1.99472   2.00183
 Alpha virt. eigenvalues --    2.03604   2.06987   2.10847   2.14705   2.15148
 Alpha virt. eigenvalues --    2.21748   2.22433   2.24226   2.25597   2.28081
 Alpha virt. eigenvalues --    2.29903   2.30396   2.34796   2.36686   2.39973
 Alpha virt. eigenvalues --    2.43958   2.46691   2.50797   2.59922   2.61872
 Alpha virt. eigenvalues --    2.68983   2.69453   2.70650   2.74698   2.85649
 Alpha virt. eigenvalues --    2.91409   2.97882   2.99505   3.11991   3.16379
 Alpha virt. eigenvalues --    3.94012   3.98291   4.06840   4.16423   4.19703
 Alpha virt. eigenvalues --    4.22658   4.25094   4.38995   4.49878   4.63645
          Condensed to atoms (all electrons):
              1          2          3          4          5          6
     1  H    0.521537   0.362813  -0.023659  -0.025967  -0.020182   0.000477
     2  C    0.362813   5.313942   0.361858   0.337939   0.345125  -0.082115
     3  H   -0.023659   0.361858   0.522054  -0.025536  -0.020483   0.001080
     4  H   -0.025967   0.337939  -0.025536   0.578340  -0.024023   0.003274
     5  C   -0.020182   0.345125  -0.020483  -0.024023   4.300452   0.587434
     6  O    0.000477  -0.082115   0.001080   0.003274   0.587434   8.081911
     7  N    0.001201  -0.114229   0.001793   0.006548   0.269439  -0.096516
     8  H   -0.000024  -0.000384  -0.000101   0.002438  -0.010332   0.002820
     9  C   -0.000146   0.007322  -0.000170  -0.000040  -0.025316  -0.002366
    10  H   -0.000019   0.001248   0.000005  -0.000067   0.000710   0.021560
    11  C    0.000031  -0.000363  -0.000004   0.000009  -0.001800  -0.000809
    12  H   -0.000001   0.000002   0.000000   0.000001  -0.000047  -0.000022
    13  H    0.000000   0.000005   0.000000   0.000000  -0.000022  -0.000020
    14  H   -0.000004   0.000009   0.000001  -0.000007   0.002066   0.001163
    15  C   -0.000001  -0.000140   0.000009  -0.000041   0.004248   0.000503
    16  O    0.000000  -0.000025   0.000000  -0.000014   0.000345  -0.000004
    17  N    0.000000  -0.000002   0.000000   0.000000  -0.000059  -0.000014
    18  H    0.000000   0.000000   0.000000   0.000000  -0.000036  -0.000023
    19  C    0.000000   0.000000   0.000000   0.000000  -0.000001   0.000000
    20  H    0.000000   0.000000   0.000000   0.000000   0.000000   0.000000
    21  H    0.000000   0.000000   0.000000   0.000000   0.000000   0.000000
    22  H    0.000000   0.000000   0.000000   0.000000   0.000000   0.000000
              7          8          9         10         11         12
     1  H    0.001201  -0.000024  -0.000146  -0.000019   0.000031  -0.000001
     2  C   -0.114229  -0.000384   0.007322   0.001248  -0.000363   0.000002
     3  H    0.001793  -0.000101  -0.000170   0.000005  -0.000004   0.000000
     4  H    0.006548   0.002438  -0.000040  -0.000067   0.000009   0.000001
     5  C    0.269439  -0.010332  -0.025316   0.000710  -0.001800  -0.000047
     6  O   -0.096516   0.002820  -0.002366   0.021560  -0.000809  -0.000022
     7  N    7.142423   0.286324   0.249176  -0.054309  -0.057000  -0.002438
     8  H    0.286324   0.393837  -0.044622   0.005404   0.001346   0.002239
     9  C    0.249176  -0.044622   5.091829   0.358973   0.356717  -0.033891
    10  H   -0.054309   0.005404   0.358973   0.563420  -0.040304   0.004916
    11  C   -0.057000   0.001346   0.356717  -0.040304   5.122236   0.372971
    12  H   -0.002438   0.002239  -0.033891   0.004916   0.372971   0.546287
    13  H    0.004869  -0.000081  -0.029333  -0.000302   0.357115  -0.026947
    14  H   -0.003659  -0.000281  -0.026388  -0.003459   0.371607  -0.027750
    15  C   -0.032753  -0.002501   0.308772  -0.034927  -0.037184  -0.005944
    16  O   -0.008926   0.023697  -0.082680   0.002818  -0.003088   0.005579
    17  N    0.001312   0.001113  -0.096366   0.002799  -0.001257   0.000406
    18  H    0.000005  -0.000056   0.002201   0.003539  -0.000120  -0.000010
    19  C   -0.000157  -0.000004   0.006386  -0.000050  -0.000250   0.000006
    20  H   -0.000001  -0.000031   0.001079  -0.000041  -0.000018  -0.000013
    21  H    0.000012   0.000001  -0.000174  -0.000011  -0.000006   0.000000
    22  H   -0.000002   0.000000  -0.000172  -0.000009   0.000042   0.000000
             13         14         15         16         17         18
     1  H    0.000000  -0.000004  -0.000001   0.000000   0.000000   0.000000
     2  C    0.000005   0.000009  -0.000140  -0.000025  -0.000002   0.000000
     3  H    0.000000   0.000001   0.000009   0.000000   0.000000   0.000000
     4  H    0.000000  -0.000007  -0.000041  -0.000014   0.000000   0.000000
     5  C   -0.000022   0.002066   0.004248   0.000345  -0.000059  -0.000036
     6  O   -0.000020   0.001163   0.000503  -0.000004  -0.000014  -0.000023
     7  N    0.004869  -0.003659  -0.032753  -0.008926   0.001312   0.000005
     8  H   -0.000081  -0.000281  -0.002501   0.023697   0.001113  -0.000056
     9  C   -0.029333  -0.026388   0.308772  -0.082680  -0.096366   0.002201
    10  H   -0.000302  -0.003459  -0.034927   0.002818   0.002799   0.003539
    11  C    0.357115   0.371607  -0.037184  -0.003088  -0.001257  -0.000120
    12  H   -0.026947  -0.027750  -0.005944   0.005579   0.000406  -0.000010
    13  H    0.576437  -0.026984  -0.000901  -0.000125   0.001956   0.000092
    14  H   -0.026984   0.539232   0.004111  -0.000023  -0.000093  -0.000027
    15  C   -0.000901   0.004111   4.386252   0.565763   0.280636  -0.018450
    16  O   -0.000125  -0.000023   0.565763   8.107660  -0.092678   0.003294
    17  N    0.001956  -0.000093   0.280636  -0.092678   7.045481   0.304147
    18  H    0.000092  -0.000027  -0.018450   0.003294   0.304147   0.401983
    19  C   -0.000048   0.000004  -0.026186  -0.007716   0.263295  -0.031404
    20  H   -0.000002   0.000000  -0.000783   0.020577  -0.040078   0.004050
    21  H    0.000002   0.000000   0.000891   0.000428  -0.040260  -0.000843
    22  H   -0.000012   0.000000   0.001746   0.000441  -0.040887  -0.000989
             19         20         21         22
     1  H    0.000000   0.000000   0.000000   0.000000
     2  C    0.000000   0.000000   0.000000   0.000000
     3  H    0.000000   0.000000   0.000000   0.000000
     4  H    0.000000   0.000000   0.000000   0.000000
     5  C   -0.000001   0.000000   0.000000   0.000000
     6  O    0.000000   0.000000   0.000000   0.000000
     7  N   -0.000157  -0.000001   0.000012  -0.000002
     8  H   -0.000004  -0.000031   0.000001   0.000000
     9  C    0.006386   0.001079  -0.000174  -0.000172
    10  H   -0.000050  -0.000041  -0.000011  -0.000009
    11  C   -0.000250  -0.000018  -0.000006   0.000042
    12  H    0.000006  -0.000013   0.000000   0.000000
    13  H   -0.000048  -0.000002   0.000002  -0.000012
    14  H    0.000004   0.000000   0.000000   0.000000
    15  C   -0.026186  -0.000783   0.000891   0.001746
    16  O   -0.007716   0.020577   0.000428   0.000441
    17  N    0.263295  -0.040078  -0.040260  -0.040887
    18  H   -0.031404   0.004050  -0.000843  -0.000989
    19  C    4.970777   0.376975   0.381483   0.380709
    20  H    0.376975   0.480265  -0.024534  -0.024115
    21  H    0.381483  -0.024534   0.559549  -0.039489
    22  H    0.380709  -0.024115  -0.039489   0.561649
 Mulliken atomic charges:
              1
     1  H    0.183944
     2  C   -0.533007
     3  H    0.183151
     4  H    0.147146
     5  C    0.592481
     6  O   -0.518334
     7  N   -0.593114
     8  H    0.339200
     9  C   -0.040791
    10  H    0.168106
    11  C   -0.439871
    12  H    0.164657
    13  H    0.144301
    14  H    0.170482
    15  C    0.606879
    16  O   -0.535324
    17  N   -0.589449
    18  H    0.332648
    19  C   -0.313818
    20  H    0.206670
    21  H    0.162952
    22  H    0.161090
 Sum of Mulliken atomic charges =   0.00000
 Mulliken charges with hydrogens summed into heavy atoms:
              1
     2  C   -0.018766
     5  C    0.592481
     6  O   -0.518334
     7  N   -0.253914
     9  C    0.127315
    11  C    0.039569
    15  C    0.606879
    16  O   -0.535324
    17  N   -0.256801
    19  C    0.216894
 Sum of Mulliken charges with hydrogens summed into heavy atoms =   0.00000
 Electronic spatial extent (au):  <R**2>=           1932.8797
 Charge=              0.0000 electrons
 Dipole moment (field-independent basis, Debye):
    X=              2.1280    Y=             -0.2185    Z=             -0.3260  Tot=              2.1639
 Quadrupole moment (field-independent basis, Debye-Ang):
   XX=            -55.7352   YY=            -57.8245   ZZ=            -64.0216
   XY=              2.4637   XZ=            -13.9899   YZ=              1.0114
 Traceless Quadrupole moment (field-independent basis, Debye-Ang):
   XX=              3.4586   YY=              1.3693   ZZ=             -4.8278
   XY=              2.4637   XZ=            -13.9899   YZ=              1.0114
 Octapole moment (field-independent basis, Debye-Ang**2):
  XXX=             24.9986  YYY=             -2.6107  ZZZ=             -2.9254  XYY=             -1.1728
  XXY=            -13.8765  XXZ=              5.2797  XZZ=              9.6263  YZZ=             -0.2467
  YYZ=             -1.4283  XYZ=              1.0717
 Hexadecapole moment (field-independent basis, Debye-Ang**3):
 XXXX=          -1653.4362 YYYY=           -420.3791 ZZZZ=           -287.8637 XXXY=             -8.4638
 XXXZ=            -58.1916 YYYX=             -4.6838 YYYZ=             -0.2465 ZZZX=            -28.8291
 ZZZY=             -1.2153 XXYY=           -350.4256 XXZZ=           -369.6388 YYZZ=           -117.0006
 XXYZ=              7.0013 YYXZ=              3.9067 ZZXY=              4.9133
 N-N= 5.482997109206D+02 E-N=-2.252664019344D+03  KE= 4.912418576746D+02
 1\1\GINC-NODE005\FOpt\RB3LYP\6-31G(d)\C6H12N2O2\MANAGER\10-Feb-2017\0\
 \# b3lyp/6-31G* Opt=(ModRedundant, maxcycles=1000, calcfc) geom=nocrow
 d\\Phi Psi fixed scan\\0,1\H,1.8354117254,1.4000222747,0.4063267861\C,
 1.8359695476,2.4463996977,0.7279720837\H,1.3855100949,2.4807769526,1.7
 24496091\H,1.2211061285,3.0299858919,0.0359503009\C,3.275745026,2.9286
 496395,0.8250454933\O,4.0821946585,2.4160946349,1.5946582963\N,3.60630
 56616,3.955025622,-0.013618053\H,2.9051667449,4.4194235723,-0.57669626
 39\C,4.9184494953,4.5815998259,-0.0012018903\H,5.3945058438,4.27588661
 07,0.9354581764\C,5.7861042097,4.1295852623,-1.1877341818\H,5.31025017
 43,4.4089760792,-2.1331149004\H,6.777153056,4.5968955978,-1.1486454942
 \H,5.9113037297,3.0432434799,-1.1586182067\C,4.696390103,6.0995044729,
 -0.0524987749\O,3.8893020287,6.5855033754,-0.8415139729\N,5.4478732771
 ,6.8343221568,0.8107443761\H,6.0527445268,6.3457920198,1.4553775014\C,
 5.3878580505,8.2851347148,0.8727433423\H,4.6818305266,8.6145259481,0.1
 094599069\H,5.0383843945,8.6237069223,1.8549715114\H,6.3697409967,8.72
 93452486,0.6729378725\\Version=EM64L-G09RevA.02\State=1-A\HF=-495.8516
 455\RMSD=4.874e-09\RMSF=2.632e-04\Dipole=0.3597237,0.7669867,0.0843049
 \Quadrupole=5.2462425,-2.3388195,-2.907423,6.1489781,0.5074213,7.97368
 05\PG=C01 [X(C6H12N2O2)]\\@


 THE 2ND LAW OF THERMODYNAMICS HAS THE SAME
 DEGREE OF TRUTH AS THE STATEMENT THAT IF YOU THROW
 A TUMBLERFULL OF WATER INTO THE SEA, YOU CANNOT GET
 THE SAME TUMBLERFULL OF WATER OUT AGAIN.
          - J.C. MAXWELL, LETTER TO LORD RAYLEIGH, DECEMBER 6,1870
 Job cpu time:  0 days  1 hours 45 minutes 19.0 seconds.
 File lengths (MBytes):  RWF=    186 Int=      0 D2E=      0 Chk=      4 Scr=      2
 Normal termination of Gaussian 09 at Fri Feb 10 22:08:49 2017.
