 Entering Gaussian System, Link 0=g09
 Initial command:
 /home/steboss/Software/g09/l1.exe /home/steboss/projects/phi_psi_scan/alanine/225/4383/Gau-31756.inp -scrdir=/home/steboss/projects/phi_psi_scan/alanine/225/4383/
 Entering Link 1 = /home/steboss/Software/g09/l1.exe PID=     31758.
  
 Copyright (c) 1988,1990,1992,1993,1995,1998,2003,2009, Gaussian, Inc.
                  All Rights Reserved.
  
 This is part of the Gaussian(R) 09 program.  It is based on
 the Gaussian(R) 03 system (copyright 2003, Gaussian, Inc.),
 the Gaussian(R) 98 system (copyright 1998, Gaussian, Inc.),
 the Gaussian(R) 94 system (copyright 1995, Gaussian, Inc.),
 the Gaussian 92(TM) system (copyright 1992, Gaussian, Inc.),
 the Gaussian 90(TM) system (copyright 1990, Gaussian, Inc.),
 the Gaussian 88(TM) system (copyright 1988, Gaussian, Inc.),
 the Gaussian 86(TM) system (copyright 1986, Carnegie Mellon
 University), and the Gaussian 82(TM) system (copyright 1983,
 Carnegie Mellon University). Gaussian is a federally registered
 trademark of Gaussian, Inc.
  
 This software contains proprietary and confidential information,
 including trade secrets, belonging to Gaussian, Inc.
  
 This software is provided under written license and may be
 used, copied, transmitted, or stored only in accord with that
 written license.
  
 The following legend is applicable only to US Government
 contracts under FAR:
  
                    RESTRICTED RIGHTS LEGEND
  
 Use, reproduction and disclosure by the US Government is
 subject to restrictions as set forth in subparagraphs (a)
 and (c) of the Commercial Computer Software - Restricted
 Rights clause in FAR 52.227-19.
  
 Gaussian, Inc.
 340 Quinnipiac St., Bldg. 40, Wallingford CT 06492
  
  
 ---------------------------------------------------------------
 Warning -- This program may not be used in any manner that
 competes with the business of Gaussian, Inc. or will provide
 assistance to any competitor of Gaussian, Inc.  The licensee
 of this program is prohibited from giving any competitor of
 Gaussian, Inc. access to this program.  By using this program,
 the user acknowledges that Gaussian, Inc. is engaged in the
 business of creating and licensing software in the field of
 computational chemistry and represents and warrants to the
 licensee that it is not a competitor of Gaussian, Inc. and that
 it will not use this program in any manner prohibited above.
 ---------------------------------------------------------------
  

 Cite this work as:
 Gaussian 09, Revision A.02,
 M. J. Frisch, G. W. Trucks, H. B. Schlegel, G. E. Scuseria, 
 M. A. Robb, J. R. Cheeseman, G. Scalmani, V. Barone, B. Mennucci, 
 G. A. Petersson, H. Nakatsuji, M. Caricato, X. Li, H. P. Hratchian, 
 A. F. Izmaylov, J. Bloino, G. Zheng, J. L. Sonnenberg, M. Hada, 
 M. Ehara, K. Toyota, R. Fukuda, J. Hasegawa, M. Ishida, T. Nakajima, 
 Y. Honda, O. Kitao, H. Nakai, T. Vreven, J. A. Montgomery, Jr., 
 J. E. Peralta, F. Ogliaro, M. Bearpark, J. J. Heyd, E. Brothers, 
 K. N. Kudin, V. N. Staroverov, R. Kobayashi, J. Normand, 
 K. Raghavachari, A. Rendell, J. C. Burant, S. S. Iyengar, J. Tomasi, 
 M. Cossi, N. Rega, J. M. Millam, M. Klene, J. E. Knox, J. B. Cross, 
 V. Bakken, C. Adamo, J. Jaramillo, R. Gomperts, R. E. Stratmann, 
 O. Yazyev, A. J. Austin, R. Cammi, C. Pomelli, J. W. Ochterski, 
 R. L. Martin, K. Morokuma, V. G. Zakrzewski, G. A. Voth, 
 P. Salvador, J. J. Dannenberg, S. Dapprich, A. D. Daniels, 
 O. Farkas, J. B. Foresman, J. V. Ortiz, J. Cioslowski, 
 and D. J. Fox, Gaussian, Inc., Wallingford CT, 2009.
 
 ******************************************
 Gaussian 09:  EM64L-G09RevA.02 11-Jun-2009
                10-Feb-2017 
 ******************************************
 %chk=structure_30.chk
 %NProcShared=8
 Will use up to    8 processors via shared memory.
 ----------------------------------------------------------------------
 # b3lyp/6-31G* Opt=(ModRedundant, maxcycles=1000, calcfc) geom=nocrowd
 ----------------------------------------------------------------------
 1/6=1000,10=4,14=-1,18=120,19=15,26=3,38=1/1,3;
 2/9=110,12=1,17=6,18=5,40=1/2;
 3/5=1,6=6,7=1,11=2,16=1,25=1,30=1,71=2,74=-5/1,2,3;
 4//1;
 5/5=2,38=5/2;
 8/6=4,10=90,11=11/1;
 11/6=1,8=1,9=11,15=111,16=1/1,2,10;
 10/6=1,7=6,13=1/2;
 6/7=2,8=2,9=2,10=2,28=1/1;
 7/10=1,18=20,25=1/1,2,3,16;
 1/6=1000,10=4,14=-1,18=20,19=15/3(2);
 2/9=110,12=1/2;
 99//99;
 2/9=110,12=1/2;
 3/5=1,6=6,7=1,11=2,16=1,25=1,30=1,71=1,74=-5/1,2,3;
 4/5=5,16=3/1;
 5/5=2,38=5/2;
 7//1,2,3,16;
 1/6=1000,14=-1,18=20,19=15/3(-5);
 2/9=110,12=1/2;
 6/7=2,8=2,9=2,10=2,19=2,28=1/1;
 99/9=1/99;
 ------------------
 Phi Psi fixed scan
 ------------------
 Symbolic Z-matrix:
 Charge =  0 Multiplicity = 1
 H                     1.7437    1.5164    1.3919 
 C                     1.8708    2.3503    0.7015 
 H                     1.1495    3.1323    0.9387 
 H                     1.709     2.0051   -0.3197 
 C                     3.2798    2.9381    0.8014 
 O                     4.0982    2.4665    1.5877 
 N                     3.5554    3.9697    0. 
 H                     2.8491    4.3224   -0.63 
 C                     4.8533    4.6139    0. 
 H                     5.4076    4.3155    0.8898 
 C                     5.6613    4.2208   -1.2322 
 H                     5.1233    4.5214   -2.1312 
 H                     6.6305    4.7189   -1.2058 
 H                     5.8085    3.1409   -1.2414 
 C                     4.7127    6.1294    0. 
 O                     5.5682    6.8352   -0.5295 
 N                     3.6281    6.6291    0.5969 
 H                     2.9524    6.0081    1.0185 
 C                     3.3794    8.0551    0.6638 
 H                     4.1904    8.5895    0.169 
 H                     2.4372    8.2838    0.1658 
 H                     3.3233    8.366     1.707 
 
 The following ModRedundant input section has been read:
 D    5    7    9   15 F                                                       
 D    7    9   15   17 F                                                       

 GradGradGradGradGradGradGradGradGradGradGradGradGradGradGradGradGradGrad
 Berny optimization.
 Initialization pass.
                           ----------------------------
                           !    Initial Parameters    !
                           ! (Angstroms and Degrees)  !
 --------------------------                            --------------------------
 ! Name  Definition              Value          Derivative Info.                !
 --------------------------------------------------------------------------------
 ! R1    R(1,2)                  1.09           calculate D2E/DX2 analytically  !
 ! R2    R(2,3)                  1.09           calculate D2E/DX2 analytically  !
 ! R3    R(2,4)                  1.09           calculate D2E/DX2 analytically  !
 ! R4    R(2,5)                  1.53           calculate D2E/DX2 analytically  !
 ! R5    R(5,6)                  1.229          calculate D2E/DX2 analytically  !
 ! R6    R(5,7)                  1.3351         calculate D2E/DX2 analytically  !
 ! R7    R(7,8)                  1.01           calculate D2E/DX2 analytically  !
 ! R8    R(7,9)                  1.449          calculate D2E/DX2 analytically  !
 ! R9    R(9,10)                 1.09           calculate D2E/DX2 analytically  !
 ! R10   R(9,11)                 1.525          calculate D2E/DX2 analytically  !
 ! R11   R(9,15)                 1.522          calculate D2E/DX2 analytically  !
 ! R12   R(11,12)                1.09           calculate D2E/DX2 analytically  !
 ! R13   R(11,13)                1.09           calculate D2E/DX2 analytically  !
 ! R14   R(11,14)                1.0899         calculate D2E/DX2 analytically  !
 ! R15   R(15,16)                1.229          calculate D2E/DX2 analytically  !
 ! R16   R(15,17)                1.335          calculate D2E/DX2 analytically  !
 ! R17   R(17,18)                1.0099         calculate D2E/DX2 analytically  !
 ! R18   R(17,19)                1.4491         calculate D2E/DX2 analytically  !
 ! R19   R(19,20)                1.09           calculate D2E/DX2 analytically  !
 ! R20   R(19,21)                1.09           calculate D2E/DX2 analytically  !
 ! R21   R(19,22)                1.09           calculate D2E/DX2 analytically  !
 ! A1    A(1,2,3)              109.5033         calculate D2E/DX2 analytically  !
 ! A2    A(1,2,4)              109.4991         calculate D2E/DX2 analytically  !
 ! A3    A(1,2,5)              111.0965         calculate D2E/DX2 analytically  !
 ! A4    A(3,2,4)              109.4419         calculate D2E/DX2 analytically  !
 ! A5    A(3,2,5)              108.6381         calculate D2E/DX2 analytically  !
 ! A6    A(4,2,5)              108.6351         calculate D2E/DX2 analytically  !
 ! A7    A(2,5,6)              120.5047         calculate D2E/DX2 analytically  !
 ! A8    A(2,5,7)              116.6015         calculate D2E/DX2 analytically  !
 ! A9    A(6,5,7)              122.8938         calculate D2E/DX2 analytically  !
 ! A10   A(5,7,8)              119.9924         calculate D2E/DX2 analytically  !
 ! A11   A(5,7,9)              121.9002         calculate D2E/DX2 analytically  !
 ! A12   A(8,7,9)              118.1074         calculate D2E/DX2 analytically  !
 ! A13   A(7,9,10)             109.5            calculate D2E/DX2 analytically  !
 ! A14   A(7,9,11)             111.0992         calculate D2E/DX2 analytically  !
 ! A15   A(7,9,15)             111.0966         calculate D2E/DX2 analytically  !
 ! A16   A(10,9,11)            108.6382         calculate D2E/DX2 analytically  !
 ! A17   A(10,9,15)            108.6373         calculate D2E/DX2 analytically  !
 ! A18   A(11,9,15)            107.7947         calculate D2E/DX2 analytically  !
 ! A19   A(9,11,12)            109.5007         calculate D2E/DX2 analytically  !
 ! A20   A(9,11,13)            109.4959         calculate D2E/DX2 analytically  !
 ! A21   A(9,11,14)            109.4978         calculate D2E/DX2 analytically  !
 ! A22   A(12,11,13)           109.441          calculate D2E/DX2 analytically  !
 ! A23   A(12,11,14)           109.4482         calculate D2E/DX2 analytically  !
 ! A24   A(13,11,14)           109.4436         calculate D2E/DX2 analytically  !
 ! A25   A(9,15,16)            120.4998         calculate D2E/DX2 analytically  !
 ! A26   A(9,15,17)            116.5989         calculate D2E/DX2 analytically  !
 ! A27   A(16,15,17)           122.9013         calculate D2E/DX2 analytically  !
 ! A28   A(15,17,18)           120.0026         calculate D2E/DX2 analytically  !
 ! A29   A(15,17,19)           121.898          calculate D2E/DX2 analytically  !
 ! A30   A(18,17,19)           118.0995         calculate D2E/DX2 analytically  !
 ! A31   A(17,19,20)           109.5002         calculate D2E/DX2 analytically  !
 ! A32   A(17,19,21)           109.4963         calculate D2E/DX2 analytically  !
 ! A33   A(17,19,22)           109.4942         calculate D2E/DX2 analytically  !
 ! A34   A(20,19,21)           109.4439         calculate D2E/DX2 analytically  !
 ! A35   A(20,19,22)           109.4453         calculate D2E/DX2 analytically  !
 ! A36   A(21,19,22)           109.4473         calculate D2E/DX2 analytically  !
 ! D1    D(1,2,5,6)             -0.0029         calculate D2E/DX2 analytically  !
 ! D2    D(1,2,5,7)           -179.998          calculate D2E/DX2 analytically  !
 ! D3    D(3,2,5,6)            120.5126         calculate D2E/DX2 analytically  !
 ! D4    D(3,2,5,7)            -59.4825         calculate D2E/DX2 analytically  !
 ! D5    D(4,2,5,6)           -120.5113         calculate D2E/DX2 analytically  !
 ! D6    D(4,2,5,7)             59.4936         calculate D2E/DX2 analytically  !
 ! D7    D(2,5,7,8)             -0.0069         calculate D2E/DX2 analytically  !
 ! D8    D(2,5,7,9)           -180.0            calculate D2E/DX2 analytically  !
 ! D9    D(6,5,7,8)            179.9982         calculate D2E/DX2 analytically  !
 ! D10   D(6,5,7,9)              0.0051         calculate D2E/DX2 analytically  !
 ! D11   D(5,7,9,10)           -15.0041         calculate D2E/DX2 analytically  !
 ! D12   D(5,7,9,11)           104.9985         calculate D2E/DX2 analytically  !
 ! D13   D(5,7,9,15)          -135.004          frozen, calculate D2E/DX2 analyt!
 ! D14   D(8,7,9,10)           165.0026         calculate D2E/DX2 analytically  !
 ! D15   D(8,7,9,11)           -74.9948         calculate D2E/DX2 analytically  !
 ! D16   D(8,7,9,15)            45.0028         calculate D2E/DX2 analytically  !
 ! D17   D(7,9,11,12)           60.0024         calculate D2E/DX2 analytically  !
 ! D18   D(7,9,11,13)          179.9986         calculate D2E/DX2 analytically  !
 ! D19   D(7,9,11,14)          -60.0038         calculate D2E/DX2 analytically  !
 ! D20   D(10,9,11,12)        -179.4843         calculate D2E/DX2 analytically  !
 ! D21   D(10,9,11,13)         -59.4881         calculate D2E/DX2 analytically  !
 ! D22   D(10,9,11,14)          60.5095         calculate D2E/DX2 analytically  !
 ! D23   D(15,9,11,12)         -61.938          calculate D2E/DX2 analytically  !
 ! D24   D(15,9,11,13)          58.0582         calculate D2E/DX2 analytically  !
 ! D25   D(15,9,11,14)         178.0558         calculate D2E/DX2 analytically  !
 ! D26   D(7,9,15,16)         -149.9979         calculate D2E/DX2 analytically  !
 ! D27   D(7,9,15,17)           30.0014         frozen, calculate D2E/DX2 analyt!
 ! D28   D(10,9,15,16)          89.491          calculate D2E/DX2 analytically  !
 ! D29   D(10,9,15,17)         -90.5096         calculate D2E/DX2 analytically  !
 ! D30   D(11,9,15,16)         -28.0559         calculate D2E/DX2 analytically  !
 ! D31   D(11,9,15,17)         151.9435         calculate D2E/DX2 analytically  !
 ! D32   D(9,15,17,18)           0.0004         calculate D2E/DX2 analytically  !
 ! D33   D(9,15,17,19)        -179.9991         calculate D2E/DX2 analytically  !
 ! D34   D(16,15,17,18)        179.9997         calculate D2E/DX2 analytically  !
 ! D35   D(16,15,17,19)          0.0002         calculate D2E/DX2 analytically  !
 ! D36   D(15,17,19,20)          0.0012         calculate D2E/DX2 analytically  !
 ! D37   D(15,17,19,21)        120.0009         calculate D2E/DX2 analytically  !
 ! D38   D(15,17,19,22)       -119.9989         calculate D2E/DX2 analytically  !
 ! D39   D(18,17,19,20)       -179.9983         calculate D2E/DX2 analytically  !
 ! D40   D(18,17,19,21)        -59.9986         calculate D2E/DX2 analytically  !
 ! D41   D(18,17,19,22)         60.0016         calculate D2E/DX2 analytically  !
 --------------------------------------------------------------------------------
 Trust Radius=3.00D-01 FncErr=1.00D-07 GrdErr=1.00D-06
 Number of steps in this run= 132 maximum allowed number of steps= 132.
 GradGradGradGradGradGradGradGradGradGradGradGradGradGradGradGradGradGrad

                          Input orientation:                          
 ---------------------------------------------------------------------
 Center     Atomic      Atomic             Coordinates (Angstroms)
 Number     Number       Type             X           Y           Z
 ---------------------------------------------------------------------
      1          1           0        1.743700    1.516400    1.391900
      2          6           0        1.870800    2.350300    0.701500
      3          1           0        1.149500    3.132300    0.938700
      4          1           0        1.709000    2.005100   -0.319700
      5          6           0        3.279800    2.938100    0.801400
      6          8           0        4.098200    2.466500    1.587700
      7          7           0        3.555400    3.969700    0.000000
      8          1           0        2.849100    4.322400   -0.630000
      9          6           0        4.853300    4.613900    0.000000
     10          1           0        5.407600    4.315500    0.889800
     11          6           0        5.661300    4.220800   -1.232200
     12          1           0        5.123300    4.521400   -2.131200
     13          1           0        6.630500    4.718900   -1.205800
     14          1           0        5.808500    3.140900   -1.241400
     15          6           0        4.712700    6.129400    0.000000
     16          8           0        5.568200    6.835200   -0.529500
     17          7           0        3.628100    6.629100    0.596900
     18          1           0        2.952400    6.008100    1.018500
     19          6           0        3.379400    8.055100    0.663800
     20          1           0        4.190400    8.589500    0.169000
     21          1           0        2.437200    8.283800    0.165800
     22          1           0        3.323300    8.366000    1.707000
 ---------------------------------------------------------------------
                    Distance matrix (angstroms):
                    1          2          3          4          5
     1  H    0.000000
     2  C    1.090044   0.000000
     3  H    1.780336   1.089982   0.000000
     4  H    1.780339   1.090042   1.779660   0.000000
     5  C    2.174747   1.529957   2.143535   2.143541   0.000000
     6  O    2.546507   2.400034   3.091815   3.091818   1.229005
     7  N    3.352361   2.439761   2.714913   2.714969   1.335064
     8  H    3.630926   2.572769   2.601115   2.601152   2.037325
     9  C    4.604509   3.809369   4.098101   4.098130   2.434430
    10  H    4.638020   4.050484   4.419702   4.525536   2.536253
    11  C    5.435740   4.648210   5.123864   4.621976   3.384138
    12  H    5.732709   4.828729   5.210084   4.612022   3.808605
    13  H    6.394127   5.648257   6.095699   5.689556   4.292702
    14  H    5.108412   4.461546   5.143850   4.352640   3.257067
    15  C    5.659692   4.780177   4.749754   5.112169   3.588849
    16  O    6.827021   5.941419   5.949117   6.186057   4.711206
    17  N    5.506604   4.626789   4.299755   5.089644   3.713033
    18  H    4.666450   3.827512   3.395150   4.400095   3.095032
    19  C    6.779398   5.901020   5.411283   6.352953   5.119819
    20  H    7.583572   6.677703   6.294485   7.053403   5.759118
    21  H    6.912450   5.984497   5.365957   6.339405   5.448896
    22  H    7.036437   6.269724   5.719030   6.868371   5.503099
                    6          7          8          9         10
     6  O    0.000000
     7  N    2.252783   0.000000
     8  H    3.150049   1.010028   0.000000
     9  C    2.775301   1.448978   2.121012   0.000000
    10  H    2.370737   2.083739   2.975863   1.089970   0.000000
    11  C    3.670516   2.452791   2.877748   1.525027   2.139209
    12  H    4.370774   2.702720   2.732250   2.150225   3.041326
    13  H    4.391980   3.386959   3.845484   2.150214   2.459625
    14  H    3.373981   2.702673   3.244657   2.150165   2.466256
    15  C    4.039213   2.450234   2.671171   1.522008   2.136554
    16  O    5.072374   3.541585   3.703751   2.392828   2.896393
    17  N    4.304639   2.726533   2.726351   2.432784   2.933455
    18  H    3.765604   2.357122   2.360044   2.567987   2.984873
    19  C    5.709879   4.142716   3.985999   3.801956   4.260197
    20  H    6.285884   4.666298   4.543746   4.034029   4.502022
    21  H    6.214636   4.459744   4.061484   4.396953   5.009477
    22  H    5.951370   4.721776   4.694373   4.396931   4.628031
                   11         12         13         14         15
    11  C    0.000000
    12  H    1.089957   0.000000
    13  H    1.090023   1.779613   0.000000
    14  H    1.089925   1.779613   1.779617   0.000000
    15  C    2.461892   2.701161   2.668599   3.416575   0.000000
    16  O    2.708790   2.849044   2.462639   3.769933   1.228985
    17  N    3.644094   3.757732   3.989110   4.505666   1.335046
    18  H    3.949460   4.104107   4.487535   4.635223   2.037330
    19  C    4.848066   4.831175   5.019491   5.803419   2.434469
    20  H    4.817930   4.765570   4.777626   5.856169   2.520605
    21  H    5.371889   5.162073   5.672174   6.308351   3.137966
    22  H    5.593552   5.723000   5.720430   6.493917   3.137939
                   16         17         18         19         20
    16  O    0.000000
    17  N    2.252830   0.000000
    18  H    3.150049   1.009930   0.000000
    19  C    2.775422   1.449070   2.120931   0.000000
    20  H    2.337478   2.083854   2.986289   1.090014   0.000000
    21  H    3.519239   2.083776   2.484218   1.089976   1.779655
    22  H    3.519213   2.083758   2.484208   1.089987   1.779679
                   21         22
    21  H    0.000000
    22  H    1.779671   0.000000
 Stoichiometry    C6H12N2O2
 Framework group  C1[X(C6H12N2O2)]
 Deg. of freedom    60
 Full point group                 C1      NOp   1
 Largest Abelian subgroup         C1      NOp   1
 Largest concise Abelian subgroup C1      NOp   1
                         Standard orientation:                         
 ---------------------------------------------------------------------
 Center     Atomic      Atomic             Coordinates (Angstroms)
 Number     Number       Type             X           Y           Z
 ---------------------------------------------------------------------
      1          1           0        3.958185   -1.362861   -0.068065
      2          6           0        3.030319   -1.203892   -0.617600
      3          1           0        2.526119   -2.159032   -0.764410
      4          1           0        3.253420   -0.758589   -1.587199
      5          6           0        2.091543   -0.267706    0.145960
      6          8           0        2.424165    0.198445    1.233397
      7          7           0        0.918163    0.002859   -0.430555
      8          1           0        0.689731   -0.404604   -1.326072
      9          6           0       -0.057536    0.875029    0.191432
     10          1           0        0.200210    1.019643    1.240570
     11          6           0       -0.092467    2.236864   -0.494057
     12          1           0       -0.358229    2.109305   -1.543393
     13          1           0       -0.833361    2.870598   -0.006608
     14          1           0        0.889034    2.705364   -0.422646
     15          6           0       -1.455379    0.278205    0.111783
     16          8           0       -2.442838    1.007735    0.055982
     17          7           0       -1.536994   -1.054333    0.106595
     18          1           0       -0.696311   -1.611963    0.154124
     19          6           0       -2.809765   -1.743237    0.033993
     20          1           0       -3.617069   -1.012269   -0.011596
     21          1           0       -2.834943   -2.367795   -0.858947
     22          1           0       -2.935877   -2.368496    0.917859
 ---------------------------------------------------------------------
 Rotational constants (GHZ):      2.0494940      0.8036057      0.6448981
 Standard basis: 6-31G(d) (6D, 7F)
 There are   174 symmetry adapted basis functions of A   symmetry.
 Integral buffers will be    131072 words long.
 Raffenetti 2 integral format.
 Two-electron integral symmetry is turned on.
   174 basis functions,   328 primitive gaussians,   174 cartesian basis functions
    39 alpha electrons       39 beta electrons
       nuclear repulsion energy       556.3425409127 Hartrees.
 NAtoms=   22 NActive=   22 NUniq=   22 SFac= 7.50D-01 NAtFMM=   80 NAOKFM=F Big=F
 One-electron integrals computed using PRISM.
 NBasis=   174 RedAO= T  NBF=   174
 NBsUse=   174 1.00D-06 NBFU=   174
 Harris functional with IExCor=  402 diagonalized for initial guess.
 ExpMin= 1.61D-01 ExpMax= 5.48D+03 ExpMxC= 8.25D+02 IAcc=1 IRadAn=         1 AccDes= 0.00D+00
 HarFok:  IExCor=  402 AccDes= 0.00D+00 IRadAn=         1 IDoV= 1
 ScaDFX=  1.000000  1.000000  1.000000  1.000000
 FoFCou: FMM=F IPFlag=           0 FMFlag=      100000 FMFlg1=           0
         NFxFlg=           0 DoJE=T BraDBF=F KetDBF=T FulRan=T
         Omega=  0.000000  0.000000  1.000000  0.000000  0.000000 ICntrl=     500 IOpCl=  0
         NMat0=    1 NMatS0=    1 NMatT0=    0 NMatD0=    1 NMtDS0=    0 NMtDT0=    0
         I1Cent=           4 NGrid=           0.
 Petite list used in FoFCou.
 Initial guess orbital symmetries:
       Occupied  (A) (A) (A) (A) (A) (A) (A) (A) (A) (A) (A) (A)
                 (A) (A) (A) (A) (A) (A) (A) (A) (A) (A) (A) (A)
                 (A) (A) (A) (A) (A) (A) (A) (A) (A) (A) (A) (A)
                 (A) (A) (A)
       Virtual   (A) (A) (A) (A) (A) (A) (A) (A) (A) (A) (A) (A)
                 (A) (A) (A) (A) (A) (A) (A) (A) (A) (A) (A) (A)
                 (A) (A) (A) (A) (A) (A) (A) (A) (A) (A) (A) (A)
                 (A) (A) (A) (A) (A) (A) (A) (A) (A) (A) (A) (A)
                 (A) (A) (A) (A) (A) (A) (A) (A) (A) (A) (A) (A)
                 (A) (A) (A) (A) (A) (A) (A) (A) (A) (A) (A) (A)
                 (A) (A) (A) (A) (A) (A) (A) (A) (A) (A) (A) (A)
                 (A) (A) (A) (A) (A) (A) (A) (A) (A) (A) (A) (A)
                 (A) (A) (A) (A) (A) (A) (A) (A) (A) (A) (A) (A)
                 (A) (A) (A) (A) (A) (A) (A) (A) (A) (A) (A) (A)
                 (A) (A) (A) (A) (A) (A) (A) (A) (A) (A) (A) (A)
                 (A) (A) (A)
 The electronic state of the initial guess is 1-A.
 Requested convergence on RMS density matrix=1.00D-08 within 128 cycles.
 Requested convergence on MAX density matrix=1.00D-06.
 Requested convergence on             energy=1.00D-06.
 No special actions if energy rises.
 Integral accuracy reduced to 1.0D-05 until final iterations.
 Initial convergence to 1.0D-05 achieved.  Increase integral accuracy.
 SCF Done:  E(RB3LYP) =  -495.842559957     A.U. after   15 cycles
             Convg  =    0.9169D-08             -V/T =  2.0087
 Range of M.O.s used for correlation:     1   174
 NBasis=   174 NAE=    39 NBE=    39 NFC=     0 NFV=     0
 NROrb=    174 NOA=    39 NOB=    39 NVA=   135 NVB=   135
 Symmetrizing basis deriv contribution to polar:
 IMax=3 JMax=2 DiffMx= 0.00D+00
 G2DrvN: will do    23 centers at a time, making    1 passes doing MaxLOS=2.
 Calling FoFCou, ICntrl=  3107 FMM=F I1Cent=   0 AccDes= 0.00D+00.
 FoFDir/FoFCou used for L=0 through L=2.
 End of G2Drv Frequency-dependent properties file   721 does not exist.
 End of G2Drv Frequency-dependent properties file   722 does not exist.
          IDoAtm=1111111111111111111111
          Differentiating once with respect to nuclear coordinates.
          There are    69 degrees of freedom in the 1st order CPHF.  IDoFFX=5.
     63 vectors produced by pass  0 Test12= 7.63D-11 1.45D-07 XBig12= 1.83D-01 1.20D-01.
 AX will form    63 AO Fock derivatives at one time.
     63 vectors produced by pass  1 Test12= 7.63D-11 1.45D-07 XBig12= 3.30D-02 5.08D-02.
     63 vectors produced by pass  2 Test12= 7.63D-11 1.45D-07 XBig12= 6.53D-05 1.59D-03.
     63 vectors produced by pass  3 Test12= 7.63D-11 1.45D-07 XBig12= 1.46D-07 6.13D-05.
     28 vectors produced by pass  4 Test12= 7.63D-11 1.45D-07 XBig12= 1.24D-10 1.39D-06.
 Inverted reduced A of dimension   280 with in-core refinement.
 End of Minotr Frequency-dependent properties file   721 does not exist.
 End of Minotr Frequency-dependent properties file   722 does not exist.

 **********************************************************************

            Population analysis using the SCF density.

 **********************************************************************

 Orbital symmetries:
       Occupied  (A) (A) (A) (A) (A) (A) (A) (A) (A) (A) (A) (A)
                 (A) (A) (A) (A) (A) (A) (A) (A) (A) (A) (A) (A)
                 (A) (A) (A) (A) (A) (A) (A) (A) (A) (A) (A) (A)
                 (A) (A) (A)
       Virtual   (A) (A) (A) (A) (A) (A) (A) (A) (A) (A) (A) (A)
                 (A) (A) (A) (A) (A) (A) (A) (A) (A) (A) (A) (A)
                 (A) (A) (A) (A) (A) (A) (A) (A) (A) (A) (A) (A)
                 (A) (A) (A) (A) (A) (A) (A) (A) (A) (A) (A) (A)
                 (A) (A) (A) (A) (A) (A) (A) (A) (A) (A) (A) (A)
                 (A) (A) (A) (A) (A) (A) (A) (A) (A) (A) (A) (A)
                 (A) (A) (A) (A) (A) (A) (A) (A) (A) (A) (A) (A)
                 (A) (A) (A) (A) (A) (A) (A) (A) (A) (A) (A) (A)
                 (A) (A) (A) (A) (A) (A) (A) (A) (A) (A) (A) (A)
                 (A) (A) (A) (A) (A) (A) (A) (A) (A) (A) (A) (A)
                 (A) (A) (A) (A) (A) (A) (A) (A) (A) (A) (A) (A)
                 (A) (A) (A)
 The electronic state is 1-A.
 Alpha  occ. eigenvalues --  -19.10912 -19.10653 -14.37249 -14.36852 -10.28964
 Alpha  occ. eigenvalues --  -10.28226 -10.23186 -10.22143 -10.19692 -10.17262
 Alpha  occ. eigenvalues --   -1.03844  -1.02998  -0.94265  -0.92405  -0.78624
 Alpha  occ. eigenvalues --   -0.73215  -0.71971  -0.64200  -0.60600  -0.59224
 Alpha  occ. eigenvalues --   -0.54617  -0.48923  -0.47924  -0.46344  -0.45827
 Alpha  occ. eigenvalues --   -0.45222  -0.42262  -0.41996  -0.40307  -0.39615
 Alpha  occ. eigenvalues --   -0.39298  -0.38230  -0.36810  -0.36225  -0.34919
 Alpha  occ. eigenvalues --   -0.27102  -0.25709  -0.24719  -0.24167
 Alpha virt. eigenvalues --    0.02716   0.02929   0.05486   0.09330   0.11567
 Alpha virt. eigenvalues --    0.12674   0.13070   0.14818   0.16119   0.16234
 Alpha virt. eigenvalues --    0.16362   0.16799   0.17316   0.18830   0.19357
 Alpha virt. eigenvalues --    0.21163   0.23313   0.25475   0.28180   0.31070
 Alpha virt. eigenvalues --    0.35408   0.38128   0.41673   0.49896   0.50736
 Alpha virt. eigenvalues --    0.52566   0.53028   0.53751   0.54665   0.55641
 Alpha virt. eigenvalues --    0.57339   0.59982   0.62100   0.63292   0.65150
 Alpha virt. eigenvalues --    0.65983   0.67669   0.70354   0.71081   0.74601
 Alpha virt. eigenvalues --    0.75004   0.76528   0.79160   0.79833   0.84016
 Alpha virt. eigenvalues --    0.85125   0.85507   0.86738   0.86823   0.88898
 Alpha virt. eigenvalues --    0.89082   0.90152   0.90751   0.91721   0.93024
 Alpha virt. eigenvalues --    0.94040   0.94844   0.97129   0.97387   1.00054
 Alpha virt. eigenvalues --    1.04481   1.05220   1.07954   1.12570   1.18502
 Alpha virt. eigenvalues --    1.19173   1.27370   1.28812   1.31583   1.32588
 Alpha virt. eigenvalues --    1.35633   1.40864   1.42647   1.45553   1.46727
 Alpha virt. eigenvalues --    1.49642   1.53428   1.62911   1.66814   1.69260
 Alpha virt. eigenvalues --    1.74065   1.76898   1.79183   1.79970   1.82364
 Alpha virt. eigenvalues --    1.83533   1.84982   1.85621   1.88127   1.91345
 Alpha virt. eigenvalues --    1.93849   1.95340   1.97836   2.00542   2.02615
 Alpha virt. eigenvalues --    2.05192   2.06960   2.09629   2.12999   2.17616
 Alpha virt. eigenvalues --    2.18856   2.21506   2.24029   2.27957   2.28450
 Alpha virt. eigenvalues --    2.30567   2.31916   2.36099   2.40083   2.41100
 Alpha virt. eigenvalues --    2.44460   2.48923   2.50991   2.56371   2.64342
 Alpha virt. eigenvalues --    2.67274   2.69401   2.71230   2.74771   2.86714
 Alpha virt. eigenvalues --    2.94401   2.95571   3.03986   3.15441   3.19331
 Alpha virt. eigenvalues --    3.96291   4.01297   4.06258   4.12373   4.17922
 Alpha virt. eigenvalues --    4.23416   4.25394   4.40665   4.48482   4.64853
          Condensed to atoms (all electrons):
              1          2          3          4          5          6
     1  H    0.494011   0.361841  -0.021278  -0.020598  -0.017593   0.005054
     2  C    0.361841   5.344160   0.347274   0.351911   0.347576  -0.082534
     3  H   -0.021278   0.347274   0.564165  -0.027363  -0.025609   0.001579
     4  H   -0.020598   0.351911  -0.027363   0.547629  -0.026375   0.001377
     5  C   -0.017593   0.347576  -0.025609  -0.026375   4.349447   0.615585
     6  O    0.005054  -0.082534   0.001579   0.001377   0.615585   8.049667
     7  N    0.004485  -0.137481   0.004613   0.004746   0.206212  -0.110361
     8  H   -0.000150  -0.000317   0.000949   0.001002  -0.017772   0.003496
     9  C   -0.000119   0.006680  -0.000289  -0.000248  -0.010964   0.002676
    10  H   -0.000009   0.001108  -0.000053  -0.000028  -0.000282   0.019778
    11  C    0.000004  -0.000335  -0.000005   0.000067  -0.002069  -0.000459
    12  H    0.000000   0.000000   0.000001   0.000000  -0.000084  -0.000020
    13  H    0.000000   0.000004   0.000000   0.000000  -0.000036  -0.000025
    14  H    0.000000  -0.000004   0.000000  -0.000016   0.002072   0.000999
    15  C    0.000001  -0.000056   0.000042  -0.000021   0.001560   0.000429
    16  O    0.000000   0.000001   0.000000   0.000000  -0.000062  -0.000001
    17  N    0.000000  -0.000048  -0.000024   0.000004   0.000937   0.000045
    18  H   -0.000002  -0.000027   0.000350  -0.000011   0.000670  -0.000267
    19  C    0.000000  -0.000001  -0.000001   0.000000   0.000010   0.000000
    20  H    0.000000   0.000000   0.000000   0.000000   0.000001   0.000000
    21  H    0.000000   0.000000   0.000000   0.000000   0.000000   0.000000
    22  H    0.000000   0.000000   0.000000   0.000000  -0.000001   0.000000
              7          8          9         10         11         12
     1  H    0.004485  -0.000150  -0.000119  -0.000009   0.000004   0.000000
     2  C   -0.137481  -0.000317   0.006680   0.001108  -0.000335   0.000000
     3  H    0.004613   0.000949  -0.000289  -0.000053  -0.000005   0.000001
     4  H    0.004746   0.001002  -0.000248  -0.000028   0.000067   0.000000
     5  C    0.206212  -0.017772  -0.010964  -0.000282  -0.002069  -0.000084
     6  O   -0.110361   0.003496   0.002676   0.019778  -0.000459  -0.000020
     7  N    7.262850   0.297262   0.187409  -0.043857  -0.062735  -0.002984
     8  H    0.297262   0.415783  -0.036610   0.004703  -0.000174   0.003025
     9  C    0.187409  -0.036610   5.186098   0.370174   0.360362  -0.034492
    10  H   -0.043857   0.004703   0.370174   0.498077  -0.035309   0.004703
    11  C   -0.062735  -0.000174   0.360362  -0.035309   5.095109   0.377086
    12  H   -0.002984   0.003025  -0.034492   0.004703   0.377086   0.575121
    13  H    0.004881  -0.000088  -0.027113  -0.000649   0.366778  -0.022681
    14  H   -0.002804  -0.000107  -0.032790  -0.003505   0.364204  -0.031760
    15  C   -0.031025  -0.000672   0.310642  -0.027006  -0.041508  -0.006678
    16  O    0.002024  -0.000072  -0.091215  -0.000093   0.000437   0.000919
    17  N   -0.007707   0.006215  -0.133702  -0.000947   0.004506   0.000150
    18  H    0.018920  -0.000332  -0.004962  -0.000121   0.000513  -0.000030
    19  C    0.000067  -0.000246   0.006613  -0.000155  -0.000165  -0.000016
    20  H   -0.000067  -0.000010   0.001285  -0.000016  -0.000030  -0.000005
    21  H    0.000021  -0.000077  -0.000048  -0.000006   0.000015  -0.000001
    22  H   -0.000007   0.000022  -0.000222   0.000028  -0.000004   0.000000
             13         14         15         16         17         18
     1  H    0.000000   0.000000   0.000001   0.000000   0.000000  -0.000002
     2  C    0.000004  -0.000004  -0.000056   0.000001  -0.000048  -0.000027
     3  H    0.000000   0.000000   0.000042   0.000000  -0.000024   0.000350
     4  H    0.000000  -0.000016  -0.000021   0.000000   0.000004  -0.000011
     5  C   -0.000036   0.002072   0.001560  -0.000062   0.000937   0.000670
     6  O   -0.000025   0.000999   0.000429  -0.000001   0.000045  -0.000267
     7  N    0.004881  -0.002804  -0.031025   0.002024  -0.007707   0.018920
     8  H   -0.000088  -0.000107  -0.000672  -0.000072   0.006215  -0.000332
     9  C   -0.027113  -0.032790   0.310642  -0.091215  -0.133702  -0.004962
    10  H   -0.000649  -0.003505  -0.027006  -0.000093  -0.000947  -0.000121
    11  C    0.366778   0.364204  -0.041508   0.000437   0.004506   0.000513
    12  H   -0.022681  -0.031760  -0.006678   0.000919   0.000150  -0.000030
    13  H    0.516856  -0.025750  -0.003793   0.009683   0.000378  -0.000053
    14  H   -0.025750   0.570572   0.005964   0.000753  -0.000063  -0.000020
    15  C   -0.003793   0.005964   4.364618   0.585024   0.291107  -0.022439
    16  O    0.009683   0.000753   0.585024   8.103486  -0.098363   0.003702
    17  N    0.000378  -0.000063   0.291107  -0.098363   7.086945   0.298125
    18  H   -0.000053  -0.000020  -0.022439   0.003702   0.298125   0.409584
    19  C   -0.000004   0.000003  -0.027001  -0.009443   0.264223  -0.032249
    20  H   -0.000004   0.000000  -0.000041   0.022071  -0.037784   0.003535
    21  H    0.000000   0.000000   0.000719   0.000607  -0.044517   0.000184
    22  H    0.000000   0.000000   0.001958   0.000563  -0.043159  -0.001467
             19         20         21         22
     1  H    0.000000   0.000000   0.000000   0.000000
     2  C   -0.000001   0.000000   0.000000   0.000000
     3  H   -0.000001   0.000000   0.000000   0.000000
     4  H    0.000000   0.000000   0.000000   0.000000
     5  C    0.000010   0.000001   0.000000  -0.000001
     6  O    0.000000   0.000000   0.000000   0.000000
     7  N    0.000067  -0.000067   0.000021  -0.000007
     8  H   -0.000246  -0.000010  -0.000077   0.000022
     9  C    0.006613   0.001285  -0.000048  -0.000222
    10  H   -0.000155  -0.000016  -0.000006   0.000028
    11  C   -0.000165  -0.000030   0.000015  -0.000004
    12  H   -0.000016  -0.000005  -0.000001   0.000000
    13  H   -0.000004  -0.000004   0.000000   0.000000
    14  H    0.000003   0.000000   0.000000   0.000000
    15  C   -0.027001  -0.000041   0.000719   0.001958
    16  O   -0.009443   0.022071   0.000607   0.000563
    17  N    0.264223  -0.037784  -0.044517  -0.043159
    18  H   -0.032249   0.003535   0.000184  -0.001467
    19  C    4.970521   0.375648   0.382544   0.383158
    20  H    0.375648   0.472440  -0.024601  -0.023480
    21  H    0.382544  -0.024601   0.569043  -0.038573
    22  H    0.383158  -0.023480  -0.038573   0.558920
 Mulliken atomic charges:
              1
     1  H    0.194352
     2  C   -0.539753
     3  H    0.155651
     4  H    0.167925
     5  C    0.576777
     6  O   -0.507018
     7  N   -0.594461
     8  H    0.324170
     9  C   -0.059165
    10  H    0.213464
    11  C   -0.426291
    12  H    0.137747
    13  H    0.181615
    14  H    0.152253
    15  C    0.598175
    16  O   -0.530020
    17  N   -0.586323
    18  H    0.326397
    19  C   -0.313506
    20  H    0.211058
    21  H    0.154691
    22  H    0.162263
 Sum of Mulliken atomic charges =   0.00000
 Mulliken charges with hydrogens summed into heavy atoms:
              1
     2  C   -0.021826
     5  C    0.576777
     6  O   -0.507018
     7  N   -0.270291
     9  C    0.154299
    11  C    0.045324
    15  C    0.598175
    16  O   -0.530020
    17  N   -0.259926
    19  C    0.214506
 Sum of Mulliken charges with hydrogens summed into heavy atoms =   0.00000
 APT atomic charges:
              1
     1  H    0.722721
     2  C   -1.223240
     3  H    0.282269
     4  H    0.416224
     5  C   -0.114118
     6  O   -0.080877
     7  N   -0.584032
     8  H    0.486464
     9  C   -0.390006
    10  H    0.425305
    11  C   -1.232963
    12  H    0.344127
    13  H    0.503301
    14  H    0.443001
    15  C   -0.295913
    16  O    0.075419
    17  N   -0.310847
    18  H    0.379376
    19  C   -1.393502
    20  H    0.551926
    21  H    0.473558
    22  H    0.521805
 Sum of APT charges=   0.00000
 APT Atomic charges with hydrogens summed into heavy atoms:
              1
     1  H    0.000000
     2  C    0.197974
     3  H    0.000000
     4  H    0.000000
     5  C   -0.114118
     6  O   -0.080877
     7  N   -0.097568
     8  H    0.000000
     9  C    0.035299
    10  H    0.000000
    11  C    0.057466
    12  H    0.000000
    13  H    0.000000
    14  H    0.000000
    15  C   -0.295913
    16  O    0.075419
    17  N    0.068530
    18  H    0.000000
    19  C    0.153788
    20  H    0.000000
    21  H    0.000000
    22  H    0.000000
 Sum of APT charges=   0.00000
 Electronic spatial extent (au):  <R**2>=           1830.1212
 Charge=              0.0000 electrons
 Dipole moment (field-independent basis, Debye):
    X=              0.3688    Y=             -3.8097    Z=             -2.8742  Tot=              4.7865
 Quadrupole moment (field-independent basis, Debye-Ang):
   XX=            -68.5557   YY=            -56.3904   ZZ=            -60.8697
   XY=              4.1176   XZ=             -6.9242   YZ=              0.3854
 Traceless Quadrupole moment (field-independent basis, Debye-Ang):
   XX=             -6.6171   YY=              5.5482   ZZ=              1.0689
   XY=              4.1176   XZ=             -6.9242   YZ=              0.3854
 Octapole moment (field-independent basis, Debye-Ang**2):
  XXX=              4.1492  YYY=             -7.0088  ZZZ=             -3.7968  XYY=              0.5859
  XXY=            -28.0652  XXZ=            -15.3437  XZZ=             -8.2716  YZZ=             -0.8630
  YYZ=              2.9863  XYZ=             -1.0266
 Hexadecapole moment (field-independent basis, Debye-Ang**3):
 XXXX=          -1540.9007 YYYY=           -614.1539 ZZZZ=           -175.0625 XXXY=             28.5637
 XXXZ=            -31.3038 YYYX=             10.4235 YYYZ=              4.1628 ZZZX=             -6.1659
 ZZZY=              2.3382 XXYY=           -356.8412 XXZZ=           -305.2688 YYZZ=           -133.7930
 XXYZ=             -6.7492 YYXZ=              2.4570 ZZXY=             -1.2002
 N-N= 5.563425409127D+02 E-N=-2.268763590486D+03  KE= 4.915428052953D+02
  Exact polarizability:   0.000   0.000   0.000   0.000   0.000   0.000
 Approx polarizability: 119.232  -8.803 115.983  11.068   7.147 102.226
 Calling FoFJK, ICntrl=    100147 FMM=F ISym2X=0 I1Cent= 0 IOpClX= 0 NMat=1 NMatS=1 NMatT=0.
 ***** Axes restored to original set *****
 -------------------------------------------------------------------
 Center     Atomic                   Forces (Hartrees/Bohr)
 Number     Number              X              Y              Z
 -------------------------------------------------------------------
      1        1           0.003456380    0.001165597    0.000567323
      2        6           0.006814929    0.007189407   -0.003842362
      3        1          -0.006835586    0.000712231   -0.001017254
      4        1          -0.005274910   -0.001441490   -0.003450979
      5        6          -0.006806631   -0.037821555    0.028572938
      6        8           0.001838130    0.003105607   -0.001467034
      7        7           0.000427710    0.019204332   -0.005985019
      8        1           0.000153965   -0.001273398   -0.002961484
      9        6           0.005890671    0.004149605   -0.014528378
     10        1          -0.005017668   -0.003711871    0.004640216
     11        6           0.003801918   -0.004879056    0.002501589
     12        1           0.001318483    0.000386159   -0.004747475
     13        1           0.000192296    0.000665539   -0.002762036
     14        1           0.000419205   -0.003096785   -0.001079920
     15        6           0.020133663    0.000835356   -0.008225813
     16        8           0.001174796    0.001698225    0.000988867
     17        7          -0.017738336    0.010009727    0.008223931
     18        1           0.002344225   -0.001590164    0.000457365
     19        6          -0.002592799   -0.000448851    0.002333413
     20        1           0.000895745   -0.002972125   -0.000285465
     21        1          -0.003631267    0.004023680   -0.000993497
     22        1          -0.000964918    0.004089827    0.003061076
 -------------------------------------------------------------------
 Cartesian Forces:  Max     0.037821555 RMS     0.008165740

 GradGradGradGradGradGradGradGradGradGradGradGradGradGradGradGradGradGrad
 Berny optimization.
 Internal  Forces:  Max     0.033966671 RMS     0.005819138
 Search for a local minimum.
 Step number   1 out of a maximum of  132
 All quantities printed in internal units (Hartrees-Bohrs-Radians)
 Mixed Optimization -- RFO/linear search
 Second derivative matrix not updated -- analytic derivatives used.
     Eigenvalues ---   -0.00079  -0.00018   0.00265   0.00312   0.00539
     Eigenvalues ---    0.01712   0.02123   0.02168   0.03499   0.03985
     Eigenvalues ---    0.04665   0.04713   0.05077   0.05651   0.05830
     Eigenvalues ---    0.05970   0.06404   0.06605   0.11542   0.12219
     Eigenvalues ---    0.12489   0.13334   0.13371   0.13410   0.13473
     Eigenvalues ---    0.14326   0.15694   0.17786   0.17851   0.18594
     Eigenvalues ---    0.19115   0.20163   0.21336   0.22465   0.24060
     Eigenvalues ---    0.24772   0.29188   0.31165   0.33603   0.34575
     Eigenvalues ---    0.34730   0.34954   0.35049   0.35162   0.35306
     Eigenvalues ---    0.35504   0.35746   0.35910   0.35940   0.36742
     Eigenvalues ---    0.39170   0.40657   0.46803   0.47036   0.53603
     Eigenvalues ---    0.54642   0.82699   0.829971000.000001000.00000
     Eigenvalues --- 1000.000001000.000001000.000001000.000001000.00000
     Eigenvalues --- 1000.000001000.000001000.000001000.000001000.00000
     Eigenvalues --- 1000.000001000.000001000.000001000.000001000.00000
     Eigenvalues --- 1000.000001000.000001000.000001000.000001000.00000
     Eigenvalues --- 1000.000001000.000001000.000001000.000001000.00000
     Eigenvalues --- 1000.000001000.000001000.000001000.000001000.00000
     Eigenvalues --- 1000.000001000.000001000.000001000.000001000.00000
     Eigenvalues --- 1000.000001000.000001000.00000
 RFO step:  Lambda=-1.07890512D-02 EMin=-7.90538973D-04
 Linear search not attempted -- first point.
 Maximum step size (   0.300) exceeded in Quadratic search.
    -- Step size scaled by   0.313
 Iteration  1 RMS(Cart)=  0.05085194 RMS(Int)=  0.00221315
 Iteration  2 RMS(Cart)=  0.00231284 RMS(Int)=  0.00005015
 Iteration  3 RMS(Cart)=  0.00000365 RMS(Int)=  0.00005008
 Iteration  4 RMS(Cart)=  0.00000000 RMS(Int)=  0.00005008
 Iteration  1 RMS(Cart)=  0.00000644 RMS(Int)=  0.00000292
 Iteration  2 RMS(Cart)=  0.00000430 RMS(Int)=  0.00000323
 Iteration  3 RMS(Cart)=  0.00000288 RMS(Int)=  0.00000371
 Iteration  4 RMS(Cart)=  0.00000194 RMS(Int)=  0.00000413
 Iteration  5 RMS(Cart)=  0.00000130 RMS(Int)=  0.00000444
 Iteration  6 RMS(Cart)=  0.00000088 RMS(Int)=  0.00000466
 Variable       Old X    -DE/DX   Delta X   Delta X   Delta X     New X
                                 (Linear)    (Quad)   (Total)
    R1        2.05988  -0.00093   0.00000   0.00009   0.00009   2.05998
    R2        2.05977   0.00481   0.00000   0.00361   0.00361   2.06338
    R3        2.05988   0.00447   0.00000   0.00369   0.00369   2.06357
    R4        2.89120  -0.00073   0.00000  -0.00364  -0.00364   2.88756
    R5        2.32248  -0.00090   0.00000  -0.00332  -0.00332   2.31916
    R6        2.52291   0.03397   0.00000   0.02061   0.02061   2.54352
    R7        1.90868   0.00129   0.00000   0.00097   0.00097   1.90965
    R8        2.73817   0.00964   0.00000   0.00637   0.00637   2.74454
    R9        2.05975   0.00225   0.00000   0.00309   0.00309   2.06284
   R10        2.88188   0.00974   0.00000   0.00434   0.00434   2.88622
   R11        2.87618   0.01561   0.00000   0.01161   0.01161   2.88779
   R12        2.05972   0.00337   0.00000   0.00331   0.00331   2.06303
   R13        2.05984   0.00041   0.00000   0.00106   0.00106   2.06090
   R14        2.05966   0.00313   0.00000   0.00237   0.00237   2.06203
   R15        2.32245   0.00137   0.00000  -0.00205  -0.00205   2.32040
   R16        2.52287   0.02825   0.00000   0.01532   0.01532   2.53819
   R17        1.90849  -0.00040   0.00000  -0.00004  -0.00004   1.90845
   R18        2.73835   0.00589   0.00000   0.00137   0.00137   2.73971
   R19        2.05983  -0.00066   0.00000   0.00045   0.00045   2.06028
   R20        2.05976   0.00444   0.00000   0.00318   0.00318   2.06294
   R21        2.05978   0.00415   0.00000   0.00418   0.00418   2.06396
    A1        1.91119  -0.00041   0.00000   0.00110   0.00115   1.91234
    A2        1.91112  -0.00019   0.00000  -0.00397  -0.00399   1.90713
    A3        1.93900  -0.00766   0.00000  -0.01264  -0.01263   1.92637
    A4        1.91012  -0.00533   0.00000  -0.00895  -0.00903   1.90109
    A5        1.89609   0.00713   0.00000   0.02020   0.02019   1.91628
    A6        1.89604   0.00650   0.00000   0.00436   0.00432   1.90036
    A7        2.10320   0.00838   0.00000   0.01203   0.01202   2.11522
    A8        2.03508  -0.00799   0.00000  -0.01001  -0.01002   2.02506
    A9        2.14490  -0.00039   0.00000  -0.00201  -0.00202   2.14288
   A10        2.09426  -0.00259   0.00000  -0.00432  -0.00451   2.08975
   A11        2.12756   0.00557   0.00000   0.00523   0.00504   2.13260
   A12        2.06136  -0.00298   0.00000  -0.00092  -0.00111   2.06025
   A13        1.91114  -0.00412   0.00000  -0.02042  -0.02041   1.89073
   A14        1.93905  -0.00064   0.00000   0.00556   0.00546   1.94451
   A15        1.93900   0.00049   0.00000   0.00405   0.00392   1.94292
   A16        1.89609   0.00054   0.00000   0.00280   0.00282   1.89892
   A17        1.89608  -0.00201   0.00000  -0.00469  -0.00475   1.89133
   A18        1.88137   0.00585   0.00000   0.01298   0.01291   1.89429
   A19        1.91115   0.00429   0.00000   0.00732   0.00731   1.91846
   A20        1.91106   0.00214   0.00000   0.00306   0.00306   1.91412
   A21        1.91110   0.00031   0.00000   0.00136   0.00136   1.91245
   A22        1.91011  -0.00368   0.00000  -0.00862  -0.00863   1.90148
   A23        1.91023  -0.00219   0.00000  -0.00296  -0.00297   1.90726
   A24        1.91015  -0.00088   0.00000  -0.00017  -0.00018   1.90998
   A25        2.10312   0.00274   0.00000   0.00386   0.00386   2.10698
   A26        2.03504  -0.00309   0.00000  -0.00711  -0.00711   2.02792
   A27        2.14503   0.00035   0.00000   0.00324   0.00324   2.14827
   A28        2.09444  -0.00495   0.00000  -0.01174  -0.01182   2.08262
   A29        2.12752   0.00528   0.00000   0.00435   0.00427   2.13179
   A30        2.06122  -0.00033   0.00000   0.00739   0.00730   2.06853
   A31        1.91114  -0.00635   0.00000  -0.01111  -0.01109   1.90005
   A32        1.91107   0.00501   0.00000   0.00561   0.00559   1.91666
   A33        1.91103   0.00476   0.00000   0.01158   0.01157   1.92261
   A34        1.91016  -0.00005   0.00000   0.00118   0.00119   1.91135
   A35        1.91018  -0.00010   0.00000  -0.00359  -0.00356   1.90662
   A36        1.91022  -0.00327   0.00000  -0.00368  -0.00373   1.90648
    D1       -0.00005  -0.00004   0.00000   0.09280   0.09284   0.09278
    D2       -3.14156  -0.00003   0.00000   0.08492   0.08493  -3.05663
    D3        2.10334  -0.00067   0.00000   0.09941   0.09937   2.20271
    D4       -1.03817  -0.00066   0.00000   0.09153   0.09147  -0.94670
    D5       -2.10332   0.00073   0.00000   0.10271   0.10275  -2.00057
    D6        1.03836   0.00074   0.00000   0.09484   0.09485   1.13321
    D7       -0.00012  -0.00049   0.00000  -0.00315  -0.00314  -0.00326
    D8       -3.14159   0.00119   0.00000   0.03398   0.03393  -3.10766
    D9        3.14156  -0.00048   0.00000  -0.01123  -0.01118   3.13038
   D10        0.00009   0.00120   0.00000   0.02590   0.02589   0.02597
   D11       -0.26187  -0.00114   0.00000  -0.01655  -0.01653  -0.27840
   D12        1.83257  -0.00355   0.00000  -0.02282  -0.02281   1.80975
   D13       -2.35626   0.00373   0.00000   0.00000   0.00000  -2.35627
   D14        2.87984   0.00051   0.00000   0.01991   0.01994   2.89978
   D15       -1.30891  -0.00191   0.00000   0.01364   0.01365  -1.29525
   D16        0.78545   0.00538   0.00000   0.03646   0.03647   0.82191
   D17        1.04724   0.00321   0.00000   0.01115   0.01118   1.05842
   D18        3.14157   0.00264   0.00000   0.00694   0.00697  -3.13465
   D19       -1.04726   0.00306   0.00000   0.00945   0.00947  -1.03779
   D20       -3.13259  -0.00194   0.00000  -0.00887  -0.00888  -3.14148
   D21       -1.03826  -0.00251   0.00000  -0.01308  -0.01309  -1.05136
   D22        1.05609  -0.00209   0.00000  -0.01058  -0.01059   1.04550
   D23       -1.08102  -0.00083   0.00000  -0.00581  -0.00583  -1.08685
   D24        1.01331  -0.00139   0.00000  -0.01001  -0.01003   1.00327
   D25        3.10766  -0.00097   0.00000  -0.00751  -0.00753   3.10013
   D26       -2.61796  -0.00354   0.00000  -0.00646  -0.00647  -2.62443
   D27        0.52362  -0.00218   0.00000   0.00000   0.00000   0.52362
   D28        1.56191   0.00256   0.00000   0.01934   0.01933   1.58125
   D29       -1.57969   0.00392   0.00000   0.02580   0.02581  -1.55389
   D30       -0.48967  -0.00020   0.00000   0.01143   0.01146  -0.47821
   D31        2.65191   0.00116   0.00000   0.01789   0.01793   2.66985
   D32        0.00001  -0.00005   0.00000   0.00982   0.00974   0.00974
   D33       -3.14158  -0.00093   0.00000  -0.01470  -0.01463   3.12698
   D34        3.14159   0.00134   0.00000   0.01645   0.01638  -3.12522
   D35        0.00000   0.00046   0.00000  -0.00808  -0.00799  -0.00799
   D36        0.00002   0.00039   0.00000   0.07514   0.07518   0.07520
   D37        2.09441  -0.00049   0.00000   0.07321   0.07324   2.16765
   D38       -2.09438   0.00149   0.00000   0.07924   0.07933  -2.01505
   D39       -3.14156  -0.00047   0.00000   0.05107   0.05101  -3.09056
   D40       -1.04717  -0.00135   0.00000   0.04914   0.04906  -0.99812
   D41        1.04722   0.00063   0.00000   0.05517   0.05515   1.10238
         Item               Value     Threshold  Converged?
 Maximum Force            0.033967     0.000450     NO 
 RMS     Force            0.005844     0.000300     NO 
 Maximum Displacement     0.252936     0.001800     NO 
 RMS     Displacement     0.050874     0.001200     NO 
 Predicted change in Energy=-2.972374D-03
 GradGradGradGradGradGradGradGradGradGradGradGradGradGradGradGradGradGrad

                          Input orientation:                          
 ---------------------------------------------------------------------
 Center     Atomic      Atomic             Coordinates (Angstroms)
 Number     Number       Type             X           Y           Z
 ---------------------------------------------------------------------
      1          1           0        1.720303    1.565489    1.437677
      2          6           0        1.873484    2.338203    0.684183
      3          1           0        1.121717    3.120834    0.804852
      4          1           0        1.769986    1.897928   -0.309748
      5          6           0        3.272101    2.939459    0.815515
      6          8           0        4.087053    2.485006    1.612675
      7          7           0        3.547255    3.977596    0.004217
      8          1           0        2.844463    4.308608   -0.642087
      9          6           0        4.848134    4.623166   -0.012091
     10          1           0        5.389480    4.327416    0.888512
     11          6           0        5.662339    4.205983   -1.235097
     12          1           0        5.136714    4.493688   -2.147659
     13          1           0        6.634128    4.700558   -1.215300
     14          1           0        5.805291    3.124237   -1.227500
     15          6           0        4.713041    6.145332   -0.014619
     16          8           0        5.565625    6.849860   -0.547988
     17          7           0        3.627785    6.645192    0.598914
     18          1           0        2.969317    6.013484    1.031672
     19          6           0        3.380563    8.070931    0.688635
     20          1           0        4.152917    8.598569    0.128528
     21          1           0        2.400937    8.303919    0.267009
     22          1           0        3.409068    8.392940    1.731899
 ---------------------------------------------------------------------
                    Distance matrix (angstroms):
                    1          2          3          4          5
     1  H    0.000000
     2  C    1.090094   0.000000
     3  H    1.782659   1.091891   0.000000
     4  H    1.779460   1.091995   1.777100   0.000000
     5  C    2.164014   1.528033   2.158046   2.146475   0.000000
     6  O    2.545121   2.404898   3.138483   3.067437   1.227249
     7  N    3.348257   2.439564   2.694122   2.753594   1.345973
     8  H    3.621306   2.565987   2.544071   2.660137   2.045006
     9  C    4.608095   3.815022   4.100071   4.121955   2.450241
    10  H    4.625222   4.044866   4.435836   4.520948   2.532794
    11  C    5.445693   4.639791   5.094722   4.618853   3.394456
    12  H    5.753334   4.828470   5.169357   4.631495   3.830511
    13  H    6.404110   5.643801   6.079739   5.686356   4.304522
    14  H    5.120546   4.442014   5.105520   4.316224   3.259617
    15  C    5.660442   4.800587   4.766207   5.175820   3.611516
    16  O    6.830370   5.958624   5.956856   6.243819   4.733987
    17  N    5.490482   4.651343   4.329420   5.178184   3.729059
    18  H    4.637838   3.850882   3.439840   4.491726   3.096454
    19  C    6.755613   5.927518   5.442366   6.457297   5.134186
    20  H    7.556169   6.685562   6.296917   7.125239   5.768302
    21  H    6.873148   6.003500   5.365636   6.462776   5.462345
    22  H    7.039359   6.333685   5.821210   7.002863   5.531634
                    6          7          8          9         10
     6  O    0.000000
     7  N    2.259722   0.000000
     8  H    3.154918   1.010543   0.000000
     9  C    2.791207   1.452347   2.123803   0.000000
    10  H    2.369642   2.073196   2.969882   1.091608   0.000000
    11  C    3.681453   2.462040   2.881427   1.527323   2.144507
    12  H    4.390525   2.724574   2.748712   2.158864   3.051208
    13  H    4.403829   3.396864   3.852761   2.154873   2.472733
    14  H    3.380466   2.709995   3.242213   2.154102   2.469421
    15  C    4.054372   2.461400   2.694226   1.528151   2.139634
    16  O    5.089852   3.553681   3.724452   2.400031   2.908141
    17  N    4.306481   2.734267   2.759221   2.439502   2.925665
    18  H    3.746606   2.352555   2.392417   2.559761   2.953050
    19  C    5.705746   4.153505   4.026574   3.812069   4.253187
    20  H    6.291477   4.662152   4.550787   4.038184   4.511032
    21  H    6.205929   4.483322   4.121369   4.428839   5.013006
    22  H    5.947904   4.743337   4.757768   4.395863   4.600197
                   11         12         13         14         15
    11  C    0.000000
    12  H    1.091708   0.000000
    13  H    1.090583   1.776046   0.000000
    14  H    1.091177   1.780192   1.780985   0.000000
    15  C    2.480284   2.730803   2.686929   3.433817   0.000000
    16  O    2.733415   2.880010   2.491286   3.794659   1.227902
    17  N    3.667799   3.801250   4.013861   4.524869   1.343154
    18  H    3.956977   4.137093   4.494830   4.636200   2.037812
    19  C    4.883141   4.891350   5.056686   5.832723   2.444994
    20  H    4.840727   4.795720   4.812148   5.876857   2.520436
    21  H    5.448500   5.275696   5.753379   6.375915   3.175632
    22  H    5.604543   5.765405   5.720200   6.500704   3.130880
                   16         17         18         19         20
    16  O    0.000000
    17  N    2.261084   0.000000
    18  H    3.152089   1.009907   0.000000
    19  C    2.791908   1.449794   2.126002   0.000000
    20  H    2.347637   2.076706   2.983159   1.090253   0.000000
    21  H    3.576837   2.089664   2.480697   1.091659   1.781973
    22  H    3.497102   2.094306   2.519029   1.092200   1.779436
                   21         22
    21  H    0.000000
    22  H    1.780493   0.000000
 Stoichiometry    C6H12N2O2
 Framework group  C1[X(C6H12N2O2)]
 Deg. of freedom    60
 Full point group                 C1      NOp   1
 Largest Abelian subgroup         C1      NOp   1
 Largest concise Abelian subgroup C1      NOp   1
                         Standard orientation:                         
 ---------------------------------------------------------------------
 Center     Atomic      Atomic             Coordinates (Angstroms)
 Number     Number       Type             X           Y           Z
 ---------------------------------------------------------------------
      1          1           0        3.927038   -1.421927   -0.046417
      2          6           0        3.042049   -1.185372   -0.637298
      3          1           0        2.527397   -2.108701   -0.910836
      4          1           0        3.345444   -0.665711   -1.548537
      5          6           0        2.098460   -0.282509    0.156027
      6          8           0        2.416413    0.158916    1.256113
      7          7           0        0.919056   -0.001800   -0.428653
      8          1           0        0.708591   -0.382600   -1.340734
      9          6           0       -0.060505    0.875748    0.187531
     10          1           0        0.198436    0.992924    1.241488
     11          6           0       -0.069252    2.252729   -0.473196
     12          1           0       -0.326690    2.156668   -1.529759
     13          1           0       -0.808084    2.889394    0.014815
     14          1           0        0.918385    2.707809   -0.382975
     15          6           0       -1.467583    0.286056    0.100106
     16          8           0       -2.452089    1.017808    0.045086
     17          7           0       -1.549296   -1.054604    0.095809
     18          1           0       -0.702815   -1.601936    0.157535
     19          6           0       -2.820127   -1.749717    0.034923
     20          1           0       -3.618137   -1.015894   -0.080567
     21          1           0       -2.827563   -2.433455   -0.816056
     22          1           0       -2.983151   -2.317146    0.953808
 ---------------------------------------------------------------------
 Rotational constants (GHZ):      2.0334740      0.7977791      0.6411181
 Standard basis: 6-31G(d) (6D, 7F)
 There are   174 symmetry adapted basis functions of A   symmetry.
 Integral buffers will be    131072 words long.
 Raffenetti 2 integral format.
 Two-electron integral symmetry is turned on.
   174 basis functions,   328 primitive gaussians,   174 cartesian basis functions
    39 alpha electrons       39 beta electrons
       nuclear repulsion energy       554.6934553868 Hartrees.
 NAtoms=   22 NActive=   22 NUniq=   22 SFac= 7.50D-01 NAtFMM=   80 NAOKFM=F Big=F
 One-electron integrals computed using PRISM.
 NBasis=   174 RedAO= T  NBF=   174
 NBsUse=   174 1.00D-06 NBFU=   174
 Initial guess read from the read-write file.
 B after Tr=     0.000000    0.000000    0.000000
         Rot=    1.000000    0.000000    0.000000    0.000000 Ang=   0.00 deg.
 Initial guess orbital symmetries:
       Occupied  (A) (A) (A) (A) (A) (A) (A) (A) (A) (A) (A) (A)
                 (A) (A) (A) (A) (A) (A) (A) (A) (A) (A) (A) (A)
                 (A) (A) (A) (A) (A) (A) (A) (A) (A) (A) (A) (A)
                 (A) (A) (A)
       Virtual   (A) (A) (A) (A) (A) (A) (A) (A) (A) (A) (A) (A)
                 (A) (A) (A) (A) (A) (A) (A) (A) (A) (A) (A) (A)
                 (A) (A) (A) (A) (A) (A) (A) (A) (A) (A) (A) (A)
                 (A) (A) (A) (A) (A) (A) (A) (A) (A) (A) (A) (A)
                 (A) (A) (A) (A) (A) (A) (A) (A) (A) (A) (A) (A)
                 (A) (A) (A) (A) (A) (A) (A) (A) (A) (A) (A) (A)
                 (A) (A) (A) (A) (A) (A) (A) (A) (A) (A) (A) (A)
                 (A) (A) (A) (A) (A) (A) (A) (A) (A) (A) (A) (A)
                 (A) (A) (A) (A) (A) (A) (A) (A) (A) (A) (A) (A)
                 (A) (A) (A) (A) (A) (A) (A) (A) (A) (A) (A) (A)
                 (A) (A) (A) (A) (A) (A) (A) (A) (A) (A) (A) (A)
                 (A) (A) (A)
 Harris functional with IExCor=  402 diagonalized for initial guess.
 ExpMin= 1.61D-01 ExpMax= 5.48D+03 ExpMxC= 8.25D+02 IAcc=1 IRadAn=         1 AccDes= 0.00D+00
 HarFok:  IExCor=  402 AccDes= 0.00D+00 IRadAn=         1 IDoV= 1
 ScaDFX=  1.000000  1.000000  1.000000  1.000000
 FoFCou: FMM=F IPFlag=           0 FMFlag=      100000 FMFlg1=           0
         NFxFlg=           0 DoJE=T BraDBF=F KetDBF=T FulRan=T
         Omega=  0.000000  0.000000  1.000000  0.000000  0.000000 ICntrl=     500 IOpCl=  0
         NMat0=    1 NMatS0=    1 NMatT0=    0 NMatD0=    1 NMtDS0=    0 NMtDT0=    0
         I1Cent=           4 NGrid=           0.
 Petite list used in FoFCou.
 Requested convergence on RMS density matrix=1.00D-08 within 128 cycles.
 Requested convergence on MAX density matrix=1.00D-06.
 Requested convergence on             energy=1.00D-06.
 No special actions if energy rises.
 Integral accuracy reduced to 1.0D-05 until final iterations.
 Initial convergence to 1.0D-05 achieved.  Increase integral accuracy.
 SCF Done:  E(RB3LYP) =  -495.845536158     A.U. after   11 cycles
             Convg  =    0.9273D-08             -V/T =  2.0089
 Calling FoFJK, ICntrl=      2127 FMM=F ISym2X=0 I1Cent= 0 IOpClX= 0 NMat=1 NMatS=1 NMatT=0.
 ***** Axes restored to original set *****
 -------------------------------------------------------------------
 Center     Atomic                   Forces (Hartrees/Bohr)
 Number     Number              X              Y              Z
 -------------------------------------------------------------------
      1        1           0.002324219    0.000899572    0.000508346
      2        6           0.004925112    0.005342690   -0.002668197
      3        1          -0.004731379    0.000262644   -0.001086750
      4        1          -0.003571437   -0.001405133   -0.002443764
      5        6          -0.004889045   -0.026513520    0.020261523
      6        8           0.001250704    0.002166490   -0.001042863
      7        7          -0.000035893    0.014449724   -0.002980532
      8        1           0.000347970   -0.001436850   -0.002526688
      9        6           0.004225017    0.002998964   -0.011659372
     10        1          -0.003852457   -0.002751419    0.003337300
     11        6           0.002709489   -0.003541272    0.002024825
     12        1           0.000982353    0.000177771   -0.003325844
     13        1           0.000110555    0.000492399   -0.002016360
     14        1           0.000331315   -0.002167282   -0.000708219
     15        6           0.014271435    0.000686039   -0.005401929
     16        8           0.000736189    0.001205578    0.000640780
     17        7          -0.012787840    0.007041064    0.005406548
     18        1           0.001774359   -0.001155622    0.000399164
     19        6          -0.001712103   -0.000481133    0.001891937
     20        1           0.000587935   -0.002038828   -0.000258210
     21        1          -0.002539210    0.002848110   -0.000498600
     22        1          -0.000457285    0.002920014    0.002146904
 -------------------------------------------------------------------
 Cartesian Forces:  Max     0.026513520 RMS     0.005833419

 GradGradGradGradGradGradGradGradGradGradGradGradGradGradGradGradGradGrad
 Berny optimization.
 Using GEDIIS/GDIIS optimizer.
 Internal  Forces:  Max     0.023959578 RMS     0.004106536
 Search for a local minimum.
 Step number   2 out of a maximum of  132
 All quantities printed in internal units (Hartrees-Bohrs-Radians)
 Mixed Optimization -- RFO/linear search
 Update second derivatives using D2CorX and points    1    2
 DE= -2.98D-03 DEPred=-2.97D-03 R= 1.00D+00
 SS=  1.41D+00  RLast= 3.00D-01 DXNew= 5.0454D-01 9.0000D-01
 Trust test= 1.00D+00 RLast= 3.00D-01 DXMaxT set to 5.05D-01
 Use linear search instead of GDIIS.
 Linear search step of   0.594 exceeds DXMaxT=   0.505 but not scaled.
 Quartic linear search produced a step of  2.00000.
 Iteration  1 RMS(Cart)=  0.10021162 RMS(Int)=  0.00862357
 Iteration  2 RMS(Cart)=  0.00906269 RMS(Int)=  0.00030068
 Iteration  3 RMS(Cart)=  0.00006545 RMS(Int)=  0.00029644
 Iteration  4 RMS(Cart)=  0.00000001 RMS(Int)=  0.00029644
 Iteration  1 RMS(Cart)=  0.00003773 RMS(Int)=  0.00001721
 Iteration  2 RMS(Cart)=  0.00002515 RMS(Int)=  0.00001900
 Iteration  3 RMS(Cart)=  0.00001685 RMS(Int)=  0.00002186
 Iteration  4 RMS(Cart)=  0.00001133 RMS(Int)=  0.00002430
 Iteration  5 RMS(Cart)=  0.00000764 RMS(Int)=  0.00002611
 Iteration  6 RMS(Cart)=  0.00000516 RMS(Int)=  0.00002740
 Iteration  7 RMS(Cart)=  0.00000349 RMS(Int)=  0.00002830
 Iteration  8 RMS(Cart)=  0.00000236 RMS(Int)=  0.00002892
 Iteration  9 RMS(Cart)=  0.00000160 RMS(Int)=  0.00002934
 Iteration 10 RMS(Cart)=  0.00000108 RMS(Int)=  0.00002963
 Iteration 11 RMS(Cart)=  0.00000073 RMS(Int)=  0.00002982
 Variable       Old X    -DE/DX   Delta X   Delta X   Delta X     New X
                                 (Linear)    (Quad)   (Total)
    R1        2.05998  -0.00061   0.00019   0.00000   0.00019   2.06017
    R2        2.06338   0.00333   0.00721   0.00000   0.00721   2.07059
    R3        2.06357   0.00313   0.00738   0.00000   0.00738   2.07095
    R4        2.88756  -0.00055  -0.00727   0.00000  -0.00727   2.88029
    R5        2.31916  -0.00065  -0.00664   0.00000  -0.00664   2.31253
    R6        2.54352   0.02396   0.04123   0.00000   0.04123   2.58475
    R7        1.90965   0.00090   0.00194   0.00000   0.00194   1.91159
    R8        2.74454   0.00678   0.01273   0.00000   0.01273   2.75727
    R9        2.06284   0.00159   0.00619   0.00000   0.00619   2.06903
   R10        2.88622   0.00680   0.00867   0.00000   0.00867   2.89490
   R11        2.88779   0.01099   0.02322   0.00000   0.02322   2.91101
   R12        2.06303   0.00235   0.00662   0.00000   0.00662   2.06965
   R13        2.06090   0.00029   0.00212   0.00000   0.00212   2.06302
   R14        2.06203   0.00219   0.00473   0.00000   0.00473   2.06676
   R15        2.32040   0.00092  -0.00409   0.00000  -0.00409   2.31631
   R16        2.53819   0.01978   0.03065   0.00000   0.03065   2.56884
   R17        1.90845  -0.00026  -0.00008   0.00000  -0.00008   1.90836
   R18        2.73971   0.00410   0.00274   0.00000   0.00274   2.74245
   R19        2.06028  -0.00044   0.00090   0.00000   0.00090   2.06118
   R20        2.06294   0.00308   0.00636   0.00000   0.00636   2.06930
   R21        2.06396   0.00290   0.00836   0.00000   0.00836   2.07232
    A1        1.91234  -0.00029   0.00230   0.00000   0.00255   1.91489
    A2        1.90713  -0.00018  -0.00798   0.00000  -0.00806   1.89907
    A3        1.92637  -0.00532  -0.02525   0.00000  -0.02516   1.90121
    A4        1.90109  -0.00381  -0.01806   0.00000  -0.01850   1.88259
    A5        1.91628   0.00500   0.04038   0.00000   0.04028   1.95657
    A6        1.90036   0.00460   0.00864   0.00000   0.00836   1.90872
    A7        2.11522   0.00581   0.02404   0.00000   0.02397   2.13920
    A8        2.02506  -0.00554  -0.02004   0.00000  -0.02010   2.00496
    A9        2.14288  -0.00027  -0.00405   0.00000  -0.00410   2.13878
   A10        2.08975  -0.00185  -0.00902   0.00000  -0.01013   2.07962
   A11        2.13260   0.00388   0.01009   0.00000   0.00896   2.14156
   A12        2.06025  -0.00208  -0.00222   0.00000  -0.00337   2.05689
   A13        1.89073  -0.00309  -0.04081   0.00000  -0.04073   1.85000
   A14        1.94451  -0.00041   0.01092   0.00000   0.01033   1.95483
   A15        1.94292   0.00030   0.00784   0.00000   0.00705   1.94997
   A16        1.89892   0.00039   0.00565   0.00000   0.00577   1.90469
   A17        1.89133  -0.00156  -0.00949   0.00000  -0.00984   1.88149
   A18        1.89429   0.00430   0.02583   0.00000   0.02545   1.91973
   A19        1.91846   0.00302   0.01462   0.00000   0.01457   1.93303
   A20        1.91412   0.00151   0.00611   0.00000   0.00608   1.92020
   A21        1.91245   0.00022   0.00271   0.00000   0.00266   1.91512
   A22        1.90148  -0.00263  -0.01726   0.00000  -0.01728   1.88419
   A23        1.90726  -0.00155  -0.00594   0.00000  -0.00600   1.90126
   A24        1.90998  -0.00062  -0.00035   0.00000  -0.00038   1.90960
   A25        2.10698   0.00199   0.00772   0.00000   0.00768   2.11465
   A26        2.02792  -0.00219  -0.01423   0.00000  -0.01427   2.01365
   A27        2.14827   0.00019   0.00648   0.00000   0.00644   2.15471
   A28        2.08262  -0.00351  -0.02364   0.00000  -0.02410   2.05853
   A29        2.13179   0.00364   0.00854   0.00000   0.00805   2.13984
   A30        2.06853  -0.00014   0.01460   0.00000   0.01407   2.08260
   A31        1.90005  -0.00439  -0.02218   0.00000  -0.02206   1.87799
   A32        1.91666   0.00351   0.01117   0.00000   0.01102   1.92768
   A33        1.92261   0.00335   0.02314   0.00000   0.02306   1.94566
   A34        1.91135  -0.00007   0.00238   0.00000   0.00244   1.91379
   A35        1.90662  -0.00009  -0.00712   0.00000  -0.00693   1.89969
   A36        1.90648  -0.00233  -0.00747   0.00000  -0.00779   1.89869
    D1        0.09278   0.00005   0.18567   0.00000   0.18589   0.27867
    D2       -3.05663   0.00009   0.16986   0.00000   0.16991  -2.88672
    D3        2.20271  -0.00047   0.19874   0.00000   0.19855   2.40126
    D4       -0.94670  -0.00044   0.18293   0.00000   0.18257  -0.76413
    D5       -2.00057   0.00064   0.20551   0.00000   0.20573  -1.79484
    D6        1.13321   0.00068   0.18970   0.00000   0.18975   1.32296
    D7       -0.00326  -0.00050  -0.00628   0.00000  -0.00620  -0.00946
    D8       -3.10766   0.00099   0.06786   0.00000   0.06753  -3.04013
    D9        3.13038  -0.00043  -0.02236   0.00000  -0.02204   3.10834
   D10        0.02597   0.00106   0.05177   0.00000   0.05170   0.07767
   D11       -0.27840  -0.00088  -0.03305   0.00000  -0.03292  -0.31132
   D12        1.80975  -0.00262  -0.04563   0.00000  -0.04557   1.76419
   D13       -2.35627   0.00281   0.00000   0.00000   0.00000  -2.35627
   D14        2.89978   0.00058   0.03988   0.00000   0.04004   2.93982
   D15       -1.29525  -0.00116   0.02731   0.00000   0.02740  -1.26785
   D16        0.82191   0.00427   0.07293   0.00000   0.07297   0.89488
   D17        1.05842   0.00237   0.02235   0.00000   0.02254   1.08096
   D18       -3.13465   0.00195   0.01394   0.00000   0.01412  -3.12053
   D19       -1.03779   0.00226   0.01895   0.00000   0.01911  -1.01868
   D20       -3.14148  -0.00145  -0.01777   0.00000  -0.01782   3.12389
   D21       -1.05136  -0.00187  -0.02618   0.00000  -0.02625  -1.07761
   D22        1.04550  -0.00156  -0.02118   0.00000  -0.02125   1.02425
   D23       -1.08685  -0.00068  -0.01165   0.00000  -0.01175  -1.09860
   D24        1.00327  -0.00111  -0.02007   0.00000  -0.02018   0.98309
   D25        3.10013  -0.00079  -0.01506   0.00000  -0.01518   3.08495
   D26       -2.62443  -0.00263  -0.01295   0.00000  -0.01302  -2.63745
   D27        0.52362  -0.00166   0.00000   0.00000   0.00000   0.52362
   D28        1.58125   0.00196   0.03867   0.00000   0.03863   1.61988
   D29       -1.55389   0.00294   0.05161   0.00000   0.05166  -1.50223
   D30       -0.47821  -0.00002   0.02292   0.00000   0.02311  -0.45510
   D31        2.66985   0.00096   0.03586   0.00000   0.03613   2.70598
   D32        0.00974  -0.00002   0.01947   0.00000   0.01897   0.02871
   D33        3.12698  -0.00073  -0.02926   0.00000  -0.02884   3.09814
   D34       -3.12522   0.00097   0.03275   0.00000   0.03232  -3.09290
   D35       -0.00799   0.00026  -0.01598   0.00000  -0.01548  -0.02347
   D36        0.07520   0.00036   0.15037   0.00000   0.15062   0.22582
   D37        2.16765  -0.00030   0.14647   0.00000   0.14661   2.31426
   D38       -2.01505   0.00117   0.15866   0.00000   0.15916  -1.85588
   D39       -3.09056  -0.00039   0.10201   0.00000   0.10167  -2.98889
   D40       -0.99812  -0.00105   0.09812   0.00000   0.09766  -0.90045
   D41        1.10238   0.00042   0.11031   0.00000   0.11021   1.21259
         Item               Value     Threshold  Converged?
 Maximum Force            0.023960     0.000450     NO 
 RMS     Force            0.004120     0.000300     NO 
 Maximum Displacement     0.509317     0.001800     NO 
 RMS     Displacement     0.100886     0.001200     NO 
 Predicted change in Energy=-3.286713D-03
 GradGradGradGradGradGradGradGradGradGradGradGradGradGradGradGradGradGrad

                          Input orientation:                          
 ---------------------------------------------------------------------
 Center     Atomic      Atomic             Coordinates (Angstroms)
 Number     Number       Type             X           Y           Z
 ---------------------------------------------------------------------
      1          1           0        1.658587    1.678623    1.505474
      2          6           0        1.880420    2.314881    0.648451
      3          1           0        1.094447    3.069884    0.535333
      4          1           0        1.886876    1.697998   -0.257314
      5          6           0        3.255591    2.943115    0.841763
      6          8           0        4.062830    2.522565    1.659708
      7          7           0        3.529760    3.994518    0.010962
      8          1           0        2.835320    4.281542   -0.666274
      9          6           0        4.836699    4.641475   -0.036830
     10          1           0        5.350963    4.351203    0.885148
     11          6           0        5.663249    4.177286   -1.240201
     12          1           0        5.163031    4.438857   -2.178737
     13          1           0        6.640390    4.664063   -1.232581
     14          1           0        5.797184    3.092591   -1.199768
     15          6           0        4.712948    6.176920   -0.043646
     16          8           0        5.560182    6.879114   -0.583595
     17          7           0        3.626789    6.676664    0.603198
     18          1           0        3.003510    6.023552    1.055736
     19          6           0        3.384214    8.101054    0.738738
     20          1           0        4.062250    8.617341    0.057996
     21          1           0        2.347891    8.339217    0.477220
     22          1           0        3.578569    8.445935    1.761417
 ---------------------------------------------------------------------
                    Distance matrix (angstroms):
                    1          2          3          4          5
     1  H    0.000000
     2  C    1.090195   0.000000
     3  H    1.787466   1.095709   0.000000
     4  H    1.777614   1.095900   1.771525   0.000000
     5  C    2.142400   1.524185   2.186439   2.152131   0.000000
     6  O    2.552726   2.414267   3.221036   3.014906   1.223736
     7  N    3.331400   2.438830   2.657191   2.836379   1.367790
     8  H    3.588368   2.551096   2.437748   2.782354   2.059658
     9  C    4.610596   3.823903   4.098990   4.173023   2.481180
    10  H    4.600123   4.030794   4.458932   4.510500   2.524912
    11  C    5.460711   4.620103   5.025218   4.623195   3.413879
    12  H    5.785624   4.824915   5.078744   4.683735   3.872854
    13  H    6.420916   5.631541   6.035264   5.687230   4.326827
    14  H    5.142532   4.400203   5.012667   4.257185   3.263417
    15  C    5.653633   4.839168   4.804419   5.300290   3.655863
    16  O    6.828746   5.990894   5.975369   6.359529   4.778585
    17  N    5.446865   4.698617   4.407519   5.343677   3.759533
    18  H    4.570503   3.896338   3.555208   4.656328   3.098133
    19  C    6.694273   5.979075   5.531463   6.650809   5.160571
    20  H    7.484557   6.695522   6.309516   7.260095   5.784620
    21  H    6.774656   6.044871   5.416676   6.697601   5.484044
    22  H    7.039059   6.458500   6.047816   7.243739   5.588480
                    6          7          8          9         10
     6  O    0.000000
     7  N    2.273581   0.000000
     8  H    3.164012   1.011571   0.000000
     9  C    2.822569   1.459084   2.128677   0.000000
    10  H    2.367097   2.051391   2.956386   1.094883   0.000000
    11  C    3.702555   2.480038   2.887463   1.531913   2.155197
[...]
    14  H    5.255364   4.350197   4.708555   4.310952   3.264838
    15  C    5.519579   4.888096   4.871484   5.576738   3.669367
    16  O    6.712951   6.032046   5.994941   6.642380   4.790874
    17  N    5.223865   4.783641   4.647245   5.667911   3.770562
    18  H    4.308275   3.976993   3.863747   4.939776   3.095699
    19  C    6.428298   6.083610   5.846139   7.021762   5.168428
    20  H    7.266320   6.816546   6.586563   7.678642   5.800356
    21  H    6.553628   6.228244   5.812728   7.197096   5.550308
    22  H    6.673533   6.487330   6.362456   7.470394   5.536850
                    6          7          8          9         10
     6  O    0.000000
     7  N    2.283764   0.000000
     8  H    3.155127   1.012650   0.000000
     9  C    2.827219   1.463486   2.119783   0.000000
    10  H    2.333832   2.039151   2.945523   1.096055   0.000000
    11  C    3.733162   2.488000   2.769772   1.531095   2.156622
    12  H    4.444603   2.762091   2.629926   2.180810   3.075348
    13  H    4.473818   3.422324   3.765682   2.162185   2.527012
    14  H    3.446287   2.758021   3.104940   2.165116   2.456035
    15  C    4.056107   2.494271   2.857277   1.544119   2.139908
    16  O    5.101829   3.592085   3.854380   2.419381   2.931538
    17  N    4.241490   2.752636   3.041504   2.452087   2.884116
    18  H    3.626893   2.318803   2.666102   2.527677   2.856806
    19  C    5.601046   4.182799   4.357613   3.831510   4.199960
    20  H    6.201383   4.688065   4.834192   4.047449   4.463474
    21  H    6.151185   4.560741   4.524677   4.486656   4.993279
    22  H    5.785561   4.755656   5.088151   4.401768   4.520112
                   11         12         13         14         15
    11  C    0.000000
    12  H    1.096711   0.000000
    13  H    1.091744   1.765449   0.000000
    14  H    1.094192   1.781002   1.784636   0.000000
    15  C    2.535562   2.851058   2.710637   3.482187   0.000000
    16  O    2.810960   3.032162   2.533775   3.858987   1.225741
    17  N    3.732064   3.949372   4.052030   4.578668   1.362289
    18  H    3.962452   4.215965   4.486512   4.632373   2.034935
    19  C    4.982055   5.108715   5.121407   5.912265   2.469558
    20  H    4.941890   5.022165   4.875010   5.959303   2.519278
    21  H    5.598433   5.549003   5.855859   6.523550   3.222514
    22  H    5.671368   5.952536   5.761147   6.531819   3.158301
                   16         17         18         19         20
    16  O    0.000000
    17  N    2.283246   0.000000
    18  H    3.155792   1.010211   0.000000
    19  C    2.835585   1.450724   2.140199   0.000000
    20  H    2.373400   2.059857   2.978473   1.091010   0.000000
    21  H    3.631813   2.109528   2.528119   1.096325   1.783330
    22  H    3.539277   2.113866   2.553405   1.096997   1.780937
                   21         22
    21  H    0.000000
    22  H    1.782422   0.000000
 Stoichiometry    C6H12N2O2
 Framework group  C1[X(C6H12N2O2)]
 Deg. of freedom    60
 Full point group                 C1      NOp   1
 Largest Abelian subgroup         C1      NOp   1
 Largest concise Abelian subgroup C1      NOp   1
                         Standard orientation:                         
 ---------------------------------------------------------------------
 Center     Atomic      Atomic             Coordinates (Angstroms)
 Number     Number       Type             X           Y           Z
 ---------------------------------------------------------------------
      1          1           0        3.563563   -1.869451   -0.151915
      2          6           0        3.136546   -1.027585   -0.702813
      3          1           0        2.731777   -1.386010   -1.654752
      4          1           0        3.951594   -0.325467   -0.910839
      5          6           0        2.105424   -0.338186    0.178394
      6          8           0        2.314269   -0.098582    1.358688
      7          7           0        0.917150   -0.019914   -0.446152
      8          1           0        0.889162   -0.086434   -1.456227
      9          6           0       -0.069114    0.861845    0.179608
     10          1           0        0.186495    0.853531    1.245408
     11          6           0        0.015052    2.296705   -0.347976
     12          1           0       -0.150338    2.329212   -1.431657
     13          1           0       -0.755644    2.911313    0.121267
     14          1           0        1.000733    2.718604   -0.129591
     15          6           0       -1.504600    0.307082    0.053436
     16          8           0       -2.476628    1.053617    0.036418
     17          7           0       -1.593285   -1.051694    0.012269
     18          1           0       -0.729805   -1.574579    0.051247
     19          6           0       -2.861826   -1.755499    0.004290
     20          1           0       -3.650850   -1.006033   -0.073457
     21          1           0       -2.927804   -2.439321   -0.850088
     22          1           0       -3.005968   -2.330555    0.927294
 ---------------------------------------------------------------------
 Rotational constants (GHZ):      2.0086696      0.7779737      0.6327287

 **********************************************************************

            Population analysis using the SCF density.

 **********************************************************************

 Orbital symmetries:
       Occupied  (A) (A) (A) (A) (A) (A) (A) (A) (A) (A) (A) (A)
                 (A) (A) (A) (A) (A) (A) (A) (A) (A) (A) (A) (A)
                 (A) (A) (A) (A) (A) (A) (A) (A) (A) (A) (A) (A)
                 (A) (A) (A)
       Virtual   (A) (A) (A) (A) (A) (A) (A) (A) (A) (A) (A) (A)
                 (A) (A) (A) (A) (A) (A) (A) (A) (A) (A) (A) (A)
                 (A) (A) (A) (A) (A) (A) (A) (A) (A) (A) (A) (A)
                 (A) (A) (A) (A) (A) (A) (A) (A) (A) (A) (A) (A)
                 (A) (A) (A) (A) (A) (A) (A) (A) (A) (A) (A) (A)
                 (A) (A) (A) (A) (A) (A) (A) (A) (A) (A) (A) (A)
                 (A) (A) (A) (A) (A) (A) (A) (A) (A) (A) (A) (A)
                 (A) (A) (A) (A) (A) (A) (A) (A) (A) (A) (A) (A)
                 (A) (A) (A) (A) (A) (A) (A) (A) (A) (A) (A) (A)
                 (A) (A) (A) (A) (A) (A) (A) (A) (A) (A) (A) (A)
                 (A) (A) (A) (A) (A) (A) (A) (A) (A) (A) (A) (A)
                 (A) (A) (A)
 The electronic state is 1-A.
 Alpha  occ. eigenvalues --  -19.11913 -19.10889 -14.37125 -14.36025 -10.29750
 Alpha  occ. eigenvalues --  -10.28328 -10.23424 -10.21803 -10.20153 -10.17969
 Alpha  occ. eigenvalues --   -1.03995  -1.02818  -0.93509  -0.91401  -0.78049
 Alpha  occ. eigenvalues --   -0.73312  -0.71263  -0.64081  -0.59483  -0.57970
 Alpha  occ. eigenvalues --   -0.53685  -0.48641  -0.48261  -0.45827  -0.45390
 Alpha  occ. eigenvalues --   -0.44387  -0.42206  -0.42005  -0.40567  -0.40018
 Alpha  occ. eigenvalues --   -0.38935  -0.38262  -0.36804  -0.36297  -0.35042
 Alpha  occ. eigenvalues --   -0.27613  -0.25812  -0.25177  -0.24044
 Alpha virt. eigenvalues --    0.01740   0.02737   0.06617   0.09727   0.11841
 Alpha virt. eigenvalues --    0.12629   0.12905   0.14562   0.15575   0.16054
 Alpha virt. eigenvalues --    0.16673   0.17396   0.17478   0.18353   0.19522
 Alpha virt. eigenvalues --    0.20891   0.23954   0.24786   0.26744   0.30541
 Alpha virt. eigenvalues --    0.35197   0.37819   0.40432   0.49912   0.51149
 Alpha virt. eigenvalues --    0.52538   0.53332   0.53555   0.54843   0.55011
 Alpha virt. eigenvalues --    0.56484   0.59640   0.62170   0.63187   0.65036
 Alpha virt. eigenvalues --    0.65772   0.68794   0.70409   0.71307   0.74766
 Alpha virt. eigenvalues --    0.75247   0.77092   0.78852   0.81057   0.82847
 Alpha virt. eigenvalues --    0.83262   0.84965   0.86626   0.87918   0.88300
 Alpha virt. eigenvalues --    0.89278   0.89776   0.90348   0.92039   0.93596
 Alpha virt. eigenvalues --    0.94079   0.94529   0.96253   0.97975   0.98970
 Alpha virt. eigenvalues --    1.04865   1.05134   1.07082   1.12613   1.17577
 Alpha virt. eigenvalues --    1.19544   1.23063   1.26545   1.27212   1.33394
 Alpha virt. eigenvalues --    1.34843   1.40854   1.42145   1.44065   1.45535
 Alpha virt. eigenvalues --    1.51232   1.53350   1.62589   1.65514   1.70062
 Alpha virt. eigenvalues --    1.70646   1.75668   1.79024   1.79289   1.80305
 Alpha virt. eigenvalues --    1.81999   1.84144   1.86962   1.87906   1.90567
 Alpha virt. eigenvalues --    1.92173   1.93638   1.97300   1.97385   2.01834
 Alpha virt. eigenvalues --    2.03835   2.04746   2.08343   2.12815   2.15686
 Alpha virt. eigenvalues --    2.19327   2.21705   2.24241   2.27325   2.28022
 Alpha virt. eigenvalues --    2.30570   2.31362   2.35624   2.38215   2.38939
 Alpha virt. eigenvalues --    2.44412   2.47885   2.49495   2.56579   2.61944
 Alpha virt. eigenvalues --    2.66064   2.68472   2.70176   2.73534   2.83774
 Alpha virt. eigenvalues --    2.93624   2.96608   3.01956   3.10929   3.15677
 Alpha virt. eigenvalues --    3.94011   3.99572   4.07094   4.12178   4.15259
 Alpha virt. eigenvalues --    4.22917   4.24998   4.40387   4.49864   4.63316
          Condensed to atoms (all electrons):
              1          2          3          4          5          6
     1  H    0.511025   0.360891  -0.025533  -0.022026  -0.019212   0.001859
     2  C    0.360891   5.323654   0.338450   0.363330   0.343404  -0.080753
     3  H   -0.025533   0.338450   0.580046  -0.025911  -0.024603   0.003154
     4  H   -0.022026   0.363330  -0.025911   0.515774  -0.020445  -0.000173
     5  C   -0.019212   0.343404  -0.024603  -0.020445   4.322877   0.594540
     6  O    0.001859  -0.080753   0.003154  -0.000173   0.594540   8.048596
     7  N    0.002831  -0.117804   0.006423   0.000677   0.248634  -0.097848
     8  H   -0.000002   0.001632   0.001899  -0.000129  -0.016857   0.003239
     9  C   -0.000122   0.006251  -0.000070  -0.000182  -0.018261  -0.002125
    10  H   -0.000007   0.001309  -0.000067  -0.000013  -0.001219   0.022393
    11  C   -0.000004  -0.000331   0.000001   0.000067  -0.000352  -0.000063
    12  H    0.000000  -0.000001   0.000000  -0.000001  -0.000199  -0.000011
    13  H    0.000000   0.000006   0.000000  -0.000001  -0.000077  -0.000021
    14  H    0.000001  -0.000032  -0.000005  -0.000005   0.001997   0.000650
    15  C    0.000006  -0.000137  -0.000001  -0.000003   0.000672   0.000101
    16  O    0.000000   0.000000   0.000000   0.000000  -0.000044  -0.000001
    17  N    0.000003  -0.000019  -0.000002   0.000000   0.000431   0.000042
    18  H   -0.000033   0.000113   0.000027   0.000005   0.001194  -0.000183
    19  C    0.000000   0.000000   0.000000   0.000000   0.000005   0.000000
    20  H    0.000000   0.000000   0.000000   0.000000   0.000000   0.000000
    21  H    0.000000   0.000000   0.000000   0.000000   0.000000   0.000000
    22  H    0.000000   0.000000   0.000000   0.000000   0.000000   0.000000
              7          8          9         10         11         12
     1  H    0.002831  -0.000002  -0.000122  -0.000007  -0.000004   0.000000
     2  C   -0.117804   0.001632   0.006251   0.001309  -0.000331  -0.000001
     3  H    0.006423   0.001899  -0.000070  -0.000067   0.000001   0.000000
     4  H    0.000677  -0.000129  -0.000182  -0.000013   0.000067  -0.000001
     5  C    0.248634  -0.016857  -0.018261  -0.001219  -0.000352  -0.000199
     6  O   -0.097848   0.003239  -0.002125   0.022393  -0.000063  -0.000011
     7  N    7.207033   0.292828   0.200489  -0.048769  -0.057351  -0.003910
     8  H    0.292828   0.418186  -0.033852   0.005374  -0.001293   0.004372
     9  C    0.200489  -0.033852   5.174909   0.366201   0.354069  -0.033468
    10  H   -0.048769   0.005374   0.366201   0.506069  -0.031958   0.004298
    11  C   -0.057351  -0.001293   0.354069  -0.031958   5.102016   0.374495
    12  H   -0.003910   0.004372  -0.033468   0.004298   0.374495   0.575685
    13  H    0.004587  -0.000074  -0.027863  -0.000877   0.367018  -0.024573
    14  H   -0.001638  -0.000115  -0.030947  -0.003961   0.366037  -0.032536
    15  C   -0.033562  -0.000381   0.313986  -0.028852  -0.037363  -0.005143
    16  O    0.001572   0.000002  -0.084780   0.000184   0.001677   0.000961
    17  N   -0.005638   0.001941  -0.124913  -0.000854   0.004328   0.000097
    18  H    0.019118  -0.000378  -0.004533   0.000301   0.000490  -0.000015
    19  C    0.000072  -0.000075   0.006024  -0.000174  -0.000130  -0.000006
    20  H   -0.000071  -0.000002   0.001235  -0.000024  -0.000018  -0.000003
    21  H    0.000009  -0.000018  -0.000024  -0.000005   0.000008  -0.000001
    22  H    0.000001   0.000005  -0.000262   0.000035  -0.000004   0.000000
             13         14         15         16         17         18
     1  H    0.000000   0.000001   0.000006   0.000000   0.000003  -0.000033
     2  C    0.000006  -0.000032  -0.000137   0.000000  -0.000019   0.000113
     3  H    0.000000  -0.000005  -0.000001   0.000000  -0.000002   0.000027
     4  H   -0.000001  -0.000005  -0.000003   0.000000   0.000000   0.000005
     5  C   -0.000077   0.001997   0.000672  -0.000044   0.000431   0.001194
     6  O   -0.000021   0.000650   0.000101  -0.000001   0.000042  -0.000183
     7  N    0.004587  -0.001638  -0.033562   0.001572  -0.005638   0.019118
     8  H   -0.000074  -0.000115  -0.000381   0.000002   0.001941  -0.000378
     9  C   -0.027863  -0.030947   0.313986  -0.084780  -0.124913  -0.004533
    10  H   -0.000877  -0.003961  -0.028852   0.000184  -0.000854   0.000301
    11  C    0.367018   0.366037  -0.037363   0.001677   0.004328   0.000490
    12  H   -0.024573  -0.032536  -0.005143   0.000961   0.000097  -0.000015
    13  H    0.513785  -0.025017  -0.002518   0.009618   0.000342  -0.000052
    14  H   -0.025017   0.567529   0.004782   0.000443  -0.000049  -0.000017
    15  C   -0.002518   0.004782   4.358056   0.587306   0.293243  -0.022986
    16  O    0.009618   0.000443   0.587306   8.084378  -0.094352   0.003351
    17  N    0.000342  -0.000049   0.293243  -0.094352   7.065475   0.299914
    18  H   -0.000052  -0.000017  -0.022986   0.003351   0.299914   0.398663
    19  C   -0.000003   0.000002  -0.026097  -0.008570   0.270733  -0.031819
    20  H   -0.000005   0.000000   0.000037   0.021271  -0.041198   0.003709
    21  H    0.000000   0.000000   0.000885   0.000413  -0.041127  -0.000150
    22  H    0.000000   0.000000   0.001374   0.000521  -0.042306  -0.001228
             19         20         21         22
     1  H    0.000000   0.000000   0.000000   0.000000
     2  C    0.000000   0.000000   0.000000   0.000000
     3  H    0.000000   0.000000   0.000000   0.000000
     4  H    0.000000   0.000000   0.000000   0.000000
     5  C    0.000005   0.000000   0.000000   0.000000
     6  O    0.000000   0.000000   0.000000   0.000000
     7  N    0.000072  -0.000071   0.000009   0.000001
     8  H   -0.000075  -0.000002  -0.000018   0.000005
     9  C    0.006024   0.001235  -0.000024  -0.000262
    10  H   -0.000174  -0.000024  -0.000005   0.000035
    11  C   -0.000130  -0.000018   0.000008  -0.000004
    12  H   -0.000006  -0.000003  -0.000001   0.000000
    13  H   -0.000003  -0.000005   0.000000   0.000000
    14  H    0.000002   0.000000   0.000000   0.000000
    15  C   -0.026097   0.000037   0.000885   0.001374
    16  O   -0.008570   0.021271   0.000413   0.000521
    17  N    0.270733  -0.041198  -0.041127  -0.042306
    18  H   -0.031819   0.003709  -0.000150  -0.001228
    19  C    4.961765   0.375352   0.380377   0.382162
    20  H    0.375352   0.485974  -0.024459  -0.025187
    21  H    0.380377  -0.024459   0.571453  -0.040809
    22  H    0.382162  -0.025187  -0.040809   0.565797
 Mulliken atomic charges:
              1
     1  H    0.190322
     2  C   -0.539963
     3  H    0.146194
     4  H    0.189037
     5  C    0.587517
     6  O   -0.493394
     7  N   -0.617683
     8  H    0.323698
     9  C   -0.061760
    10  H    0.210618
    11  C   -0.441338
    12  H    0.139961
    13  H    0.185725
    14  H    0.152881
    15  C    0.596597
    16  O   -0.523949
    17  N   -0.586091
    18  H    0.334509
    19  C   -0.309618
    20  H    0.203388
    21  H    0.153450
    22  H    0.159901
 Sum of Mulliken atomic charges =   0.00000
 Mulliken charges with hydrogens summed into heavy atoms:
              1
     2  C   -0.014409
     5  C    0.587517
     6  O   -0.493394
     7  N   -0.293985
     9  C    0.148858
    11  C    0.037228
    15  C    0.596597
    16  O   -0.523949
    17  N   -0.251582
    19  C    0.207120
 Sum of Mulliken charges with hydrogens summed into heavy atoms =   0.00000
 Electronic spatial extent (au):  <R**2>=           1872.6575
 Charge=              0.0000 electrons
 Dipole moment (field-independent basis, Debye):
    X=              1.3095    Y=             -2.7390    Z=             -3.1128  Tot=              4.3482
 Quadrupole moment (field-independent basis, Debye-Ang):
   XX=            -65.8564   YY=            -56.7166   ZZ=            -61.2419
   XY=              5.7218   XZ=             -7.5535   YZ=              0.5157
 Traceless Quadrupole moment (field-independent basis, Debye-Ang):
   XX=             -4.5847   YY=              4.5550   ZZ=              0.0297
   XY=              5.7218   XZ=             -7.5535   YZ=              0.5157
 Octapole moment (field-independent basis, Debye-Ang**2):
  XXX=             14.6292  YYY=             -7.3630  ZZZ=             -6.0043  XYY=              2.2228
  XXY=            -25.3316  XXZ=            -16.1824  XZZ=             -8.5875  YZZ=              0.5502
  YYZ=              2.9004  XYZ=              0.6998
 Hexadecapole moment (field-independent basis, Debye-Ang**3):
 XXXX=          -1568.1151 YYYY=           -611.4018 ZZZZ=           -187.2805 XXXY=             40.4906
 XXXZ=            -34.3504 YYYX=              4.4631 YYYZ=              1.8498 ZZZX=             -8.9787
 ZZZY=              1.5962 XXYY=           -358.8211 XXZZ=           -317.8809 YYZZ=           -134.2609
 XXYZ=             -1.1270 YYXZ=              4.2500 ZZXY=             -0.4060
 N-N= 5.504233870798D+02 E-N=-2.256760982418D+03  KE= 4.912333336661D+02
 1\1\GINC-NODE006\FOpt\RB3LYP\6-31G(d)\C6H12N2O2\STEBOSS\10-Feb-2017\0\
 \# b3lyp/6-31G* Opt=(ModRedundant, maxcycles=1000, calcfc) geom=nocrow
 d\\Phi Psi fixed scan\\0,1\H,1.4446762631,2.0741311245,1.5957399502\C,
 1.9167137663,2.2515626678,0.6260647016\H,1.2219220202,2.7976340467,-0.
 0201270014\H,2.1180365431,1.272984544,0.1761731\C,3.2379792065,2.97232
 02317,0.8491690687\O,4.022633397,2.6365110889,1.7241951562\N,3.4761082
 501,4.037708247,0.0056100883\H,2.8700334479,4.1393639529,-0.7992493014
 \C,4.7927230075,4.6706722724,-0.0819930035\H,5.3067897113,4.372646958,
 0.8390129195\C,5.5958024768,4.1792273198,-1.289385422\H,5.0650836119,4
 .3850692048,-2.2267971962\H,6.5555361746,4.697736694,-1.3337127638\H,5
 .7671649787,3.1013582115,-1.2113492578\C,4.6965257563,6.2117368311,-0.
 0690245964\O,5.5458183178,6.9074243083,-0.6141513128\N,3.6376571329,6.
 7149214923,0.6248304053\H,3.0060358508,6.0526123232,1.0525298573\C,3.4
 434746038,8.1366504762,0.8383271422\H,4.2093448047,8.6608206015,0.2647
 486681\H,2.4527411412,8.4552828816,0.4935817285\H,3.5488995376,8.40002
 45221,1.8980070694\\Version=EM64L-G09RevA.02\State=1-A\HF=-495.850049\
 RMSD=4.640e-09\RMSF=2.040e-04\Dipole=-1.6691963,-0.0928553,-0.3628482\
 Quadrupole=2.0191866,-0.8450612,-1.1741254,-1.7157207,0.8303707,7.3897
 015\PG=C01 [X(C6H12N2O2)]\\@


 This summer one third of the nation will be ill-housed
 ill-nourished and ill-clad. Only they call it a vacation.
 -- Jonas Salk
 Job cpu time:  0 days  1 hours 10 minutes 37.2 seconds.
 File lengths (MBytes):  RWF=    186 Int=      0 D2E=      0 Chk=      4 Scr=      2
 Normal termination of Gaussian 09 at Fri Feb 10 22:13:32 2017.
