 Entering Gaussian System, Link 0=g09
 Initial command:
 /home/steboss/Software/g09/l1.exe /home/steboss/projects/phi_psi_scan/alanine/225/4385/Gau-5123.inp -scrdir=/home/steboss/projects/phi_psi_scan/alanine/225/4385/
 Entering Link 1 = /home/steboss/Software/g09/l1.exe PID=      5125.
  
 Copyright (c) 1988,1990,1992,1993,1995,1998,2003,2009, Gaussian, Inc.
                  All Rights Reserved.
  
 This is part of the Gaussian(R) 09 program.  It is based on
 the Gaussian(R) 03 system (copyright 2003, Gaussian, Inc.),
 the Gaussian(R) 98 system (copyright 1998, Gaussian, Inc.),
 the Gaussian(R) 94 system (copyright 1995, Gaussian, Inc.),
 the Gaussian 92(TM) system (copyright 1992, Gaussian, Inc.),
 the Gaussian 90(TM) system (copyright 1990, Gaussian, Inc.),
 the Gaussian 88(TM) system (copyright 1988, Gaussian, Inc.),
 the Gaussian 86(TM) system (copyright 1986, Carnegie Mellon
 University), and the Gaussian 82(TM) system (copyright 1983,
 Carnegie Mellon University). Gaussian is a federally registered
 trademark of Gaussian, Inc.
  
 This software contains proprietary and confidential information,
 including trade secrets, belonging to Gaussian, Inc.
  
 This software is provided under written license and may be
 used, copied, transmitted, or stored only in accord with that
 written license.
  
 The following legend is applicable only to US Government
 contracts under FAR:
  
                    RESTRICTED RIGHTS LEGEND
  
 Use, reproduction and disclosure by the US Government is
 subject to restrictions as set forth in subparagraphs (a)
 and (c) of the Commercial Computer Software - Restricted
 Rights clause in FAR 52.227-19.
  
 Gaussian, Inc.
 340 Quinnipiac St., Bldg. 40, Wallingford CT 06492
  
  
 ---------------------------------------------------------------
 Warning -- This program may not be used in any manner that
 competes with the business of Gaussian, Inc. or will provide
 assistance to any competitor of Gaussian, Inc.  The licensee
 of this program is prohibited from giving any competitor of
 Gaussian, Inc. access to this program.  By using this program,
 the user acknowledges that Gaussian, Inc. is engaged in the
 business of creating and licensing software in the field of
 computational chemistry and represents and warrants to the
 licensee that it is not a competitor of Gaussian, Inc. and that
 it will not use this program in any manner prohibited above.
 ---------------------------------------------------------------
  

 Cite this work as:
 Gaussian 09, Revision A.02,
 M. J. Frisch, G. W. Trucks, H. B. Schlegel, G. E. Scuseria, 
 M. A. Robb, J. R. Cheeseman, G. Scalmani, V. Barone, B. Mennucci, 
 G. A. Petersson, H. Nakatsuji, M. Caricato, X. Li, H. P. Hratchian, 
 A. F. Izmaylov, J. Bloino, G. Zheng, J. L. Sonnenberg, M. Hada, 
 M. Ehara, K. Toyota, R. Fukuda, J. Hasegawa, M. Ishida, T. Nakajima, 
 Y. Honda, O. Kitao, H. Nakai, T. Vreven, J. A. Montgomery, Jr., 
 J. E. Peralta, F. Ogliaro, M. Bearpark, J. J. Heyd, E. Brothers, 
 K. N. Kudin, V. N. Staroverov, R. Kobayashi, J. Normand, 
 K. Raghavachari, A. Rendell, J. C. Burant, S. S. Iyengar, J. Tomasi, 
 M. Cossi, N. Rega, J. M. Millam, M. Klene, J. E. Knox, J. B. Cross, 
 V. Bakken, C. Adamo, J. Jaramillo, R. Gomperts, R. E. Stratmann, 
 O. Yazyev, A. J. Austin, R. Cammi, C. Pomelli, J. W. Ochterski, 
 R. L. Martin, K. Morokuma, V. G. Zakrzewski, G. A. Voth, 
 P. Salvador, J. J. Dannenberg, S. Dapprich, A. D. Daniels, 
 O. Farkas, J. B. Foresman, J. V. Ortiz, J. Cioslowski, 
 and D. J. Fox, Gaussian, Inc., Wallingford CT, 2009.
 
 ******************************************
 Gaussian 09:  EM64L-G09RevA.02 11-Jun-2009
                10-Feb-2017 
 ******************************************
 %chk=structure_330.chk
 %NProcShared=8
 Will use up to    8 processors via shared memory.
 ----------------------------------------------------------------------
 # b3lyp/6-31G* Opt=(ModRedundant, maxcycles=1000, calcfc) geom=nocrowd
 ----------------------------------------------------------------------
 1/6=1000,10=4,14=-1,18=120,19=15,26=3,38=1/1,3;
 2/9=110,12=1,17=6,18=5,40=1/2;
 3/5=1,6=6,7=1,11=2,16=1,25=1,30=1,71=2,74=-5/1,2,3;
 4//1;
 5/5=2,38=5/2;
 8/6=4,10=90,11=11/1;
 11/6=1,8=1,9=11,15=111,16=1/1,2,10;
 10/6=1,7=6,13=1/2;
 6/7=2,8=2,9=2,10=2,28=1/1;
 7/10=1,18=20,25=1/1,2,3,16;
 1/6=1000,10=4,14=-1,18=20,19=15/3(2);
 2/9=110,12=1/2;
 99//99;
 2/9=110,12=1/2;
 3/5=1,6=6,7=1,11=2,16=1,25=1,30=1,71=1,74=-5/1,2,3;
 4/5=5,16=3/1;
 5/5=2,38=5/2;
 7//1,2,3,16;
 1/6=1000,14=-1,18=20,19=15/3(-5);
 2/9=110,12=1/2;
 6/7=2,8=2,9=2,10=2,19=2,28=1/1;
 99/9=1/99;
 ------------------
 Phi Psi fixed scan
 ------------------
 Symbolic Z-matrix:
 Charge =  0 Multiplicity = 1
 H                     1.7437    1.5164    1.3919 
 C                     1.8708    2.3503    0.7015 
 H                     1.1495    3.1323    0.9387 
 H                     1.709     2.0051   -0.3197 
 C                     3.2798    2.9381    0.8014 
 O                     4.0982    2.4665    1.5877 
 N                     3.5554    3.9697    0. 
 H                     2.8491    4.3224   -0.63 
 C                     4.8533    4.6139    0. 
 H                     5.4076    4.3155    0.8898 
 C                     5.6613    4.2208   -1.2322 
 H                     5.1233    4.5214   -2.1312 
 H                     6.6305    4.7189   -1.2058 
 H                     5.8085    3.1409   -1.2414 
 C                     4.7127    6.1294    0. 
 O                     5.5682    6.8352    0.5295 
 N                     3.6281    6.6291   -0.5968 
 H                     2.9524    6.0081   -1.0184 
 C                     3.3794    8.0551   -0.6638 
 H                     4.1904    8.5895   -0.169 
 H                     3.3232    8.366    -1.7069 
 H                     2.4372    8.2838   -0.1657 
 
 The following ModRedundant input section has been read:
 D    5    7    9   15 F                                                       
 D    7    9   15   17 F                                                       

 GradGradGradGradGradGradGradGradGradGradGradGradGradGradGradGradGradGrad
 Berny optimization.
 Initialization pass.
                           ----------------------------
                           !    Initial Parameters    !
                           ! (Angstroms and Degrees)  !
 --------------------------                            --------------------------
 ! Name  Definition              Value          Derivative Info.                !
 --------------------------------------------------------------------------------
 ! R1    R(1,2)                  1.09           calculate D2E/DX2 analytically  !
 ! R2    R(2,3)                  1.09           calculate D2E/DX2 analytically  !
 ! R3    R(2,4)                  1.09           calculate D2E/DX2 analytically  !
 ! R4    R(2,5)                  1.53           calculate D2E/DX2 analytically  !
 ! R5    R(5,6)                  1.229          calculate D2E/DX2 analytically  !
 ! R6    R(5,7)                  1.3351         calculate D2E/DX2 analytically  !
 ! R7    R(7,8)                  1.01           calculate D2E/DX2 analytically  !
 ! R8    R(7,9)                  1.449          calculate D2E/DX2 analytically  !
 ! R9    R(9,10)                 1.09           calculate D2E/DX2 analytically  !
 ! R10   R(9,11)                 1.525          calculate D2E/DX2 analytically  !
 ! R11   R(9,15)                 1.522          calculate D2E/DX2 analytically  !
 ! R12   R(11,12)                1.09           calculate D2E/DX2 analytically  !
 ! R13   R(11,13)                1.09           calculate D2E/DX2 analytically  !
 ! R14   R(11,14)                1.0899         calculate D2E/DX2 analytically  !
 ! R15   R(15,16)                1.229          calculate D2E/DX2 analytically  !
 ! R16   R(15,17)                1.335          calculate D2E/DX2 analytically  !
 ! R17   R(17,18)                1.0099         calculate D2E/DX2 analytically  !
 ! R18   R(17,19)                1.4491         calculate D2E/DX2 analytically  !
 ! R19   R(19,20)                1.09           calculate D2E/DX2 analytically  !
 ! R20   R(19,21)                1.0899         calculate D2E/DX2 analytically  !
 ! R21   R(19,22)                1.09           calculate D2E/DX2 analytically  !
 ! A1    A(1,2,3)              109.5033         calculate D2E/DX2 analytically  !
 ! A2    A(1,2,4)              109.4991         calculate D2E/DX2 analytically  !
 ! A3    A(1,2,5)              111.0965         calculate D2E/DX2 analytically  !
 ! A4    A(3,2,4)              109.4419         calculate D2E/DX2 analytically  !
 ! A5    A(3,2,5)              108.6381         calculate D2E/DX2 analytically  !
 ! A6    A(4,2,5)              108.6351         calculate D2E/DX2 analytically  !
 ! A7    A(2,5,6)              120.5047         calculate D2E/DX2 analytically  !
 ! A8    A(2,5,7)              116.6015         calculate D2E/DX2 analytically  !
 ! A9    A(6,5,7)              122.8938         calculate D2E/DX2 analytically  !
 ! A10   A(5,7,8)              119.9924         calculate D2E/DX2 analytically  !
 ! A11   A(5,7,9)              121.9002         calculate D2E/DX2 analytically  !
 ! A12   A(8,7,9)              118.1074         calculate D2E/DX2 analytically  !
 ! A13   A(7,9,10)             109.5            calculate D2E/DX2 analytically  !
 ! A14   A(7,9,11)             111.0992         calculate D2E/DX2 analytically  !
 ! A15   A(7,9,15)             111.0966         calculate D2E/DX2 analytically  !
 ! A16   A(10,9,11)            108.6382         calculate D2E/DX2 analytically  !
 ! A17   A(10,9,15)            108.6373         calculate D2E/DX2 analytically  !
 ! A18   A(11,9,15)            107.7947         calculate D2E/DX2 analytically  !
 ! A19   A(9,11,12)            109.5007         calculate D2E/DX2 analytically  !
 ! A20   A(9,11,13)            109.4959         calculate D2E/DX2 analytically  !
 ! A21   A(9,11,14)            109.4978         calculate D2E/DX2 analytically  !
 ! A22   A(12,11,13)           109.441          calculate D2E/DX2 analytically  !
 ! A23   A(12,11,14)           109.4482         calculate D2E/DX2 analytically  !
 ! A24   A(13,11,14)           109.4436         calculate D2E/DX2 analytically  !
 ! A25   A(9,15,16)            120.4998         calculate D2E/DX2 analytically  !
 ! A26   A(9,15,17)            116.5999         calculate D2E/DX2 analytically  !
 ! A27   A(16,15,17)           122.9004         calculate D2E/DX2 analytically  !
 ! A28   A(15,17,18)           120.0016         calculate D2E/DX2 analytically  !
 ! A29   A(15,17,19)           121.9009         calculate D2E/DX2 analytically  !
 ! A30   A(18,17,19)           118.0975         calculate D2E/DX2 analytically  !
 ! A31   A(17,19,20)           109.4983         calculate D2E/DX2 analytically  !
 ! A32   A(17,19,21)           109.5005         calculate D2E/DX2 analytically  !
 ! A33   A(17,19,22)           109.4932         calculate D2E/DX2 analytically  !
 ! A34   A(20,19,21)           109.4486         calculate D2E/DX2 analytically  !
 ! A35   A(20,19,22)           109.4406         calculate D2E/DX2 analytically  !
 ! A36   A(21,19,22)           109.4461         calculate D2E/DX2 analytically  !
 ! D1    D(1,2,5,6)             -0.0029         calculate D2E/DX2 analytically  !
 ! D2    D(1,2,5,7)           -179.998          calculate D2E/DX2 analytically  !
 ! D3    D(3,2,5,6)            120.5126         calculate D2E/DX2 analytically  !
 ! D4    D(3,2,5,7)            -59.4825         calculate D2E/DX2 analytically  !
 ! D5    D(4,2,5,6)           -120.5113         calculate D2E/DX2 analytically  !
 ! D6    D(4,2,5,7)             59.4936         calculate D2E/DX2 analytically  !
 ! D7    D(2,5,7,8)             -0.0069         calculate D2E/DX2 analytically  !
 ! D8    D(2,5,7,9)           -180.0            calculate D2E/DX2 analytically  !
 ! D9    D(6,5,7,8)            179.9982         calculate D2E/DX2 analytically  !
 ! D10   D(6,5,7,9)              0.0051         calculate D2E/DX2 analytically  !
 ! D11   D(5,7,9,10)           -15.0041         calculate D2E/DX2 analytically  !
 ! D12   D(5,7,9,11)           104.9985         calculate D2E/DX2 analytically  !
 ! D13   D(5,7,9,15)          -135.004          frozen, calculate D2E/DX2 analyt!
 ! D14   D(8,7,9,10)           165.0026         calculate D2E/DX2 analytically  !
 ! D15   D(8,7,9,11)           -74.9948         calculate D2E/DX2 analytically  !
 ! D16   D(8,7,9,15)            45.0028         calculate D2E/DX2 analytically  !
 ! D17   D(7,9,11,12)           60.0024         calculate D2E/DX2 analytically  !
 ! D18   D(7,9,11,13)          179.9986         calculate D2E/DX2 analytically  !
 ! D19   D(7,9,11,14)          -60.0038         calculate D2E/DX2 analytically  !
 ! D20   D(10,9,11,12)        -179.4843         calculate D2E/DX2 analytically  !
 ! D21   D(10,9,11,13)         -59.4881         calculate D2E/DX2 analytically  !
 ! D22   D(10,9,11,14)          60.5095         calculate D2E/DX2 analytically  !
 ! D23   D(15,9,11,12)         -61.938          calculate D2E/DX2 analytically  !
 ! D24   D(15,9,11,13)          58.0582         calculate D2E/DX2 analytically  !
 ! D25   D(15,9,11,14)         178.0558         calculate D2E/DX2 analytically  !
 ! D26   D(7,9,15,16)          149.9979         calculate D2E/DX2 analytically  !
 ! D27   D(7,9,15,17)          -29.9973         frozen, calculate D2E/DX2 analyt!
 ! D28   D(10,9,15,16)          29.4868         calculate D2E/DX2 analytically  !
 ! D29   D(10,9,15,17)        -150.5084         calculate D2E/DX2 analytically  !
 ! D30   D(11,9,15,16)         -88.0601         calculate D2E/DX2 analytically  !
 ! D31   D(11,9,15,17)          91.9447         calculate D2E/DX2 analytically  !
 ! D32   D(9,15,17,18)          -0.0044         calculate D2E/DX2 analytically  !
 ! D33   D(9,15,17,19)        -179.9964         calculate D2E/DX2 analytically  !
 ! D34   D(16,15,17,18)       -179.9995         calculate D2E/DX2 analytically  !
 ! D35   D(16,15,17,19)          0.0086         calculate D2E/DX2 analytically  !
 ! D36   D(15,17,19,20)         -0.0089         calculate D2E/DX2 analytically  !
 ! D37   D(15,17,19,21)        119.9979         calculate D2E/DX2 analytically  !
 ! D38   D(15,17,19,22)       -120.0014         calculate D2E/DX2 analytically  !
 ! D39   D(18,17,19,20)        179.9989         calculate D2E/DX2 analytically  !
 ! D40   D(18,17,19,21)        -59.9942         calculate D2E/DX2 analytically  !
 ! D41   D(18,17,19,22)         60.0065         calculate D2E/DX2 analytically  !
 --------------------------------------------------------------------------------
 Trust Radius=3.00D-01 FncErr=1.00D-07 GrdErr=1.00D-06
 Number of steps in this run= 132 maximum allowed number of steps= 132.
 GradGradGradGradGradGradGradGradGradGradGradGradGradGradGradGradGradGrad

                          Input orientation:                          
 ---------------------------------------------------------------------
 Center     Atomic      Atomic             Coordinates (Angstroms)
 Number     Number       Type             X           Y           Z
 ---------------------------------------------------------------------
      1          1           0        1.743700    1.516400    1.391900
      2          6           0        1.870800    2.350300    0.701500
      3          1           0        1.149500    3.132300    0.938700
      4          1           0        1.709000    2.005100   -0.319700
      5          6           0        3.279800    2.938100    0.801400
      6          8           0        4.098200    2.466500    1.587700
      7          7           0        3.555400    3.969700    0.000000
      8          1           0        2.849100    4.322400   -0.630000
      9          6           0        4.853300    4.613900    0.000000
     10          1           0        5.407600    4.315500    0.889800
     11          6           0        5.661300    4.220800   -1.232200
     12          1           0        5.123300    4.521400   -2.131200
     13          1           0        6.630500    4.718900   -1.205800
     14          1           0        5.808500    3.140900   -1.241400
     15          6           0        4.712700    6.129400    0.000000
     16          8           0        5.568200    6.835200    0.529500
     17          7           0        3.628100    6.629100   -0.596800
     18          1           0        2.952400    6.008100   -1.018400
     19          6           0        3.379400    8.055100   -0.663800
     20          1           0        4.190400    8.589500   -0.169000
     21          1           0        3.323200    8.366000   -1.706900
     22          1           0        2.437200    8.283800   -0.165700
 ---------------------------------------------------------------------
                    Distance matrix (angstroms):
                    1          2          3          4          5
     1  H    0.000000
     2  C    1.090044   0.000000
     3  H    1.780336   1.089982   0.000000
     4  H    1.780339   1.090042   1.779660   0.000000
     5  C    2.174747   1.529957   2.143535   2.143541   0.000000
     6  O    2.546507   2.400034   3.091815   3.091818   1.229005
     7  N    3.352361   2.439761   2.714913   2.714969   1.335064
     8  H    3.630926   2.572769   2.601115   2.601152   2.037325
     9  C    4.604509   3.809369   4.098101   4.098130   2.434430
    10  H    4.638020   4.050484   4.419702   4.525536   2.536253
    11  C    5.435740   4.648210   5.123864   4.621976   3.384138
    12  H    5.732709   4.828729   5.210084   4.612022   3.808605
    13  H    6.394127   5.648257   6.095699   5.689556   4.292702
    14  H    5.108412   4.461546   5.143850   4.352640   3.257067
    15  C    5.659692   4.780177   4.749754   5.112169   3.588849
    16  O    6.607584   5.815039   5.779604   6.240547   4.527482
    17  N    5.800482   4.804354   4.552892   5.014091   3.962292
    18  H    5.238881   4.184186   3.918024   4.249498   3.583820
    19  C    7.046702   6.056786   5.636880   6.285789   5.323572
    20  H    7.645358   6.713116   6.344691   7.038066   5.805962
    21  H    7.682083   6.640670   6.254261   6.707534   5.979595
    22  H    6.978880   6.023227   5.423636   6.322663   5.497433
                    6          7          8          9         10
     6  O    0.000000
     7  N    2.252783   0.000000
     8  H    3.150049   1.010028   0.000000
     9  C    2.775301   1.448978   2.121012   0.000000
    10  H    2.370737   2.083739   2.975863   1.089970   0.000000
    11  C    3.670516   2.452791   2.877748   1.525027   2.139209
    12  H    4.370774   2.702720   2.732250   2.150225   3.041326
    13  H    4.391980   3.386959   3.845484   2.150214   2.459625
    14  H    3.373981   2.702673   3.244657   2.150165   2.466256
    15  C    4.039213   2.450234   2.671171   1.522008   2.136554
    16  O    4.729295   3.541585   3.879705   2.392828   2.550391
    17  N    4.724434   2.726511   2.434914   2.432759   3.275568
    18  H    4.543957   2.357079   1.732948   2.567947   3.540357
    19  C    6.067815   4.142716   3.770333   3.801956   4.529004
    20  H    6.370685   4.666298   4.496638   4.034029   4.568338
    21  H    6.801405   4.721745   4.211316   4.396927   5.243484
    22  H    6.298755   4.459741   4.009729   4.396949   5.068014
                   11         12         13         14         15
    11  C    0.000000
    12  H    1.089957   0.000000
    13  H    1.090023   1.779613   0.000000
    14  H    1.089925   1.779613   1.779617   0.000000
    15  C    2.461892   2.701161   2.668599   3.416575   0.000000
    16  O    3.153941   3.554002   2.935724   4.103862   1.228985
    17  N    3.215205   3.005396   3.610284   4.163795   1.335001
    18  H    3.252428   2.856818   3.901996   4.053131   2.037280
    19  C    4.498000   4.204936   4.689738   5.512124   2.434469
    20  H    4.730696   4.611938   4.691544   5.784076   2.520605
    21  H    4.782754   4.266303   4.948805   5.804746   3.137929
    22  H    5.295301   5.023343   5.601257   6.242773   3.137961
                   16         17         18         19         20
    16  O    0.000000
    17  N    2.252780   0.000000
    18  H    3.150000   1.009930   0.000000
    19  C    2.775422   1.449074   2.120915   0.000000
    20  H    2.337478   2.083834   2.986260   1.090014   0.000000
    21  H    3.519213   2.083772   2.484193   1.089897   1.779642
    22  H    3.519220   2.083776   2.484218   1.090022   1.779655
                   21         22
    21  H    0.000000
    22  H    1.779621   0.000000
 Stoichiometry    C6H12N2O2
 Framework group  C1[X(C6H12N2O2)]
 Deg. of freedom    60
 Full point group                 C1      NOp   1
 Largest Abelian subgroup         C1      NOp   1
 Largest concise Abelian subgroup C1      NOp   1
                         Standard orientation:                         
 ---------------------------------------------------------------------
 Center     Atomic      Atomic             Coordinates (Angstroms)
 Number     Number       Type             X           Y           Z
 ---------------------------------------------------------------------
      1          1           0       -4.012617   -1.339545   -0.277766
      2          6           0       -3.029261   -1.413656    0.186684
      3          1           0       -2.540412   -2.331218   -0.140682
      4          1           0       -3.139197   -1.428113    1.271072
      5          6           0       -2.146862   -0.224939   -0.199442
      6          8           0       -2.575305    0.654313   -0.943623
      7          7           0       -0.913409   -0.205294    0.311052
      8          1           0       -0.606489   -0.951499    0.918618
      9          6           0        0.018329    0.865831    0.021062
     10          1           0       -0.341006    1.439266   -0.833388
     11          6           0        0.162326    1.805964    1.213171
     12          1           0        0.530144    1.248011    2.074219
     13          1           0        0.867469    2.599956    0.967206
     14          1           0       -0.807435    2.242845    1.451152
     15          6           0        1.399225    0.316710   -0.307722
     16          8           0        2.144595    0.921699   -1.075066
     17          7           0        1.739238   -0.834670    0.276182
     18          1           0        1.091972   -1.294996    0.899965
     19          6           0        3.025678   -1.460146    0.044520
     20          1           0        3.608158   -0.849504   -0.645382
     21          1           0        3.561284   -1.551375    0.989337
     22          1           0        2.876395   -2.450740   -0.385115
 ---------------------------------------------------------------------
 Rotational constants (GHZ):      2.1552625      0.7536407      0.6562997
 Standard basis: 6-31G(d) (6D, 7F)
 There are   174 symmetry adapted basis functions of A   symmetry.
 Integral buffers will be    131072 words long.
 Raffenetti 2 integral format.
 Two-electron integral symmetry is turned on.
   174 basis functions,   328 primitive gaussians,   174 cartesian basis functions
    39 alpha electrons       39 beta electrons
       nuclear repulsion energy       555.1649698881 Hartrees.
 NAtoms=   22 NActive=   22 NUniq=   22 SFac= 7.50D-01 NAtFMM=   80 NAOKFM=F Big=F
 One-electron integrals computed using PRISM.
 NBasis=   174 RedAO= T  NBF=   174
 NBsUse=   174 1.00D-06 NBFU=   174
 Harris functional with IExCor=  402 diagonalized for initial guess.
 ExpMin= 1.61D-01 ExpMax= 5.48D+03 ExpMxC= 8.25D+02 IAcc=1 IRadAn=         1 AccDes= 0.00D+00
 HarFok:  IExCor=  402 AccDes= 0.00D+00 IRadAn=         1 IDoV= 1
 ScaDFX=  1.000000  1.000000  1.000000  1.000000
 FoFCou: FMM=F IPFlag=           0 FMFlag=      100000 FMFlg1=           0
         NFxFlg=           0 DoJE=T BraDBF=F KetDBF=T FulRan=T
         Omega=  0.000000  0.000000  1.000000  0.000000  0.000000 ICntrl=     500 IOpCl=  0
         NMat0=    1 NMatS0=    1 NMatT0=    0 NMatD0=    1 NMtDS0=    0 NMtDT0=    0
         I1Cent=           4 NGrid=           0.
 Petite list used in FoFCou.
 Initial guess orbital symmetries:
       Occupied  (A) (A) (A) (A) (A) (A) (A) (A) (A) (A) (A) (A)
                 (A) (A) (A) (A) (A) (A) (A) (A) (A) (A) (A) (A)
                 (A) (A) (A) (A) (A) (A) (A) (A) (A) (A) (A) (A)
                 (A) (A) (A)
       Virtual   (A) (A) (A) (A) (A) (A) (A) (A) (A) (A) (A) (A)
                 (A) (A) (A) (A) (A) (A) (A) (A) (A) (A) (A) (A)
                 (A) (A) (A) (A) (A) (A) (A) (A) (A) (A) (A) (A)
                 (A) (A) (A) (A) (A) (A) (A) (A) (A) (A) (A) (A)
                 (A) (A) (A) (A) (A) (A) (A) (A) (A) (A) (A) (A)
                 (A) (A) (A) (A) (A) (A) (A) (A) (A) (A) (A) (A)
                 (A) (A) (A) (A) (A) (A) (A) (A) (A) (A) (A) (A)
                 (A) (A) (A) (A) (A) (A) (A) (A) (A) (A) (A) (A)
                 (A) (A) (A) (A) (A) (A) (A) (A) (A) (A) (A) (A)
                 (A) (A) (A) (A) (A) (A) (A) (A) (A) (A) (A) (A)
                 (A) (A) (A) (A) (A) (A) (A) (A) (A) (A) (A) (A)
                 (A) (A) (A)
 The electronic state of the initial guess is 1-A.
 Requested convergence on RMS density matrix=1.00D-08 within 128 cycles.
 Requested convergence on MAX density matrix=1.00D-06.
 Requested convergence on             energy=1.00D-06.
 No special actions if energy rises.
 Integral accuracy reduced to 1.0D-05 until final iterations.
 Initial convergence to 1.0D-05 achieved.  Increase integral accuracy.
 SCF Done:  E(RB3LYP) =  -495.832149316     A.U. after   15 cycles
             Convg  =    0.9620D-08             -V/T =  2.0087
 Range of M.O.s used for correlation:     1   174
 NBasis=   174 NAE=    39 NBE=    39 NFC=     0 NFV=     0
 NROrb=    174 NOA=    39 NOB=    39 NVA=   135 NVB=   135
 Symmetrizing basis deriv contribution to polar:
 IMax=3 JMax=2 DiffMx= 0.00D+00
 G2DrvN: will do    23 centers at a time, making    1 passes doing MaxLOS=2.
 Calling FoFCou, ICntrl=  3107 FMM=F I1Cent=   0 AccDes= 0.00D+00.
 FoFDir/FoFCou used for L=0 through L=2.
 End of G2Drv Frequency-dependent properties file   721 does not exist.
 End of G2Drv Frequency-dependent properties file   722 does not exist.
          IDoAtm=1111111111111111111111
          Differentiating once with respect to nuclear coordinates.
          There are    69 degrees of freedom in the 1st order CPHF.  IDoFFX=5.
     63 vectors produced by pass  0 Test12= 7.63D-11 1.45D-07 XBig12= 1.50D-01 9.27D-02.
 AX will form    63 AO Fock derivatives at one time.
     63 vectors produced by pass  1 Test12= 7.63D-11 1.45D-07 XBig12= 3.35D-02 5.34D-02.
     63 vectors produced by pass  2 Test12= 7.63D-11 1.45D-07 XBig12= 5.55D-05 2.10D-03.
     63 vectors produced by pass  3 Test12= 7.63D-11 1.45D-07 XBig12= 1.12D-07 6.00D-05.
     29 vectors produced by pass  4 Test12= 7.63D-11 1.45D-07 XBig12= 9.97D-11 1.37D-06.
 Inverted reduced A of dimension   281 with in-core refinement.
 End of Minotr Frequency-dependent properties file   721 does not exist.
 End of Minotr Frequency-dependent properties file   722 does not exist.

 **********************************************************************

            Population analysis using the SCF density.

 **********************************************************************

 Orbital symmetries:
       Occupied  (A) (A) (A) (A) (A) (A) (A) (A) (A) (A) (A) (A)
                 (A) (A) (A) (A) (A) (A) (A) (A) (A) (A) (A) (A)
                 (A) (A) (A) (A) (A) (A) (A) (A) (A) (A) (A) (A)
                 (A) (A) (A)
       Virtual   (A) (A) (A) (A) (A) (A) (A) (A) (A) (A) (A) (A)
                 (A) (A) (A) (A) (A) (A) (A) (A) (A) (A) (A) (A)
                 (A) (A) (A) (A) (A) (A) (A) (A) (A) (A) (A) (A)
                 (A) (A) (A) (A) (A) (A) (A) (A) (A) (A) (A) (A)
                 (A) (A) (A) (A) (A) (A) (A) (A) (A) (A) (A) (A)
                 (A) (A) (A) (A) (A) (A) (A) (A) (A) (A) (A) (A)
                 (A) (A) (A) (A) (A) (A) (A) (A) (A) (A) (A) (A)
                 (A) (A) (A) (A) (A) (A) (A) (A) (A) (A) (A) (A)
                 (A) (A) (A) (A) (A) (A) (A) (A) (A) (A) (A) (A)
                 (A) (A) (A) (A) (A) (A) (A) (A) (A) (A) (A) (A)
                 (A) (A) (A) (A) (A) (A) (A) (A) (A) (A) (A) (A)
                 (A) (A) (A)
 The electronic state is 1-A.
 Alpha  occ. eigenvalues --  -19.10730 -19.10527 -14.37501 -14.37125 -10.28700
 Alpha  occ. eigenvalues --  -10.28441 -10.23229 -10.22515 -10.19409 -10.18599
 Alpha  occ. eigenvalues --   -1.03770  -1.02832  -0.94531  -0.92589  -0.79065
 Alpha  occ. eigenvalues --   -0.73283  -0.72245  -0.64931  -0.61531  -0.59368
 Alpha  occ. eigenvalues --   -0.54805  -0.49024  -0.47411  -0.46753  -0.45669
 Alpha  occ. eigenvalues --   -0.44902  -0.43051  -0.42097  -0.41358  -0.40002
 Alpha  occ. eigenvalues --   -0.39507  -0.38122  -0.37027  -0.36733  -0.34910
 Alpha  occ. eigenvalues --   -0.27323  -0.25902  -0.24463  -0.23655
 Alpha virt. eigenvalues --    0.02405   0.02696   0.03558   0.10187   0.11612
 Alpha virt. eigenvalues --    0.11832   0.14485   0.14898   0.15619   0.16072
 Alpha virt. eigenvalues --    0.16354   0.16742   0.17765   0.18392   0.19837
 Alpha virt. eigenvalues --    0.20705   0.22837   0.25350   0.27963   0.31750
 Alpha virt. eigenvalues --    0.35532   0.38941   0.43574   0.48875   0.50688
 Alpha virt. eigenvalues --    0.52107   0.52605   0.53448   0.54301   0.55250
 Alpha virt. eigenvalues --    0.57092   0.58933   0.61246   0.62374   0.65114
 Alpha virt. eigenvalues --    0.66559   0.68310   0.69251   0.72433   0.74057
 Alpha virt. eigenvalues --    0.74669   0.76598   0.77603   0.79838   0.84355
 Alpha virt. eigenvalues --    0.84919   0.85746   0.86605   0.87475   0.87578
 Alpha virt. eigenvalues --    0.89420   0.90030   0.90698   0.91905   0.93125
 Alpha virt. eigenvalues --    0.94301   0.95138   0.96702   0.97597   1.01074
 Alpha virt. eigenvalues --    1.05446   1.07340   1.07930   1.09041   1.12320
 Alpha virt. eigenvalues --    1.16868   1.22618   1.30944   1.32463   1.35205
 Alpha virt. eigenvalues --    1.37605   1.39847   1.42725   1.45942   1.50472
 Alpha virt. eigenvalues --    1.52138   1.54787   1.59657   1.65669   1.71263
 Alpha virt. eigenvalues --    1.71531   1.75898   1.76992   1.79527   1.82245
 Alpha virt. eigenvalues --    1.83242   1.84273   1.89236   1.89491   1.91927
 Alpha virt. eigenvalues --    1.93290   1.95518   1.96900   1.98929   2.02100
 Alpha virt. eigenvalues --    2.03257   2.07760   2.10820   2.13051   2.14871
 Alpha virt. eigenvalues --    2.19263   2.20817   2.24316   2.28099   2.28318
 Alpha virt. eigenvalues --    2.31020   2.31816   2.36026   2.37619   2.39867
 Alpha virt. eigenvalues --    2.43142   2.45869   2.52467   2.57832   2.66033
 Alpha virt. eigenvalues --    2.67642   2.69045   2.73394   2.76951   2.85729
 Alpha virt. eigenvalues --    2.93388   2.96175   3.02432   3.13646   3.20067
 Alpha virt. eigenvalues --    3.94627   4.01415   4.05004   4.15607   4.18866
 Alpha virt. eigenvalues --    4.22944   4.23934   4.41070   4.45414   4.67887
          Condensed to atoms (all electrons):
              1          2          3          4          5          6
     1  H    0.493791   0.362100  -0.020688  -0.020964  -0.017720   0.005081
     2  C    0.362100   5.347101   0.348337   0.349435   0.348999  -0.082542
     3  H   -0.020688   0.348337   0.556819  -0.027862  -0.025210   0.001481
     4  H   -0.020964   0.349435  -0.027862   0.556795  -0.026125   0.001428
     5  C   -0.017720   0.348999  -0.025210  -0.026125   4.323722   0.618022
     6  O    0.005081  -0.082542   0.001481   0.001428   0.618022   8.046971
     7  N    0.004563  -0.139031   0.004613   0.004597   0.215805  -0.107996
     8  H   -0.000186   0.000126   0.001110   0.001499  -0.016177   0.003461
     9  C   -0.000110   0.006657  -0.000233  -0.000325  -0.013692   0.000923
    10  H   -0.000009   0.001107  -0.000054  -0.000029   0.000110   0.019510
    11  C    0.000004  -0.000329  -0.000004   0.000068  -0.002339  -0.000680
    12  H    0.000000   0.000003   0.000001   0.000000  -0.000202  -0.000024
    13  H    0.000000   0.000004   0.000000   0.000000  -0.000029  -0.000028
    14  H    0.000001  -0.000013   0.000000  -0.000018   0.002565   0.001055
    15  C    0.000000  -0.000052   0.000022  -0.000015   0.003573   0.000728
    16  O    0.000000   0.000001   0.000000   0.000000   0.000006  -0.000001
    17  N    0.000000  -0.000052   0.000007   0.000004   0.000601  -0.000006
    18  H    0.000000  -0.000019  -0.000004  -0.000039   0.000689   0.000011
    19  C    0.000000   0.000000   0.000000   0.000000   0.000000   0.000000
    20  H    0.000000   0.000000   0.000000   0.000000   0.000001   0.000000
    21  H    0.000000   0.000000   0.000000   0.000000   0.000001   0.000000
    22  H    0.000000   0.000000   0.000000   0.000000  -0.000003   0.000000
              7          8          9         10         11         12
     1  H    0.004563  -0.000186  -0.000110  -0.000009   0.000004   0.000000
     2  C   -0.139031   0.000126   0.006657   0.001107  -0.000329   0.000003
     3  H    0.004613   0.001110  -0.000233  -0.000054  -0.000004   0.000001
     4  H    0.004597   0.001499  -0.000325  -0.000029   0.000068   0.000000
     5  C    0.215805  -0.016177  -0.013692   0.000110  -0.002339  -0.000202
     6  O   -0.107996   0.003461   0.000923   0.019510  -0.000680  -0.000024
     7  N    7.282312   0.284317   0.171688  -0.044265  -0.059415  -0.003335
     8  H    0.284317   0.431717  -0.032823   0.004504   0.000409   0.002857
     9  C    0.171688  -0.032823   5.172879   0.367063   0.352142  -0.033829
    10  H   -0.044265   0.004504   0.367063   0.490827  -0.034010   0.005112
    11  C   -0.059415   0.000409   0.352142  -0.034010   5.124647   0.366724
    12  H   -0.003335   0.002857  -0.033829   0.005112   0.366724   0.593963
    13  H    0.005454  -0.000128  -0.033983  -0.001001   0.367264  -0.026119
    14  H   -0.003873  -0.000132  -0.027926  -0.003995   0.371307  -0.029836
    15  C   -0.034166  -0.007073   0.327690  -0.028093  -0.041809  -0.009826
    16  O    0.002367  -0.000038  -0.076077   0.003243  -0.001634  -0.000212
    17  N    0.002384   0.003415  -0.122129   0.003925  -0.003091   0.005035
    18  H    0.001408   0.011887  -0.001763  -0.000021   0.000691   0.000468
    19  C   -0.000093  -0.000225   0.006524  -0.000107  -0.000193  -0.000179
    20  H   -0.000073   0.000007   0.001173  -0.000017  -0.000041  -0.000006
    21  H    0.000002   0.000012  -0.000262  -0.000002   0.000047  -0.000021
    22  H    0.000006  -0.000011  -0.000027   0.000010  -0.000009   0.000007
             13         14         15         16         17         18
     1  H    0.000000   0.000001   0.000000   0.000000   0.000000   0.000000
     2  C    0.000004  -0.000013  -0.000052   0.000001  -0.000052  -0.000019
     3  H    0.000000   0.000000   0.000022   0.000000   0.000007  -0.000004
     4  H    0.000000  -0.000018  -0.000015   0.000000   0.000004  -0.000039
     5  C   -0.000029   0.002565   0.003573   0.000006   0.000601   0.000689
     6  O   -0.000028   0.001055   0.000728  -0.000001  -0.000006   0.000011
     7  N    0.005454  -0.003873  -0.034166   0.002367   0.002384   0.001408
     8  H   -0.000128  -0.000132  -0.007073  -0.000038   0.003415   0.011887
     9  C   -0.033983  -0.027926   0.327690  -0.076077  -0.122129  -0.001763
    10  H   -0.001001  -0.003995  -0.028093   0.003243   0.003925  -0.000021
    11  C    0.367264   0.371307  -0.041809  -0.001634  -0.003091   0.000691
    12  H   -0.026119  -0.029836  -0.009826  -0.000212   0.005035   0.000468
    13  H    0.530285  -0.023868   0.000809   0.003906   0.000214  -0.000139
    14  H   -0.023868   0.539768   0.004746  -0.000056  -0.000096  -0.000034
    15  C    0.000809   0.004746   4.356892   0.592542   0.259530  -0.019756
    16  O    0.003906  -0.000056   0.592542   8.085917  -0.100575   0.004055
    17  N    0.000214  -0.000096   0.259530  -0.100575   7.111648   0.289139
    18  H   -0.000139  -0.000034  -0.019756   0.004055   0.289139   0.435321
    19  C   -0.000008   0.000007  -0.025288  -0.009509   0.263149  -0.031085
    20  H   -0.000008   0.000001  -0.000459   0.022550  -0.037573   0.003829
    21  H    0.000003  -0.000001   0.002045   0.000606  -0.043502  -0.001283
    22  H   -0.000001   0.000000   0.000974   0.000583  -0.044577  -0.000061
             19         20         21         22
     1  H    0.000000   0.000000   0.000000   0.000000
     2  C    0.000000   0.000000   0.000000   0.000000
     3  H    0.000000   0.000000   0.000000   0.000000
     4  H    0.000000   0.000000   0.000000   0.000000
     5  C    0.000000   0.000001   0.000001  -0.000003
     6  O    0.000000   0.000000   0.000000   0.000000
     7  N   -0.000093  -0.000073   0.000002   0.000006
     8  H   -0.000225   0.000007   0.000012  -0.000011
     9  C    0.006524   0.001173  -0.000262  -0.000027
    10  H   -0.000107  -0.000017  -0.000002   0.000010
    11  C   -0.000193  -0.000041   0.000047  -0.000009
    12  H   -0.000179  -0.000006  -0.000021   0.000007
    13  H   -0.000008  -0.000008   0.000003  -0.000001
    14  H    0.000007   0.000001  -0.000001   0.000000
    15  C   -0.025288  -0.000459   0.002045   0.000974
    16  O   -0.009509   0.022550   0.000606   0.000583
    17  N    0.263149  -0.037573  -0.043502  -0.044577
    18  H   -0.031085   0.003829  -0.001283  -0.000061
    19  C    4.968248   0.376357   0.381670   0.383989
    20  H    0.376357   0.465987  -0.023613  -0.023694
    21  H    0.381670  -0.023613   0.564186  -0.038733
    22  H    0.383989  -0.023694  -0.038733   0.561087
 Mulliken atomic charges:
              1
     1  H    0.194137
     2  C   -0.541832
     3  H    0.161666
     4  H    0.161551
     5  C    0.587406
     6  O   -0.507393
     7  N   -0.587270
     8  H    0.311471
     9  C   -0.063562
    10  H    0.216192
    11  C   -0.439750
    12  H    0.129420
    13  H    0.177374
    14  H    0.170399
    15  C    0.616983
    16  O   -0.527673
    17  N   -0.587452
    18  H    0.306706
    19  C   -0.313260
    20  H    0.215581
    21  H    0.158844
    22  H    0.160461
 Sum of Mulliken atomic charges =   0.00000
 Mulliken charges with hydrogens summed into heavy atoms:
              1
     2  C   -0.024478
     5  C    0.587406
     6  O   -0.507393
     7  N   -0.275799
     9  C    0.152631
    11  C    0.037444
    15  C    0.616983
    16  O   -0.527673
    17  N   -0.280746
    19  C    0.221625
 Sum of Mulliken charges with hydrogens summed into heavy atoms =   0.00000
 APT atomic charges:
              1
     1  H    0.739990
     2  C   -1.211392
     3  H    0.290310
     4  H    0.388460
     5  C   -0.148298
     6  O   -0.042408
     7  N   -0.553572
     8  H    0.445943
     9  C   -0.409901
    10  H    0.439933
    11  C   -1.211740
    12  H    0.314290
    13  H    0.494070
    14  H    0.449966
    15  C   -0.252861
    16  O    0.047141
    17  N   -0.315607
    18  H    0.377762
    19  C   -1.403105
    20  H    0.541506
    21  H    0.557413
    22  H    0.462099
 Sum of APT charges=   0.00000
 APT Atomic charges with hydrogens summed into heavy atoms:
              1
     1  H    0.000000
     2  C    0.207368
     3  H    0.000000
     4  H    0.000000
     5  C   -0.148298
     6  O   -0.042408
     7  N   -0.107629
     8  H    0.000000
     9  C    0.030032
    10  H    0.000000
    11  C    0.046586
    12  H    0.000000
    13  H    0.000000
    14  H    0.000000
    15  C   -0.252861
    16  O    0.047141
    17  N    0.062155
    18  H    0.000000
    19  C    0.157913
    20  H    0.000000
    21  H    0.000000
    22  H    0.000000
 Sum of APT charges=   0.00000
 Electronic spatial extent (au):  <R**2>=           1845.1896
 Charge=              0.0000 electrons
 Dipole moment (field-independent basis, Debye):
    X=              0.7552    Y=             -4.3886    Z=              4.4496  Tot=              6.2952
 Quadrupole moment (field-independent basis, Debye-Ang):
   XX=            -66.1543   YY=            -56.7778   ZZ=            -62.4791
   XY=             -0.7742   XZ=             -0.3803   YZ=              1.7179
 Traceless Quadrupole moment (field-independent basis, Debye-Ang):
   XX=             -4.3506   YY=              5.0259   ZZ=             -0.6754
   XY=             -0.7742   XZ=             -0.3803   YZ=              1.7179
 Octapole moment (field-independent basis, Debye-Ang**2):
  XXX=             13.7788  YYY=             -1.6219  ZZZ=              0.5464  XYY=              1.7783
  XXY=            -31.1034  XXZ=             18.9735  XZZ=              0.2754  YZZ=             -5.8714
  YYZ=              3.2038  XYZ=             -0.0043
 Hexadecapole moment (field-independent basis, Debye-Ang**3):
 XXXX=          -1575.4748 YYYY=           -515.1751 ZZZZ=           -238.1627 XXXY=             -1.7434
 XXXZ=            -13.4033 YYYX=            -11.4894 YYYZ=             -3.7996 ZZZX=              1.2072
 ZZZY=             -8.8784 XXYY=           -354.0964 XXZZ=           -324.7152 YYZZ=           -128.6848
 XXYZ=             21.4679 YYXZ=              4.6164 ZZXY=             -4.7471
 N-N= 5.551649698881D+02 E-N=-2.266258357372D+03  KE= 4.915538042367D+02
  Exact polarizability:   0.000   0.000   0.000   0.000   0.000   0.000
 Approx polarizability: 116.067  -2.951 116.441   3.478 -24.063 103.578
 Calling FoFJK, ICntrl=    100147 FMM=F ISym2X=0 I1Cent= 0 IOpClX= 0 NMat=1 NMatS=1 NMatT=0.
 ***** Axes restored to original set *****
 -------------------------------------------------------------------
 Center     Atomic                   Forces (Hartrees/Bohr)
 Number     Number              X              Y              Z
 -------------------------------------------------------------------
      1        1           0.003509626    0.001179110    0.000544916
      2        6           0.006533225    0.007743868   -0.003854001
      3        1          -0.006560643    0.000793681   -0.000807757
      4        1          -0.005253394   -0.001700251   -0.003593829
      5        6          -0.007191038   -0.036316305    0.029517707
      6        8           0.001835712    0.002862323   -0.002541088
      7        7           0.001851259    0.014582100   -0.011282885
      8        1          -0.000908770   -0.008399562    0.000966119
      9        6           0.002898789    0.005664697   -0.009068335
     10        1          -0.006049705    0.000486910    0.002684897
     11        6           0.002658276   -0.003284498    0.000460304
     12        1           0.000753820   -0.000211779   -0.005872142
     13        1           0.002711372    0.000850586   -0.002090288
     14        1           0.001355418   -0.002713258   -0.001766923
     15        6           0.022877733   -0.002570536    0.026493724
     16        8           0.001634256   -0.000951462   -0.003399290
     17        7          -0.016037467    0.010336577   -0.011339944
     18        1           0.000756678    0.007058222   -0.000269354
     19        6          -0.004170696    0.000064207   -0.003108047
     20        1           0.001017962   -0.003623447    0.000354605
     21        1          -0.000894691    0.004377397   -0.003152016
     22        1          -0.003327722    0.003771422    0.001123627
 -------------------------------------------------------------------
 Cartesian Forces:  Max     0.036316305 RMS     0.008727762

 GradGradGradGradGradGradGradGradGradGradGradGradGradGradGradGradGradGrad
 Berny optimization.
 Internal  Forces:  Max     0.033956460 RMS     0.007215381
 Search for a local minimum.
 Step number   1 out of a maximum of  132
 All quantities printed in internal units (Hartrees-Bohrs-Radians)
 Mixed Optimization -- RFO/linear search
 Second derivative matrix not updated -- analytic derivatives used.
     Eigenvalues ---   -0.00650  -0.00067  -0.00004   0.00243   0.00367
     Eigenvalues ---    0.01408   0.01702   0.02362   0.03730   0.03988
     Eigenvalues ---    0.04623   0.04791   0.04823   0.05829   0.05891
     Eigenvalues ---    0.05986   0.06402   0.06601   0.10984   0.11577
     Eigenvalues ---    0.12454   0.12919   0.13266   0.13305   0.13439
     Eigenvalues ---    0.14303   0.15419   0.16950   0.17734   0.18587
     Eigenvalues ---    0.19644   0.19967   0.21457   0.22408   0.23861
     Eigenvalues ---    0.24456   0.26501   0.30476   0.33482   0.34591
     Eigenvalues ---    0.34853   0.34929   0.35047   0.35235   0.35333
     Eigenvalues ---    0.35514   0.35788   0.35865   0.35914   0.36846
     Eigenvalues ---    0.39366   0.44415   0.46431   0.52378   0.53967
     Eigenvalues ---    0.56878   0.82567   0.830631000.000001000.00000
     Eigenvalues --- 1000.000001000.000001000.000001000.000001000.00000
     Eigenvalues --- 1000.000001000.000001000.000001000.000001000.00000
     Eigenvalues --- 1000.000001000.000001000.000001000.000001000.00000
     Eigenvalues --- 1000.000001000.000001000.000001000.000001000.00000
     Eigenvalues --- 1000.000001000.000001000.000001000.000001000.00000
     Eigenvalues --- 1000.000001000.000001000.000001000.000001000.00000
     Eigenvalues --- 1000.000001000.000001000.000001000.000001000.00000
     Eigenvalues --- 1000.000001000.000001000.00000
 RFO step:  Lambda=-1.39931417D-02 EMin=-6.50117162D-03
 Linear search not attempted -- first point.
 Maximum step size (   0.300) exceeded in Quadratic search.
    -- Step size scaled by   0.318
 Iteration  1 RMS(Cart)=  0.05135440 RMS(Int)=  0.00148579
 Iteration  2 RMS(Cart)=  0.00180968 RMS(Int)=  0.00028751
 Iteration  3 RMS(Cart)=  0.00000212 RMS(Int)=  0.00028750
 Iteration  4 RMS(Cart)=  0.00000000 RMS(Int)=  0.00028750
 Iteration  1 RMS(Cart)=  0.00001660 RMS(Int)=  0.00000662
 Iteration  2 RMS(Cart)=  0.00001109 RMS(Int)=  0.00000731
 Iteration  3 RMS(Cart)=  0.00000744 RMS(Int)=  0.00000840
 Iteration  4 RMS(Cart)=  0.00000501 RMS(Int)=  0.00000934
 Iteration  5 RMS(Cart)=  0.00000338 RMS(Int)=  0.00001003
 Iteration  6 RMS(Cart)=  0.00000229 RMS(Int)=  0.00001052
 Iteration  7 RMS(Cart)=  0.00000155 RMS(Int)=  0.00001087
 Iteration  8 RMS(Cart)=  0.00000105 RMS(Int)=  0.00001110
 Iteration  9 RMS(Cart)=  0.00000071 RMS(Int)=  0.00001126
 Variable       Old X    -DE/DX   Delta X   Delta X   Delta X     New X
                                 (Linear)    (Quad)   (Total)
    R1        2.05988  -0.00097   0.00000   0.00002   0.00002   2.05990
    R2        2.05977   0.00474   0.00000   0.00373   0.00373   2.06350
    R3        2.05988   0.00469   0.00000   0.00379   0.00379   2.06367
    R4        2.89120  -0.00094   0.00000  -0.00334  -0.00334   2.88786
    R5        2.32248  -0.00150   0.00000  -0.00411  -0.00411   2.31837
    R6        2.52291   0.03269   0.00000   0.02112   0.02112   2.54402
    R7        1.90868  -0.00290   0.00000   0.00164   0.00164   1.91031
    R8        2.73817   0.01410   0.00000   0.00543   0.00543   2.74360
    R9        2.05975  -0.00102   0.00000  -0.00001  -0.00001   2.05974
   R10        2.88188   0.01284   0.00000   0.00837   0.00837   2.89026
   R11        2.87618   0.01821   0.00000   0.00923   0.00923   2.88540
   R12        2.05972   0.00441   0.00000   0.00402   0.00402   2.06374
   R13        2.05984   0.00275   0.00000   0.00220   0.00220   2.06205
   R14        2.05966   0.00289   0.00000   0.00248   0.00248   2.06214
   R15        2.32245  -0.00087   0.00000  -0.00207  -0.00207   2.32038
   R16        2.52279   0.03396   0.00000   0.01589   0.01589   2.53868
   R17        1.90849  -0.00473   0.00000  -0.00221  -0.00221   1.90628
   R18        2.73835   0.00600   0.00000   0.00234   0.00234   2.74070
   R19        2.05983  -0.00086   0.00000   0.00023   0.00023   2.06006
   R20        2.05961   0.00431   0.00000   0.00353   0.00353   2.06313
   R21        2.05984   0.00418   0.00000   0.00383   0.00383   2.06367
    A1        1.91119  -0.00029   0.00000  -0.00322  -0.00322   1.90797
    A2        1.91112  -0.00025   0.00000  -0.00052  -0.00047   1.91065
    A3        1.93900  -0.00772   0.00000  -0.01298  -0.01296   1.92604
    A4        1.91012  -0.00506   0.00000  -0.00782  -0.00791   1.90221
    A5        1.89609   0.00673   0.00000   0.00706   0.00701   1.90311
    A6        1.89604   0.00665   0.00000   0.01764   0.01762   1.91366
    A7        2.10320   0.00872   0.00000   0.01228   0.01226   2.11546
    A8        2.03508  -0.00831   0.00000  -0.01114  -0.01116   2.02392
    A9        2.14490  -0.00041   0.00000  -0.00114  -0.00116   2.14374
   A10        2.09426  -0.00731   0.00000  -0.00977  -0.01122   2.08304
   A11        2.12756   0.00183   0.00000   0.00678   0.00531   2.13287
   A12        2.06136   0.00548   0.00000   0.00297   0.00147   2.06283
   A13        1.91114  -0.00753   0.00000  -0.01769  -0.01760   1.89354
   A14        1.93905  -0.00401   0.00000   0.00224   0.00205   1.94110
   A15        1.93900   0.01574   0.00000   0.01862   0.01857   1.95757
   A16        1.89609   0.00471   0.00000   0.00476   0.00478   1.90087
   A17        1.89608  -0.00652   0.00000  -0.01369  -0.01364   1.88244
   A18        1.88137  -0.00255   0.00000   0.00553   0.00542   1.88680
   A19        1.91115   0.00493   0.00000   0.00726   0.00725   1.91840
   A20        1.91106   0.00174   0.00000   0.00271   0.00271   1.91377
   A21        1.91110   0.00163   0.00000   0.00226   0.00226   1.91335
   A22        1.91011  -0.00333   0.00000  -0.00628  -0.00629   1.90382
   A23        1.91023  -0.00309   0.00000  -0.00350  -0.00352   1.90671
   A24        1.91015  -0.00188   0.00000  -0.00247  -0.00247   1.90768
   A25        2.10312  -0.01024   0.00000  -0.00510  -0.00524   2.09788
   A26        2.03505   0.01871   0.00000   0.00464   0.00449   2.03955
   A27        2.14502  -0.00847   0.00000   0.00047   0.00033   2.14534
   A28        2.09442   0.00412   0.00000  -0.00148  -0.00206   2.09237
   A29        2.12757   0.00171   0.00000   0.00253   0.00195   2.12952
   A30        2.06119  -0.00583   0.00000  -0.00105  -0.00163   2.05956
   A31        1.91111  -0.00741   0.00000  -0.01181  -0.01179   1.89932
   A32        1.91114   0.00540   0.00000   0.00657   0.00654   1.91769
   A33        1.91102   0.00477   0.00000   0.01020   0.01019   1.92120
   A34        1.91024   0.00008   0.00000   0.00032   0.00033   1.91057
   A35        1.91010   0.00028   0.00000  -0.00228  -0.00226   1.90784
   A36        1.91020  -0.00313   0.00000  -0.00301  -0.00306   1.90713
    D1       -0.00005   0.00008   0.00000  -0.06554  -0.06558  -0.06563
    D2       -3.14156  -0.00006   0.00000  -0.05412  -0.05412   3.08751
    D3        2.10334  -0.00071   0.00000  -0.07301  -0.07307   2.03027
    D4       -1.03817  -0.00085   0.00000  -0.06158  -0.06160  -1.09977
    D5       -2.10332   0.00086   0.00000  -0.06827  -0.06823  -2.17155
    D6        1.03836   0.00073   0.00000  -0.05684  -0.05677   0.98159
    D7       -0.00012  -0.00106   0.00000  -0.06931  -0.06902  -0.06914
    D8       -3.14159   0.00045   0.00000   0.03415   0.03392  -3.10768
    D9        3.14156  -0.00119   0.00000  -0.05759  -0.05735   3.08421
   D10        0.00009   0.00032   0.00000   0.04587   0.04558   0.04567
   D11       -0.26187  -0.00031   0.00000  -0.01677  -0.01688  -0.27875
   D12        1.83257  -0.00187   0.00000  -0.02093  -0.02103   1.81154
   D13       -2.35626   0.00275   0.00000   0.00000   0.00000  -2.35627
   D14        2.87984   0.00118   0.00000   0.08482   0.08492   2.96476
   D15       -1.30891  -0.00039   0.00000   0.08066   0.08076  -1.22814
   D16        0.78545   0.00424   0.00000   0.10159   0.10179   0.88724
   D17        1.04724   0.00799   0.00000   0.01387   0.01387   1.06111
   D18        3.14157   0.00800   0.00000   0.01229   0.01230  -3.12932
   D19       -1.04726   0.00775   0.00000   0.01232   0.01232  -1.03495
   D20       -3.13259  -0.00076   0.00000  -0.00356  -0.00356  -3.13615
   D21       -1.03826  -0.00076   0.00000  -0.00513  -0.00513  -1.04340
   D22        1.05609  -0.00100   0.00000  -0.00511  -0.00511   1.05098
   D23       -1.08102  -0.00735   0.00000  -0.01418  -0.01418  -1.09520
   D24        1.01331  -0.00734   0.00000  -0.01576  -0.01576   0.99755
   D25        3.10766  -0.00759   0.00000  -0.01574  -0.01574   3.09192
   D26        2.61796  -0.00111   0.00000   0.03039   0.03031   2.64827
   D27       -0.52355  -0.00452   0.00000   0.00000   0.00000  -0.52355
   D28        0.51464   0.00269   0.00000   0.04961   0.04960   0.56424
   D29       -2.62687  -0.00072   0.00000   0.01922   0.01928  -2.60758
   D30       -1.53694   0.00201   0.00000   0.04830   0.04835  -1.48859
   D31        1.60474  -0.00140   0.00000   0.01792   0.01804   1.62277
   D32       -0.00008   0.00136   0.00000   0.09024   0.09025   0.09017
   D33       -3.14153   0.00189   0.00000   0.02554   0.02557  -3.11596
   D34       -3.14158  -0.00214   0.00000   0.05906   0.05903  -3.08255
   D35        0.00015  -0.00161   0.00000  -0.00564  -0.00564  -0.00549
   D36       -0.00016  -0.00032   0.00000   0.03604   0.03604   0.03588
   D37        2.09436  -0.00145   0.00000   0.03322   0.03319   2.12755
   D38       -2.09442   0.00096   0.00000   0.03982   0.03985  -2.05457
   D39        3.14157   0.00021   0.00000  -0.02747  -0.02747   3.11410
   D40       -1.04710  -0.00092   0.00000  -0.03029  -0.03032  -1.07741
   D41        1.04731   0.00148   0.00000  -0.02369  -0.02366   1.02366
         Item               Value     Threshold  Converged?
 Maximum Force            0.033956     0.000450     NO 
 RMS     Force            0.007247     0.000300     NO 
 Maximum Displacement     0.164187     0.001800     NO 
 RMS     Displacement     0.051570     0.001200     NO 
 Predicted change in Energy=-4.365873D-03
 GradGradGradGradGradGradGradGradGradGradGradGradGradGradGradGradGradGrad

                          Input orientation:                          
 ---------------------------------------------------------------------
 Center     Atomic      Atomic             Coordinates (Angstroms)
 Number     Number       Type             X           Y           Z
 ---------------------------------------------------------------------
      1          1           0        1.780920    1.444293    1.340155
      2          6           0        1.880190    2.310591    0.686021
      3          1           0        1.133219    3.058199    0.960769
      4          1           0        1.713826    2.005889   -0.349374
      5          6           0        3.273217    2.923698    0.823630
      6          8           0        4.082113    2.487781    1.636512
      7          7           0        3.540913    3.965997    0.014736
      8          1           0        2.854358    4.250444   -0.670567
      9          6           0        4.835108    4.623870    0.002994
     10          1           0        5.378270    4.334319    0.902527
     11          6           0        5.652829    4.214852   -1.223090
     12          1           0        5.125355    4.502729   -2.134983
     13          1           0        6.623266    4.713258   -1.199888
     14          1           0        5.802329    3.133907   -1.220020
     15          6           0        4.707754    6.145440    0.002382
     16          8           0        5.591927    6.839447    0.496661
     17          7           0        3.617731    6.663005   -0.588147
     18          1           0        2.894794    6.050377   -0.934049
     19          6           0        3.399577    8.093844   -0.680433
     20          1           0        4.254293    8.608973   -0.241679
     21          1           0        3.296203    8.386803   -1.727064
     22          1           0        2.493407    8.370684   -0.137492
 ---------------------------------------------------------------------
                    Distance matrix (angstroms):
                    1          2          3          4          5
     1  H    0.000000
     2  C    1.090054   0.000000
     3  H    1.779927   1.091957   0.000000
     4  H    1.781684   1.092045   1.777902   0.000000
     5  C    2.163883   1.528189   2.148602   2.156388   0.000000
     6  O    2.544049   2.404849   3.078633   3.128058   1.226831
     7  N    3.348627   2.439056   2.741545   2.704227   1.346238
     8  H    3.615212   2.559759   2.654247   2.538110   2.041647
     9  C    4.607144   3.814358   4.131906   4.089057   2.450211
    10  H    4.635159   4.047087   4.433095   4.518516   2.535217
    11  C    5.407208   4.637210   5.151113   4.599852   3.393920
    12  H    5.711029   4.826451   5.254284   4.589241   3.831076
    13  H    6.370735   5.641474   6.127665   5.670609   4.303484
    14  H    5.057768   4.437794   5.153849   4.329700   3.258389
    15  C    5.697085   4.813372   4.819426   5.120861   3.621045
    16  O    6.659049   5.858616   5.864580   6.254495   4.562500
    17  N    5.858940   4.856548   4.643982   5.036923   4.011760
    18  H    5.256304   4.200006   3.955580   4.253753   3.606766
    19  C    7.135780   6.133657   5.760872   6.325705   5.385962
    20  H    7.742894   6.794602   6.480593   7.075753   5.866834
    21  H    7.739661   6.689426   6.347990   6.716994   6.029269
    22  H    7.118003   6.146457   5.592744   6.415859   5.585832
                    6          7          8          9         10
     6  O    0.000000
     7  N    2.260128   0.000000
     8  H    3.152297   1.010894   0.000000
     9  C    2.792537   1.451853   2.125206   0.000000
    10  H    2.372437   2.073576   2.975196   1.089966   0.000000
    11  C    3.691510   2.460555   2.852716   1.529459   2.146603
    12  H    4.401425   2.723936   2.713961   2.160986   3.052670
    13  H    4.410824   3.396264   3.833933   2.156948   2.472602
    14  H    3.396528   2.707582   3.199857   2.156680   2.475081
    15  C    4.054661   2.472174   2.734766   1.526891   2.130731
    16  O    4.745081   3.563091   3.944570   2.392752   2.546771
    17  N    4.753657   2.764638   2.531794   2.447351   3.277864
    18  H    4.550781   2.379560   1.819565   2.584143   3.533486
    19  C    6.104264   4.188360   3.881892   3.816876   4.533765
    20  H    6.405173   4.704454   4.597884   4.034633   4.565655
    21  H    6.835917   4.757865   4.291955   4.418257   5.260455
    22  H    6.346624   4.530089   4.170232   4.420624   5.069154
                   11         12         13         14         15
    11  C    0.000000
    12  H    1.092086   0.000000
    13  H    1.091189   1.778331   0.000000
    14  H    1.091239   1.780203   1.780082   0.000000
    15  C    2.474292   2.727859   2.676899   3.429533   0.000000
    16  O    3.138431   3.550139   2.909058   4.089290   1.227892
    17  N    3.246264   3.054901   3.634417   4.198365   1.343410
    18  H    3.325576   2.968646   3.969895   4.128116   2.042734
    19  C    4.518651   4.241478   4.700039   5.537631   2.444145
    20  H    4.714592   4.604844   4.659056   5.773208   2.516782
    21  H    4.817972   4.312566   4.984195   5.842147   3.163411
    22  H    5.332111   5.087061   5.617935   6.288455   3.142389
                   16         17         18         19         20
    16  O    0.000000
    17  N    2.259511   0.000000
    18  H    3.153424   1.008760   0.000000
    19  C    2.786658   1.450313   2.120114   0.000000
    20  H    2.337870   2.076546   2.978930   1.090139   0.000000
    21  H    3.551002   2.090931   2.499778   1.091764   1.781478
    22  H    3.513924   2.093648   2.485847   1.092048   1.779987
                   21         22
    21  H    0.000000
    22  H    1.780865   0.000000
 Stoichiometry    C6H12N2O2
 Framework group  C1[X(C6H12N2O2)]
 Deg. of freedom    60
 Full point group                 C1      NOp   1
 Largest Abelian subgroup         C1      NOp   1
 Largest concise Abelian subgroup C1      NOp   1
                         Standard orientation:                         
 ---------------------------------------------------------------------
 Center     Atomic      Atomic             Coordinates (Angstroms)
 Number     Number       Type             X           Y           Z
 ---------------------------------------------------------------------
      1          1           0       -4.061901   -1.275069   -0.213956
      2          6           0       -3.063602   -1.390302    0.208344
      3          1           0       -2.623807   -2.322124   -0.153122
      4          1           0       -3.131301   -1.428410    1.297623
      5          6           0       -2.171273   -0.222500   -0.210403
      6          8           0       -2.576460    0.643127   -0.979576
      7          7           0       -0.927003   -0.217749    0.303531
      8          1           0       -0.664171   -0.929387    0.971661
      9          6           0        0.019422    0.848486    0.029128
     10          1           0       -0.338257    1.415533   -0.830261
     11          6           0        0.152103    1.792253    1.225349
     12          1           0        0.515300    1.241214    2.095461
     13          1           0        0.858527    2.589161    0.987448
     14          1           0       -0.820491    2.229611    1.456823
     15          6           0        1.408661    0.312608   -0.308871
     16          8           0        2.157948    0.955632   -1.038807
     17          7           0        1.763008   -0.853940    0.255358
     18          1           0        1.093571   -1.369626    0.806284
     19          6           0        3.067364   -1.449021    0.036399
     20          1           0        3.655960   -0.783624   -0.595427
     21          1           0        3.576820   -1.588525    0.991878
     22          1           0        2.959762   -2.416144   -0.459248
 ---------------------------------------------------------------------
 Rotational constants (GHZ):      2.1641855      0.7406814      0.6477356
 Standard basis: 6-31G(d) (6D, 7F)
 There are   174 symmetry adapted basis functions of A   symmetry.
 Integral buffers will be    131072 words long.
 Raffenetti 2 integral format.
 Two-electron integral symmetry is turned on.
   174 basis functions,   328 primitive gaussians,   174 cartesian basis functions
    39 alpha electrons       39 beta electrons
       nuclear repulsion energy       553.0098543692 Hartrees.
 NAtoms=   22 NActive=   22 NUniq=   22 SFac= 7.50D-01 NAtFMM=   80 NAOKFM=F Big=F
 One-electron integrals computed using PRISM.
 NBasis=   174 RedAO= T  NBF=   174
 NBsUse=   174 1.00D-06 NBFU=   174
 Initial guess read from the read-write file.
 B after Tr=     0.000000    0.000000    0.000000
         Rot=    1.000000    0.000000    0.000000    0.000000 Ang=   0.00 deg.
 Initial guess orbital symmetries:
       Occupied  (A) (A) (A) (A) (A) (A) (A) (A) (A) (A) (A) (A)
                 (A) (A) (A) (A) (A) (A) (A) (A) (A) (A) (A) (A)
                 (A) (A) (A) (A) (A) (A) (A) (A) (A) (A) (A) (A)
                 (A) (A) (A)
       Virtual   (A) (A) (A) (A) (A) (A) (A) (A) (A) (A) (A) (A)
                 (A) (A) (A) (A) (A) (A) (A) (A) (A) (A) (A) (A)
                 (A) (A) (A) (A) (A) (A) (A) (A) (A) (A) (A) (A)
                 (A) (A) (A) (A) (A) (A) (A) (A) (A) (A) (A) (A)
                 (A) (A) (A) (A) (A) (A) (A) (A) (A) (A) (A) (A)
                 (A) (A) (A) (A) (A) (A) (A) (A) (A) (A) (A) (A)
                 (A) (A) (A) (A) (A) (A) (A) (A) (A) (A) (A) (A)
                 (A) (A) (A) (A) (A) (A) (A) (A) (A) (A) (A) (A)
                 (A) (A) (A) (A) (A) (A) (A) (A) (A) (A) (A) (A)
                 (A) (A) (A) (A) (A) (A) (A) (A) (A) (A) (A) (A)
                 (A) (A) (A) (A) (A) (A) (A) (A) (A) (A) (A) (A)
                 (A) (A) (A)
 Harris functional with IExCor=  402 diagonalized for initial guess.
 ExpMin= 1.61D-01 ExpMax= 5.48D+03 ExpMxC= 8.25D+02 IAcc=1 IRadAn=         1 AccDes= 0.00D+00
 HarFok:  IExCor=  402 AccDes= 0.00D+00 IRadAn=         1 IDoV= 1
 ScaDFX=  1.000000  1.000000  1.000000  1.000000
 FoFCou: FMM=F IPFlag=           0 FMFlag=      100000 FMFlg1=           0
         NFxFlg=           0 DoJE=T BraDBF=F KetDBF=T FulRan=T
         Omega=  0.000000  0.000000  1.000000  0.000000  0.000000 ICntrl=     500 IOpCl=  0
         NMat0=    1 NMatS0=    1 NMatT0=    0 NMatD0=    1 NMtDS0=    0 NMtDT0=    0
         I1Cent=           4 NGrid=           0.
 Petite list used in FoFCou.
 Requested convergence on RMS density matrix=1.00D-08 within 128 cycles.
 Requested convergence on MAX density matrix=1.00D-06.
 Requested convergence on             energy=1.00D-06.
 No special actions if energy rises.
 Integral accuracy reduced to 1.0D-05 until final iterations.
 Initial convergence to 1.0D-05 achieved.  Increase integral accuracy.
 SCF Done:  E(RB3LYP) =  -495.836479445     A.U. after   13 cycles
             Convg  =    0.3722D-08             -V/T =  2.0089
 Calling FoFJK, ICntrl=      2127 FMM=F ISym2X=0 I1Cent= 0 IOpClX= 0 NMat=1 NMatS=1 NMatT=0.
 ***** Axes restored to original set *****
 -------------------------------------------------------------------
 Center     Atomic                   Forces (Hartrees/Bohr)
 Number     Number              X              Y              Z
 -------------------------------------------------------------------
      1        1           0.002429286    0.000838316    0.000411859
      2        6           0.004673315    0.005759260   -0.002688389
      3        1          -0.004656016    0.000349645   -0.000505681
      4        1          -0.003715545   -0.001172686   -0.002468349
      5        6          -0.004977669   -0.025596805    0.020992604
      6        8           0.001247503    0.001993810   -0.001742399
      7        7           0.000470999    0.011672794   -0.008233450
      8        1           0.000193512   -0.007099929   -0.000203770
      9        6           0.001548397    0.004208937   -0.006999752
     10        1          -0.004495946    0.000039772    0.001922378
     11        6           0.002107319   -0.002183125    0.000659323
     12        1           0.000609812   -0.000264267   -0.004116761
     13        1           0.001878410    0.000598551   -0.001519199
     14        1           0.001015234   -0.001890533   -0.001192796
     15        6           0.016775465   -0.001852735    0.018954662
     16        8           0.001327980   -0.000750488   -0.002908544
     17        7          -0.011158927    0.007590422   -0.007908873
     18        1           0.000169684    0.004466363    0.000402599
     19        6          -0.003293491   -0.000017935   -0.001771017
     20        1           0.000638535   -0.002538053    0.000253912
     21        1          -0.000651692    0.003046550   -0.002207212
     22        1          -0.002136163    0.002802137    0.000868853
 -------------------------------------------------------------------
 Cartesian Forces:  Max     0.025596805 RMS     0.006272817

 GradGradGradGradGradGradGradGradGradGradGradGradGradGradGradGradGradGrad
 Berny optimization.
 Using GEDIIS/GDIIS optimizer.
 Internal  Forces:  Max     0.023784157 RMS     0.005036520
 Search for a local minimum.
 Step number   2 out of a maximum of  132
 All quantities printed in internal units (Hartrees-Bohrs-Radians)
 Mixed Optimization -- RFO/linear search
 Update second derivatives using D2CorX and points    1    2
 DE= -4.33D-03 DEPred=-4.37D-03 R= 9.92D-01
 SS=  1.41D+00  RLast= 3.00D-01 DXNew= 5.0454D-01 8.9988D-01
 Trust test= 9.92D-01 RLast= 3.00D-01 DXMaxT set to 5.05D-01
 Use linear search instead of GDIIS.
 Linear search step of   0.594 exceeds DXMaxT=   0.505 but not scaled.
 Quartic linear search produced a step of  2.00000.
 Iteration  1 RMS(Cart)=  0.10368290 RMS(Int)=  0.00612052
 Iteration  2 RMS(Cart)=  0.00714390 RMS(Int)=  0.00171132
 Iteration  3 RMS(Cart)=  0.00003678 RMS(Int)=  0.00171108
 Iteration  4 RMS(Cart)=  0.00000012 RMS(Int)=  0.00171108
 Iteration  1 RMS(Cart)=  0.00004600 RMS(Int)=  0.00002132
 Iteration  2 RMS(Cart)=  0.00002989 RMS(Int)=  0.00002360
 Iteration  3 RMS(Cart)=  0.00001991 RMS(Int)=  0.00002700
 Iteration  4 RMS(Cart)=  0.00001346 RMS(Int)=  0.00002974
 Iteration  5 RMS(Cart)=  0.00000917 RMS(Int)=  0.00003172
 Iteration  6 RMS(Cart)=  0.00000626 RMS(Int)=  0.00003310
 Iteration  7 RMS(Cart)=  0.00000429 RMS(Int)=  0.00003405
 Iteration  8 RMS(Cart)=  0.00000293 RMS(Int)=  0.00003469
 Iteration  9 RMS(Cart)=  0.00000201 RMS(Int)=  0.00003514
 Iteration 10 RMS(Cart)=  0.00000137 RMS(Int)=  0.00003544
 Iteration 11 RMS(Cart)=  0.00000094 RMS(Int)=  0.00003564
 Variable       Old X    -DE/DX   Delta X   Delta X   Delta X     New X
                                 (Linear)    (Quad)   (Total)
    R1        2.05990  -0.00064   0.00004   0.00000   0.00004   2.05994
    R2        2.06350   0.00330   0.00746   0.00000   0.00746   2.07096
    R3        2.06367   0.00323   0.00757   0.00000   0.00757   2.07124
    R4        2.88786  -0.00068  -0.00668   0.00000  -0.00668   2.88117
    R5        2.31837  -0.00104  -0.00822   0.00000  -0.00822   2.31016
    R6        2.54402   0.02321   0.04223   0.00000   0.04223   2.58625
    R7        1.91031  -0.00199   0.00327   0.00000   0.00327   1.91359
    R8        2.74360   0.00992   0.01086   0.00000   0.01086   2.75447
    R9        2.05974  -0.00067  -0.00002   0.00000  -0.00002   2.05972
   R10        2.89026   0.00895   0.01675   0.00000   0.01675   2.90701
   R11        2.88540   0.01256   0.01845   0.00000   0.01845   2.90386
   R12        2.06374   0.00308   0.00805   0.00000   0.00805   2.07179
   R13        2.06205   0.00191   0.00441   0.00000   0.00441   2.06646
   R14        2.06214   0.00201   0.00497   0.00000   0.00497   2.06711
   R15        2.32038  -0.00064  -0.00413   0.00000  -0.00413   2.31625
   R16        2.53868   0.02378   0.03178   0.00000   0.03178   2.57046
   R17        1.90628  -0.00297  -0.00442   0.00000  -0.00442   1.90186
   R18        2.74070   0.00425   0.00468   0.00000   0.00468   2.74538
   R19        2.06006  -0.00059   0.00047   0.00000   0.00047   2.06053
   R20        2.06313   0.00299   0.00706   0.00000   0.00706   2.07019
   R21        2.06367   0.00292   0.00766   0.00000   0.00766   2.07133
    A1        1.90797  -0.00024  -0.00644   0.00000  -0.00640   1.90157
    A2        1.91065  -0.00018  -0.00095   0.00000  -0.00066   1.90998
    A3        1.92604  -0.00540  -0.02591   0.00000  -0.02574   1.90030
    A4        1.90221  -0.00364  -0.01583   0.00000  -0.01637   1.88584
    A5        1.90311   0.00478   0.01403   0.00000   0.01376   1.91686
    A6        1.91366   0.00469   0.03524   0.00000   0.03511   1.94877
    A7        2.11546   0.00603   0.02452   0.00000   0.02439   2.13985
    A8        2.02392  -0.00578  -0.02232   0.00000  -0.02244   2.00148
    A9        2.14374  -0.00025  -0.00232   0.00000  -0.00243   2.14131
   A10        2.08304  -0.00516  -0.02244   0.00000  -0.03090   2.05214
   A11        2.13287   0.00134   0.01061   0.00000   0.00200   2.13486
   A12        2.06283   0.00370   0.00294   0.00000  -0.00629   2.05654
   A13        1.89354  -0.00485  -0.03520   0.00000  -0.03465   1.85888
   A14        1.94110  -0.00330   0.00410   0.00000   0.00296   1.94406
   A15        1.95757   0.01091   0.03713   0.00000   0.03685   1.99442
   A16        1.90087   0.00315   0.00955   0.00000   0.00961   1.91048
   A17        1.88244  -0.00478  -0.02728   0.00000  -0.02682   1.85561
   A18        1.88680  -0.00128   0.01085   0.00000   0.01004   1.89684
   A19        1.91840   0.00350   0.01451   0.00000   0.01444   1.93284
   A20        1.91377   0.00123   0.00541   0.00000   0.00538   1.91915
   A21        1.91335   0.00113   0.00451   0.00000   0.00446   1.91781
   A22        1.90382  -0.00239  -0.01257   0.00000  -0.01262   1.89119
   A23        1.90671  -0.00220  -0.00704   0.00000  -0.00712   1.89960
   A24        1.90768  -0.00134  -0.00494   0.00000  -0.00496   1.90272
   A25        2.09788  -0.00695  -0.01048   0.00000  -0.01131   2.08657
   A26        2.03955   0.01248   0.00899   0.00000   0.00815   2.04770
   A27        2.14534  -0.00557   0.00065   0.00000  -0.00019   2.14515
   A28        2.09237   0.00249  -0.00411   0.00000  -0.00760   2.08477
   A29        2.12952   0.00138   0.00390   0.00000   0.00045   2.12997
   A30        2.05956  -0.00387  -0.00326   0.00000  -0.00675   2.05281
   A31        1.89932  -0.00517  -0.02357   0.00000  -0.02345   1.87587
   A32        1.91769   0.00377   0.01309   0.00000   0.01294   1.93063
   A33        1.92120   0.00340   0.02037   0.00000   0.02027   1.94148
   A34        1.91057   0.00005   0.00067   0.00000   0.00075   1.91132
   A35        1.90784   0.00016  -0.00452   0.00000  -0.00436   1.90348
   A36        1.90713  -0.00223  -0.00613   0.00000  -0.00646   1.90067
    D1       -0.06563  -0.00002  -0.13116   0.00000  -0.13137  -0.19701
    D2        3.08751  -0.00006  -0.10824   0.00000  -0.10822   2.97929
    D3        2.03027  -0.00062  -0.14613   0.00000  -0.14648   1.88380
    D4       -1.09977  -0.00066  -0.12321   0.00000  -0.12332  -1.22309
    D5       -2.17155   0.00062  -0.13646   0.00000  -0.13624  -2.30779
    D6        0.98159   0.00058  -0.11353   0.00000  -0.11309   0.86850
    D7       -0.06914  -0.00083  -0.13803   0.00000  -0.13613  -0.20527
    D8       -3.10768   0.00027   0.06783   0.00000   0.06628  -3.04140
    D9        3.08421  -0.00092  -0.11470   0.00000  -0.11315   2.97106
   D10        0.04567   0.00019   0.09117   0.00000   0.08926   0.13493
   D11       -0.27875   0.00013  -0.03376   0.00000  -0.03424  -0.31299
   D12        1.81154  -0.00109  -0.04206   0.00000  -0.04249   1.76905
   D13       -2.35627   0.00256   0.00000   0.00000   0.00000  -2.35627
   D14        2.96476   0.00172   0.16983   0.00000   0.17004   3.13480
   D15       -1.22814   0.00051   0.16153   0.00000   0.16179  -1.06635
   D16        0.88724   0.00416   0.20359   0.00000   0.20428   1.09152
   D17        1.06111   0.00550   0.02775   0.00000   0.02772   1.08884
   D18       -3.12932   0.00550   0.02459   0.00000   0.02457  -3.10475
   D19       -1.03495   0.00532   0.02463   0.00000   0.02459  -1.01036
   D20       -3.13615  -0.00049  -0.00711   0.00000  -0.00714   3.13990
   D21       -1.04340  -0.00049  -0.01027   0.00000  -0.01029  -1.05369
   D22        1.05098  -0.00067  -0.01023   0.00000  -0.01028   1.04070
   D23       -1.09520  -0.00517  -0.02836   0.00000  -0.02829  -1.12349
   D24        0.99755  -0.00517  -0.03151   0.00000  -0.03144   0.96611
   D25        3.09192  -0.00535  -0.03147   0.00000  -0.03143   3.06050
   D26        2.64827  -0.00004   0.06063   0.00000   0.06022   2.70849
   D27       -0.52355  -0.00194   0.00000   0.00000   0.00000  -0.52355
   D28        0.56424   0.00250   0.09920   0.00000   0.09909   0.66333
   D29       -2.60758   0.00060   0.03857   0.00000   0.03887  -2.56871
   D30       -1.48859   0.00204   0.09670   0.00000   0.09695  -1.39163
   D31        1.62277   0.00014   0.03607   0.00000   0.03673   1.65950
   D32        0.09017   0.00127   0.18049   0.00000   0.18043   0.27060
   D33       -3.11596   0.00102   0.05114   0.00000   0.05138  -3.06457
   D34       -3.08255  -0.00069   0.11806   0.00000   0.11782  -2.96473
   D35       -0.00549  -0.00095  -0.01128   0.00000  -0.01123  -0.01672
   D36        0.03588   0.00000   0.07207   0.00000   0.07195   0.10783
   D37        2.12755  -0.00084   0.06639   0.00000   0.06613   2.19368
   D38       -2.05457   0.00094   0.07971   0.00000   0.07981  -1.97475
   D39        3.11410  -0.00003  -0.05495   0.00000  -0.05489   3.05921
   D40       -1.07741  -0.00087  -0.06063   0.00000  -0.06071  -1.13812
   D41        1.02366   0.00091  -0.04731   0.00000  -0.04702   0.97663
         Item               Value     Threshold  Converged?
 Maximum Force            0.023784     0.000450     NO 
 RMS     Force            0.005066     0.000300     NO 
 Maximum Displacement     0.330259     0.001800     NO 
 RMS     Displacement     0.104504     0.001200     NO 
 Predicted change in Energy=-5.831930D-03
 GradGradGradGradGradGradGradGradGradGradGradGradGradGradGradGradGradGrad

                          Input orientation:                          
 ---------------------------------------------------------------------
 Center     Atomic      Atomic             Coordinates (Angstroms)
 Number     Number       Type             X           Y           Z
 ---------------------------------------------------------------------
      1          1           0        1.873487    1.306361    1.235897
      2          6           0        1.903858    2.229531    0.657023
      3          1           0        1.104972    2.894205    1.004872
      4          1           0        1.721467    2.003440   -0.399834
      5          6           0        3.258854    2.897188    0.863868
      6          8           0        4.047450    2.534318    1.724628
      7          7           0        3.503581    3.961024    0.038404
      8          1           0        2.874593    4.102996   -0.742385
      9          6           0        4.791054    4.643732    0.007951
     10          1           0        5.308412    4.370270    0.927497
     11          6           0        5.631050    4.203271   -1.203178
     12          1           0        5.128291    4.467109   -2.141043
     13          1           0        6.604812    4.700425   -1.182727
     14          1           0        5.783085    3.120353   -1.176418
     15          6           0        4.692992    6.177255    0.007385
     16          8           0        5.630151    6.843099    0.432518
     17          7           0        3.595268    6.732509   -0.573057
     18          1           0        2.792231    6.156879   -0.764545
     19          6           0        3.442500    8.170272   -0.714837
     20          1           0        4.374899    8.632389   -0.389225
     21          1           0        3.247584    8.436324   -1.759508
     22          1           0        2.621009    8.545450   -0.093684
 ---------------------------------------------------------------------
                    Distance matrix (angstroms):
                    1          2          3          4          5
     1  H    0.000000
     2  C    1.090074   0.000000
     3  H    1.779111   1.095906   0.000000
     4  H    1.784557   1.096052   1.773902   0.000000
     5  C    2.142050   1.524652   2.158494   2.181579   0.000000
     6  O    2.544179   2.414055   3.050532   3.194584   1.222484
     7  N    3.337429   2.437186   2.797408   2.683304   1.368587
     8  H    3.568891   2.531905   2.765076   2.419747   2.044915
     9  C    4.599793   3.819105   4.200226   4.069373   2.476014
    10  H    4.613172   4.030745   4.455745   4.497762   2.524818
    11  C    5.334834   4.609551   5.203319   4.557352   3.406735
    12  H    5.655776   4.820052   5.343960   4.550596   3.871555
    13  H    6.305145   5.620406   6.188398   5.633268   4.316903
    14  H    4.939108   4.382176   5.166615   4.283377   3.253354
    15  C    5.760596   4.877071   4.964604   5.139701   3.680918
    16  O    6.738947   5.934701   6.033125   6.276378   4.623778
    17  N    5.973267   4.964954   4.839836   5.089718   4.109454
    18  H    5.326668   4.270144   4.077098   4.304719   3.673561
    19  C    7.306192   6.288229   6.021488   6.410226   5.507399
    20  H    7.910042   6.942425   6.750014   7.140293   5.975644
    21  H    7.854742   6.794815   6.553447   6.749796   6.128968
    22  H    7.398039   6.400679   5.953298   6.610658   5.764252
                    6          7          8          9         10
     6  O    0.000000
     7  N    2.274783   0.000000
     8  H    3.150000   1.012627   0.000000
     9  C    2.819496   1.457602   2.127962   0.000000
[...]
    13  H    6.429690   5.567164   5.794672   5.734263   4.319312
    14  H    5.216945   4.297352   4.651144   4.220185   3.265556
    15  C    5.578447   4.926108   4.928307   5.582967   3.683356
    16  O    6.587052   5.996199   6.093108   6.626032   4.642448
    17  N    5.683469   5.024902   4.730826   5.772708   4.100258
    18  H    4.919092   4.276085   3.855584   5.076058   3.584860
    19  C    6.905548   6.336881   5.961034   7.147545   5.465003
    20  H    7.696344   7.082828   6.794703   7.827288   6.066583
    21  H    7.280950   6.674960   6.132950   7.461726   6.004488
    22  H    6.940520   6.531550   6.196181   7.443625   5.670601
                    6          7          8          9         10
     6  O    0.000000
     7  N    2.291057   0.000000
     8  H    3.128414   1.014648   0.000000
     9  C    2.821917   1.466237   2.111482   0.000000
    10  H    2.328632   2.048595   2.933907   1.091824   0.000000
    11  C    3.762425   2.494693   2.680529   1.536602   2.158711
    12  H    4.492027   2.779461   2.557573   2.186197   3.077512
    13  H    4.474995   3.428999   3.707170   2.166131   2.509089
    14  H    3.501552   2.758881   2.951812   2.173279   2.476729
    15  C    4.040721   2.515669   2.959030   1.538185   2.119503
    16  O    4.751039   3.616735   4.143790   2.399657   2.573871
    17  N    4.753262   2.812580   2.879675   2.469809   3.274195
    18  H    4.417880   2.362661   2.262770   2.590566   3.435301
    19  C    6.060510   4.233841   4.274830   3.834525   4.511222
    20  H    6.544642   4.808028   4.912997   4.090061   4.692292
    21  H    6.751513   4.741371   4.556574   4.544644   5.351150
    22  H    6.166012   4.603163   4.785416   4.308387   4.799849
                   11         12         13         14         15
    11  C    0.000000
    12  H    1.097278   0.000000
    13  H    1.093576   1.773600   0.000000
    14  H    1.094777   1.782289   1.779442   0.000000
    15  C    2.512179   2.821380   2.687231   3.466478   0.000000
    16  O    3.092128   3.542953   2.815251   4.040953   1.223771
    17  N    3.328255   3.204870   3.687125   4.291622   1.370698
    18  H    3.552862   3.360217   4.163874   4.360574   2.028077
    19  C    4.616645   4.431140   4.765830   5.642519   2.452897
    20  H    4.657196   4.517330   4.554552   5.736740   2.600516
    21  H    5.175157   4.771492   5.409769   6.182163   3.322680
    22  H    5.334988   5.295303   5.495243   6.311520   2.937426
                   16         17         18         19         20
    16  O    0.000000
    17  N    2.282825   0.000000
    18  H    3.129425   1.011640   0.000000
    19  C    2.792599   1.456096   2.117229   0.000000
    20  H    2.489497   2.074124   2.970222   1.090819   0.000000
    21  H    3.792298   2.091745   2.433382   1.093708   1.784018
    22  H    3.154768   2.132521   2.580492   1.098205   1.772662
                   21         22
    21  H    0.000000
    22  H    1.785320   0.000000
 Stoichiometry    C6H12N2O2
 Framework group  C1[X(C6H12N2O2)]
 Deg. of freedom    60
 Full point group                 C1      NOp   1
 Largest Abelian subgroup         C1      NOp   1
 Largest concise Abelian subgroup C1      NOp   1
                         Standard orientation:                         
 ---------------------------------------------------------------------
 Center     Atomic      Atomic             Coordinates (Angstroms)
 Number     Number       Type             X           Y           Z
 ---------------------------------------------------------------------
      1          1           0       -3.757616   -1.702325   -0.454307
      2          6           0       -3.196093   -1.219065    0.348892
      3          1           0       -2.731117   -1.986088    0.976499
      4          1           0       -3.912255   -0.654123    0.956520
      5          6           0       -2.196210   -0.252463   -0.269020
      6          8           0       -2.487335    0.473974   -1.205006
      7          7           0       -0.930550   -0.280545    0.297014
      8          1           0       -0.896437   -0.677764    1.230054
      9          6           0        0.025618    0.800124    0.036731
     10          1           0       -0.336604    1.299093   -0.864327
     11          6           0        0.087083    1.815466    1.188447
     12          1           0        0.405140    1.334965    2.122244
     13          1           0        0.807425    2.602614    0.948835
     14          1           0       -0.895848    2.271862    1.343648
     15          6           0        1.444721    0.304583   -0.289761
     16          8           0        2.222168    1.023450   -0.903294
     17          7           0        1.817080   -0.881421    0.287782
     18          1           0        1.066406   -1.528036    0.492211
     19          6           0        3.127565   -1.453980    0.013882
     20          1           0        3.853085   -0.640408   -0.026207
     21          1           0        3.397716   -2.144886    0.817538
     22          1           0        3.159624   -1.988528   -0.944912
 ---------------------------------------------------------------------
 Rotational constants (GHZ):      2.1847132      0.7130074      0.6346792

 **********************************************************************

            Population analysis using the SCF density.

 **********************************************************************

 Orbital symmetries:
       Occupied  (A) (A) (A) (A) (A) (A) (A) (A) (A) (A) (A) (A)
                 (A) (A) (A) (A) (A) (A) (A) (A) (A) (A) (A) (A)
                 (A) (A) (A) (A) (A) (A) (A) (A) (A) (A) (A) (A)
                 (A) (A) (A)
       Virtual   (A) (A) (A) (A) (A) (A) (A) (A) (A) (A) (A) (A)
                 (A) (A) (A) (A) (A) (A) (A) (A) (A) (A) (A) (A)
                 (A) (A) (A) (A) (A) (A) (A) (A) (A) (A) (A) (A)
                 (A) (A) (A) (A) (A) (A) (A) (A) (A) (A) (A) (A)
                 (A) (A) (A) (A) (A) (A) (A) (A) (A) (A) (A) (A)
                 (A) (A) (A) (A) (A) (A) (A) (A) (A) (A) (A) (A)
                 (A) (A) (A) (A) (A) (A) (A) (A) (A) (A) (A) (A)
                 (A) (A) (A) (A) (A) (A) (A) (A) (A) (A) (A) (A)
                 (A) (A) (A) (A) (A) (A) (A) (A) (A) (A) (A) (A)
                 (A) (A) (A) (A) (A) (A) (A) (A) (A) (A) (A) (A)
                 (A) (A) (A) (A) (A) (A) (A) (A) (A) (A) (A) (A)
                 (A) (A) (A)
 The electronic state is 1-A.
 Alpha  occ. eigenvalues --  -19.12006 -19.11115 -14.37022 -14.36250 -10.29717
 Alpha  occ. eigenvalues --  -10.28324 -10.23292 -10.21915 -10.20092 -10.19034
 Alpha  occ. eigenvalues --   -1.04026  -1.03033  -0.93483  -0.91522  -0.78241
 Alpha  occ. eigenvalues --   -0.73496  -0.71001  -0.64612  -0.59200  -0.57954
 Alpha  occ. eigenvalues --   -0.53568  -0.48598  -0.48164  -0.45823  -0.45376
 Alpha  occ. eigenvalues --   -0.43850  -0.42661  -0.42018  -0.41276  -0.40482
 Alpha  occ. eigenvalues --   -0.39375  -0.38219  -0.37149  -0.36206  -0.34872
 Alpha  occ. eigenvalues --   -0.28102  -0.25876  -0.25616  -0.23908
 Alpha virt. eigenvalues --    0.01521   0.02268   0.05256   0.10063   0.11707
 Alpha virt. eigenvalues --    0.12092   0.13278   0.14567   0.15084   0.15558
 Alpha virt. eigenvalues --    0.16484   0.17344   0.17646   0.18468   0.19535
 Alpha virt. eigenvalues --    0.20072   0.23571   0.23803   0.27219   0.31105
 Alpha virt. eigenvalues --    0.34801   0.38282   0.40826   0.49468   0.51188
 Alpha virt. eigenvalues --    0.52150   0.53515   0.54080   0.54551   0.55365
 Alpha virt. eigenvalues --    0.57597   0.58347   0.61092   0.61990   0.65160
 Alpha virt. eigenvalues --    0.67132   0.68630   0.70650   0.72278   0.73280
 Alpha virt. eigenvalues --    0.74424   0.77707   0.78506   0.81927   0.83090
 Alpha virt. eigenvalues --    0.83965   0.84610   0.86105   0.86669   0.87306
 Alpha virt. eigenvalues --    0.89225   0.89679   0.91101   0.92206   0.93475
 Alpha virt. eigenvalues --    0.93782   0.94244   0.95503   0.97149   0.99377
 Alpha virt. eigenvalues --    1.03012   1.06390   1.07919   1.08962   1.12830
 Alpha virt. eigenvalues --    1.14814   1.21450   1.22777   1.27468   1.33766
 Alpha virt. eigenvalues --    1.35699   1.39115   1.41901   1.44744   1.46522
 Alpha virt. eigenvalues --    1.52265   1.58738   1.60163   1.67239   1.69226
 Alpha virt. eigenvalues --    1.71995   1.74200   1.76039   1.80185   1.80781
 Alpha virt. eigenvalues --    1.81905   1.82945   1.87107   1.89301   1.91343
 Alpha virt. eigenvalues --    1.92766   1.94738   1.96634   1.98227   2.01051
 Alpha virt. eigenvalues --    2.02914   2.04927   2.08727   2.11526   2.15395
 Alpha virt. eigenvalues --    2.18976   2.19886   2.21885   2.24795   2.27356
 Alpha virt. eigenvalues --    2.31249   2.34016   2.34228   2.37230   2.39895
 Alpha virt. eigenvalues --    2.45319   2.46598   2.51334   2.55546   2.63697
 Alpha virt. eigenvalues --    2.64811   2.66219   2.69695   2.77008   2.82773
 Alpha virt. eigenvalues --    2.92898   2.96797   3.00936   3.08653   3.14010
 Alpha virt. eigenvalues --    3.91092   3.95757   4.03733   4.12061   4.15836
 Alpha virt. eigenvalues --    4.21848   4.25122   4.38651   4.46177   4.64052
          Condensed to atoms (all electrons):
              1          2          3          4          5          6
     1  H    0.505776   0.361213  -0.025169  -0.021706  -0.018637   0.001972
     2  C    0.361213   5.326628   0.338654   0.362673   0.343632  -0.080153
     3  H   -0.025169   0.338654   0.580777  -0.026407  -0.024915   0.003102
     4  H   -0.021706   0.362673  -0.026407   0.520474  -0.021140  -0.000237
     5  C   -0.018637   0.343632  -0.024915  -0.021140   4.312379   0.596439
     6  O    0.001972  -0.080153   0.003102  -0.000237   0.596439   8.035310
     7  N    0.003098  -0.120480   0.006843   0.000814   0.258549  -0.093968
     8  H    0.000064   0.002334   0.001150  -0.000169  -0.019032   0.003136
     9  C   -0.000102   0.005912   0.000002  -0.000231  -0.018555  -0.004398
    10  H   -0.000014   0.001346  -0.000063  -0.000010  -0.000641   0.022075
    11  C   -0.000004  -0.000285  -0.000005   0.000073   0.000103  -0.000011
    12  H    0.000000  -0.000004   0.000001  -0.000001  -0.000258  -0.000011
    13  H    0.000000   0.000006   0.000000  -0.000001  -0.000093  -0.000022
    14  H    0.000002  -0.000067  -0.000006  -0.000005   0.002236   0.000507
    15  C    0.000004  -0.000124  -0.000006  -0.000002   0.001233   0.000265
    16  O    0.000000   0.000000   0.000000   0.000000   0.000003  -0.000001
    17  N    0.000000  -0.000009  -0.000003   0.000000   0.000165  -0.000001
    18  H   -0.000007  -0.000004   0.000075   0.000003   0.000516  -0.000015
    19  C    0.000000   0.000000   0.000000   0.000000  -0.000002   0.000000
    20  H    0.000000   0.000000   0.000000   0.000000   0.000000   0.000000
    21  H    0.000000   0.000000   0.000000   0.000000   0.000000   0.000000
    22  H    0.000000   0.000000   0.000000   0.000000   0.000000   0.000000
              7          8          9         10         11         12
     1  H    0.003098   0.000064  -0.000102  -0.000014  -0.000004   0.000000
     2  C   -0.120480   0.002334   0.005912   0.001346  -0.000285  -0.000004
     3  H    0.006843   0.001150   0.000002  -0.000063  -0.000005   0.000001
     4  H    0.000814  -0.000169  -0.000231  -0.000010   0.000073  -0.000001
     5  C    0.258549  -0.019032  -0.018555  -0.000641   0.000103  -0.000258
     6  O   -0.093968   0.003136  -0.004398   0.022075  -0.000011  -0.000011
     7  N    7.210165   0.281457   0.182468  -0.049321  -0.050294  -0.004849
     8  H    0.281457   0.436025  -0.028270   0.005339  -0.003161   0.005281
     9  C    0.182468  -0.028270   5.146385   0.362172   0.357641  -0.032154
    10  H   -0.049321   0.005339   0.362172   0.503872  -0.028216   0.004600
    11  C   -0.050294  -0.003161   0.357641  -0.028216   5.115892   0.367134
    12  H   -0.004849   0.005281  -0.032154   0.004600   0.367134   0.581473
    13  H    0.004937  -0.000098  -0.032458  -0.001560   0.367773  -0.026378
    14  H   -0.002054   0.000072  -0.030049  -0.004802   0.371059  -0.032249
    15  C   -0.033120  -0.002965   0.335372  -0.032223  -0.038172  -0.007253
    16  O    0.002259  -0.000061  -0.074440   0.003288  -0.002969  -0.000163
    17  N   -0.001592   0.002057  -0.112743   0.003904  -0.002707   0.004005
    18  H    0.019117   0.000168  -0.007016  -0.000057   0.001045  -0.000055
    19  C   -0.000246  -0.000035   0.006927  -0.000141  -0.000113  -0.000090
    20  H   -0.000028   0.000000   0.000411  -0.000023  -0.000006  -0.000013
    21  H   -0.000008  -0.000003  -0.000122   0.000000   0.000011  -0.000005
    22  H   -0.000008   0.000010   0.000011   0.000026  -0.000011   0.000004
             13         14         15         16         17         18
     1  H    0.000000   0.000002   0.000004   0.000000   0.000000  -0.000007
     2  C    0.000006  -0.000067  -0.000124   0.000000  -0.000009  -0.000004
     3  H    0.000000  -0.000006  -0.000006   0.000000  -0.000003   0.000075
     4  H   -0.000001  -0.000005  -0.000002   0.000000   0.000000   0.000003
     5  C   -0.000093   0.002236   0.001233   0.000003   0.000165   0.000516
     6  O   -0.000022   0.000507   0.000265  -0.000001  -0.000001  -0.000015
     7  N    0.004937  -0.002054  -0.033120   0.002259  -0.001592   0.019117
     8  H   -0.000098   0.000072  -0.002965  -0.000061   0.002057   0.000168
     9  C   -0.032458  -0.030049   0.335372  -0.074440  -0.112743  -0.007016
    10  H   -0.001560  -0.004802  -0.032223   0.003288   0.003904  -0.000057
    11  C    0.367773   0.371059  -0.038172  -0.002969  -0.002707   0.001045
    12  H   -0.026378  -0.032249  -0.007253  -0.000163   0.004005  -0.000055
    13  H    0.520526  -0.023996   0.000129   0.006039   0.000199  -0.000089
    14  H   -0.023996   0.552717   0.004300  -0.000012  -0.000109  -0.000016
    15  C    0.000129   0.004300   4.387074   0.575837   0.259280  -0.019644
    16  O    0.006039  -0.000012   0.575837   8.079014  -0.095969   0.003493
    17  N    0.000199  -0.000109   0.259280  -0.095969   7.091193   0.290251
    18  H   -0.000089  -0.000016  -0.019644   0.003493   0.290251   0.420384
    19  C   -0.000018   0.000004  -0.024983   0.000393   0.272428  -0.033679
    20  H    0.000002   0.000000  -0.002491   0.013697  -0.039287   0.004099
    21  H    0.000000   0.000000   0.004611   0.000548  -0.036947  -0.001629
    22  H   -0.000001   0.000000  -0.002644   0.000947  -0.044216  -0.000586
             19         20         21         22
     1  H    0.000000   0.000000   0.000000   0.000000
     2  C    0.000000   0.000000   0.000000   0.000000
     3  H    0.000000   0.000000   0.000000   0.000000
     4  H    0.000000   0.000000   0.000000   0.000000
     5  C   -0.000002   0.000000   0.000000   0.000000
     6  O    0.000000   0.000000   0.000000   0.000000
     7  N   -0.000246  -0.000028  -0.000008  -0.000008
     8  H   -0.000035   0.000000  -0.000003   0.000010
     9  C    0.006927   0.000411  -0.000122   0.000011
    10  H   -0.000141  -0.000023   0.000000   0.000026
    11  C   -0.000113  -0.000006   0.000011  -0.000011
    12  H   -0.000090  -0.000013  -0.000005   0.000004
    13  H   -0.000018   0.000002   0.000000  -0.000001
    14  H    0.000004   0.000000   0.000000   0.000000
    15  C   -0.024983  -0.002491   0.004611  -0.002644
    16  O    0.000393   0.013697   0.000548   0.000947
    17  N    0.272428  -0.039287  -0.036947  -0.044216
    18  H   -0.033679   0.004099  -0.001629  -0.000586
    19  C    4.944799   0.381227   0.372993   0.386644
    20  H    0.381227   0.500775  -0.022758  -0.032524
    21  H    0.372993  -0.022758   0.570859  -0.038600
    22  H    0.386644  -0.032524  -0.038600   0.568722
 Mulliken atomic charges:
              1
     1  H    0.193511
     2  C   -0.541274
     3  H    0.145973
     4  H    0.185873
     5  C    0.588019
     6  O   -0.483987
     7  N   -0.613739
     8  H    0.316704
     9  C   -0.056762
    10  H    0.210450
    11  C   -0.454776
    12  H    0.140984
    13  H    0.185103
    14  H    0.162468
    15  C    0.595522
    16  O   -0.511905
    17  N   -0.589899
    18  H    0.323647
    19  C   -0.306106
    20  H    0.196919
    21  H    0.151051
    22  H    0.162225
 Sum of Mulliken atomic charges =   0.00000
 Mulliken charges with hydrogens summed into heavy atoms:
              1
     2  C   -0.015917
     5  C    0.588019
     6  O   -0.483987
     7  N   -0.297035
     9  C    0.153688
    11  C    0.033779
    15  C    0.595522
    16  O   -0.511905
    17  N   -0.266252
    19  C    0.204088
 Sum of Mulliken charges with hydrogens summed into heavy atoms =   0.00000
 Electronic spatial extent (au):  <R**2>=           1908.1289
 Charge=              0.0000 electrons
 Dipole moment (field-independent basis, Debye):
    X=             -0.6104    Y=             -3.7221    Z=              4.3258  Tot=              5.7393
 Quadrupole moment (field-independent basis, Debye-Ang):
   XX=            -63.4323   YY=            -57.0290   ZZ=            -62.7077
   XY=             -2.1043   XZ=             -3.1098   YZ=              2.3559
 Traceless Quadrupole moment (field-independent basis, Debye-Ang):
   XX=             -2.3760   YY=              4.0274   ZZ=             -1.6514
   XY=             -2.1043   XZ=             -3.1098   YZ=              2.3559
 Octapole moment (field-independent basis, Debye-Ang**2):
  XXX=              0.0278  YYY=             -2.7837  ZZZ=              0.4958  XYY=             -0.0275
  XXY=            -29.1642  XXZ=             21.3705  XZZ=              1.2253  YZZ=             -5.0249
  YYZ=              3.1378  XYZ=              0.7776
 Hexadecapole moment (field-independent basis, Debye-Ang**3):
 XXXX=          -1643.7510 YYYY=           -493.2105 ZZZZ=           -248.1084 XXXY=             -8.7431
 XXXZ=            -18.9454 YYYX=            -10.1543 YYYZ=             -5.9895 ZZZX=             -5.4538
 ZZZY=             -5.2270 XXYY=           -358.3954 XXZZ=           -348.1760 YYZZ=           -124.3094
 XXYZ=             22.8852 YYXZ=              8.5807 ZZXY=             -0.0934
 N-N= 5.484059650198D+02 E-N=-2.252636694398D+03  KE= 4.912362747477D+02
 1\1\GINC-NODE004\FOpt\RB3LYP\6-31G(d)\C6H12N2O2\STEBOSS\10-Feb-2017\0\
 \# b3lyp/6-31G* Opt=(ModRedundant, maxcycles=1000, calcfc) geom=nocrow
 d\\Phi Psi fixed scan\\0,1\H,1.4334987382,1.9659037993,1.5281669993\C,
 1.9363020846,2.1793149179,0.5817937803\H,1.244350018,2.7046999111,-0.0
 842316866\H,2.2011160266,1.2181563739,0.1264860308\C,3.2098287598,2.96
 01927316,0.8720707127\O,3.9513579449,2.6738629552,1.7976420725\N,3.445
 6175089,4.0297874131,0.0215125793\H,2.9496583357,3.9808557452,-0.86230
 89066\C,4.7678683239,4.6611774644,-0.0318681611\H,5.2686436775,4.36756
 62771,0.8928463594\C,5.5970912726,4.1792592094,-1.23240533\H,5.0976698
 469,4.4193743442,-2.1794756205\H,6.5733689076,4.6719822767,-1.22860335
 87\H,5.7480752142,3.0963108801,-1.1779609083\C,4.7195834895,6.19857672
 62,-0.0227019124\O,5.6966035704,6.8433461095,0.3341180467\N,3.60992376
 95,6.7704358261,-0.588780293\H,2.7643296846,6.2158060253,-0.5610150168
 \C,3.4519545503,8.2179013345,-0.5990268927\H,4.4278391056,8.6656722514
 ,-0.7914738895\H,2.7565951821,8.5021920985,-1.3939178017\H,3.080323988
 7,8.6060253292,0.3587331968\\Version=EM64L-G09RevA.02\State=1-A\HF=-49
 5.8442784\RMSD=9.447e-09\RMSF=1.485e-03\Dipole=-1.6914067,-0.1553612,-
 1.4878214\Quadrupole=1.4910737,0.6406415,-2.1317152,-2.4410606,-0.9341
 433,2.690305\PG=C01 [X(C6H12N2O2)]\\@


 ONE THORN OF EXPERIENCE IS WORTH A WHOLE WILDERNESS OF
 WARNING....  LOWELL - AMONG MY BOOKS
 Job cpu time:  0 days  2 hours 57 minutes 43.0 seconds.
 File lengths (MBytes):  RWF=    186 Int=      0 D2E=      0 Chk=      4 Scr=      2
 Normal termination of Gaussian 09 at Fri Feb 10 22:32:45 2017.
