 Entering Gaussian System, Link 0=g09
 Initial command:
 /home/steboss/Software/g09/l1.exe /home/steboss/projects/phi_psi_scan/alanine/225/4379/Gau-1687.inp -scrdir=/home/steboss/projects/phi_psi_scan/alanine/225/4379/
 Entering Link 1 = /home/steboss/Software/g09/l1.exe PID=      1689.
  
 Copyright (c) 1988,1990,1992,1993,1995,1998,2003,2009, Gaussian, Inc.
                  All Rights Reserved.
  
 This is part of the Gaussian(R) 09 program.  It is based on
 the Gaussian(R) 03 system (copyright 2003, Gaussian, Inc.),
 the Gaussian(R) 98 system (copyright 1998, Gaussian, Inc.),
 the Gaussian(R) 94 system (copyright 1995, Gaussian, Inc.),
 the Gaussian 92(TM) system (copyright 1992, Gaussian, Inc.),
 the Gaussian 90(TM) system (copyright 1990, Gaussian, Inc.),
 the Gaussian 88(TM) system (copyright 1988, Gaussian, Inc.),
 the Gaussian 86(TM) system (copyright 1986, Carnegie Mellon
 University), and the Gaussian 82(TM) system (copyright 1983,
 Carnegie Mellon University). Gaussian is a federally registered
 trademark of Gaussian, Inc.
  
 This software contains proprietary and confidential information,
 including trade secrets, belonging to Gaussian, Inc.
  
 This software is provided under written license and may be
 used, copied, transmitted, or stored only in accord with that
 written license.
  
 The following legend is applicable only to US Government
 contracts under FAR:
  
                    RESTRICTED RIGHTS LEGEND
  
 Use, reproduction and disclosure by the US Government is
 subject to restrictions as set forth in subparagraphs (a)
 and (c) of the Commercial Computer Software - Restricted
 Rights clause in FAR 52.227-19.
  
 Gaussian, Inc.
 340 Quinnipiac St., Bldg. 40, Wallingford CT 06492
  
  
 ---------------------------------------------------------------
 Warning -- This program may not be used in any manner that
 competes with the business of Gaussian, Inc. or will provide
 assistance to any competitor of Gaussian, Inc.  The licensee
 of this program is prohibited from giving any competitor of
 Gaussian, Inc. access to this program.  By using this program,
 the user acknowledges that Gaussian, Inc. is engaged in the
 business of creating and licensing software in the field of
 computational chemistry and represents and warrants to the
 licensee that it is not a competitor of Gaussian, Inc. and that
 it will not use this program in any manner prohibited above.
 ---------------------------------------------------------------
  

 Cite this work as:
 Gaussian 09, Revision A.02,
 M. J. Frisch, G. W. Trucks, H. B. Schlegel, G. E. Scuseria, 
 M. A. Robb, J. R. Cheeseman, G. Scalmani, V. Barone, B. Mennucci, 
 G. A. Petersson, H. Nakatsuji, M. Caricato, X. Li, H. P. Hratchian, 
 A. F. Izmaylov, J. Bloino, G. Zheng, J. L. Sonnenberg, M. Hada, 
 M. Ehara, K. Toyota, R. Fukuda, J. Hasegawa, M. Ishida, T. Nakajima, 
 Y. Honda, O. Kitao, H. Nakai, T. Vreven, J. A. Montgomery, Jr., 
 J. E. Peralta, F. Ogliaro, M. Bearpark, J. J. Heyd, E. Brothers, 
 K. N. Kudin, V. N. Staroverov, R. Kobayashi, J. Normand, 
 K. Raghavachari, A. Rendell, J. C. Burant, S. S. Iyengar, J. Tomasi, 
 M. Cossi, N. Rega, J. M. Millam, M. Klene, J. E. Knox, J. B. Cross, 
 V. Bakken, C. Adamo, J. Jaramillo, R. Gomperts, R. E. Stratmann, 
 O. Yazyev, A. J. Austin, R. Cammi, C. Pomelli, J. W. Ochterski, 
 R. L. Martin, K. Morokuma, V. G. Zakrzewski, G. A. Voth, 
 P. Salvador, J. J. Dannenberg, S. Dapprich, A. D. Daniels, 
 O. Farkas, J. B. Foresman, J. V. Ortiz, J. Cioslowski, 
 and D. J. Fox, Gaussian, Inc., Wallingford CT, 2009.
 
 ******************************************
 Gaussian 09:  EM64L-G09RevA.02 11-Jun-2009
                10-Feb-2017 
 ******************************************
 %chk=structure_255.chk
 %NProcShared=8
 Will use up to    8 processors via shared memory.
 ----------------------------------------------------------------------
 # b3lyp/6-31G* Opt=(ModRedundant, maxcycles=1000, calcfc) geom=nocrowd
 ----------------------------------------------------------------------
 1/6=1000,10=4,14=-1,18=120,19=15,26=3,38=1/1,3;
 2/9=110,12=1,17=6,18=5,40=1/2;
 3/5=1,6=6,7=1,11=2,16=1,25=1,30=1,71=2,74=-5/1,2,3;
 4//1;
 5/5=2,38=5/2;
 8/6=4,10=90,11=11/1;
 11/6=1,8=1,9=11,15=111,16=1/1,2,10;
 10/6=1,7=6,13=1/2;
 6/7=2,8=2,9=2,10=2,28=1/1;
 7/10=1,18=20,25=1/1,2,3,16;
 1/6=1000,10=4,14=-1,18=20,19=15/3(2);
 2/9=110,12=1/2;
 99//99;
 2/9=110,12=1/2;
 3/5=1,6=6,7=1,11=2,16=1,25=1,30=1,71=1,74=-5/1,2,3;
 4/5=5,16=3/1;
 5/5=2,38=5/2;
 7//1,2,3,16;
 1/6=1000,14=-1,18=20,19=15/3(-5);
 2/9=110,12=1/2;
 6/7=2,8=2,9=2,10=2,19=2,28=1/1;
 99/9=1/99;
 ------------------
 Phi Psi fixed scan
 ------------------
 Symbolic Z-matrix:
 Charge =  0 Multiplicity = 1
 H                     1.7437    1.5164    1.3919 
 C                     1.8708    2.3503    0.7015 
 H                     1.1495    3.1323    0.9387 
 H                     1.709     2.0051   -0.3197 
 C                     3.2798    2.9381    0.8014 
 O                     4.0982    2.4665    1.5877 
 N                     3.5554    3.9697    0. 
 H                     2.8491    4.3224   -0.63 
 C                     4.8533    4.6139    0. 
 H                     5.4076    4.3155    0.8898 
 C                     5.6613    4.2208   -1.2322 
 H                     5.1233    4.5214   -2.1312 
 H                     6.6305    4.7189   -1.2058 
 H                     5.8085    3.1409   -1.2414 
 C                     4.7127    6.1294    0. 
 O                     4.3822    6.7252    1.0229 
 N                     4.9651    6.7532   -1.153 
 H                     5.2337    6.2197   -1.9675 
 C                     4.8663    8.193    -1.2823 
 H                     4.5691    8.6246   -0.3265 
 H                     5.8335    8.5989   -1.5786 
 H                     4.1219    8.4401   -2.0392 
 
 The following ModRedundant input section has been read:
 D    5    7    9   15 F                                                       
 D    7    9   15   17 F                                                       

 GradGradGradGradGradGradGradGradGradGradGradGradGradGradGradGradGradGrad
 Berny optimization.
 Initialization pass.
                           ----------------------------
                           !    Initial Parameters    !
                           ! (Angstroms and Degrees)  !
 --------------------------                            --------------------------
 ! Name  Definition              Value          Derivative Info.                !
 --------------------------------------------------------------------------------
 ! R1    R(1,2)                  1.09           calculate D2E/DX2 analytically  !
 ! R2    R(2,3)                  1.09           calculate D2E/DX2 analytically  !
 ! R3    R(2,4)                  1.09           calculate D2E/DX2 analytically  !
 ! R4    R(2,5)                  1.53           calculate D2E/DX2 analytically  !
 ! R5    R(5,6)                  1.229          calculate D2E/DX2 analytically  !
 ! R6    R(5,7)                  1.3351         calculate D2E/DX2 analytically  !
 ! R7    R(7,8)                  1.01           calculate D2E/DX2 analytically  !
 ! R8    R(7,9)                  1.449          calculate D2E/DX2 analytically  !
 ! R9    R(9,10)                 1.09           calculate D2E/DX2 analytically  !
 ! R10   R(9,11)                 1.525          calculate D2E/DX2 analytically  !
 ! R11   R(9,15)                 1.522          calculate D2E/DX2 analytically  !
 ! R12   R(11,12)                1.09           calculate D2E/DX2 analytically  !
 ! R13   R(11,13)                1.09           calculate D2E/DX2 analytically  !
 ! R14   R(11,14)                1.0899         calculate D2E/DX2 analytically  !
 ! R15   R(15,16)                1.229          calculate D2E/DX2 analytically  !
 ! R16   R(15,17)                1.335          calculate D2E/DX2 analytically  !
 ! R17   R(17,18)                1.01           calculate D2E/DX2 analytically  !
 ! R18   R(17,19)                1.449          calculate D2E/DX2 analytically  !
 ! R19   R(19,20)                1.09           calculate D2E/DX2 analytically  !
 ! R20   R(19,21)                1.09           calculate D2E/DX2 analytically  !
 ! R21   R(19,22)                1.09           calculate D2E/DX2 analytically  !
 ! A1    A(1,2,3)              109.5033         calculate D2E/DX2 analytically  !
 ! A2    A(1,2,4)              109.4991         calculate D2E/DX2 analytically  !
 ! A3    A(1,2,5)              111.0965         calculate D2E/DX2 analytically  !
 ! A4    A(3,2,4)              109.4419         calculate D2E/DX2 analytically  !
 ! A5    A(3,2,5)              108.6381         calculate D2E/DX2 analytically  !
 ! A6    A(4,2,5)              108.6351         calculate D2E/DX2 analytically  !
 ! A7    A(2,5,6)              120.5047         calculate D2E/DX2 analytically  !
 ! A8    A(2,5,7)              116.6015         calculate D2E/DX2 analytically  !
 ! A9    A(6,5,7)              122.8938         calculate D2E/DX2 analytically  !
 ! A10   A(5,7,8)              119.9924         calculate D2E/DX2 analytically  !
 ! A11   A(5,7,9)              121.9002         calculate D2E/DX2 analytically  !
 ! A12   A(8,7,9)              118.1074         calculate D2E/DX2 analytically  !
 ! A13   A(7,9,10)             109.5            calculate D2E/DX2 analytically  !
 ! A14   A(7,9,11)             111.0992         calculate D2E/DX2 analytically  !
 ! A15   A(7,9,15)             111.0966         calculate D2E/DX2 analytically  !
 ! A16   A(10,9,11)            108.6382         calculate D2E/DX2 analytically  !
 ! A17   A(10,9,15)            108.6373         calculate D2E/DX2 analytically  !
 ! A18   A(11,9,15)            107.7947         calculate D2E/DX2 analytically  !
 ! A19   A(9,11,12)            109.5007         calculate D2E/DX2 analytically  !
 ! A20   A(9,11,13)            109.4959         calculate D2E/DX2 analytically  !
 ! A21   A(9,11,14)            109.4978         calculate D2E/DX2 analytically  !
 ! A22   A(12,11,13)           109.441          calculate D2E/DX2 analytically  !
 ! A23   A(12,11,14)           109.4482         calculate D2E/DX2 analytically  !
 ! A24   A(13,11,14)           109.4436         calculate D2E/DX2 analytically  !
 ! A25   A(9,15,16)            120.5            calculate D2E/DX2 analytically  !
 ! A26   A(9,15,17)            116.6027         calculate D2E/DX2 analytically  !
 ! A27   A(16,15,17)           122.8974         calculate D2E/DX2 analytically  !
 ! A28   A(15,17,18)           119.9957         calculate D2E/DX2 analytically  !
 ! A29   A(15,17,19)           121.9032         calculate D2E/DX2 analytically  !
 ! A30   A(18,17,19)           118.1011         calculate D2E/DX2 analytically  !
 ! A31   A(17,19,20)           109.4991         calculate D2E/DX2 analytically  !
 ! A32   A(17,19,21)           109.4992         calculate D2E/DX2 analytically  !
 ! A33   A(17,19,22)           109.4994         calculate D2E/DX2 analytically  !
 ! A34   A(20,19,21)           109.4425         calculate D2E/DX2 analytically  !
 ! A35   A(20,19,22)           109.4467         calculate D2E/DX2 analytically  !
 ! A36   A(21,19,22)           109.4404         calculate D2E/DX2 analytically  !
 ! D1    D(1,2,5,6)             -0.0029         calculate D2E/DX2 analytically  !
 ! D2    D(1,2,5,7)           -179.998          calculate D2E/DX2 analytically  !
 ! D3    D(3,2,5,6)            120.5126         calculate D2E/DX2 analytically  !
 ! D4    D(3,2,5,7)            -59.4825         calculate D2E/DX2 analytically  !
 ! D5    D(4,2,5,6)           -120.5113         calculate D2E/DX2 analytically  !
 ! D6    D(4,2,5,7)             59.4936         calculate D2E/DX2 analytically  !
 ! D7    D(2,5,7,8)             -0.0069         calculate D2E/DX2 analytically  !
 ! D8    D(2,5,7,9)           -180.0            calculate D2E/DX2 analytically  !
 ! D9    D(6,5,7,8)            179.9982         calculate D2E/DX2 analytically  !
 ! D10   D(6,5,7,9)              0.0051         calculate D2E/DX2 analytically  !
 ! D11   D(5,7,9,10)           -15.0041         calculate D2E/DX2 analytically  !
 ! D12   D(5,7,9,11)           104.9985         calculate D2E/DX2 analytically  !
 ! D13   D(5,7,9,15)          -135.004          frozen, calculate D2E/DX2 analyt!
 ! D14   D(8,7,9,10)           165.0026         calculate D2E/DX2 analytically  !
 ! D15   D(8,7,9,11)           -74.9948         calculate D2E/DX2 analytically  !
 ! D16   D(8,7,9,15)            45.0028         calculate D2E/DX2 analytically  !
 ! D17   D(7,9,11,12)           60.0024         calculate D2E/DX2 analytically  !
 ! D18   D(7,9,11,13)          179.9986         calculate D2E/DX2 analytically  !
 ! D19   D(7,9,11,14)          -60.0038         calculate D2E/DX2 analytically  !
 ! D20   D(10,9,11,12)        -179.4843         calculate D2E/DX2 analytically  !
 ! D21   D(10,9,11,13)         -59.4881         calculate D2E/DX2 analytically  !
 ! D22   D(10,9,11,14)          60.5095         calculate D2E/DX2 analytically  !
 ! D23   D(15,9,11,12)         -61.938          calculate D2E/DX2 analytically  !
 ! D24   D(15,9,11,13)          58.0582         calculate D2E/DX2 analytically  !
 ! D25   D(15,9,11,14)         178.0558         calculate D2E/DX2 analytically  !
 ! D26   D(7,9,15,16)           75.0019         calculate D2E/DX2 analytically  !
 ! D27   D(7,9,15,17)         -105.0            frozen, calculate D2E/DX2 analyt!
 ! D28   D(10,9,15,16)         -45.5091         calculate D2E/DX2 analytically  !
 ! D29   D(10,9,15,17)         134.4889         calculate D2E/DX2 analytically  !
 ! D30   D(11,9,15,16)        -163.056          calculate D2E/DX2 analytically  !
 ! D31   D(11,9,15,17)          16.942          calculate D2E/DX2 analytically  !
 ! D32   D(9,15,17,18)           0.0049         calculate D2E/DX2 analytically  !
 ! D33   D(9,15,17,19)         179.9992         calculate D2E/DX2 analytically  !
 ! D34   D(16,15,17,18)       -179.9971         calculate D2E/DX2 analytically  !
 ! D35   D(16,15,17,19)         -0.0028         calculate D2E/DX2 analytically  !
 ! D36   D(15,17,19,20)          0.0032         calculate D2E/DX2 analytically  !
 ! D37   D(15,17,19,21)        120.0022         calculate D2E/DX2 analytically  !
 ! D38   D(15,17,19,22)       -120.0011         calculate D2E/DX2 analytically  !
 ! D39   D(18,17,19,20)        179.9976         calculate D2E/DX2 analytically  !
 ! D40   D(18,17,19,21)        -60.0033         calculate D2E/DX2 analytically  !
 ! D41   D(18,17,19,22)         59.9933         calculate D2E/DX2 analytically  !
 --------------------------------------------------------------------------------
 Trust Radius=3.00D-01 FncErr=1.00D-07 GrdErr=1.00D-06
 Number of steps in this run= 132 maximum allowed number of steps= 132.
 GradGradGradGradGradGradGradGradGradGradGradGradGradGradGradGradGradGrad

                          Input orientation:                          
 ---------------------------------------------------------------------
 Center     Atomic      Atomic             Coordinates (Angstroms)
 Number     Number       Type             X           Y           Z
 ---------------------------------------------------------------------
      1          1           0        1.743700    1.516400    1.391900
      2          6           0        1.870800    2.350300    0.701500
      3          1           0        1.149500    3.132300    0.938700
      4          1           0        1.709000    2.005100   -0.319700
      5          6           0        3.279800    2.938100    0.801400
      6          8           0        4.098200    2.466500    1.587700
      7          7           0        3.555400    3.969700    0.000000
      8          1           0        2.849100    4.322400   -0.630000
      9          6           0        4.853300    4.613900    0.000000
     10          1           0        5.407600    4.315500    0.889800
     11          6           0        5.661300    4.220800   -1.232200
     12          1           0        5.123300    4.521400   -2.131200
     13          1           0        6.630500    4.718900   -1.205800
     14          1           0        5.808500    3.140900   -1.241400
     15          6           0        4.712700    6.129400    0.000000
     16          8           0        4.382200    6.725200    1.022900
     17          7           0        4.965100    6.753200   -1.153000
     18          1           0        5.233700    6.219700   -1.967500
     19          6           0        4.866300    8.193000   -1.282300
     20          1           0        4.569100    8.624600   -0.326500
     21          1           0        5.833500    8.598900   -1.578600
     22          1           0        4.121900    8.440100   -2.039200
 ---------------------------------------------------------------------
                    Distance matrix (angstroms):
                    1          2          3          4          5
     1  H    0.000000
     2  C    1.090044   0.000000
     3  H    1.780336   1.089982   0.000000
     4  H    1.780339   1.090042   1.779660   0.000000
     5  C    2.174747   1.529957   2.143535   2.143541   0.000000
     6  O    2.546507   2.400034   3.091815   3.091818   1.229005
     7  N    3.352361   2.439761   2.714913   2.714969   1.335064
     8  H    3.630926   2.572769   2.601115   2.601152   2.037325
     9  C    4.604509   3.809369   4.098101   4.098130   2.434430
    10  H    4.638020   4.050484   4.419702   4.525536   2.536253
    11  C    5.435740   4.648210   5.123864   4.621976   3.384138
    12  H    5.732709   4.828729   5.210084   4.612022   3.808605
    13  H    6.394127   5.648257   6.095699   5.689556   4.292702
    14  H    5.108412   4.461546   5.143850   4.352640   3.257067
    15  C    5.659692   4.780177   4.749754   5.112169   3.588849
    16  O    5.850593   5.054718   4.833877   5.588194   3.950503
    17  N    6.654172   5.692046   5.660824   5.817304   4.605964
    18  H    6.751792   5.779698   5.887166   5.735992   4.717354
    19  C    7.840852   6.858981   6.660190   7.013220   5.871351
    20  H    7.839789   6.906841   6.592401   7.210964   5.938917
    21  H    8.701272   7.742535   7.626295   7.878739   6.650597
    22  H    8.084918   7.047308   6.773167   7.084348   6.249012
                    6          7          8          9         10
     6  O    0.000000
     7  N    2.252783   0.000000
     8  H    3.150049   1.010028   0.000000
     9  C    2.775301   1.448978   2.121012   0.000000
    10  H    2.370737   2.083739   2.975863   1.089970   0.000000
    11  C    3.670516   2.452791   2.877748   1.525027   2.139209
    12  H    4.370774   2.702720   2.732250   2.150225   3.041326
    13  H    4.391980   3.386959   3.845484   2.150214   2.459625
    14  H    3.373981   2.702673   3.244657   2.150165   2.466256
    15  C    4.039213   2.450234   2.671171   1.522008   2.136554
    16  O    4.305367   3.053310   3.294833   2.392874   2.622178
    17  N    5.161274   3.326340   3.264931   2.432799   3.211109
    18  H    5.292950   3.427863   3.327908   2.567947   3.438078
    19  C    6.451332   4.604239   4.413177   3.801897   4.477279
    20  H    6.465919   4.775174   4.643214   4.033991   4.555306
    21  H    7.116393   5.395481   5.300466   4.396930   4.962046
    22  H    6.988481   4.946083   4.534459   4.396941   5.219616
                   11         12         13         14         15
    11  C    0.000000
    12  H    1.089957   0.000000
    13  H    1.090023   1.779613   0.000000
    14  H    1.089925   1.779613   1.779617   0.000000
    15  C    2.461892   2.701161   2.668599   3.416575   0.000000
    16  O    3.604663   3.918458   3.747959   4.473097   1.229037
    17  N    2.627550   2.441891   2.629586   3.710505   1.335006
    18  H    2.172351   1.709739   2.187153   3.215062   2.037315
    19  C    4.051285   3.777212   3.897130   5.139370   2.434406
    20  H    4.626732   4.516672   4.503002   5.695974   2.520565
    21  H    4.395157   4.175615   3.978516   5.468463   3.137929
    22  H    4.563277   4.045674   4.564533   5.618062   3.137948
                   16         17         18         19         20
    16  O    0.000000
    17  N    2.252798   0.000000
    18  H    3.150091   1.010039   0.000000
    19  C    2.775380   1.448967   2.120942   0.000000
    20  H    2.337420   2.083760   2.986322   1.090028   0.000000
    21  H    3.519208   2.083714   2.484270   1.089965   1.779641
    22  H    3.519246   2.083739   2.484234   1.089994   1.779710
                   21         22
    21  H    0.000000
    22  H    1.779591   0.000000
 Stoichiometry    C6H12N2O2
 Framework group  C1[X(C6H12N2O2)]
 Deg. of freedom    60
 Full point group                 C1      NOp   1
 Largest Abelian subgroup         C1      NOp   1
 Largest concise Abelian subgroup C1      NOp   1
                         Standard orientation:                         
 ---------------------------------------------------------------------
 Center     Atomic      Atomic             Coordinates (Angstroms)
 Number     Number       Type             X           Y           Z
 ---------------------------------------------------------------------
      1          1           0       -4.277784   -0.845601    0.513623
      2          6           0       -3.280316   -0.807531    0.951578
      3          1           0       -2.939256   -1.819795    1.168517
      4          1           0       -3.310206   -0.229033    1.874962
      5          6           0       -2.283563   -0.150220   -0.005080
      6          8           0       -2.649543    0.253629   -1.106632
      7          7           0       -1.023291   -0.046594    0.423140
      8          1           0       -0.770539   -0.393630    1.337383
      9          6           0        0.014283    0.556092   -0.389109
     10          1           0       -0.330891    0.635875   -1.419897
     11          6           0        0.366291    1.951188    0.116366
     12          1           0        0.722335    1.886570    1.144501
     13          1           0        1.147419    2.379374   -0.511842
     14          1           0       -0.518813    2.586060    0.078063
     15          6           0        1.284767   -0.281643   -0.365065
     16          8           0        1.352306   -1.330785   -1.001675
     17          7           0        2.294605    0.184910    0.373039
     18          1           0        2.191276    1.052933    0.879040
     19          6           0        3.556222   -0.520003    0.477555
     20          1           0        3.514446   -1.431153   -0.119287
     21          1           0        4.360637    0.117457    0.110694
     22          1           0        3.743968   -0.777305    1.519973
 ---------------------------------------------------------------------
 Rotational constants (GHZ):      2.7084368      0.6676783      0.6296877
 Standard basis: 6-31G(d) (6D, 7F)
 There are   174 symmetry adapted basis functions of A   symmetry.
 Integral buffers will be    131072 words long.
 Raffenetti 2 integral format.
 Two-electron integral symmetry is turned on.
   174 basis functions,   328 primitive gaussians,   174 cartesian basis functions
    39 alpha electrons       39 beta electrons
       nuclear repulsion energy       553.4455536431 Hartrees.
 NAtoms=   22 NActive=   22 NUniq=   22 SFac= 7.50D-01 NAtFMM=   80 NAOKFM=F Big=F
 One-electron integrals computed using PRISM.
 NBasis=   174 RedAO= T  NBF=   174
 NBsUse=   174 1.00D-06 NBFU=   174
 Harris functional with IExCor=  402 diagonalized for initial guess.
 ExpMin= 1.61D-01 ExpMax= 5.48D+03 ExpMxC= 8.25D+02 IAcc=1 IRadAn=         1 AccDes= 0.00D+00
 HarFok:  IExCor=  402 AccDes= 0.00D+00 IRadAn=         1 IDoV= 1
 ScaDFX=  1.000000  1.000000  1.000000  1.000000
 FoFCou: FMM=F IPFlag=           0 FMFlag=      100000 FMFlg1=           0
         NFxFlg=           0 DoJE=T BraDBF=F KetDBF=T FulRan=T
         Omega=  0.000000  0.000000  1.000000  0.000000  0.000000 ICntrl=     500 IOpCl=  0
         NMat0=    1 NMatS0=    1 NMatT0=    0 NMatD0=    1 NMtDS0=    0 NMtDT0=    0
         I1Cent=           4 NGrid=           0.
 Petite list used in FoFCou.
 Initial guess orbital symmetries:
       Occupied  (A) (A) (A) (A) (A) (A) (A) (A) (A) (A) (A) (A)
                 (A) (A) (A) (A) (A) (A) (A) (A) (A) (A) (A) (A)
                 (A) (A) (A) (A) (A) (A) (A) (A) (A) (A) (A) (A)
                 (A) (A) (A)
       Virtual   (A) (A) (A) (A) (A) (A) (A) (A) (A) (A) (A) (A)
                 (A) (A) (A) (A) (A) (A) (A) (A) (A) (A) (A) (A)
                 (A) (A) (A) (A) (A) (A) (A) (A) (A) (A) (A) (A)
                 (A) (A) (A) (A) (A) (A) (A) (A) (A) (A) (A) (A)
                 (A) (A) (A) (A) (A) (A) (A) (A) (A) (A) (A) (A)
                 (A) (A) (A) (A) (A) (A) (A) (A) (A) (A) (A) (A)
                 (A) (A) (A) (A) (A) (A) (A) (A) (A) (A) (A) (A)
                 (A) (A) (A) (A) (A) (A) (A) (A) (A) (A) (A) (A)
                 (A) (A) (A) (A) (A) (A) (A) (A) (A) (A) (A) (A)
                 (A) (A) (A) (A) (A) (A) (A) (A) (A) (A) (A) (A)
                 (A) (A) (A) (A) (A) (A) (A) (A) (A) (A) (A) (A)
                 (A) (A) (A)
 The electronic state of the initial guess is 1-A.
 Requested convergence on RMS density matrix=1.00D-08 within 128 cycles.
 Requested convergence on MAX density matrix=1.00D-06.
 Requested convergence on             energy=1.00D-06.
 No special actions if energy rises.
 Integral accuracy reduced to 1.0D-05 until final iterations.
 Initial convergence to 1.0D-05 achieved.  Increase integral accuracy.
 SCF Done:  E(RB3LYP) =  -495.830549965     A.U. after   15 cycles
             Convg  =    0.8209D-08             -V/T =  2.0087
 Range of M.O.s used for correlation:     1   174
 NBasis=   174 NAE=    39 NBE=    39 NFC=     0 NFV=     0
 NROrb=    174 NOA=    39 NOB=    39 NVA=   135 NVB=   135
 Symmetrizing basis deriv contribution to polar:
 IMax=3 JMax=2 DiffMx= 0.00D+00
 G2DrvN: will do    23 centers at a time, making    1 passes doing MaxLOS=2.
 Calling FoFCou, ICntrl=  3107 FMM=F I1Cent=   0 AccDes= 0.00D+00.
 FoFDir/FoFCou used for L=0 through L=2.
 End of G2Drv Frequency-dependent properties file   721 does not exist.
 End of G2Drv Frequency-dependent properties file   722 does not exist.
          IDoAtm=1111111111111111111111
          Differentiating once with respect to nuclear coordinates.
          There are    69 degrees of freedom in the 1st order CPHF.  IDoFFX=5.
     63 vectors produced by pass  0 Test12= 7.63D-11 1.45D-07 XBig12= 1.80D-01 1.11D-01.
 AX will form    63 AO Fock derivatives at one time.
     63 vectors produced by pass  1 Test12= 7.63D-11 1.45D-07 XBig12= 3.11D-02 5.51D-02.
     63 vectors produced by pass  2 Test12= 7.63D-11 1.45D-07 XBig12= 4.05D-05 1.59D-03.
     63 vectors produced by pass  3 Test12= 7.63D-11 1.45D-07 XBig12= 9.39D-08 4.42D-05.
     30 vectors produced by pass  4 Test12= 7.63D-11 1.45D-07 XBig12= 9.94D-11 1.65D-06.
 Inverted reduced A of dimension   282 with in-core refinement.
 End of Minotr Frequency-dependent properties file   721 does not exist.
 End of Minotr Frequency-dependent properties file   722 does not exist.

 **********************************************************************

            Population analysis using the SCF density.

 **********************************************************************

 Orbital symmetries:
       Occupied  (A) (A) (A) (A) (A) (A) (A) (A) (A) (A) (A) (A)
                 (A) (A) (A) (A) (A) (A) (A) (A) (A) (A) (A) (A)
                 (A) (A) (A) (A) (A) (A) (A) (A) (A) (A) (A) (A)
                 (A) (A) (A)
       Virtual   (A) (A) (A) (A) (A) (A) (A) (A) (A) (A) (A) (A)
                 (A) (A) (A) (A) (A) (A) (A) (A) (A) (A) (A) (A)
                 (A) (A) (A) (A) (A) (A) (A) (A) (A) (A) (A) (A)
                 (A) (A) (A) (A) (A) (A) (A) (A) (A) (A) (A) (A)
                 (A) (A) (A) (A) (A) (A) (A) (A) (A) (A) (A) (A)
                 (A) (A) (A) (A) (A) (A) (A) (A) (A) (A) (A) (A)
                 (A) (A) (A) (A) (A) (A) (A) (A) (A) (A) (A) (A)
                 (A) (A) (A) (A) (A) (A) (A) (A) (A) (A) (A) (A)
                 (A) (A) (A) (A) (A) (A) (A) (A) (A) (A) (A) (A)
                 (A) (A) (A) (A) (A) (A) (A) (A) (A) (A) (A) (A)
                 (A) (A) (A) (A) (A) (A) (A) (A) (A) (A) (A) (A)
                 (A) (A) (A)
 The electronic state is 1-A.
 Alpha  occ. eigenvalues --  -19.10268 -19.10017 -14.36835 -14.36532 -10.28109
 Alpha  occ. eigenvalues --  -10.28021 -10.23296 -10.22167 -10.19375 -10.18800
 Alpha  occ. eigenvalues --   -1.03299  -1.02305  -0.93307  -0.92704  -0.79412
 Alpha  occ. eigenvalues --   -0.73245  -0.71097  -0.65829  -0.59842  -0.59406
 Alpha  occ. eigenvalues --   -0.54552  -0.49531  -0.47018  -0.46280  -0.45477
 Alpha  occ. eigenvalues --   -0.44312  -0.42597  -0.42299  -0.40502  -0.39945
 Alpha  occ. eigenvalues --   -0.38735  -0.38438  -0.37880  -0.36529  -0.35063
 Alpha  occ. eigenvalues --   -0.26229  -0.25498  -0.23923  -0.23527
 Alpha virt. eigenvalues --    0.02142   0.04099   0.06324   0.08377   0.11453
 Alpha virt. eigenvalues --    0.12399   0.13411   0.14837   0.15159   0.15991
 Alpha virt. eigenvalues --    0.16463   0.17396   0.17826   0.18296   0.19615
 Alpha virt. eigenvalues --    0.21582   0.22520   0.25954   0.27494   0.32263
 Alpha virt. eigenvalues --    0.34312   0.38723   0.42091   0.50252   0.51263
 Alpha virt. eigenvalues --    0.52087   0.52513   0.52736   0.55001   0.56525
 Alpha virt. eigenvalues --    0.57956   0.60240   0.61451   0.62368   0.66040
 Alpha virt. eigenvalues --    0.67499   0.68873   0.69167   0.71620   0.73242
 Alpha virt. eigenvalues --    0.75369   0.76430   0.79440   0.79898   0.83839
 Alpha virt. eigenvalues --    0.84685   0.85860   0.86568   0.87852   0.88049
 Alpha virt. eigenvalues --    0.89717   0.89976   0.91178   0.91989   0.93849
 Alpha virt. eigenvalues --    0.94506   0.95019   0.95552   0.97726   1.02121
 Alpha virt. eigenvalues --    1.05161   1.06235   1.10138   1.12933   1.15876
 Alpha virt. eigenvalues --    1.17182   1.24728   1.30018   1.32567   1.34297
 Alpha virt. eigenvalues --    1.36626   1.41883   1.44838   1.45748   1.49472
 Alpha virt. eigenvalues --    1.53186   1.54897   1.62335   1.66238   1.67853
 Alpha virt. eigenvalues --    1.72425   1.75779   1.78777   1.81843   1.83241
 Alpha virt. eigenvalues --    1.83969   1.85035   1.87476   1.88476   1.90558
 Alpha virt. eigenvalues --    1.95040   1.95856   1.97963   1.99755   2.03227
 Alpha virt. eigenvalues --    2.06442   2.07516   2.11413   2.11896   2.15511
 Alpha virt. eigenvalues --    2.19624   2.20837   2.25952   2.26684   2.28701
 Alpha virt. eigenvalues --    2.30714   2.33035   2.35633   2.38494   2.42345
 Alpha virt. eigenvalues --    2.43831   2.47591   2.54374   2.57787   2.63327
 Alpha virt. eigenvalues --    2.66865   2.69560   2.73665   2.75075   2.89953
 Alpha virt. eigenvalues --    2.94517   2.97499   2.99558   3.16859   3.18431
 Alpha virt. eigenvalues --    3.96952   3.98859   4.05333   4.16621   4.19863
 Alpha virt. eigenvalues --    4.21330   4.29207   4.37123   4.46777   4.70456
          Condensed to atoms (all electrons):
              1          2          3          4          5          6
     1  H    0.497645   0.361648  -0.020642  -0.021561  -0.017652   0.005037
     2  C    0.361648   5.338962   0.351170   0.348952   0.350800  -0.081552
     3  H   -0.020642   0.351170   0.546322  -0.027292  -0.025662   0.001396
     4  H   -0.021561   0.348952  -0.027292   0.560373  -0.026212   0.001472
     5  C   -0.017652   0.350800  -0.025662  -0.026212   4.319347   0.611976
     6  O    0.005037  -0.081552   0.001396   0.001472   0.611976   8.055658
     7  N    0.004422  -0.135531   0.004591   0.004694   0.221054  -0.108647
     8  H   -0.000151  -0.000245   0.000972   0.000953  -0.017032   0.003471
     9  C   -0.000140   0.007348  -0.000278  -0.000298  -0.012205   0.003918
    10  H   -0.000011   0.001169  -0.000050  -0.000031   0.000409   0.019245
    11  C    0.000004  -0.000309  -0.000007   0.000068  -0.002322  -0.000397
    12  H    0.000000  -0.000005   0.000000   0.000001  -0.000020  -0.000021
    13  H    0.000000   0.000004   0.000000   0.000000  -0.000014  -0.000026
    14  H    0.000000   0.000006   0.000000  -0.000021   0.002611   0.001166
    15  C    0.000001  -0.000050   0.000037  -0.000020   0.003363   0.000241
    16  O    0.000000  -0.000006   0.000001   0.000000   0.000508  -0.000003
    17  N    0.000000   0.000000   0.000001   0.000000  -0.000161  -0.000008
    18  H    0.000000   0.000000   0.000000   0.000000  -0.000037  -0.000001
    19  C    0.000000   0.000000   0.000000   0.000000   0.000003   0.000000
    20  H    0.000000   0.000000   0.000000   0.000000   0.000000   0.000000
    21  H    0.000000   0.000000   0.000000   0.000000   0.000000   0.000000
    22  H    0.000000   0.000000   0.000000   0.000000   0.000000   0.000000
              7          8          9         10         11         12
     1  H    0.004422  -0.000151  -0.000140  -0.000011   0.000004   0.000000
     2  C   -0.135531  -0.000245   0.007348   0.001169  -0.000309  -0.000005
     3  H    0.004591   0.000972  -0.000278  -0.000050  -0.000007   0.000000
     4  H    0.004694   0.000953  -0.000298  -0.000031   0.000068   0.000001
     5  C    0.221054  -0.017032  -0.012205   0.000409  -0.002322  -0.000020
     6  O   -0.108647   0.003471   0.003918   0.019245  -0.000397  -0.000021
     7  N    7.177683   0.297002   0.240223  -0.041510  -0.062658  -0.003689
     8  H    0.297002   0.416063  -0.032043   0.004543  -0.000273   0.003255
     9  C    0.240223  -0.032043   5.124094   0.369642   0.289157  -0.023847
    10  H   -0.041510   0.004543   0.369642   0.496073  -0.040991   0.005234
    11  C   -0.062658  -0.000273   0.289157  -0.040991   5.254255   0.351764
    12  H   -0.003689   0.003255  -0.023847   0.005234   0.351764   0.606576
    13  H    0.005518  -0.000153  -0.035075  -0.001896   0.367442  -0.037280
    14  H   -0.003398  -0.000161  -0.020497  -0.003232   0.363171  -0.025733
    15  C   -0.030997  -0.002391   0.321411  -0.026907  -0.048937  -0.014641
    16  O    0.000345   0.000156  -0.083913   0.000959   0.004341  -0.000140
    17  N   -0.002217   0.002239  -0.116680   0.002925  -0.001690  -0.003418
    18  H    0.000352  -0.000010  -0.005462   0.000163   0.006662   0.012269
    19  C   -0.000091  -0.000062   0.007036  -0.000111  -0.000101   0.000338
    20  H   -0.000014  -0.000006   0.001076  -0.000016  -0.000117  -0.000017
    21  H   -0.000003   0.000003  -0.000022   0.000016  -0.000102   0.000075
    22  H    0.000020  -0.000012  -0.000301  -0.000003   0.000082  -0.000091
             13         14         15         16         17         18
     1  H    0.000000   0.000000   0.000001   0.000000   0.000000   0.000000
     2  C    0.000004   0.000006  -0.000050  -0.000006   0.000000   0.000000
     3  H    0.000000   0.000000   0.000037   0.000001   0.000001   0.000000
     4  H    0.000000  -0.000021  -0.000020   0.000000   0.000000   0.000000
     5  C   -0.000014   0.002611   0.003363   0.000508  -0.000161  -0.000037
     6  O   -0.000026   0.001166   0.000241  -0.000003  -0.000008  -0.000001
     7  N    0.005518  -0.003398  -0.030997   0.000345  -0.002217   0.000352
     8  H   -0.000153  -0.000161  -0.002391   0.000156   0.002239  -0.000010
     9  C   -0.035075  -0.020497   0.321411  -0.083913  -0.116680  -0.005462
    10  H   -0.001896  -0.003232  -0.026907   0.000959   0.002925   0.000163
    11  C    0.367442   0.363171  -0.048937   0.004341  -0.001690   0.006662
    12  H   -0.037280  -0.025733  -0.014641  -0.000140  -0.003418   0.012269
    13  H    0.556942  -0.021129   0.002016  -0.000065  -0.001119   0.000299
    14  H   -0.021129   0.527536   0.003817  -0.000077   0.000688  -0.000237
    15  C    0.002016   0.003817   4.404109   0.601223   0.248697  -0.017157
    16  O   -0.000065  -0.000077   0.601223   8.083414  -0.105090   0.003884
    17  N   -0.001119   0.000688   0.248697  -0.105090   7.135388   0.290099
    18  H    0.000299  -0.000237  -0.017157   0.003884   0.290099   0.407473
    19  C   -0.000069  -0.000005  -0.025698  -0.009190   0.261141  -0.030208
    20  H   -0.000013   0.000002   0.000313   0.023125  -0.038326   0.003635
    21  H   -0.000001  -0.000002   0.001443   0.000593  -0.044617  -0.000408
    22  H    0.000006   0.000001   0.001706   0.000642  -0.043387  -0.000777
             19         20         21         22
     1  H    0.000000   0.000000   0.000000   0.000000
     2  C    0.000000   0.000000   0.000000   0.000000
     3  H    0.000000   0.000000   0.000000   0.000000
     4  H    0.000000   0.000000   0.000000   0.000000
     5  C    0.000003   0.000000   0.000000   0.000000
     6  O    0.000000   0.000000   0.000000   0.000000
     7  N   -0.000091  -0.000014  -0.000003   0.000020
     8  H   -0.000062  -0.000006   0.000003  -0.000012
     9  C    0.007036   0.001076  -0.000022  -0.000301
    10  H   -0.000111  -0.000016   0.000016  -0.000003
    11  C   -0.000101  -0.000117  -0.000102   0.000082
    12  H    0.000338  -0.000017   0.000075  -0.000091
    13  H   -0.000069  -0.000013  -0.000001   0.000006
    14  H   -0.000005   0.000002  -0.000002   0.000001
    15  C   -0.025698   0.000313   0.001443   0.001706
    16  O   -0.009190   0.023125   0.000593   0.000642
    17  N    0.261141  -0.038326  -0.044617  -0.043387
    18  H   -0.030208   0.003635  -0.000408  -0.000777
    19  C    4.972344   0.374400   0.384428   0.381112
    20  H    0.374400   0.471656  -0.023874  -0.023686
    21  H    0.384428  -0.023874   0.560251  -0.038385
    22  H    0.381112  -0.023686  -0.038385   0.567123
 Mulliken atomic charges:
              1
     1  H    0.191402
     2  C   -0.542361
     3  H    0.169440
     4  H    0.158922
     5  C    0.591246
     6  O   -0.512924
     7  N   -0.567148
     8  H    0.323884
     9  C   -0.033145
    10  H    0.214378
    11  C   -0.479043
    12  H    0.129387
    13  H    0.164615
    14  H    0.175494
    15  C    0.578420
    16  O   -0.520707
    17  N   -0.584467
    18  H    0.329459
    19  C   -0.315268
    20  H    0.211861
    21  H    0.160604
    22  H    0.155951
 Sum of Mulliken atomic charges =   0.00000
 Mulliken charges with hydrogens summed into heavy atoms:
              1
     2  C   -0.022598
     5  C    0.591246
     6  O   -0.512924
     7  N   -0.243264
     9  C    0.181233
    11  C   -0.009547
    15  C    0.578420
    16  O   -0.520707
    17  N   -0.255008
    19  C    0.213148
 Sum of Mulliken charges with hydrogens summed into heavy atoms =   0.00000
 APT atomic charges:
              1
     1  H    0.749768
     2  C   -1.223083
     3  H    0.312165
     4  H    0.379369
     5  C   -0.113358
     6  O   -0.057040
     7  N   -0.608832
     8  H    0.487646
     9  C   -0.398651
    10  H    0.434284
    11  C   -1.187634
    12  H    0.311296
    13  H    0.449364
    14  H    0.448849
    15  C   -0.130695
    16  O   -0.148721
    17  N   -0.354992
    18  H    0.498746
    19  C   -1.400063
    20  H    0.429655
    21  H    0.627550
    22  H    0.494378
 Sum of APT charges=   0.00000
 APT Atomic charges with hydrogens summed into heavy atoms:
              1
     1  H    0.000000
     2  C    0.218219
     3  H    0.000000
     4  H    0.000000
     5  C   -0.113358
     6  O   -0.057040
     7  N   -0.121186
     8  H    0.000000
     9  C    0.035632
    10  H    0.000000
    11  C    0.021875
    12  H    0.000000
    13  H    0.000000
    14  H    0.000000
    15  C   -0.130695
    16  O   -0.148721
    17  N    0.143754
    18  H    0.000000
    19  C    0.151520
    20  H    0.000000
    21  H    0.000000
    22  H    0.000000
 Sum of APT charges=   0.00000
 Electronic spatial extent (au):  <R**2>=           1921.8177
 Charge=              0.0000 electrons
 Dipole moment (field-independent basis, Debye):
    X=              2.6664    Y=              1.9904    Z=              5.1259  Tot=              6.1111
 Quadrupole moment (field-independent basis, Debye-Ang):
   XX=            -57.4938   YY=            -61.2767   ZZ=            -61.2112
   XY=              6.2913   XZ=             -3.4966   YZ=             -2.8895
 Traceless Quadrupole moment (field-independent basis, Debye-Ang):
   XX=              2.5001   YY=             -1.2828   ZZ=             -1.2173
   XY=              6.2913   XZ=             -3.4966   YZ=             -2.8895
 Octapole moment (field-independent basis, Debye-Ang**2):
  XXX=             35.2534  YYY=              1.7632  ZZZ=              3.6265  XYY=             -2.8181
  XXY=             -7.2316  XXZ=             26.0822  XZZ=              5.4848  YZZ=              1.8812
  YYZ=              3.1426  XYZ=             -3.4897
 Hexadecapole moment (field-independent basis, Debye-Ang**3):
 XXXX=          -1749.7839 YYYY=           -385.8370 ZZZZ=           -235.9146 XXXY=             15.6027
 XXXZ=            -29.5469 YYYX=             -0.2745 YYYZ=             -5.1283 ZZZX=              2.5290
 ZZZY=             -0.5111 XXYY=           -362.5568 XXZZ=           -367.3743 YYZZ=           -106.6690
 XXYZ=              4.5302 YYXZ=              7.8829 ZZXY=              4.6822
 N-N= 5.534455536431D+02 E-N=-2.263064050181D+03  KE= 4.915751702546D+02
  Exact polarizability:   0.000   0.000   0.000   0.000   0.000   0.000
 Approx polarizability: 121.757   3.274 102.348  16.941   4.899 114.318
 Calling FoFJK, ICntrl=    100147 FMM=F ISym2X=0 I1Cent= 0 IOpClX= 0 NMat=1 NMatS=1 NMatT=0.
 ***** Axes restored to original set *****
 -------------------------------------------------------------------
 Center     Atomic                   Forces (Hartrees/Bohr)
 Number     Number              X              Y              Z
 -------------------------------------------------------------------
      1        1           0.003692994    0.001136003    0.000549867
      2        6           0.006495834    0.007904703   -0.004043997
      3        1          -0.006188130    0.000827180   -0.000910066
      4        1          -0.005314290   -0.001626662   -0.003629462
      5        6          -0.006176472   -0.034599881    0.030514337
      6        8           0.002556921    0.002323252   -0.002548899
      7        7           0.003074163    0.020533168   -0.012252938
      8        1          -0.001078482    0.000675528    0.000189781
      9        6           0.010146780    0.003757582   -0.019646995
     10        1          -0.006552385   -0.000356158    0.003765156
     11        6           0.003564292   -0.016091630    0.005134136
     12        1           0.000365071   -0.008064802   -0.006659406
     13        1           0.004231182   -0.001415295   -0.002591848
     14        1           0.001598522   -0.002306100   -0.003510862
     15        6          -0.010744885   -0.000967549    0.038028405
     16        8          -0.001548635    0.001004863    0.000468105
     17        7           0.001076482    0.015354877   -0.019908383
     18        1          -0.000325064    0.006760869    0.003114208
     19        6           0.000692723   -0.000210193   -0.002503244
     20        1           0.000079828   -0.003004846    0.000756441
     21        1           0.002497210    0.004310019   -0.001506417
     22        1          -0.002143659    0.004055074   -0.002807921
 -------------------------------------------------------------------
 Cartesian Forces:  Max     0.038028405 RMS     0.009793221

 GradGradGradGradGradGradGradGradGradGradGradGradGradGradGradGradGradGrad
 Berny optimization.
 Internal  Forces:  Max     0.037770345 RMS     0.009138055
 Search for a local minimum.
 Step number   1 out of a maximum of  132
 All quantities printed in internal units (Hartrees-Bohrs-Radians)
 Mixed Optimization -- RFO/linear search
 Second derivative matrix not updated -- analytic derivatives used.
     Eigenvalues ---   -0.00055  -0.00030   0.00151   0.00276   0.00778
     Eigenvalues ---    0.01724   0.01759   0.02209   0.03876   0.04235
     Eigenvalues ---    0.04732   0.05063   0.05377   0.05492   0.05832
     Eigenvalues ---    0.05986   0.06392   0.06614   0.11570   0.11924
     Eigenvalues ---    0.12361   0.12481   0.13311   0.13370   0.13526
     Eigenvalues ---    0.14315   0.14626   0.17592   0.17794   0.18535
     Eigenvalues ---    0.19211   0.19834   0.21486   0.22379   0.24022
     Eigenvalues ---    0.24501   0.27453   0.29878   0.33402   0.34582
     Eigenvalues ---    0.34604   0.34865   0.35045   0.35072   0.35241
     Eigenvalues ---    0.35502   0.35698   0.35855   0.35912   0.37674
     Eigenvalues ---    0.39390   0.45826   0.46802   0.53558   0.53801
     Eigenvalues ---    0.70100   0.82772   0.832011000.000001000.00000
     Eigenvalues --- 1000.000001000.000001000.000001000.000001000.00000
     Eigenvalues --- 1000.000001000.000001000.000001000.000001000.00000
     Eigenvalues --- 1000.000001000.000001000.000001000.000001000.00000
     Eigenvalues --- 1000.000001000.000001000.000001000.000001000.00000
     Eigenvalues --- 1000.000001000.000001000.000001000.000001000.00000
     Eigenvalues --- 1000.000001000.000001000.000001000.000001000.00000
     Eigenvalues --- 1000.000001000.000001000.000001000.000001000.00000
     Eigenvalues --- 1000.000001000.000001000.00000
 RFO step:  Lambda=-1.78974645D-02 EMin=-5.53466552D-04
 Linear search not attempted -- first point.
 Maximum step size (   0.300) exceeded in Quadratic search.
    -- Step size scaled by   0.315
 Iteration  1 RMS(Cart)=  0.05397669 RMS(Int)=  0.00224404
 Iteration  2 RMS(Cart)=  0.00238020 RMS(Int)=  0.00005463
 Iteration  3 RMS(Cart)=  0.00000433 RMS(Int)=  0.00005454
 Iteration  4 RMS(Cart)=  0.00000000 RMS(Int)=  0.00005454
 Iteration  1 RMS(Cart)=  0.00003098 RMS(Int)=  0.00000970
 Iteration  2 RMS(Cart)=  0.00001627 RMS(Int)=  0.00001084
 Iteration  3 RMS(Cart)=  0.00000854 RMS(Int)=  0.00001219
 Iteration  4 RMS(Cart)=  0.00000449 RMS(Int)=  0.00001304
 Iteration  5 RMS(Cart)=  0.00000236 RMS(Int)=  0.00001351
 Iteration  6 RMS(Cart)=  0.00000125 RMS(Int)=  0.00001377
 Iteration  7 RMS(Cart)=  0.00000066 RMS(Int)=  0.00001391
 Variable       Old X    -DE/DX   Delta X   Delta X   Delta X     New X
                                 (Linear)    (Quad)   (Total)
    R1        2.05988  -0.00095   0.00000   0.00006   0.00006   2.05995
    R2        2.05977   0.00449   0.00000   0.00363   0.00363   2.06340
    R3        2.05988   0.00470   0.00000   0.00355   0.00355   2.06343
    R4        2.89120  -0.00143   0.00000  -0.00389  -0.00389   2.88731
    R5        2.32248  -0.00082   0.00000  -0.00309  -0.00309   2.31939
    R6        2.52291   0.03155   0.00000   0.01918   0.01918   2.54209
    R7        1.90868   0.00087   0.00000   0.00033   0.00033   1.90901
    R8        2.73817   0.00389   0.00000   0.00397   0.00397   2.74214
    R9        2.05975  -0.00016   0.00000   0.00089   0.00089   2.06063
   R10        2.88188   0.01854   0.00000   0.00712   0.00712   2.88900
   R11        2.87618   0.02815   0.00000   0.01140   0.01140   2.88758
   R12        2.05972   0.00310   0.00000   0.00489   0.00489   2.06461
   R13        2.05984   0.00305   0.00000   0.00375   0.00375   2.06359
   R14        2.05966   0.00253   0.00000   0.00196   0.00196   2.06162
   R15        2.32254   0.00129   0.00000  -0.00269  -0.00269   2.31986
   R16        2.52280   0.03281   0.00000   0.01668   0.01668   2.53948
   R17        1.90870  -0.00617   0.00000  -0.00118  -0.00118   1.90752
   R18        2.73815   0.00558   0.00000   0.00226   0.00226   2.74041
   R19        2.05985  -0.00054   0.00000   0.00030   0.00030   2.06015
   R20        2.05974   0.00423   0.00000   0.00415   0.00415   2.06388
   R21        2.05979   0.00433   0.00000   0.00303   0.00303   2.06282
    A1        1.91119   0.00000   0.00000  -0.00332  -0.00334   1.90785
    A2        1.91112  -0.00016   0.00000   0.00076   0.00080   1.91192
    A3        1.93900  -0.00788   0.00000  -0.01208  -0.01207   1.92693
    A4        1.91012  -0.00500   0.00000  -0.00792  -0.00798   1.90214
    A5        1.89609   0.00631   0.00000   0.00337   0.00333   1.89942
    A6        1.89604   0.00678   0.00000   0.01931   0.01930   1.91534
    A7        2.10320   0.00909   0.00000   0.01263   0.01261   2.11582
    A8        2.03508  -0.00875   0.00000  -0.01024  -0.01026   2.02482
    A9        2.14490  -0.00034   0.00000  -0.00238  -0.00240   2.14251
   A10        2.09426  -0.00143   0.00000  -0.00286  -0.00286   2.09140
   A11        2.12756   0.00231   0.00000   0.00135   0.00135   2.12891
   A12        2.06136  -0.00088   0.00000   0.00152   0.00152   2.06288
   A13        1.91114   0.00326   0.00000  -0.01232  -0.01248   1.89865
   A14        1.93905  -0.00949   0.00000   0.00291   0.00301   1.94206
   A15        1.93900  -0.01496   0.00000  -0.01395  -0.01420   1.92480
   A16        1.89609  -0.00637   0.00000   0.00037   0.00038   1.89647
   A17        1.89608  -0.00984   0.00000  -0.00774  -0.00803   1.88805
   A18        1.88137   0.03777   0.00000   0.03130   0.03135   1.91272
   A19        1.91115   0.00896   0.00000   0.01255   0.01250   1.92365
   A20        1.91106   0.00439   0.00000   0.00734   0.00730   1.91837
   A21        1.91110   0.00165   0.00000   0.00078   0.00078   1.91187
   A22        1.91011  -0.00330   0.00000  -0.00452  -0.00460   1.90550
   A23        1.91023  -0.00768   0.00000  -0.01021  -0.01021   1.90002
   A24        1.91015  -0.00403   0.00000  -0.00596  -0.00596   1.90419
   A25        2.10312  -0.01209   0.00000   0.00253   0.00249   2.10561
   A26        2.03510   0.02548   0.00000  -0.00363  -0.00366   2.03144
   A27        2.14496  -0.01339   0.00000   0.00110   0.00107   2.14603
   A28        2.09432   0.00396   0.00000  -0.00392  -0.00401   2.09031
   A29        2.12761  -0.00022   0.00000   0.00243   0.00234   2.12995
   A30        2.06125  -0.00374   0.00000   0.00149   0.00140   2.06266
   A31        1.91112  -0.00629   0.00000  -0.01084  -0.01083   1.90029
   A32        1.91112   0.00460   0.00000   0.01133   0.01132   1.92244
   A33        1.91113   0.00490   0.00000   0.00476   0.00474   1.91586
   A34        1.91013   0.00003   0.00000  -0.00327  -0.00324   1.90689
   A35        1.91020  -0.00003   0.00000   0.00163   0.00163   1.91184
   A36        1.91010  -0.00321   0.00000  -0.00360  -0.00365   1.90645
    D1       -0.00005   0.00021   0.00000  -0.09507  -0.09511  -0.09516
    D2       -3.14156  -0.00019   0.00000  -0.08572  -0.08573   3.05590
    D3        2.10334  -0.00059   0.00000  -0.10448  -0.10452   1.99882
    D4       -1.03817  -0.00099   0.00000  -0.09514  -0.09514  -1.13330
    D5       -2.10332   0.00091   0.00000  -0.10101  -0.10099  -2.20431
    D6        1.03836   0.00050   0.00000  -0.09167  -0.09161   0.94675
    D7       -0.00012  -0.00019   0.00000  -0.01842  -0.01837  -0.01849
    D8       -3.14159  -0.00070   0.00000  -0.01726  -0.01726   3.12433
    D9        3.14156  -0.00061   0.00000  -0.00883  -0.00883   3.13273
   D10        0.00009  -0.00111   0.00000  -0.00767  -0.00772  -0.00763
   D11       -0.26187  -0.00288   0.00000  -0.02644  -0.02636  -0.28823
   D12        1.83257  -0.01467   0.00000  -0.03216  -0.03208   1.80049
   D13       -2.35626   0.01669   0.00000   0.00000   0.00000  -2.35627
   D14        2.87984  -0.00337   0.00000  -0.02531  -0.02527   2.85457
   D15       -1.30891  -0.01517   0.00000  -0.03103  -0.03099  -1.33989
   D16        0.78545   0.01620   0.00000   0.00113   0.00109   0.78654
   D17        1.04724  -0.00132   0.00000   0.00018   0.00025   1.04749
   D18        3.14157   0.00282   0.00000   0.00684   0.00695  -3.13467
   D19       -1.04726   0.00159   0.00000   0.00452   0.00460  -1.04266
   D20       -3.13259  -0.00727   0.00000  -0.01303  -0.01309   3.13750
   D21       -1.03826  -0.00313   0.00000  -0.00637  -0.00639  -1.04465
   D22        1.05609  -0.00437   0.00000  -0.00870  -0.00873   1.04736
   D23       -1.08102  -0.00166   0.00000  -0.00485  -0.00492  -1.08595
   D24        1.01331   0.00248   0.00000   0.00180   0.00178   1.01508
   D25        3.10766   0.00124   0.00000  -0.00052  -0.00057   3.10709
   D26        1.30903  -0.00579   0.00000  -0.01477  -0.01474   1.29430
   D27       -1.83260  -0.00460   0.00000   0.00000   0.00000  -1.83260
   D28       -0.79428   0.00579   0.00000   0.01412   0.01407  -0.78022
   D29        2.34727   0.00698   0.00000   0.02889   0.02880   2.37608
   D30       -2.84586  -0.00207   0.00000   0.00070   0.00067  -2.84519
   D31        0.29569  -0.00088   0.00000   0.01547   0.01541   0.31110
   D32        0.00009  -0.00121   0.00000  -0.03113  -0.03109  -0.03100
   D33        3.14158  -0.00079   0.00000  -0.00557  -0.00557   3.13601
   D34       -3.14154   0.00001   0.00000  -0.01598  -0.01598   3.12567
   D35       -0.00005   0.00043   0.00000   0.00959   0.00954   0.00949
   D36        0.00006  -0.00017   0.00000  -0.07349  -0.07349  -0.07344
   D37        2.09443  -0.00117   0.00000  -0.07720  -0.07725   2.01719
   D38       -2.09441   0.00072   0.00000  -0.07175  -0.07174  -2.16615
   D39        3.14155   0.00024   0.00000  -0.04839  -0.04837   3.09319
   D40       -1.04726  -0.00076   0.00000  -0.05210  -0.05212  -1.09937
   D41        1.04708   0.00113   0.00000  -0.04665  -0.04661   1.00047
         Item               Value     Threshold  Converged?
 Maximum Force            0.032807     0.000450     NO 
 RMS     Force            0.008830     0.000300     NO 
 Maximum Displacement     0.235222     0.001800     NO 
 RMS     Displacement     0.054163     0.001200     NO 
 Predicted change in Energy=-4.898410D-03
 GradGradGradGradGradGradGradGradGradGradGradGradGradGradGradGradGradGrad

                          Input orientation:                          
 ---------------------------------------------------------------------
 Center     Atomic      Atomic             Coordinates (Angstroms)
 Number     Number       Type             X           Y           Z
 ---------------------------------------------------------------------
      1          1           0        1.764043    1.484662    1.326716
      2          6           0        1.864963    2.376292    0.707781
      3          1           0        1.167932    3.140103    1.058487
      4          1           0        1.629183    2.129574   -0.329442
      5          6           0        3.286915    2.928235    0.796551
      6          8           0        4.110730    2.443490    1.566479
      7          7           0        3.565871    3.971751   -0.005235
      8          1           0        2.856044    4.330821   -0.627913
      9          6           0        4.869008    4.610053   -0.010419
     10          1           0        5.407574    4.316111    0.891026
     11          6           0        5.688768    4.187431   -1.229678
     12          1           0        5.169161    4.466757   -2.149264
     13          1           0        6.665989    4.674293   -1.207787
     14          1           0        5.828572    3.105525   -1.218242
     15          6           0        4.714295    6.130200    0.001071
     16          8           0        4.371535    6.716533    1.023699
     17          7           0        4.955254    6.763960   -1.159176
     18          1           0        5.248186    6.235207   -1.967590
     19          6           0        4.838249    8.203638   -1.288067
     20          1           0        4.467456    8.612972   -0.348139
     21          1           0        5.813298    8.641758   -1.511994
     22          1           0        4.141475    8.446935   -2.092364
 ---------------------------------------------------------------------
                    Distance matrix (angstroms):
                    1          2          3          4          5
     1  H    0.000000
     2  C    1.090077   0.000000
     3  H    1.779825   1.091904   0.000000
     4  H    1.782402   1.091922   1.777714   0.000000
     5  C    2.164282   1.527897   2.145597   2.157265   0.000000
     6  O    2.546326   2.405275   3.066494   3.138651   1.227370
     7  N    3.347579   2.438641   2.751954   2.692486   1.345215
     8  H    3.621279   2.566419   2.666735   2.537668   2.044993
     9  C    4.603999   3.811796   4.123260   4.092801   2.445962
    10  H    4.634894   4.043089   4.402908   4.532849   2.536201
    11  C    5.407733   4.653543   5.174027   4.639550   3.385274
    12  H    5.707027   4.842569   5.297123   4.615801   3.819388
    13  H    6.373894   5.656860   6.141528   5.711085   4.299329
    14  H    5.062056   4.466715   5.187124   4.401967   3.248206
    15  C    5.660596   4.765497   4.757678   5.062821   3.594827
    16  O    5.853487   5.021992   4.801576   5.512864   3.947050
    17  N    6.650900   5.682171   5.691588   5.764437   4.617468
    18  H    6.749769   5.787490   5.948553   5.712874   4.735306
    19  C    7.837887   6.839723   6.679591   6.936232   5.880659
    20  H    7.805535   6.839892   6.543527   7.077471   5.917790
    21  H    8.699354   7.731288   7.645587   7.830311   6.660055
    22  H    8.112677   7.062296   6.850714   7.023429   6.287460
                    6          7          8          9         10
     6  O    0.000000
     7  N    2.258924   0.000000
     8  H    3.154617   1.010205   0.000000
     9  C    2.784885   1.451077   2.123981   0.000000
    10  H    2.375868   2.076954   2.969460   1.090439   0.000000
    11  C    3.653769   2.460177   2.899484   1.528793   2.143132
    12  H    4.361265   2.722578   2.771913   2.164552   3.053342
    13  H    4.382052   3.398593   3.869097   2.160314   2.473241
    14  H    3.338255   2.709530   3.268909   2.154810   2.468151
    15  C    4.050509   2.444958   2.662045   1.528043   2.136252
    16  O    4.315267   3.040005   3.273554   2.398778   2.617825
    17  N    5.177729   3.325417   3.257160   2.442621   3.224886
    18  H    5.306653   3.435732   3.338228   2.572046   3.446740
    19  C    6.469701   4.601465   4.400415   3.814078   4.492822
    20  H    6.469585   4.740398   4.583856   4.037160   4.569723
    21  H    7.127009   5.397242   5.301992   4.404663   4.964911
    22  H    7.030606   4.971388   4.554047   4.425547   5.250460
                   11         12         13         14         15
    11  C    0.000000
    12  H    1.092544   0.000000
    13  H    1.092005   1.780434   0.000000
    14  H    1.090961   1.776113   1.778316   0.000000
    15  C    2.497737   2.756426   2.718476   3.446302   0.000000
    16  O    3.634442   3.970566   3.796682   4.493177   1.227615
    17  N    2.679835   2.510612   2.701053   3.761691   1.343832
    18  H    2.220813   1.779513   2.241410   3.270058   2.042471
    19  C    4.105693   3.849084   3.975344   5.193879   2.444665
    20  H    4.674840   4.574663   4.591921   5.739486   2.519333
    21  H    4.465001   4.272196   4.069447   5.544041   3.131309
    22  H    4.613211   4.111106   4.624768   5.669308   3.174564
                   16         17         18         19         20
    16  O    0.000000
    17  N    2.260071   0.000000
    18  H    3.154044   1.009416   0.000000
    19  C    2.788111   1.450164   2.122386   0.000000
    20  H    2.342567   2.077156   2.980927   1.090187   0.000000
    21  H    3.494983   2.094479   2.513644   1.092159   1.779516
    22  H    3.571703   2.089373   2.476312   1.091595   1.782176
                   21         22
    21  H    0.000000
    22  H    1.780387   0.000000
 Stoichiometry    C6H12N2O2
 Framework group  C1[X(C6H12N2O2)]
 Deg. of freedom    60
 Full point group                 C1      NOp   1
 Largest Abelian subgroup         C1      NOp   1
 Largest concise Abelian subgroup C1      NOp   1
                         Standard orientation:                         
 ---------------------------------------------------------------------
 Center     Atomic      Atomic             Coordinates (Angstroms)
 Number     Number       Type             X           Y           Z
 ---------------------------------------------------------------------
      1          1           0       -4.271042   -0.823185    0.539582
      2          6           0       -3.254475   -0.876759    0.929439
      3          1           0       -2.952157   -1.923105    1.007017
      4          1           0       -3.219356   -0.422364    1.921701
      5          6           0       -2.286805   -0.151848   -0.004684
      6          8           0       -2.662369    0.304472   -1.080399
      7          7           0       -1.013864   -0.059721    0.420444
      8          1           0       -0.754694   -0.444576    1.317791
      9          6           0        0.016815    0.583101   -0.373347
     10          1           0       -0.337612    0.675751   -1.400408
     11          6           0        0.338550    1.978922    0.160862
     12          1           0        0.692927    1.915970    1.192417
     13          1           0        1.110272    2.444422   -0.455765
     14          1           0       -0.560577    2.596205    0.133840
     15          6           0        1.286295   -0.267347   -0.382043
     16          8           0        1.343774   -1.298989   -1.044953
     17          7           0        2.303376    0.169765    0.379773
     18          1           0        2.208834    1.032713    0.894849
     19          6           0        3.561606   -0.545871    0.467529
     20          1           0        3.480992   -1.472208   -0.101600
     21          1           0        4.369565    0.061694    0.054154
     22          1           0        3.783107   -0.776678    1.511198
 ---------------------------------------------------------------------
 Rotational constants (GHZ):      2.6600878      0.6686603      0.6277575
 Standard basis: 6-31G(d) (6D, 7F)
 There are   174 symmetry adapted basis functions of A   symmetry.
 Integral buffers will be    131072 words long.
 Raffenetti 2 integral format.
 Two-electron integral symmetry is turned on.
   174 basis functions,   328 primitive gaussians,   174 cartesian basis functions
    39 alpha electrons       39 beta electrons
       nuclear repulsion energy       552.0481636807 Hartrees.
 NAtoms=   22 NActive=   22 NUniq=   22 SFac= 7.50D-01 NAtFMM=   80 NAOKFM=F Big=F
 One-electron integrals computed using PRISM.
 NBasis=   174 RedAO= T  NBF=   174
 NBsUse=   174 1.00D-06 NBFU=   174
 Initial guess read from the read-write file.
 B after Tr=     0.000000    0.000000    0.000000
         Rot=    1.000000    0.000000    0.000000    0.000000 Ang=   0.00 deg.
 Initial guess orbital symmetries:
       Occupied  (A) (A) (A) (A) (A) (A) (A) (A) (A) (A) (A) (A)
                 (A) (A) (A) (A) (A) (A) (A) (A) (A) (A) (A) (A)
                 (A) (A) (A) (A) (A) (A) (A) (A) (A) (A) (A) (A)
                 (A) (A) (A)
       Virtual   (A) (A) (A) (A) (A) (A) (A) (A) (A) (A) (A) (A)
                 (A) (A) (A) (A) (A) (A) (A) (A) (A) (A) (A) (A)
                 (A) (A) (A) (A) (A) (A) (A) (A) (A) (A) (A) (A)
                 (A) (A) (A) (A) (A) (A) (A) (A) (A) (A) (A) (A)
                 (A) (A) (A) (A) (A) (A) (A) (A) (A) (A) (A) (A)
                 (A) (A) (A) (A) (A) (A) (A) (A) (A) (A) (A) (A)
                 (A) (A) (A) (A) (A) (A) (A) (A) (A) (A) (A) (A)
                 (A) (A) (A) (A) (A) (A) (A) (A) (A) (A) (A) (A)
                 (A) (A) (A) (A) (A) (A) (A) (A) (A) (A) (A) (A)
                 (A) (A) (A) (A) (A) (A) (A) (A) (A) (A) (A) (A)
                 (A) (A) (A) (A) (A) (A) (A) (A) (A) (A) (A) (A)
                 (A) (A) (A)
 Harris functional with IExCor=  402 diagonalized for initial guess.
 ExpMin= 1.61D-01 ExpMax= 5.48D+03 ExpMxC= 8.25D+02 IAcc=1 IRadAn=         1 AccDes= 0.00D+00
 HarFok:  IExCor=  402 AccDes= 0.00D+00 IRadAn=         1 IDoV= 1
 ScaDFX=  1.000000  1.000000  1.000000  1.000000
 FoFCou: FMM=F IPFlag=           0 FMFlag=      100000 FMFlg1=           0
         NFxFlg=           0 DoJE=T BraDBF=F KetDBF=T FulRan=T
         Omega=  0.000000  0.000000  1.000000  0.000000  0.000000 ICntrl=     500 IOpCl=  0
         NMat0=    1 NMatS0=    1 NMatT0=    0 NMatD0=    1 NMtDS0=    0 NMtDT0=    0
         I1Cent=           4 NGrid=           0.
 Petite list used in FoFCou.
 Requested convergence on RMS density matrix=1.00D-08 within 128 cycles.
 Requested convergence on MAX density matrix=1.00D-06.
 Requested convergence on             energy=1.00D-06.
 No special actions if energy rises.
 Integral accuracy reduced to 1.0D-05 until final iterations.
 Initial convergence to 1.0D-05 achieved.  Increase integral accuracy.
 SCF Done:  E(RB3LYP) =  -495.835460051     A.U. after   13 cycles
             Convg  =    0.3603D-08             -V/T =  2.0089
 Calling FoFJK, ICntrl=      2127 FMM=F ISym2X=0 I1Cent= 0 IOpClX= 0 NMat=1 NMatS=1 NMatT=0.
 ***** Axes restored to original set *****
 -------------------------------------------------------------------
 Center     Atomic                   Forces (Hartrees/Bohr)
 Number     Number              X              Y              Z
 -------------------------------------------------------------------
      1        1           0.002627439    0.000666703    0.000290830
      2        6           0.004840844    0.005763165   -0.002998800
      3        1          -0.004443376    0.000570137   -0.000252517
      4        1          -0.003969602   -0.000805588   -0.002345130
      5        6          -0.004426363   -0.024748061    0.021237174
      6        8           0.001804875    0.001586070   -0.001887329
      7        7           0.002510081    0.014000859   -0.008074156
      8        1          -0.000850686    0.000619686    0.000350277
      9        6           0.008047766    0.003555249   -0.016691517
     10        1          -0.005407508   -0.000291207    0.003028295
     11        6           0.002512761   -0.011342454    0.004217972
     12        1           0.000304292   -0.006126565   -0.004533586
     13        1           0.002974562   -0.001126193   -0.001850074
     14        1           0.001208542   -0.001671700   -0.002420240
     15        6          -0.007804550   -0.000703484    0.027651610
     16        8          -0.001085782    0.000689535    0.000248364
     17        7           0.000251747    0.010962114   -0.014080525
     18        1          -0.000153120    0.004760056    0.002265221
     19        6           0.000729833   -0.000289506   -0.001824461
     20        1           0.000039283   -0.002089431    0.000511987
     21        1           0.001726104    0.003133762   -0.000849189
     22        1          -0.001437142    0.002886854   -0.001994206
 -------------------------------------------------------------------
 Cartesian Forces:  Max     0.027651610 RMS     0.007088061

 GradGradGradGradGradGradGradGradGradGradGradGradGradGradGradGradGradGrad
 Berny optimization.
 Using GEDIIS/GDIIS optimizer.
 Internal  Forces:  Max     0.027550107 RMS     0.006562958
 Search for a local minimum.
 Step number   2 out of a maximum of  132
 All quantities printed in internal units (Hartrees-Bohrs-Radians)
 Mixed Optimization -- RFO/linear search
 Update second derivatives using D2CorX and points    1    2
 DE= -4.91D-03 DEPred=-4.90D-03 R= 1.00D+00
 SS=  1.41D+00  RLast= 3.00D-01 DXNew= 5.0454D-01 9.0000D-01
 Trust test= 1.00D+00 RLast= 3.00D-01 DXMaxT set to 5.05D-01
 Use linear search instead of GDIIS.
 Linear search step of   0.594 exceeds DXMaxT=   0.505 but not scaled.
 Quartic linear search produced a step of  2.00000.
 Iteration  1 RMS(Cart)=  0.10694630 RMS(Int)=  0.00881265
 Iteration  2 RMS(Cart)=  0.00947986 RMS(Int)=  0.00033743
 Iteration  3 RMS(Cart)=  0.00008030 RMS(Int)=  0.00033167
 Iteration  4 RMS(Cart)=  0.00000001 RMS(Int)=  0.00033167
 Iteration  1 RMS(Cart)=  0.00019842 RMS(Int)=  0.00006342
 Iteration  2 RMS(Cart)=  0.00010579 RMS(Int)=  0.00007088
 Iteration  3 RMS(Cart)=  0.00005642 RMS(Int)=  0.00007984
 Iteration  4 RMS(Cart)=  0.00003010 RMS(Int)=  0.00008560
 Iteration  5 RMS(Cart)=  0.00001607 RMS(Int)=  0.00008889
 Iteration  6 RMS(Cart)=  0.00000858 RMS(Int)=  0.00009070
 Iteration  7 RMS(Cart)=  0.00000459 RMS(Int)=  0.00009167
 Iteration  8 RMS(Cart)=  0.00000245 RMS(Int)=  0.00009220
 Iteration  9 RMS(Cart)=  0.00000132 RMS(Int)=  0.00009248
 Iteration 10 RMS(Cart)=  0.00000071 RMS(Int)=  0.00009263
 Variable       Old X    -DE/DX   Delta X   Delta X   Delta X     New X
                                 (Linear)    (Quad)   (Total)
    R1        2.05995  -0.00062   0.00012   0.00000   0.00012   2.06007
    R2        2.06340   0.00316   0.00726   0.00000   0.00726   2.07066
    R3        2.06343   0.00326   0.00710   0.00000   0.00710   2.07054
    R4        2.88731  -0.00105  -0.00779   0.00000  -0.00779   2.87952
    R5        2.31939  -0.00060  -0.00618   0.00000  -0.00618   2.31321
    R6        2.54209   0.02227   0.03836   0.00000   0.03836   2.58045
    R7        1.90901   0.00060   0.00067   0.00000   0.00067   1.90968
    R8        2.74214   0.00277   0.00793   0.00000   0.00793   2.75007
    R9        2.06063  -0.00009   0.00177   0.00000   0.00177   2.06240
   R10        2.88900   0.01303   0.01423   0.00000   0.01423   2.90323
   R11        2.88758   0.02012   0.02281   0.00000   0.02281   2.91039
   R12        2.06461   0.00211   0.00978   0.00000   0.00978   2.07439
   R13        2.06359   0.00212   0.00749   0.00000   0.00749   2.07108
   R14        2.06162   0.00179   0.00392   0.00000   0.00392   2.06554
   R15        2.31986   0.00084  -0.00537   0.00000  -0.00537   2.31448
   R16        2.53948   0.02312   0.03336   0.00000   0.03336   2.57283
   R17        1.90752  -0.00435  -0.00235   0.00000  -0.00235   1.90517
   R18        2.74041   0.00390   0.00453   0.00000   0.00453   2.74494
   R19        2.06015  -0.00035   0.00060   0.00000   0.00060   2.06076
   R20        2.06388   0.00297   0.00829   0.00000   0.00829   2.07217
   R21        2.06282   0.00303   0.00605   0.00000   0.00605   2.06887
    A1        1.90785  -0.00007  -0.00669   0.00000  -0.00679   1.90106
    A2        1.91192  -0.00011   0.00159   0.00000   0.00182   1.91374
    A3        1.92693  -0.00555  -0.02414   0.00000  -0.02406   1.90286
    A4        1.90214  -0.00362  -0.01597   0.00000  -0.01634   1.88579
    A5        1.89942   0.00455   0.00665   0.00000   0.00640   1.90582
    A6        1.91534   0.00481   0.03860   0.00000   0.03854   1.95388
    A7        2.11582   0.00638   0.02523   0.00000   0.02514   2.14096
    A8        2.02482  -0.00612  -0.02052   0.00000  -0.02060   2.00423
    A9        2.14251  -0.00026  -0.00479   0.00000  -0.00487   2.13764
   A10        2.09140  -0.00103  -0.00573   0.00000  -0.00573   2.08567
   A11        2.12891   0.00161   0.00269   0.00000   0.00269   2.13160
   A12        2.06288  -0.00058   0.00304   0.00000   0.00304   2.06592
   A13        1.89865   0.00174  -0.02497   0.00000  -0.02595   1.87271
   A14        1.94206  -0.00641   0.00603   0.00000   0.00659   1.94865
   A15        1.92480  -0.01103  -0.02841   0.00000  -0.02993   1.89487
   A16        1.89647  -0.00453   0.00076   0.00000   0.00086   1.89734
   A17        1.88805  -0.00753  -0.01605   0.00000  -0.01784   1.87022
   A18        1.91272   0.02755   0.06270   0.00000   0.06299   1.97571
   A19        1.92365   0.00642   0.02501   0.00000   0.02475   1.94840
   A20        1.91837   0.00316   0.01460   0.00000   0.01434   1.93270
   A21        1.91187   0.00108   0.00155   0.00000   0.00155   1.91343
   A22        1.90550  -0.00241  -0.00921   0.00000  -0.00970   1.89580
   A23        1.90002  -0.00553  -0.02041   0.00000  -0.02041   1.87961
   A24        1.90419  -0.00289  -0.01192   0.00000  -0.01192   1.89228
   A25        2.10561  -0.00860   0.00499   0.00000   0.00478   2.11040
   A26        2.03144   0.01819  -0.00732   0.00000  -0.00752   2.02392
   A27        2.14603  -0.00960   0.00214   0.00000   0.00195   2.14798
   A28        2.09031   0.00276  -0.00801   0.00000  -0.00854   2.08177
   A29        2.12995  -0.00019   0.00467   0.00000   0.00413   2.13408
   A30        2.06266  -0.00258   0.00281   0.00000   0.00225   2.06491
   A31        1.90029  -0.00441  -0.02165   0.00000  -0.02154   1.87876
   A32        1.92244   0.00327   0.02263   0.00000   0.02257   1.94501
   A33        1.91586   0.00348   0.00947   0.00000   0.00935   1.92521
   A34        1.90689   0.00000  -0.00649   0.00000  -0.00631   1.90058
   A35        1.91184  -0.00006   0.00327   0.00000   0.00331   1.91515
   A36        1.90645  -0.00230  -0.00729   0.00000  -0.00757   1.89888
    D1       -0.09516   0.00008  -0.19022   0.00000  -0.19046  -0.28562
    D2        3.05590  -0.00024  -0.17146   0.00000  -0.17149   2.88441
    D3        1.99882  -0.00054  -0.20904   0.00000  -0.20925   1.78957
    D4       -1.13330  -0.00085  -0.19028   0.00000  -0.19028  -1.32358
    D5       -2.20431   0.00065  -0.20198   0.00000  -0.20184  -2.40615
    D6        0.94675   0.00033  -0.18321   0.00000  -0.18286   0.76389
    D7       -0.01849  -0.00015  -0.03674   0.00000  -0.03644  -0.05493
    D8        3.12433  -0.00065  -0.03452   0.00000  -0.03450   3.08984
    D9        3.13273  -0.00051  -0.01766   0.00000  -0.01768   3.11505
   D10       -0.00763  -0.00100  -0.01544   0.00000  -0.01574  -0.02337
   D11       -0.28823  -0.00230  -0.05272   0.00000  -0.05217  -0.34040
   D12        1.80049  -0.01072  -0.06416   0.00000  -0.06364   1.73685
   D13       -2.35627   0.01230   0.00000   0.00000   0.00000  -2.35627
   D14        2.85457  -0.00279  -0.05053   0.00000  -0.05025   2.80433
   D15       -1.33989  -0.01121  -0.06197   0.00000  -0.06172  -1.40161
   D16        0.78654   0.01181   0.00218   0.00000   0.00193   0.78846
   D17        1.04749  -0.00080   0.00049   0.00000   0.00091   1.04840
   D18       -3.13467   0.00230   0.01389   0.00000   0.01457  -3.12010
   D19       -1.04266   0.00136   0.00920   0.00000   0.00975  -1.03291
   D20        3.13750  -0.00549  -0.02618   0.00000  -0.02654   3.11096
   D21       -1.04465  -0.00238  -0.01278   0.00000  -0.01288  -1.05754
   D22        1.04736  -0.00332  -0.01747   0.00000  -0.01770   1.02965
   D23       -1.08595  -0.00146  -0.00985   0.00000  -0.01029  -1.09624
   D24        1.01508   0.00165   0.00355   0.00000   0.00337   1.01845
   D25        3.10709   0.00071  -0.00114   0.00000  -0.00145   3.10564
   D26        1.29430  -0.00450  -0.02947   0.00000  -0.02925   1.26504
   D27       -1.83260  -0.00378   0.00000   0.00000   0.00000  -1.83260
   D28       -0.78022   0.00432   0.02814   0.00000   0.02778  -0.75244
   D29        2.37608   0.00504   0.05761   0.00000   0.05703   2.43311
   D30       -2.84519  -0.00142   0.00135   0.00000   0.00119  -2.84400
   D31        0.31110  -0.00069   0.03082   0.00000   0.03044   0.34155
   D32       -0.03100  -0.00093  -0.06217   0.00000  -0.06188  -0.09288
   D33        3.13601  -0.00046  -0.01114   0.00000  -0.01113   3.12487
   D34        3.12567  -0.00020  -0.03195   0.00000  -0.03196   3.09371
   D35        0.00949   0.00026   0.01908   0.00000   0.01879   0.02828
   D36       -0.07344  -0.00018  -0.14699   0.00000  -0.14702  -0.22046
   D37        2.01719  -0.00093  -0.15449   0.00000  -0.15476   1.86243
   D38       -2.16615   0.00050  -0.14348   0.00000  -0.14344  -2.30959
   D39        3.09319   0.00021  -0.09673   0.00000  -0.09659   2.99659
   D40       -1.09937  -0.00054  -0.10423   0.00000  -0.10433  -1.20370
   D41        1.00047   0.00088  -0.09322   0.00000  -0.09301   0.90746
         Item               Value     Threshold  Converged?
 Maximum Force            0.023118     0.000450     NO 
 RMS     Force            0.006323     0.000300     NO 
 Maximum Displacement     0.492425     0.001800     NO 
 RMS     Displacement     0.108531     0.001200     NO 
 Predicted change in Energy=-5.419785D-03
 GradGradGradGradGradGradGradGradGradGradGradGradGradGradGradGradGradGrad

                          Input orientation:                          
 ---------------------------------------------------------------------
 Center     Atomic      Atomic             Coordinates (Angstroms)
 Number     Number       Type             X           Y           Z
 ---------------------------------------------------------------------
      1          1           0        1.786521    1.443652    1.176053
      2          6           0        1.854416    2.432045    0.721213
      3          1           0        1.220065    3.126324    1.283564
      4          1           0        1.482146    2.390154   -0.308436
      5          6           0        3.299836    2.910114    0.785255
      6          8           0        4.132963    2.398495    1.521847
      7          7           0        3.587117    3.976967   -0.017196
      8          1           0        2.870928    4.349543   -0.625051
      9          6           0        4.901257    4.601957   -0.032926
     10          1           0        5.407142    4.317138    0.891228
     11          6           0        5.743527    4.120735   -1.224271
     12          1           0        5.261488    4.355994   -2.182017
     13          1           0        6.736833    4.583632   -1.209396
     14          1           0        5.867203    3.035969   -1.172221
     15          6           0        4.717716    6.130690    0.002210
     16          8           0        4.350460    6.697071    1.024169
     17          7           0        4.935567    6.784293   -1.172092
     18          1           0        5.277398    6.267952   -1.967675
     19          6           0        4.781431    8.223054   -1.299136
     20          1           0        4.268158    8.580660   -0.405900
     21          1           0        5.753309    8.725134   -1.375204
     22          1           0        4.189018    8.464727   -2.187519
 ---------------------------------------------------------------------
                    Distance matrix (angstroms):
                    1          2          3          4          5
     1  H    0.000000
     2  C    1.090142   0.000000
     3  H    1.778712   1.095747   0.000000
     4  H    1.786678   1.095681   1.773442   0.000000
     5  C    2.143212   1.523776   2.149537   2.184151   0.000000
     6  O    2.556773   2.415351   3.011891   3.221310   1.224101
     7  N    3.329216   2.436039   2.831697   2.652112   1.365516
     8  H    3.586658   2.553923   2.804358   2.422429   2.060311
     9  C    4.597619   3.815821   4.178734   4.081457   2.469069
    10  H    4.631084   4.025462   4.370764   4.534098   2.536076
    11  C    5.346609   4.664952   5.266859   4.689673   3.387540
    12  H    5.642142   4.872214   5.464013   4.653843   3.839707
    13  H    6.328936   5.674027   6.226823   5.764963   4.311872
    14  H    4.970094   4.477977   5.256894   4.515742   3.230932
    15  C    5.651384   4.732381   4.785566   4.955503   3.604948
    16  O    5.847671   4.951006   4.755722   5.343462   3.937249
    17  N    6.629686   5.658636   5.763327   5.655128   4.638544
    18  H    6.733730   5.801820   6.074729   5.674004   4.771211
    19  C    7.813856   6.795956   6.732780   6.774178   5.896367
    20  H    7.719973   6.700895   6.472630   6.789235   5.874656
    21  H    8.675500   7.694108   7.678933   7.714453   6.670949
    22  H    8.147460   7.092555   7.025784   6.910755   6.362527
                    6          7          8          9         10
     6  O    0.000000
     7  N    2.271162   0.000000
     8  H    3.163620   1.010558   0.000000
     9  C    2.804076   1.455274   2.129921   0.000000
    10  H    2.387971   2.062387   2.955086   1.091376   0.000000
    11  C    3.619558   2.475440   2.943339   1.536326   2.151062
[...]
    13  H    6.199328   5.695150   6.347228   5.898505   4.285245
    14  H    4.773393   4.499087   5.293658   4.812689   3.156410
    15  C    5.614172   4.703780   5.008109   4.721230   3.602958
    16  O    5.852816   4.856852   4.889689   4.934835   3.916412
    17  N    6.545957   5.667548   6.094226   5.489231   4.647274
    18  H    6.636821   5.870010   6.450740   5.675595   4.798473
    19  C    7.758770   6.808343   7.114258   6.539201   5.915216
    20  H    7.710016   6.692158   6.831781   6.454876   5.894634
    21  H    8.617520   7.696719   8.008030   7.504958   6.677985
    22  H    8.074261   7.137387   7.502006   6.707546   6.399430
                    6          7          8          9         10
     6  O    0.000000
     7  N    2.274845   0.000000
     8  H    3.156337   1.010468   0.000000
     9  C    2.792984   1.464137   2.134471   0.000000
    10  H    2.392619   2.055429   2.887576   1.093886   0.000000
    11  C    3.473348   2.475630   3.108052   1.534471   2.147475
    12  H    4.157920   2.746318   3.079527   2.196173   3.076272
    13  H    4.250208   3.430666   4.042802   2.187334   2.525963
    14  H    3.024928   2.721202   3.520739   2.150887   2.428609
    15  C    4.099206   2.432744   2.536443   1.543081   2.117411
    16  O    4.389991   2.993434   3.004113   2.408810   2.571459
    17  N    5.220720   3.328557   3.219155   2.472420   3.256417
    18  H    5.321857   3.480192   3.461892   2.587427   3.468872
    19  C    6.534256   4.611395   4.331023   3.847541   4.511914
    20  H    6.530377   4.690276   4.360058   4.052842   4.571127
    21  H    7.157945   5.402445   5.257460   4.418007   4.955786
    22  H    7.148790   5.052885   4.599844   4.504788   5.312143
                   11         12         13         14         15
    11  C    0.000000
    12  H    1.097390   0.000000
    13  H    1.096520   1.787416   0.000000
    14  H    1.093453   1.765401   1.772156   0.000000
    15  C    2.623000   2.973302   2.876019   3.532352   0.000000
    16  O    3.730422   4.167389   3.949240   4.525487   1.224494
    17  N    2.885568   2.829353   2.940344   3.958478   1.366672
    18  H    2.426082   2.132035   2.421385   3.505147   2.051692
    19  C    4.313595   4.194191   4.220299   5.396033   2.469633
    20  H    4.851550   4.872959   4.838503   5.886618   2.524646
    21  H    4.687606   4.647348   4.333139   5.769221   3.119268
    22  H    4.844298   4.482939   4.856532   5.916371   3.252722
                   16         17         18         19         20
    16  O    0.000000
    17  N    2.279184   0.000000
    18  H    3.161075   1.008974   0.000000
    19  C    2.819768   1.453296   2.125898   0.000000
    20  H    2.366240   2.062212   2.969818   1.090638   0.000000
    21  H    3.462096   2.119649   2.544645   1.097297   1.779609
    22  H    3.665963   2.104981   2.497607   1.095417   1.784817
                   21         22
    21  H    0.000000
    22  H    1.782867   0.000000
 Stoichiometry    C6H12N2O2
 Framework group  C1[X(C6H12N2O2)]
 Deg. of freedom    60
 Full point group                 C1      NOp   1
 Largest Abelian subgroup         C1      NOp   1
 Largest concise Abelian subgroup C1      NOp   1
                         Standard orientation:                         
 ---------------------------------------------------------------------
 Center     Atomic      Atomic             Coordinates (Angstroms)
 Number     Number       Type             X           Y           Z
 ---------------------------------------------------------------------
      1          1           0        4.132166   -0.676082   -0.962247
      2          6           0        3.169681   -1.150446   -0.755262
      3          1           0        3.357736   -2.009978   -0.102330
      4          1           0        2.736293   -1.512627   -1.693071
      5          6           0        2.282315   -0.159184   -0.017759
      6          8           0        2.700287    0.541729    0.894460
      7          7           0        0.980411   -0.100617   -0.448795
      8          1           0        0.661271   -0.794565   -1.110333
      9          6           0       -0.027889    0.646404    0.305517
     10          1           0        0.354132    0.721854    1.327748
     11          6           0       -0.202821    2.065065   -0.252517
     12          1           0       -0.478799    2.058853   -1.314620
     13          1           0       -0.957339    2.626434    0.311328
     14          1           0        0.749169    2.595909   -0.165574
     15          6           0       -1.295581   -0.228224    0.400803
     16          8           0       -1.312905   -1.224224    1.112889
     17          7           0       -2.339715    0.131881   -0.404121
     18          1           0       -2.287273    1.007553   -0.902594
     19          6           0       -3.605492   -0.582151   -0.398031
     20          1           0       -3.451730   -1.516154    0.143714
     21          1           0       -4.392798   -0.006233    0.104491
     22          1           0       -3.928035   -0.802634   -1.421404
 ---------------------------------------------------------------------
 Rotational constants (GHZ):      2.5576678      0.6771535      0.6156803

 **********************************************************************

            Population analysis using the SCF density.

 **********************************************************************

 Orbital symmetries:
       Occupied  (A) (A) (A) (A) (A) (A) (A) (A) (A) (A) (A) (A)
                 (A) (A) (A) (A) (A) (A) (A) (A) (A) (A) (A) (A)
                 (A) (A) (A) (A) (A) (A) (A) (A) (A) (A) (A) (A)
                 (A) (A) (A)
       Virtual   (A) (A) (A) (A) (A) (A) (A) (A) (A) (A) (A) (A)
                 (A) (A) (A) (A) (A) (A) (A) (A) (A) (A) (A) (A)
                 (A) (A) (A) (A) (A) (A) (A) (A) (A) (A) (A) (A)
                 (A) (A) (A) (A) (A) (A) (A) (A) (A) (A) (A) (A)
                 (A) (A) (A) (A) (A) (A) (A) (A) (A) (A) (A) (A)
                 (A) (A) (A) (A) (A) (A) (A) (A) (A) (A) (A) (A)
                 (A) (A) (A) (A) (A) (A) (A) (A) (A) (A) (A) (A)
                 (A) (A) (A) (A) (A) (A) (A) (A) (A) (A) (A) (A)
                 (A) (A) (A) (A) (A) (A) (A) (A) (A) (A) (A) (A)
                 (A) (A) (A) (A) (A) (A) (A) (A) (A) (A) (A) (A)
                 (A) (A) (A) (A) (A) (A) (A) (A) (A) (A) (A) (A)
                 (A) (A) (A)
 The electronic state is 1-A.
 Alpha  occ. eigenvalues --  -19.11289 -19.10656 -14.36992 -14.36052 -10.28912
 Alpha  occ. eigenvalues --  -10.28488 -10.23409 -10.22360 -10.19110 -10.19067
 Alpha  occ. eigenvalues --   -1.03566  -1.02556  -0.92681  -0.91898  -0.78135
 Alpha  occ. eigenvalues --   -0.72975  -0.71014  -0.65178  -0.58908  -0.58437
 Alpha  occ. eigenvalues --   -0.53755  -0.48675  -0.47345  -0.45888  -0.44991
 Alpha  occ. eigenvalues --   -0.44312  -0.42394  -0.41905  -0.40434  -0.39722
 Alpha  occ. eigenvalues --   -0.39134  -0.38594  -0.37720  -0.36540  -0.34308
 Alpha  occ. eigenvalues --   -0.26447  -0.25607  -0.24638  -0.24425
 Alpha virt. eigenvalues --    0.01369   0.03651   0.06888   0.08252   0.11360
 Alpha virt. eigenvalues --    0.12820   0.13937   0.14679   0.15602   0.15932
 Alpha virt. eigenvalues --    0.16247   0.16791   0.17930   0.18690   0.19191
 Alpha virt. eigenvalues --    0.21126   0.22975   0.24763   0.26603   0.31561
 Alpha virt. eigenvalues --    0.34234   0.38231   0.41725   0.50060   0.51604
 Alpha virt. eigenvalues --    0.51788   0.52230   0.53051   0.55205   0.56830
 Alpha virt. eigenvalues --    0.57066   0.61099   0.61819   0.63377   0.65559
 Alpha virt. eigenvalues --    0.67075   0.69895   0.70487   0.71092   0.73336
 Alpha virt. eigenvalues --    0.75238   0.75959   0.79106   0.79808   0.83384
 Alpha virt. eigenvalues --    0.84138   0.84547   0.85771   0.87111   0.88974
 Alpha virt. eigenvalues --    0.89533   0.90023   0.90677   0.91753   0.93058
 Alpha virt. eigenvalues --    0.94102   0.94830   0.95256   0.97822   0.99427
 Alpha virt. eigenvalues --    1.04413   1.05435   1.08511   1.11651   1.14308
 Alpha virt. eigenvalues --    1.16647   1.21696   1.26738   1.27982   1.31823
 Alpha virt. eigenvalues --    1.35279   1.40283   1.42649   1.45405   1.48397
 Alpha virt. eigenvalues --    1.54088   1.55470   1.58965   1.62949   1.69040
 Alpha virt. eigenvalues --    1.73793   1.75231   1.78915   1.80000   1.81582
 Alpha virt. eigenvalues --    1.83016   1.83783   1.86578   1.88633   1.89418
 Alpha virt. eigenvalues --    1.92167   1.95478   1.97109   2.00331   2.01642
 Alpha virt. eigenvalues --    2.05270   2.07263   2.08684   2.11936   2.14984
 Alpha virt. eigenvalues --    2.20602   2.22737   2.23414   2.26809   2.27967
 Alpha virt. eigenvalues --    2.30583   2.31532   2.35259   2.38134   2.41092
 Alpha virt. eigenvalues --    2.43476   2.47107   2.52993   2.54590   2.62231
 Alpha virt. eigenvalues --    2.65462   2.67488   2.70463   2.72952   2.87808
 Alpha virt. eigenvalues --    2.93231   2.98255   2.98795   3.12502   3.14351
 Alpha virt. eigenvalues --    3.93535   3.97159   4.05912   4.14879   4.17558
 Alpha virt. eigenvalues --    4.19421   4.27613   4.36760   4.48429   4.65192
          Condensed to atoms (all electrons):
              1          2          3          4          5          6
     1  H    0.517383   0.360461  -0.022593  -0.026143  -0.019594   0.001847
     2  C    0.360461   5.312715   0.362796   0.339907   0.349916  -0.079102
     3  H   -0.022593   0.362796   0.515625  -0.025717  -0.019819   0.000004
     4  H   -0.026143   0.339907  -0.025717   0.581436  -0.025200   0.003044
     5  C   -0.019594   0.349916  -0.019819  -0.025200   4.290497   0.587469
     6  O    0.001847  -0.079102   0.000004   0.003044   0.587469   8.067098
     7  N    0.002990  -0.117521   0.000358   0.006076   0.265872  -0.099052
     8  H   -0.000080   0.000803   0.000000   0.002209  -0.014062   0.003310
     9  C   -0.000128   0.007032  -0.000220   0.000021  -0.019489   0.004163
    10  H   -0.000026   0.001109   0.000009  -0.000035   0.000149   0.016500
    11  C    0.000020  -0.000390  -0.000005   0.000013  -0.004377  -0.002638
    12  H   -0.000001   0.000008   0.000000   0.000001   0.000322  -0.000028
    13  H    0.000000   0.000004   0.000000   0.000000   0.000024  -0.000007
    14  H   -0.000001   0.000085   0.000001  -0.000015   0.003104   0.004291
    15  C    0.000000   0.000028   0.000016  -0.000069   0.003716   0.000495
    16  O    0.000000  -0.000023   0.000002   0.000002   0.000229   0.000001
    17  N    0.000000   0.000000   0.000000   0.000000  -0.000124  -0.000006
    18  H    0.000000   0.000000   0.000000   0.000000  -0.000013   0.000000
    19  C    0.000000   0.000000   0.000000   0.000000   0.000003   0.000000
    20  H    0.000000   0.000000   0.000000   0.000000   0.000000   0.000000
    21  H    0.000000   0.000000   0.000000   0.000000   0.000000   0.000000
    22  H    0.000000   0.000000   0.000000   0.000000   0.000000   0.000000
              7          8          9         10         11         12
     1  H    0.002990  -0.000080  -0.000128  -0.000026   0.000020  -0.000001
     2  C   -0.117521   0.000803   0.007032   0.001109  -0.000390   0.000008
     3  H    0.000358   0.000000  -0.000220   0.000009  -0.000005   0.000000
     4  H    0.006076   0.002209   0.000021  -0.000035   0.000013   0.000001
     5  C    0.265872  -0.014062  -0.019489   0.000149  -0.004377   0.000322
     6  O   -0.099052   0.003310   0.004163   0.016500  -0.002638  -0.000028
     7  N    7.140326   0.294788   0.236617  -0.049774  -0.055587  -0.001387
     8  H    0.294788   0.410732  -0.036070   0.004738   0.002490   0.001114
     9  C    0.236617  -0.036070   5.073995   0.370951   0.311201  -0.025261
    10  H   -0.049774   0.004738   0.370951   0.523103  -0.045034   0.004905
    11  C   -0.055587   0.002490   0.311201  -0.045034   5.205037   0.355785
    12  H   -0.001387   0.001114  -0.025261   0.004905   0.355785   0.589212
    13  H    0.004754  -0.000147  -0.033321  -0.000101   0.360870  -0.032900
    14  H   -0.005578  -0.000088  -0.018204  -0.004567   0.366935  -0.027945
    15  C   -0.025525  -0.000952   0.322962  -0.029459  -0.032222  -0.007397
    16  O   -0.001159   0.001213  -0.079618   0.001862   0.003435  -0.000060
    17  N   -0.002568   0.002484  -0.106488   0.003498   0.001913   0.000632
    18  H    0.000281  -0.000008  -0.004843   0.000088   0.007157   0.006149
    19  C   -0.000062  -0.000078   0.006161  -0.000136  -0.000252   0.000004
    20  H   -0.000010  -0.000019   0.000895  -0.000019  -0.000055  -0.000003
    21  H   -0.000004   0.000003  -0.000050   0.000017  -0.000029   0.000019
    22  H    0.000012  -0.000006  -0.000200  -0.000002   0.000017  -0.000015
             13         14         15         16         17         18
     1  H    0.000000  -0.000001   0.000000   0.000000   0.000000   0.000000
     2  C    0.000004   0.000085   0.000028  -0.000023   0.000000   0.000000
     3  H    0.000000   0.000001   0.000016   0.000002   0.000000   0.000000
     4  H    0.000000  -0.000015  -0.000069   0.000002   0.000000   0.000000
     5  C    0.000024   0.003104   0.003716   0.000229  -0.000124  -0.000013
     6  O   -0.000007   0.004291   0.000495   0.000001  -0.000006   0.000000
     7  N    0.004754  -0.005578  -0.025525  -0.001159  -0.002568   0.000281
     8  H   -0.000147  -0.000088  -0.000952   0.001213   0.002484  -0.000008
     9  C   -0.033321  -0.018204   0.322962  -0.079618  -0.106488  -0.004843
    10  H   -0.000101  -0.004567  -0.029459   0.001862   0.003498   0.000088
    11  C    0.360870   0.366935  -0.032222   0.003435   0.001913   0.007157
    12  H   -0.032900  -0.027945  -0.007397  -0.000060   0.000632   0.006149
    13  H    0.570857  -0.023872   0.001403  -0.000003   0.000079   0.000915
    14  H   -0.023872   0.515616   0.003061  -0.000059   0.000120  -0.000167
    15  C    0.001403   0.003061   4.418073   0.589172   0.246510  -0.014305
    16  O   -0.000003  -0.000059   0.589172   8.072865  -0.100359   0.003509
    17  N    0.000079   0.000120   0.246510  -0.100359   7.106544   0.294766
    18  H    0.000915  -0.000167  -0.014305   0.003509   0.294766   0.403440
    19  C   -0.000076   0.000002  -0.024772  -0.007696   0.265470  -0.032027
    20  H   -0.000003   0.000001  -0.000621   0.021601  -0.041039   0.004061
    21  H   -0.000011  -0.000001  -0.000139   0.000510  -0.042738  -0.000463
    22  H    0.000004   0.000000   0.002583   0.000498  -0.039775  -0.000946
             19         20         21         22
     1  H    0.000000   0.000000   0.000000   0.000000
     2  C    0.000000   0.000000   0.000000   0.000000
     3  H    0.000000   0.000000   0.000000   0.000000
     4  H    0.000000   0.000000   0.000000   0.000000
     5  C    0.000003   0.000000   0.000000   0.000000
     6  O    0.000000   0.000000   0.000000   0.000000
     7  N   -0.000062  -0.000010  -0.000004   0.000012
     8  H   -0.000078  -0.000019   0.000003  -0.000006
     9  C    0.006161   0.000895  -0.000050  -0.000200
    10  H   -0.000136  -0.000019   0.000017  -0.000002
    11  C   -0.000252  -0.000055  -0.000029   0.000017
    12  H    0.000004  -0.000003   0.000019  -0.000015
    13  H   -0.000076  -0.000003  -0.000011   0.000004
    14  H    0.000002   0.000001  -0.000001   0.000000
    15  C   -0.024772  -0.000621  -0.000139   0.002583
    16  O   -0.007696   0.021601   0.000510   0.000498
    17  N    0.265470  -0.041039  -0.042738  -0.039775
    18  H   -0.032027   0.004061  -0.000463  -0.000946
    19  C    4.967296   0.376122   0.384412   0.377923
    20  H    0.376122   0.482097  -0.026489  -0.022697
    21  H    0.384412  -0.026489   0.563164  -0.039729
    22  H    0.377923  -0.022697  -0.039729   0.566056
 Mulliken atomic charges:
              1
     1  H    0.185864
     2  C   -0.537828
     3  H    0.189543
     4  H    0.144470
     5  C    0.601375
     6  O   -0.507391
     7  N   -0.593847
     8  H    0.327628
     9  C   -0.010106
    10  H    0.202224
    11  C   -0.474285
    12  H    0.136848
    13  H    0.151530
    14  H    0.187280
    15  C    0.547443
    16  O   -0.505922
    17  N   -0.588920
    18  H    0.332405
    19  C   -0.312294
    20  H    0.206178
    21  H    0.161528
    22  H    0.156276
 Sum of Mulliken atomic charges =   0.00000
 Mulliken charges with hydrogens summed into heavy atoms:
              1
     2  C   -0.017950
     5  C    0.601375
     6  O   -0.507391
     7  N   -0.266219
     9  C    0.192117
    11  C    0.001373
    15  C    0.547443
    16  O   -0.505922
    17  N   -0.256516
    19  C    0.211688
 Sum of Mulliken charges with hydrogens summed into heavy atoms =   0.00000
 Electronic spatial extent (au):  <R**2>=           1941.6285
 Charge=              0.0000 electrons
 Dipole moment (field-independent basis, Debye):
    X=             -2.7681    Y=              0.7125    Z=             -4.3293  Tot=              5.1877
 Quadrupole moment (field-independent basis, Debye-Ang):
   XX=            -56.9382   YY=            -59.7275   ZZ=            -62.0689
   XY=             -8.2043   XZ=             -1.8008   YZ=              2.5425
 Traceless Quadrupole moment (field-independent basis, Debye-Ang):
   XX=              2.6400   YY=             -0.1493   ZZ=             -2.4907
   XY=             -8.2043   XZ=             -1.8008   YZ=              2.5425
 Octapole moment (field-independent basis, Debye-Ang**2):
  XXX=            -38.2229  YYY=              1.0530  ZZZ=             -1.4672  XYY=              2.1889
  XXY=            -13.7144  XXZ=            -23.1316  XZZ=             -3.1598  YZZ=              1.0486
  YYZ=             -3.7584  XYZ=             -4.6644
 Hexadecapole moment (field-independent basis, Debye-Ang**3):
 XXXX=          -1741.5092 YYYY=           -440.5957 ZZZZ=           -213.9843 XXXY=            -26.1837
 XXXZ=            -28.8668 YYYX=              0.3728 YYYZ=              1.8911 ZZZX=              8.3270
 ZZZY=              3.4743 XXYY=           -369.2974 XXZZ=           -354.0040 YYZZ=           -111.8177
 XXYZ=             -9.0634 YYXZ=              7.5600 ZZXY=             -7.9744
 N-N= 5.485805684373D+02 E-N=-2.253139359416D+03  KE= 4.912366814595D+02
 1\1\GINC-NODE001\FOpt\RB3LYP\6-31G(d)\C6H12N2O2\STEBOSS\10-Feb-2017\0\
 \# b3lyp/6-31G* Opt=(ModRedundant, maxcycles=1000, calcfc) geom=nocrow
 d\\Phi Psi fixed scan\\0,1\H,1.8026481613,1.3685276189,0.6955288319\C,
 1.847412634,2.459105482,0.7491746356\H,1.412393626,2.7616087502,1.7082
 004442\H,1.2434767791,2.8856394843,-0.0581770012\C,3.3049321866,2.8930
 021345,0.7131354744\O,4.1739075116,2.3248282415,1.3613517336\N,3.58049
 6648,3.9634342767,-0.1007535363\H,2.8064567798,4.472965424,-0.50360121
 57\C,4.890679103,4.6160521404,-0.0659843767\H,5.3227230816,4.374378686
 3,0.9094740951\C,5.8172884418,4.0630885953,-1.1569605685\H,5.385607721
 4,4.1748170662,-2.1596735548\H,6.7993116778,4.5503074296,-1.132393647\
 H,5.9653411792,2.9938545235,-0.9824399275\C,4.6619548282,6.1420123879,
 -0.050883334\O,4.2154828088,6.6949533093,0.9462643016\N,4.9099702406,6
 .8015294047,-1.2219163862\H,5.3523888907,6.298713231,-1.9765484485\C,4
 .7660723638,8.2423700572,-1.3457750961\H,4.2283306293,8.5944777,-0.464
 6701677\H,5.7408465493,8.7442568066,-1.3903424975\H,4.1967781581,8.496
 37725,-2.2465097586\\Version=EM64L-G09RevA.02\State=1-A\HF=-495.842852
 \RMSD=5.778e-09\RMSF=4.309e-04\Dipole=-0.2406639,0.6207323,-1.9293753\
 Quadrupole=4.9493587,-3.2739234,-1.6754353,4.3403188,-2.2132378,-1.863
 2169\PG=C01 [X(C6H12N2O2)]\\@


 ALL THINGS ARE POSSIBLE EXCEPT SKIING THROUGH A REVOLVING DOOR.
 Job cpu time:  0 days  3 hours  0 minutes  4.8 seconds.
 File lengths (MBytes):  RWF=    186 Int=      0 D2E=      0 Chk=      4 Scr=      2
 Normal termination of Gaussian 09 at Fri Feb 10 22:25:10 2017.
