 Entering Gaussian System, Link 0=g09
 Initial command:
 /home/steboss/Software/g09/l1.exe /home/steboss/projects/phi_psi_scan/alanine/MP2/75/5697/Gau-28926.inp -scrdir=/home/steboss/projects/phi_psi_scan/alanine/MP2/75/5697/
 Entering Link 1 = /home/steboss/Software/g09/l1.exe PID=     28928.
  
 Copyright (c) 1988,1990,1992,1993,1995,1998,2003,2009, Gaussian, Inc.
                  All Rights Reserved.
  
 This is part of the Gaussian(R) 09 program.  It is based on
 the Gaussian(R) 03 system (copyright 2003, Gaussian, Inc.),
 the Gaussian(R) 98 system (copyright 1998, Gaussian, Inc.),
 the Gaussian(R) 94 system (copyright 1995, Gaussian, Inc.),
 the Gaussian 92(TM) system (copyright 1992, Gaussian, Inc.),
 the Gaussian 90(TM) system (copyright 1990, Gaussian, Inc.),
 the Gaussian 88(TM) system (copyright 1988, Gaussian, Inc.),
 the Gaussian 86(TM) system (copyright 1986, Carnegie Mellon
 University), and the Gaussian 82(TM) system (copyright 1983,
 Carnegie Mellon University). Gaussian is a federally registered
 trademark of Gaussian, Inc.
  
 This software contains proprietary and confidential information,
 including trade secrets, belonging to Gaussian, Inc.
  
 This software is provided under written license and may be
 used, copied, transmitted, or stored only in accord with that
 written license.
  
 The following legend is applicable only to US Government
 contracts under FAR:
  
                    RESTRICTED RIGHTS LEGEND
  
 Use, reproduction and disclosure by the US Government is
 subject to restrictions as set forth in subparagraphs (a)
 and (c) of the Commercial Computer Software - Restricted
 Rights clause in FAR 52.227-19.
  
 Gaussian, Inc.
 340 Quinnipiac St., Bldg. 40, Wallingford CT 06492
  
  
 ---------------------------------------------------------------
 Warning -- This program may not be used in any manner that
 competes with the business of Gaussian, Inc. or will provide
 assistance to any competitor of Gaussian, Inc.  The licensee
 of this program is prohibited from giving any competitor of
 Gaussian, Inc. access to this program.  By using this program,
 the user acknowledges that Gaussian, Inc. is engaged in the
 business of creating and licensing software in the field of
 computational chemistry and represents and warrants to the
 licensee that it is not a competitor of Gaussian, Inc. and that
 it will not use this program in any manner prohibited above.
 ---------------------------------------------------------------
  

 Cite this work as:
 Gaussian 09, Revision A.02,
 M. J. Frisch, G. W. Trucks, H. B. Schlegel, G. E. Scuseria, 
 M. A. Robb, J. R. Cheeseman, G. Scalmani, V. Barone, B. Mennucci, 
 G. A. Petersson, H. Nakatsuji, M. Caricato, X. Li, H. P. Hratchian, 
 A. F. Izmaylov, J. Bloino, G. Zheng, J. L. Sonnenberg, M. Hada, 
 M. Ehara, K. Toyota, R. Fukuda, J. Hasegawa, M. Ishida, T. Nakajima, 
 Y. Honda, O. Kitao, H. Nakai, T. Vreven, J. A. Montgomery, Jr., 
 J. E. Peralta, F. Ogliaro, M. Bearpark, J. J. Heyd, E. Brothers, 
 K. N. Kudin, V. N. Staroverov, R. Kobayashi, J. Normand, 
 K. Raghavachari, A. Rendell, J. C. Burant, S. S. Iyengar, J. Tomasi, 
 M. Cossi, N. Rega, J. M. Millam, M. Klene, J. E. Knox, J. B. Cross, 
 V. Bakken, C. Adamo, J. Jaramillo, R. Gomperts, R. E. Stratmann, 
 O. Yazyev, A. J. Austin, R. Cammi, C. Pomelli, J. W. Ochterski, 
 R. L. Martin, K. Morokuma, V. G. Zakrzewski, G. A. Voth, 
 P. Salvador, J. J. Dannenberg, S. Dapprich, A. D. Daniels, 
 O. Farkas, J. B. Foresman, J. V. Ortiz, J. Cioslowski, 
 and D. J. Fox, Gaussian, Inc., Wallingford CT, 2009.
 
 ******************************************
 Gaussian 09:  EM64L-G09RevA.02 11-Jun-2009
                14-Feb-2017 
 ******************************************
 %chk=structure_285.chk
 %NProcShared=8
 Will use up to    8 processors via shared memory.
 -------------------
 #SP MP2/aug-cc-pVDZ
 -------------------
 1/38=1/1;
 2/12=2,17=6,18=5,40=1/2;
 3/5=16,7=10,11=9,16=1,25=1,30=1/1,2,3;
 4//1;
 5/5=2,38=5/2;
 8/10=1/1;
 9/16=-3/6;
 6/7=2,8=2,9=2,10=2/1;
 99/5=1,9=1/99;
 -------------------------------
 Single Point calculation at MP2
 -------------------------------
 Symbolic Z-matrix:
 Charge =  0 Multiplicity = 1
 H                    -3.0836   -1.8837   -0.854 
 C                    -3.1128   -0.8092   -0.6517 
 H                    -3.9196   -0.6345    0.0676 
 H                    -3.3458   -0.2757   -1.5783 
 C                    -1.7956   -0.3957   -0.0148 
 O                    -1.3626   -0.9792    0.9822 
 N                    -1.1514    0.6462   -0.6074 
 H                    -1.5411    1.018    -1.461 
 C                     0.0934    1.2706   -0.1209 
 H                     0.2506    2.1327   -0.773 
 C                    -0.0086    1.7653    1.3278 
 H                    -0.1957    0.9486    2.0256 
 H                     0.9257    2.2626    1.6085 
 H                    -0.8251    2.4903    1.417 
 C                     1.3312    0.3821   -0.4058 
 O                     2.1376    0.7012   -1.2739 
 N                     1.4653   -0.7038    0.4015 
 H                     0.6361   -0.9888    0.9191 
 C                     2.5341   -1.6658    0.1945 
 H                     3.417    -1.1335   -0.1632 
 H                     2.7656   -2.163     1.1409 
 H                     2.2689   -2.4293   -0.5498 
 
                          Input orientation:                          
 ---------------------------------------------------------------------
 Center     Atomic      Atomic             Coordinates (Angstroms)
 Number     Number       Type             X           Y           Z
 ---------------------------------------------------------------------
      1          1           0       -3.083600   -1.883700   -0.854000
      2          6           0       -3.112800   -0.809200   -0.651700
      3          1           0       -3.919600   -0.634500    0.067600
      4          1           0       -3.345800   -0.275700   -1.578300
      5          6           0       -1.795600   -0.395700   -0.014800
      6          8           0       -1.362600   -0.979200    0.982200
      7          7           0       -1.151400    0.646200   -0.607400
      8          1           0       -1.541100    1.018000   -1.461000
      9          6           0        0.093400    1.270600   -0.120900
     10          1           0        0.250600    2.132700   -0.773000
     11          6           0       -0.008600    1.765300    1.327800
     12          1           0       -0.195700    0.948600    2.025600
     13          1           0        0.925700    2.262600    1.608500
     14          1           0       -0.825100    2.490300    1.417000
     15          6           0        1.331200    0.382100   -0.405800
     16          8           0        2.137600    0.701200   -1.273900
     17          7           0        1.465300   -0.703800    0.401500
     18          1           0        0.636100   -0.988800    0.919100
     19          6           0        2.534100   -1.665800    0.194500
     20          1           0        3.417000   -1.133500   -0.163200
     21          1           0        2.765600   -2.163000    1.140900
     22          1           0        2.268900   -2.429300   -0.549800
 ---------------------------------------------------------------------
                    Distance matrix (angstroms):
                    1          2          3          4          5
     1  H    0.000000
     2  C    1.093768   0.000000
     3  H    1.763163   1.094915   0.000000
     4  H    1.782982   1.094303   1.779598   0.000000
     5  C    2.139473   1.520408   2.138970   2.205006   0.000000
     6  O    2.674246   2.400360   2.737437   3.314235   1.233682
     7  N    3.192899   2.442794   3.123900   2.570591   1.360781
     8  H    3.341799   2.542414   3.274849   2.223592   2.038336
     9  C    4.536560   3.858372   4.446246   4.042667   2.521137
    10  H    5.220624   4.470117   5.074896   4.402612   3.339852
    11  C    5.247007   4.492497   4.758473   4.873192   3.108997
    12  H    4.965278   4.332121   4.495264   4.940661   2.920626
    13  H    6.271379   5.554632   5.851879   5.902912   4.136077
    14  H    5.421267   4.516613   4.600129   4.793382   3.364657
    15  C    4.982489   4.607472   5.369216   4.866394   3.245725
    16  O    5.841143   5.498649   6.346132   5.578052   4.273007
    17  N    4.864251   4.698866   5.395687   5.220111   3.301772
    18  H    4.216740   4.068651   4.648116   4.754056   2.671535
    19  C    5.718862   5.773846   6.536813   6.296699   4.516997
    20  H    6.580107   6.556073   7.357171   6.962312   5.266647
    21  H    6.186338   6.292994   6.941195   6.950191   5.026285
    22  H    5.388829   5.621192   6.473023   6.100874   4.576234
                    6          7          8          9         10
     6  O    0.000000
     7  N    2.283278   0.000000
     8  H    3.160680   1.009324   0.000000
     9  C    2.897993   1.475156   2.128677   0.000000
    10  H    3.920085   2.050051   2.219479   1.092320   0.000000
    11  C    3.079779   2.510652   3.268703   1.534231   2.148378
    12  H    2.483295   2.817356   3.737820   2.189686   3.071390
    13  H    4.017193   3.440539   4.129886   2.160466   2.478745
    14  H    3.537709   2.757784   3.311073   2.167129   2.465990
    15  C    3.322084   2.504734   3.125368   1.550080   2.089769
    16  O    4.490560   3.356303   3.697053   2.415032   2.420922
    17  N    2.900013   3.112475   3.933439   2.460339   3.301618
    18  H    1.999719   2.863317   3.798990   2.545783   3.571495
    19  C    4.034373   4.423946   5.152739   3.831310   4.536412
    20  H    4.917349   4.922898   5.558416   4.102171   4.589772
    21  H    4.297511   5.127480   5.952840   4.530166   5.333036
    22  H    4.199715   4.600051   5.218262   4.313469   4.993516
                   11         12         13         14         15
    11  C    0.000000
    12  H    1.090381   0.000000
    13  H    1.094996   1.777106   0.000000
    14  H    1.095561   1.772957   1.775900   0.000000
    15  C    2.591076   2.926440   2.785339   3.523739   0.000000
    16  O    3.536570   4.048728   3.494982   4.383995   1.227071
    17  N    3.021071   2.850798   3.247699   4.059489   1.359741
    18  H    2.857926   2.381124   3.336277   3.806198   2.029259
    19  C    4.418387   4.199979   4.474223   5.481961   2.449739
    20  H    4.728727   4.709309   4.569354   5.798653   2.589683
    21  H    4.812760   4.385664   4.815581   5.884094   3.305649
    22  H    5.129041   4.910921   5.336326   6.135438   2.967151
                   16         17         18         19         20
    16  O    0.000000
    17  N    2.287570   0.000000
    18  H    3.149580   1.018188   0.000000
    19  C    2.813556   1.452800   2.141443   0.000000
    20  H    2.497327   2.076695   2.987594   1.091240   0.000000
    21  H    3.798590   2.089679   2.441866   1.093834   1.784620
    22  H    3.215834   2.127932   2.626546   1.098747   1.773891
                   21         22
    21  H    0.000000
    22  H    1.782160   0.000000
 Stoichiometry    C6H12N2O2
 Framework group  C1[X(C6H12N2O2)]
 Deg. of freedom    60
 Full point group                 C1      NOp   1
 Largest Abelian subgroup         C1      NOp   1
 Largest concise Abelian subgroup C1      NOp   1
                         Standard orientation:                         
 ---------------------------------------------------------------------
 Center     Atomic      Atomic             Coordinates (Angstroms)
 Number     Number       Type             X           Y           Z
 ---------------------------------------------------------------------
      1          1           0       -3.083619   -1.883683   -0.853988
      2          6           0       -3.112812   -0.809183   -0.651688
      3          1           0       -3.919611   -0.634477    0.067612
      4          1           0       -3.345808   -0.275681   -1.578288
      5          6           0       -1.795609   -0.395692   -0.014788
      6          8           0       -1.362613   -0.979195    0.982212
      7          7           0       -1.151402    0.646204   -0.607388
      8          1           0       -1.541099    1.018007   -1.460988
      9          6           0        0.093402    1.270596   -0.120888
     10          1           0        0.250608    2.132694   -0.772988
     11          6           0       -0.008594    1.765296    1.327812
     12          1           0       -0.195700    0.948597    2.025612
     13          1           0        0.925709    2.262590    1.608512
     14          1           0       -0.825089    2.490302    1.417012
     15          6           0        1.331196    0.382087   -0.405788
     16          8           0        2.137598    0.701182   -1.273888
     17          7           0        1.465289   -0.703814    0.401512
     18          1           0        0.636087   -0.988808    0.919112
     19          6           0        2.534082   -1.665821    0.194512
     20          1           0        3.416986   -1.133527   -0.163188
     21          1           0        2.765579   -2.163023    1.140912
     22          1           0        2.268877   -2.429319   -0.549788
 ---------------------------------------------------------------------
 Rotational constants (GHZ):      1.8939831      0.8945890      0.7853762
 Standard basis: Aug-CC-pVDZ (5D, 7F)
 There are   338 symmetry adapted basis functions of A   symmetry.
 Integral buffers will be    131072 words long.
 Raffenetti 1 integral format.
 Two-electron integral symmetry is turned on.
   338 basis functions,   562 primitive gaussians,   358 cartesian basis functions
    39 alpha electrons       39 beta electrons
       nuclear repulsion energy       563.9686435545 Hartrees.
 NAtoms=   22 NActive=   22 NUniq=   22 SFac= 7.50D-01 NAtFMM=   80 NAOKFM=F Big=F
 One-electron integrals computed using PRISM.
 NBasis=   338 RedAO= T  NBF=   338
 NBsUse=   338 1.00D-06 NBFU=   338
 Harris functional with IExCor=  205 diagonalized for initial guess.
 ExpMin= 2.97D-02 ExpMax= 1.17D+04 ExpMxC= 4.01D+02 IAcc=3 IRadAn=         0 AccDes= 0.00D+00
 HarFok:  IExCor=  205 AccDes= 0.00D+00 IRadAn=         0 IDoV= 1
 ScaDFX=  1.000000  1.000000  1.000000  1.000000
 FoFCou: FMM=F IPFlag=           0 FMFlag=      100000 FMFlg1=           0
         NFxFlg=           0 DoJE=T BraDBF=F KetDBF=T FulRan=T
         Omega=  0.000000  0.000000  1.000000  0.000000  0.000000 ICntrl=     500 IOpCl=  0
         NMat0=    1 NMatS0=    1 NMatT0=    0 NMatD0=    1 NMtDS0=    0 NMtDT0=    0
         I1Cent=           4 NGrid=           0.
 Petite list used in FoFCou.
 Initial guess orbital symmetries:
       Occupied  (A) (A) (A) (A) (A) (A) (A) (A) (A) (A) (A) (A)
                 (A) (A) (A) (A) (A) (A) (A) (A) (A) (A) (A) (A)
                 (A) (A) (A) (A) (A) (A) (A) (A) (A) (A) (A) (A)
                 (A) (A) (A)
       Virtual   (A) (A) (A) (A) (A) (A) (A) (A) (A) (A) (A) (A)
                 (A) (A) (A) (A) (A) (A) (A) (A) (A) (A) (A) (A)
                 (A) (A) (A) (A) (A) (A) (A) (A) (A) (A) (A) (A)
                 (A) (A) (A) (A) (A) (A) (A) (A) (A) (A) (A) (A)
                 (A) (A) (A) (A) (A) (A) (A) (A) (A) (A) (A) (A)
                 (A) (A) (A) (A) (A) (A) (A) (A) (A) (A) (A) (A)
                 (A) (A) (A) (A) (A) (A) (A) (A) (A) (A) (A) (A)
                 (A) (A) (A) (A) (A) (A) (A) (A) (A) (A) (A) (A)
                 (A) (A) (A) (A) (A) (A) (A) (A) (A) (A) (A) (A)
                 (A) (A) (A) (A) (A) (A) (A) (A) (A) (A) (A) (A)
                 (A) (A) (A) (A) (A) (A) (A) (A) (A) (A) (A) (A)
                 (A) (A) (A) (A) (A) (A) (A) (A) (A) (A) (A) (A)
                 (A) (A) (A) (A) (A) (A) (A) (A) (A) (A) (A) (A)
                 (A) (A) (A) (A) (A) (A) (A) (A) (A) (A) (A) (A)
                 (A) (A) (A) (A) (A) (A) (A) (A) (A) (A) (A) (A)
                 (A) (A) (A) (A) (A) (A) (A) (A) (A) (A) (A) (A)
                 (A) (A) (A) (A) (A) (A) (A) (A) (A) (A) (A) (A)
                 (A) (A) (A) (A) (A) (A) (A) (A) (A) (A) (A) (A)
                 (A) (A) (A) (A) (A) (A) (A) (A) (A) (A) (A) (A)
                 (A) (A) (A) (A) (A) (A) (A) (A) (A) (A) (A) (A)
                 (A) (A) (A) (A) (A) (A) (A) (A) (A) (A) (A) (A)
                 (A) (A) (A) (A) (A) (A) (A) (A) (A) (A) (A) (A)
                 (A) (A) (A) (A) (A) (A) (A) (A) (A) (A) (A) (A)
                 (A) (A) (A) (A) (A) (A) (A) (A) (A) (A) (A) (A)
                 (A) (A) (A) (A) (A) (A) (A) (A) (A) (A) (A)
 The electronic state of the initial guess is 1-A.
 Requested convergence on RMS density matrix=1.00D-08 within 128 cycles.
 Requested convergence on MAX density matrix=1.00D-06.
 Requested convergence on             energy=1.00D-06.
 No special actions if energy rises.
 Initial convergence to 1.0D-05 achieved.  Increase integral accuracy.
 SCF Done:  E(RHF) =  -492.924242844     A.U. after   14 cycles
             Convg  =    0.8152D-08             -V/T =  2.0017
 ExpMin= 2.97D-02 ExpMax= 1.17D+04 ExpMxC= 4.01D+02 IAcc=3 IRadAn=         5 AccDes= 0.00D+00
 HarFok:  IExCor=  205 AccDes= 0.00D+00 IRadAn=         5 IDoV=-2
 ScaDFX=  1.000000  1.000000  1.000000  1.000000
 Range of M.O.s used for correlation:    11   338
 NBasis=   338 NAE=    39 NBE=    39 NFC=    10 NFV=     0
 NROrb=    328 NOA=    29 NOB=    29 NVA=   299 NVB=   299

 **** Warning!!: The largest alpha MO coefficient is  0.90663511D+02

 Disk-based method using OVN memory for 29 occupieds at a time.
 Estimated scratch disk usage=  1391975078 words.
 Actual    scratch disk usage=  1378635862 words.
 JobTyp=1 Pass  1:  I=   1 to  29 NPSUse=  8 ParTrn=T ParDer=T DoDerP=F.
 Spin components of T(2) and E(2):
     alpha-alpha T2 =       0.6809757277D-01 E2=     -0.2062379619D+00
     alpha-beta  T2 =       0.3769474296D+00 E2=     -0.1191267668D+01
     beta-beta   T2 =       0.6809757277D-01 E2=     -0.2062379619D+00
 ANorm=    0.1230098604D+01
 E2 =    -0.1603743592D+01 EUMP2 =    -0.49452798643666D+03

 **********************************************************************

            Population analysis using the SCF density.

 **********************************************************************

 Orbital symmetries:
       Occupied  (A) (A) (A) (A) (A) (A) (A) (A) (A) (A) (A) (A)
                 (A) (A) (A) (A) (A) (A) (A) (A) (A) (A) (A) (A)
                 (A) (A) (A) (A) (A) (A) (A) (A) (A) (A) (A) (A)
                 (A) (A) (A)
       Virtual   (A) (A) (A) (A) (A) (A) (A) (A) (A) (A) (A) (A)
                 (A) (A) (A) (A) (A) (A) (A) (A) (A) (A) (A) (A)
                 (A) (A) (A) (A) (A) (A) (A) (A) (A) (A) (A) (A)
                 (A) (A) (A) (A) (A) (A) (A) (A) (A) (A) (A) (A)
                 (A) (A) (A) (A) (A) (A) (A) (A) (A) (A) (A) (A)
                 (A) (A) (A) (A) (A) (A) (A) (A) (A) (A) (A) (A)
                 (A) (A) (A) (A) (A) (A) (A) (A) (A) (A) (A) (A)
                 (A) (A) (A) (A) (A) (A) (A) (A) (A) (A) (A) (A)
                 (A) (A) (A) (A) (A) (A) (A) (A) (A) (A) (A) (A)
                 (A) (A) (A) (A) (A) (A) (A) (A) (A) (A) (A) (A)
                 (A) (A) (A) (A) (A) (A) (A) (A) (A) (A) (A) (A)
                 (A) (A) (A) (A) (A) (A) (A) (A) (A) (A) (A) (A)
                 (A) (A) (A) (A) (A) (A) (A) (A) (A) (A) (A) (A)
                 (A) (A) (A) (A) (A) (A) (A) (A) (A) (A) (A) (A)
                 (A) (A) (A) (A) (A) (A) (A) (A) (A) (A) (A) (A)
                 (A) (A) (A) (A) (A) (A) (A) (A) (A) (A) (A) (A)
                 (A) (A) (A) (A) (A) (A) (A) (A) (A) (A) (A) (A)
                 (A) (A) (A) (A) (A) (A) (A) (A) (A) (A) (A) (A)
                 (A) (A) (A) (A) (A) (A) (A) (A) (A) (A) (A) (A)
                 (A) (A) (A) (A) (A) (A) (A) (A) (A) (A) (A) (A)
                 (A) (A) (A) (A) (A) (A) (A) (A) (A) (A) (A) (A)
                 (A) (A) (A) (A) (A) (A) (A) (A) (A) (A) (A) (A)
                 (A) (A) (A) (A) (A) (A) (A) (A) (A) (A) (A) (A)
                 (A) (A) (A) (A) (A) (A) (A) (A) (A) (A) (A) (A)
                 (A) (A) (A) (A) (A) (A) (A) (A) (A) (A) (A)
 The electronic state is 1-A.
 Alpha  occ. eigenvalues --  -20.54473 -20.52538 -15.61508 -15.57672 -11.38024
 Alpha  occ. eigenvalues --  -11.35060 -11.29754 -11.25908 -11.25695 -11.23530
 Alpha  occ. eigenvalues --   -1.39879  -1.37552  -1.25216  -1.21858  -1.06043
 Alpha  occ. eigenvalues --   -1.00129  -0.94626  -0.88950  -0.80935  -0.76651
 Alpha  occ. eigenvalues --   -0.72131  -0.70650  -0.65389  -0.63601  -0.62595
 Alpha  occ. eigenvalues --   -0.61307  -0.60150  -0.58414  -0.57561  -0.56583
 Alpha  occ. eigenvalues --   -0.54503  -0.53911  -0.52391  -0.51523  -0.50913
 Alpha  occ. eigenvalues --   -0.44322  -0.43545  -0.39479  -0.37944
 Alpha virt. eigenvalues --    0.02564   0.04004   0.04258   0.04567   0.05761
 Alpha virt. eigenvalues --    0.05996   0.06585   0.06736   0.07367   0.08261
 Alpha virt. eigenvalues --    0.08848   0.10162   0.11053   0.11595   0.12100
 Alpha virt. eigenvalues --    0.13348   0.13852   0.14343   0.14667   0.15325
 Alpha virt. eigenvalues --    0.15684   0.15784   0.16482   0.16871   0.17229
 Alpha virt. eigenvalues --    0.17478   0.18081   0.18410   0.18781   0.19387
 Alpha virt. eigenvalues --    0.19736   0.20169   0.20665   0.20907   0.22584
 Alpha virt. eigenvalues --    0.23148   0.24303   0.25406   0.25897   0.26114
 Alpha virt. eigenvalues --    0.28037   0.29117   0.29394   0.29658   0.30070
 Alpha virt. eigenvalues --    0.31180   0.31505   0.32827   0.33621   0.33922
 Alpha virt. eigenvalues --    0.34135   0.34595   0.35128   0.36619   0.36772
 Alpha virt. eigenvalues --    0.38226   0.38615   0.39119   0.40224   0.40488
 Alpha virt. eigenvalues --    0.41431   0.41628   0.42230   0.42527   0.42957
 Alpha virt. eigenvalues --    0.43131   0.43711   0.45004   0.45440   0.46203
 Alpha virt. eigenvalues --    0.46453   0.46845   0.47626   0.48486   0.48956
 Alpha virt. eigenvalues --    0.49558   0.49945   0.51150   0.51268   0.52928
 Alpha virt. eigenvalues --    0.53405   0.54696   0.55335   0.56074   0.56373
 Alpha virt. eigenvalues --    0.57063   0.57731   0.58271   0.59327   0.59604
 Alpha virt. eigenvalues --    0.59854   0.59912   0.61211   0.61888   0.62085
 Alpha virt. eigenvalues --    0.62942   0.64096   0.64425   0.65072   0.65822
 Alpha virt. eigenvalues --    0.66265   0.67162   0.67502   0.68662   0.68888
 Alpha virt. eigenvalues --    0.69812   0.69940   0.70591   0.71077   0.71482
 Alpha virt. eigenvalues --    0.73129   0.74091   0.74861   0.75429   0.75997
 Alpha virt. eigenvalues --    0.76400   0.77348   0.77507   0.78755   0.80156
 Alpha virt. eigenvalues --    0.80763   0.80902   0.81892   0.83018   0.84809
 Alpha virt. eigenvalues --    0.85028   0.85171   0.85646   0.87988   0.88911
 Alpha virt. eigenvalues --    0.89924   0.91082   0.91196   0.92537   0.93601
 Alpha virt. eigenvalues --    0.94873   0.95931   0.96430   0.98543   0.98815
 Alpha virt. eigenvalues --    0.99536   1.01072   1.02624   1.03160   1.05219
 Alpha virt. eigenvalues --    1.07845   1.09497   1.10178   1.11399   1.12094
 Alpha virt. eigenvalues --    1.12343   1.13334   1.14597   1.15556   1.16958
 Alpha virt. eigenvalues --    1.17105   1.17701   1.18759   1.19092   1.21111
 Alpha virt. eigenvalues --    1.23498   1.25203   1.25477   1.28395   1.30372
 Alpha virt. eigenvalues --    1.32258   1.33361   1.35298   1.36650   1.38252
 Alpha virt. eigenvalues --    1.39374   1.43336   1.44089   1.47057   1.48390
 Alpha virt. eigenvalues --    1.49346   1.50807   1.51518   1.53542   1.55214
 Alpha virt. eigenvalues --    1.56266   1.59210   1.60136   1.61633   1.63149
 Alpha virt. eigenvalues --    1.65621   1.68180   1.70531   1.72651   1.73811
 Alpha virt. eigenvalues --    1.74677   1.76021   1.79184   1.81115   1.81938
 Alpha virt. eigenvalues --    1.84440   1.85174   1.86095   1.87296   1.88158
 Alpha virt. eigenvalues --    1.89656   1.91105   1.91978   1.93190   1.94370
 Alpha virt. eigenvalues --    1.96145   1.97020   1.98998   2.00713   2.02160
 Alpha virt. eigenvalues --    2.03140   2.04527   2.06144   2.07067   2.08263
 Alpha virt. eigenvalues --    2.12418   2.13359   2.13775   2.14848   2.15694
 Alpha virt. eigenvalues --    2.18523   2.19791   2.20364   2.23326   2.24058
 Alpha virt. eigenvalues --    2.25120   2.26801   2.27677   2.28735   2.29180
 Alpha virt. eigenvalues --    2.31872   2.32806   2.35480   2.37238   2.37572
 Alpha virt. eigenvalues --    2.40453   2.41744   2.42345   2.43169   2.46762
 Alpha virt. eigenvalues --    2.47559   2.48629   2.49674   2.51539   2.52301
 Alpha virt. eigenvalues --    2.55004   2.56823   2.57571   2.58412   2.60606
 Alpha virt. eigenvalues --    2.62374   2.63175   2.65375   2.68416   2.70894
 Alpha virt. eigenvalues --    2.73132   2.75004   2.75811   2.77133   2.78149
 Alpha virt. eigenvalues --    2.83442   2.84283   2.86299   2.87973   2.89713
 Alpha virt. eigenvalues --    2.91491   2.92689   2.93480   2.95368   2.97014
 Alpha virt. eigenvalues --    2.99451   3.02273   3.03599   3.07848   3.09460
 Alpha virt. eigenvalues --    3.12628   3.14518   3.17583   3.23631   3.27403
 Alpha virt. eigenvalues --    3.27794   3.33981   3.44734   3.52307   3.58271
 Alpha virt. eigenvalues --    3.60805   3.67284   3.75698   3.82971   3.84469
 Alpha virt. eigenvalues --    3.87583   3.91469   3.95512   3.98497   4.01850
 Alpha virt. eigenvalues --    4.09141   4.17148   4.23174   4.26811
          Condensed to atoms (all electrons):
              1          2          3          4          5          6
     1  H    0.737252   0.301062  -0.043400  -0.075636  -0.036087   0.021449
     2  C    0.301062   4.615395   0.378443   0.366235   0.214760  -0.068809
     3  H   -0.043400   0.378443   0.720622  -0.075798  -0.086971   0.011237
     4  H   -0.075636   0.366235  -0.075798   1.062293   0.059374  -0.002750
     5  C   -0.036087   0.214760  -0.086971   0.059374   5.551408   0.188894
     6  O    0.021449  -0.068809   0.011237  -0.002750   0.188894   8.783049
     7  N    0.056836  -0.034822   0.045210  -0.193902   0.144576  -0.069469
     8  H   -0.002996  -0.079978  -0.004183   0.009054  -0.109549  -0.004746
     9  C    0.000132  -0.114709   0.005498  -0.003159  -0.509478  -0.088494
    10  H   -0.000951  -0.003426  -0.000352   0.002724   0.001340   0.006398
    11  C    0.000678  -0.023638   0.002030  -0.011126  -0.061793   0.037072
    12  H   -0.001889  -0.006884   0.001429   0.001007  -0.018511  -0.001541
    13  H    0.000334   0.002282   0.000297  -0.000849  -0.013497   0.006850
    14  H    0.000200   0.015300   0.000591   0.000212   0.025865  -0.002468
    15  C    0.003572  -0.003308  -0.002452  -0.011280  -0.040468   0.064716
    16  O    0.000438   0.001327   0.000054   0.000041   0.026574  -0.004384
    17  N   -0.000458  -0.003360   0.000322   0.001891   0.072357  -0.029819
    18  H    0.000932  -0.014035  -0.003888   0.003090  -0.043687   0.039168
    19  C   -0.000657   0.006388   0.000175   0.000317   0.011974   0.004668
    20  H    0.000051   0.000038  -0.000075  -0.000178  -0.009073   0.001225
    21  H   -0.000218   0.001395   0.000115   0.000115   0.005740  -0.000658
    22  H    0.000393   0.000612   0.000028   0.000003   0.011270   0.000190
              7          8          9         10         11         12
     1  H    0.056836  -0.002996   0.000132  -0.000951   0.000678  -0.001889
     2  C   -0.034822  -0.079978  -0.114709  -0.003426  -0.023638  -0.006884
     3  H    0.045210  -0.004183   0.005498  -0.000352   0.002030   0.001429
     4  H   -0.193902   0.009054  -0.003159   0.002724  -0.011126   0.001007
     5  C    0.144576  -0.109549  -0.509478   0.001340  -0.061793  -0.018511
     6  O   -0.069469  -0.004746  -0.088494   0.006398   0.037072  -0.001541
     7  N    7.732392   0.303785  -0.893054  -0.085089   0.131339  -0.060362
     8  H    0.303785   0.988452   0.085164  -0.041804  -0.006197  -0.009006
     9  C   -0.893054   0.085164   9.923392  -0.523801  -0.285010   0.053198
    10  H   -0.085089  -0.041804  -0.523801   1.547747   0.033775   0.065425
    11  C    0.131339  -0.006197  -0.285010   0.033775   4.286776   0.373835
    12  H   -0.060362  -0.009006   0.053198   0.065425   0.373835   0.985000
    13  H    0.115869  -0.000106  -0.264500  -0.045162   0.406006  -0.166116
    14  H   -0.054826   0.004110   0.021499  -0.038900   0.165925  -0.178623
    15  C    0.011520  -0.024545  -0.850392   0.228535   0.063233   0.018296
    16  O    0.020426  -0.005134   0.021963   0.022048  -0.002646  -0.000963
    17  N    0.051561   0.019666  -0.362485   0.039164   0.046439  -0.023913
    18  H   -0.008228   0.001562   0.075250  -0.003138  -0.006571   0.019607
    19  C   -0.006823   0.000113  -0.108183   0.017244   0.002185   0.001520
    20  H    0.001300  -0.000112   0.020101   0.005014  -0.009159   0.000775
    21  H   -0.000581  -0.000725  -0.030478  -0.000510   0.008841   0.000513
    22  H    0.002090   0.000928  -0.015107  -0.001512  -0.001769  -0.001521
             13         14         15         16         17         18
     1  H    0.000334   0.000200   0.003572   0.000438  -0.000458   0.000932
     2  C    0.002282   0.015300  -0.003308   0.001327  -0.003360  -0.014035
     3  H    0.000297   0.000591  -0.002452   0.000054   0.000322  -0.003888
     4  H   -0.000849   0.000212  -0.011280   0.000041   0.001891   0.003090
     5  C   -0.013497   0.025865  -0.040468   0.026574   0.072357  -0.043687
     6  O    0.006850  -0.002468   0.064716  -0.004384  -0.029819   0.039168
     7  N    0.115869  -0.054826   0.011520   0.020426   0.051561  -0.008228
     8  H   -0.000106   0.004110  -0.024545  -0.005134   0.019666   0.001562
     9  C   -0.264500   0.021499  -0.850392   0.021963  -0.362485   0.075250
    10  H   -0.045162  -0.038900   0.228535   0.022048   0.039164  -0.003138
    11  C    0.406006   0.165925   0.063233  -0.002646   0.046439  -0.006571
    12  H   -0.166116  -0.178623   0.018296  -0.000963  -0.023913   0.019607
    13  H    1.215133  -0.176514  -0.046190   0.000532   0.021168   0.000051
    14  H   -0.176514   1.204634   0.075464  -0.005563   0.016529  -0.007809
    15  C   -0.046190   0.075464   5.339034   0.170677   0.292834  -0.073568
    16  O    0.000532  -0.005563   0.170677   8.720442  -0.122768  -0.001195
    17  N    0.021168   0.016529   0.292834  -0.122768   7.174456   0.218999
    18  H    0.000051  -0.007809  -0.073568  -0.001195   0.218999   0.995244
    19  C   -0.008014   0.007599  -0.069864  -0.004825   0.201052  -0.164760
    20  H   -0.001239   0.000650   0.035503  -0.022498  -0.063677   0.000636
    21  H   -0.001355   0.000898  -0.037109   0.010816  -0.147513   0.009141
    22  H   -0.000501   0.000347  -0.009782   0.002376   0.111830  -0.015828
             19         20         21         22
     1  H   -0.000657   0.000051  -0.000218   0.000393
     2  C    0.006388   0.000038   0.001395   0.000612
     3  H    0.000175  -0.000075   0.000115   0.000028
     4  H    0.000317  -0.000178   0.000115   0.000003
     5  C    0.011974  -0.009073   0.005740   0.011270
     6  O    0.004668   0.001225  -0.000658   0.000190
     7  N   -0.006823   0.001300  -0.000581   0.002090
     8  H    0.000113  -0.000112  -0.000725   0.000928
     9  C   -0.108183   0.020101  -0.030478  -0.015107
    10  H    0.017244   0.005014  -0.000510  -0.001512
    11  C    0.002185  -0.009159   0.008841  -0.001769
    12  H    0.001520   0.000775   0.000513  -0.001521
    13  H   -0.008014  -0.001239  -0.001355  -0.000501
    14  H    0.007599   0.000650   0.000898   0.000347
    15  C   -0.069864   0.035503  -0.037109  -0.009782
    16  O   -0.004825  -0.022498   0.010816   0.002376
    17  N    0.201052  -0.063677  -0.147513   0.111830
    18  H   -0.164760   0.000636   0.009141  -0.015828
    19  C    4.187616   0.427347   0.469477   0.261572
    20  H    0.427347   1.029462  -0.182923  -0.105880
    21  H    0.469477  -0.182923   1.218673  -0.163389
    22  H    0.261572  -0.105880  -0.163389   0.997137
 Mulliken atomic charges:
              1
     1  H    0.038961
     2  C    0.449732
     3  H    0.051068
     4  H   -0.131679
     5  C    0.614981
     6  O   -0.891779
     7  N   -0.209749
     8  H   -0.123752
     9  C   -0.157349
    10  H   -0.224768
    11  C    0.849775
    12  H   -0.051277
    13  H   -0.044480
    14  H   -0.075119
    15  C    0.865575
    16  O   -0.827738
    17  N   -0.514273
    18  H   -0.020972
    19  C    0.763879
    20  H   -0.127289
    21  H   -0.160264
    22  H   -0.073486
 Sum of Mulliken atomic charges =   0.00000
 Mulliken charges with hydrogens summed into heavy atoms:
              1
     2  C    0.408083
     5  C    0.614981
     6  O   -0.891779
     7  N   -0.333501
     9  C   -0.382117
    11  C    0.678900
    15  C    0.865575
    16  O   -0.827738
    17  N   -0.535245
    19  C    0.402840
 Sum of Mulliken charges with hydrogens summed into heavy atoms =   0.00000
 Electronic spatial extent (au):  <R**2>=           1660.6183
 Charge=              0.0000 electrons
 Dipole moment (field-independent basis, Debye):
    X=             -3.7579    Y=              0.4179    Z=             -0.3174  Tot=              3.7944
 Quadrupole moment (field-independent basis, Debye-Ang):
   XX=            -60.2997   YY=            -58.5699   ZZ=            -64.7484
   XY=             -6.3738   XZ=             11.8887   YZ=              2.9611
 Traceless Quadrupole moment (field-independent basis, Debye-Ang):
   XX=              0.9063   YY=              2.6361   ZZ=             -3.5424
   XY=             -6.3738   XZ=             11.8887   YZ=              2.9611
 Octapole moment (field-independent basis, Debye-Ang**2):
  XXX=            -34.0342  YYY=              0.3836  ZZZ=             -0.7087  XYY=              2.5357
  XXY=            -14.8816  XXZ=              4.2485  XZZ=            -10.6081  YZZ=              1.0022
  YYZ=             -2.8739  XYZ=              1.7325
 Hexadecapole moment (field-independent basis, Debye-Ang**3):
 XXXX=          -1263.0486 YYYY=           -538.5844 ZZZZ=           -320.8882 XXXY=            -15.5092
 XXXZ=             37.3799 YYYX=             -3.3430 YYYZ=             -3.8308 ZZZX=             21.5631
 ZZZY=             -9.0021 XXYY=           -305.3033 XXZZ=           -290.2593 YYZZ=           -141.7736
 XXYZ=             12.8467 YYXZ=             15.2309 ZZXY=            -17.3281
 N-N= 5.639686435545D+02 E-N=-2.283201842764D+03  KE= 4.920742819755D+02
 1\1\GINC-NODE003\SP\RMP2-FC\Aug-CC-pVDZ\C6H12N2O2\STEBOSS\14-Feb-2017\
 0\\#SP MP2/aug-cc-pVDZ\\Single Point calculation at MP2\\0,1\H,0,-3.08
 36,-1.8837,-0.854\C,0,-3.1128,-0.8092,-0.6517\H,0,-3.9196,-0.6345,0.06
 76\H,0,-3.3458,-0.2757,-1.5783\C,0,-1.7956,-0.3957,-0.0148\O,0,-1.3626
 ,-0.9792,0.9822\N,0,-1.1514,0.6462,-0.6074\H,0,-1.5411,1.018,-1.461\C,
 0,0.0934,1.2706,-0.1209\H,0,0.2506,2.1327,-0.773\C,0,-0.0086,1.7653,1.
 3278\H,0,-0.1957,0.9486,2.0256\H,0,0.9257,2.2626,1.6085\H,0,-0.8251,2.
 4903,1.417\C,0,1.3312,0.3821,-0.4058\O,0,2.1376,0.7012,-1.2739\N,0,1.4
 653,-0.7038,0.4015\H,0,0.6361,-0.9888,0.9191\C,0,2.5341,-1.6658,0.1945
 \H,0,3.417,-1.1335,-0.1632\H,0,2.7656,-2.163,1.1409\H,0,2.2689,-2.4293
 ,-0.5498\\Version=EM64L-G09RevA.02\State=1-A\HF=-492.9242428\MP2=-494.
 5279864\RMSD=8.152e-09\PG=C01 [X(C6H12N2O2)]\\@


  DISAPPOINTMENT IS THE NURSE OF WISDOM.               
                              SIR BOYLE ROCHE                 
 Job cpu time:  0 days 14 hours 15 minutes 48.3 seconds.
 File lengths (MBytes):  RWF=  10635 Int=      0 D2E=      0 Chk=      7 Scr=      2
 Normal termination of Gaussian 09 at Tue Feb 14 04:24:06 2017.
