 Entering Gaussian System, Link 0=g09
 Initial command:
 /home/steboss/Software/g09/l1.exe /home/steboss/projects/phi_psi_scan/alanine/165/4292/Gau-9598.inp -scrdir=/home/steboss/projects/phi_psi_scan/alanine/165/4292/
 Entering Link 1 = /home/steboss/Software/g09/l1.exe PID=      9600.
  
 Copyright (c) 1988,1990,1992,1993,1995,1998,2003,2009, Gaussian, Inc.
                  All Rights Reserved.
  
 This is part of the Gaussian(R) 09 program.  It is based on
 the Gaussian(R) 03 system (copyright 2003, Gaussian, Inc.),
 the Gaussian(R) 98 system (copyright 1998, Gaussian, Inc.),
 the Gaussian(R) 94 system (copyright 1995, Gaussian, Inc.),
 the Gaussian 92(TM) system (copyright 1992, Gaussian, Inc.),
 the Gaussian 90(TM) system (copyright 1990, Gaussian, Inc.),
 the Gaussian 88(TM) system (copyright 1988, Gaussian, Inc.),
 the Gaussian 86(TM) system (copyright 1986, Carnegie Mellon
 University), and the Gaussian 82(TM) system (copyright 1983,
 Carnegie Mellon University). Gaussian is a federally registered
 trademark of Gaussian, Inc.
  
 This software contains proprietary and confidential information,
 including trade secrets, belonging to Gaussian, Inc.
  
 This software is provided under written license and may be
 used, copied, transmitted, or stored only in accord with that
 written license.
  
 The following legend is applicable only to US Government
 contracts under FAR:
  
                    RESTRICTED RIGHTS LEGEND
  
 Use, reproduction and disclosure by the US Government is
 subject to restrictions as set forth in subparagraphs (a)
 and (c) of the Commercial Computer Software - Restricted
 Rights clause in FAR 52.227-19.
  
 Gaussian, Inc.
 340 Quinnipiac St., Bldg. 40, Wallingford CT 06492
  
  
 ---------------------------------------------------------------
 Warning -- This program may not be used in any manner that
 competes with the business of Gaussian, Inc. or will provide
 assistance to any competitor of Gaussian, Inc.  The licensee
 of this program is prohibited from giving any competitor of
 Gaussian, Inc. access to this program.  By using this program,
 the user acknowledges that Gaussian, Inc. is engaged in the
 business of creating and licensing software in the field of
 computational chemistry and represents and warrants to the
 licensee that it is not a competitor of Gaussian, Inc. and that
 it will not use this program in any manner prohibited above.
 ---------------------------------------------------------------
  

 Cite this work as:
 Gaussian 09, Revision A.02,
 M. J. Frisch, G. W. Trucks, H. B. Schlegel, G. E. Scuseria, 
 M. A. Robb, J. R. Cheeseman, G. Scalmani, V. Barone, B. Mennucci, 
 G. A. Petersson, H. Nakatsuji, M. Caricato, X. Li, H. P. Hratchian, 
 A. F. Izmaylov, J. Bloino, G. Zheng, J. L. Sonnenberg, M. Hada, 
 M. Ehara, K. Toyota, R. Fukuda, J. Hasegawa, M. Ishida, T. Nakajima, 
 Y. Honda, O. Kitao, H. Nakai, T. Vreven, J. A. Montgomery, Jr., 
 J. E. Peralta, F. Ogliaro, M. Bearpark, J. J. Heyd, E. Brothers, 
 K. N. Kudin, V. N. Staroverov, R. Kobayashi, J. Normand, 
 K. Raghavachari, A. Rendell, J. C. Burant, S. S. Iyengar, J. Tomasi, 
 M. Cossi, N. Rega, J. M. Millam, M. Klene, J. E. Knox, J. B. Cross, 
 V. Bakken, C. Adamo, J. Jaramillo, R. Gomperts, R. E. Stratmann, 
 O. Yazyev, A. J. Austin, R. Cammi, C. Pomelli, J. W. Ochterski, 
 R. L. Martin, K. Morokuma, V. G. Zakrzewski, G. A. Voth, 
 P. Salvador, J. J. Dannenberg, S. Dapprich, A. D. Daniels, 
 O. Farkas, J. B. Foresman, J. V. Ortiz, J. Cioslowski, 
 and D. J. Fox, Gaussian, Inc., Wallingford CT, 2009.
 
 ******************************************
 Gaussian 09:  EM64L-G09RevA.02 11-Jun-2009
                10-Feb-2017 
 ******************************************
 %chk=structure_60.chk
 %NProcShared=8
 Will use up to    8 processors via shared memory.
 ----------------------------------------------------------------------
 # b3lyp/6-31G* Opt=(ModRedundant, maxcycles=1000, calcfc) geom=nocrowd
 ----------------------------------------------------------------------
 1/6=1000,10=4,14=-1,18=120,19=15,26=3,38=1/1,3;
 2/9=110,12=1,17=6,18=5,40=1/2;
 3/5=1,6=6,7=1,11=2,16=1,25=1,30=1,71=2,74=-5/1,2,3;
 4//1;
 5/5=2,38=5/2;
 8/6=4,10=90,11=11/1;
 11/6=1,8=1,9=11,15=111,16=1/1,2,10;
 10/6=1,7=6,13=1/2;
 6/7=2,8=2,9=2,10=2,28=1/1;
 7/10=1,18=20,25=1/1,2,3,16;
 1/6=1000,10=4,14=-1,18=20,19=15/3(2);
 2/9=110,12=1/2;
 99//99;
 2/9=110,12=1/2;
 3/5=1,6=6,7=1,11=2,16=1,25=1,30=1,71=1,74=-5/1,2,3;
 4/5=5,16=3/1;
 5/5=2,38=5/2;
 7//1,2,3,16;
 1/6=1000,14=-1,18=20,19=15/3(-5);
 2/9=110,12=1/2;
 6/7=2,8=2,9=2,10=2,19=2,28=1/1;
 99/9=1/99;
 ------------------
 Phi Psi fixed scan
 ------------------
 Symbolic Z-matrix:
 Charge =  0 Multiplicity = 1
 H                     1.9702    1.0601   -0.5095 
 C                     1.985     2.1203   -0.2568 
 H                     1.582     2.2609    0.7462 
 H                     1.3772    2.6735   -0.9728 
 C                     3.4103    2.6754   -0.2933 
 O                     4.3566    1.9459   -0.5812 
 N                     3.5554    3.9697    0. 
 H                     2.7466    4.529     0.2306 
 C                     4.8533    4.6139    0. 
 H                     5.4076    4.3155    0.8898 
 C                     5.6613    4.2208   -1.2322 
 H                     5.1233    4.5214   -2.1312 
 H                     6.6305    4.7189   -1.2058 
 H                     5.8085    3.1409   -1.2414 
 C                     4.7127    6.1294    0. 
 O                     5.1823    6.7994   -0.9171 
 N                     4.0632    6.6695    1.0338 
 H                     3.6947    6.0769    1.764 
 C                     3.8633    8.0999    1.1497 
 H                     4.3136    8.6009    0.2928 
 H                     2.7955    8.3171    1.1769 
 H                     4.3301    8.4594    2.0667 
 
 The following ModRedundant input section has been read:
 D    5    7    9   15 F                                                       
 D    7    9   15   17 F                                                       

 GradGradGradGradGradGradGradGradGradGradGradGradGradGradGradGradGradGrad
 Berny optimization.
 Initialization pass.
                           ----------------------------
                           !    Initial Parameters    !
                           ! (Angstroms and Degrees)  !
 --------------------------                            --------------------------
 ! Name  Definition              Value          Derivative Info.                !
 --------------------------------------------------------------------------------
 ! R1    R(1,2)                  1.09           calculate D2E/DX2 analytically  !
 ! R2    R(2,3)                  1.09           calculate D2E/DX2 analytically  !
 ! R3    R(2,4)                  1.09           calculate D2E/DX2 analytically  !
 ! R4    R(2,5)                  1.53           calculate D2E/DX2 analytically  !
 ! R5    R(5,6)                  1.229          calculate D2E/DX2 analytically  !
 ! R6    R(5,7)                  1.335          calculate D2E/DX2 analytically  !
 ! R7    R(7,8)                  1.01           calculate D2E/DX2 analytically  !
 ! R8    R(7,9)                  1.449          calculate D2E/DX2 analytically  !
 ! R9    R(9,10)                 1.09           calculate D2E/DX2 analytically  !
 ! R10   R(9,11)                 1.525          calculate D2E/DX2 analytically  !
 ! R11   R(9,15)                 1.522          calculate D2E/DX2 analytically  !
 ! R12   R(11,12)                1.09           calculate D2E/DX2 analytically  !
 ! R13   R(11,13)                1.09           calculate D2E/DX2 analytically  !
 ! R14   R(11,14)                1.0899         calculate D2E/DX2 analytically  !
 ! R15   R(15,16)                1.229          calculate D2E/DX2 analytically  !
 ! R16   R(15,17)                1.335          calculate D2E/DX2 analytically  !
 ! R17   R(17,18)                1.01           calculate D2E/DX2 analytically  !
 ! R18   R(17,19)                1.4489         calculate D2E/DX2 analytically  !
 ! R19   R(19,20)                1.09           calculate D2E/DX2 analytically  !
 ! R20   R(19,21)                1.09           calculate D2E/DX2 analytically  !
 ! R21   R(19,22)                1.09           calculate D2E/DX2 analytically  !
 ! A1    A(1,2,3)              109.4973         calculate D2E/DX2 analytically  !
 ! A2    A(1,2,4)              109.4988         calculate D2E/DX2 analytically  !
 ! A3    A(1,2,5)              111.1006         calculate D2E/DX2 analytically  !
 ! A4    A(3,2,4)              109.4393         calculate D2E/DX2 analytically  !
 ! A5    A(3,2,5)              108.6364         calculate D2E/DX2 analytically  !
 ! A6    A(4,2,5)              108.6416         calculate D2E/DX2 analytically  !
 ! A7    A(2,5,6)              120.4973         calculate D2E/DX2 analytically  !
 ! A8    A(2,5,7)              116.5992         calculate D2E/DX2 analytically  !
 ! A9    A(6,5,7)              122.9035         calculate D2E/DX2 analytically  !
 ! A10   A(5,7,8)              119.9988         calculate D2E/DX2 analytically  !
 ! A11   A(5,7,9)              121.8962         calculate D2E/DX2 analytically  !
 ! A12   A(8,7,9)              118.105          calculate D2E/DX2 analytically  !
 ! A13   A(7,9,10)             109.5            calculate D2E/DX2 analytically  !
 ! A14   A(7,9,11)             111.0992         calculate D2E/DX2 analytically  !
 ! A15   A(7,9,15)             111.0966         calculate D2E/DX2 analytically  !
 ! A16   A(10,9,11)            108.6382         calculate D2E/DX2 analytically  !
 ! A17   A(10,9,15)            108.6373         calculate D2E/DX2 analytically  !
 ! A18   A(11,9,15)            107.7947         calculate D2E/DX2 analytically  !
 ! A19   A(9,11,12)            109.5007         calculate D2E/DX2 analytically  !
 ! A20   A(9,11,13)            109.4959         calculate D2E/DX2 analytically  !
 ! A21   A(9,11,14)            109.4978         calculate D2E/DX2 analytically  !
 ! A22   A(12,11,13)           109.441          calculate D2E/DX2 analytically  !
 ! A23   A(12,11,14)           109.4482         calculate D2E/DX2 analytically  !
 ! A24   A(13,11,14)           109.4436         calculate D2E/DX2 analytically  !
 ! A25   A(9,15,16)            120.4988         calculate D2E/DX2 analytically  !
 ! A26   A(9,15,17)            116.6009         calculate D2E/DX2 analytically  !
 ! A27   A(16,15,17)           122.9003         calculate D2E/DX2 analytically  !
 ! A28   A(15,17,18)           119.9975         calculate D2E/DX2 analytically  !
 ! A29   A(15,17,19)           121.9004         calculate D2E/DX2 analytically  !
 ! A30   A(18,17,19)           118.1021         calculate D2E/DX2 analytically  !
 ! A31   A(17,19,20)           109.5044         calculate D2E/DX2 analytically  !
 ! A32   A(17,19,21)           109.5034         calculate D2E/DX2 analytically  !
 ! A33   A(17,19,22)           109.5005         calculate D2E/DX2 analytically  !
 ! A34   A(20,19,21)           109.4351         calculate D2E/DX2 analytically  !
 ! A35   A(20,19,22)           109.4433         calculate D2E/DX2 analytically  !
 ! A36   A(21,19,22)           109.4405         calculate D2E/DX2 analytically  !
 ! D1    D(1,2,5,6)              0.0063         calculate D2E/DX2 analytically  !
 ! D2    D(1,2,5,7)            179.9967         calculate D2E/DX2 analytically  !
 ! D3    D(3,2,5,6)            120.5158         calculate D2E/DX2 analytically  !
 ! D4    D(3,2,5,7)            -59.4937         calculate D2E/DX2 analytically  !
 ! D5    D(4,2,5,6)           -120.5085         calculate D2E/DX2 analytically  !
 ! D6    D(4,2,5,7)             59.482          calculate D2E/DX2 analytically  !
 ! D7    D(2,5,7,8)              0.006          calculate D2E/DX2 analytically  !
 ! D8    D(2,5,7,9)           -179.9978         calculate D2E/DX2 analytically  !
 ! D9    D(6,5,7,8)            179.9962         calculate D2E/DX2 analytically  !
 ! D10   D(6,5,7,9)             -0.0076         calculate D2E/DX2 analytically  !
 ! D11   D(5,7,9,10)           -74.9972         calculate D2E/DX2 analytically  !
 ! D12   D(5,7,9,11)            45.0054         calculate D2E/DX2 analytically  !
 ! D13   D(5,7,9,15)           165.003          frozen, calculate D2E/DX2 analyt!
 ! D14   D(8,7,9,10)           104.9991         calculate D2E/DX2 analytically  !
 ! D15   D(8,7,9,11)          -134.9983         calculate D2E/DX2 analytically  !
 ! D16   D(8,7,9,15)           -15.0007         calculate D2E/DX2 analytically  !
 ! D17   D(7,9,11,12)           60.0024         calculate D2E/DX2 analytically  !
 ! D18   D(7,9,11,13)          179.9986         calculate D2E/DX2 analytically  !
 ! D19   D(7,9,11,14)          -60.0038         calculate D2E/DX2 analytically  !
 ! D20   D(10,9,11,12)        -179.4843         calculate D2E/DX2 analytically  !
 ! D21   D(10,9,11,13)         -59.4881         calculate D2E/DX2 analytically  !
 ! D22   D(10,9,11,14)          60.5095         calculate D2E/DX2 analytically  !
 ! D23   D(15,9,11,12)         -61.938          calculate D2E/DX2 analytically  !
 ! D24   D(15,9,11,13)          58.0582         calculate D2E/DX2 analytically  !
 ! D25   D(15,9,11,14)         178.0558         calculate D2E/DX2 analytically  !
 ! D26   D(7,9,15,16)         -119.9999         calculate D2E/DX2 analytically  !
 ! D27   D(7,9,15,17)           60.0015         frozen, calculate D2E/DX2 analyt!
 ! D28   D(10,9,15,16)         119.489          calculate D2E/DX2 analytically  !
 ! D29   D(10,9,15,17)         -60.5096         calculate D2E/DX2 analytically  !
 ! D30   D(11,9,15,16)           1.9421         calculate D2E/DX2 analytically  !
 ! D31   D(11,9,15,17)        -178.0565         calculate D2E/DX2 analytically  !
 ! D32   D(9,15,17,18)          -0.0063         calculate D2E/DX2 analytically  !
 ! D33   D(9,15,17,19)         179.9999         calculate D2E/DX2 analytically  !
 ! D34   D(16,15,17,18)        179.9951         calculate D2E/DX2 analytically  !
 ! D35   D(16,15,17,19)          0.0012         calculate D2E/DX2 analytically  !
 ! D36   D(15,17,19,20)          0.0023         calculate D2E/DX2 analytically  !
 ! D37   D(15,17,19,21)        119.9982         calculate D2E/DX2 analytically  !
 ! D38   D(15,17,19,22)       -120.0018         calculate D2E/DX2 analytically  !
 ! D39   D(18,17,19,20)       -179.9916         calculate D2E/DX2 analytically  !
 ! D40   D(18,17,19,21)        -59.9958         calculate D2E/DX2 analytically  !
 ! D41   D(18,17,19,22)         60.0043         calculate D2E/DX2 analytically  !
 --------------------------------------------------------------------------------
 Trust Radius=3.00D-01 FncErr=1.00D-07 GrdErr=1.00D-06
 Number of steps in this run= 132 maximum allowed number of steps= 132.
 GradGradGradGradGradGradGradGradGradGradGradGradGradGradGradGradGradGrad

                          Input orientation:                          
 ---------------------------------------------------------------------
 Center     Atomic      Atomic             Coordinates (Angstroms)
 Number     Number       Type             X           Y           Z
 ---------------------------------------------------------------------
      1          1           0        1.970200    1.060100   -0.509500
      2          6           0        1.985000    2.120300   -0.256800
      3          1           0        1.582000    2.260900    0.746200
      4          1           0        1.377200    2.673500   -0.972800
      5          6           0        3.410300    2.675400   -0.293300
      6          8           0        4.356600    1.945900   -0.581200
      7          7           0        3.555400    3.969700    0.000000
      8          1           0        2.746600    4.529000    0.230600
      9          6           0        4.853300    4.613900    0.000000
     10          1           0        5.407600    4.315500    0.889800
     11          6           0        5.661300    4.220800   -1.232200
     12          1           0        5.123300    4.521400   -2.131200
     13          1           0        6.630500    4.718900   -1.205800
     14          1           0        5.808500    3.140900   -1.241400
     15          6           0        4.712700    6.129400    0.000000
     16          8           0        5.182300    6.799400   -0.917100
     17          7           0        4.063200    6.669500    1.033800
     18          1           0        3.694700    6.076900    1.764000
     19          6           0        3.863300    8.099900    1.149700
     20          1           0        4.313600    8.600900    0.292800
     21          1           0        2.795500    8.317100    1.176900
     22          1           0        4.330100    8.459400    2.066700
 ---------------------------------------------------------------------
                    Distance matrix (angstroms):
                    1          2          3          4          5
     1  H    0.000000
     2  C    1.090000   0.000000
     3  H    1.780282   1.090040   0.000000
     4  H    1.780268   1.090003   1.779647   0.000000
     5  C    2.174816   1.530016   2.143607   2.143646   0.000000
     6  O    2.546505   2.400029   3.091864   3.091857   1.229040
     7  N    3.352346   2.439751   2.714981   2.714964   1.335025
     8  H    3.630952   2.572825   2.601233   2.601213   2.037352
     9  C    4.604492   3.809348   4.098149   4.098141   2.434349
    10  H    4.936739   4.224664   4.344792   4.733874   2.842334
    11  C    4.912895   4.344961   4.939227   4.562339   2.887351
    12  H    4.955053   4.373509   5.092160   4.334731   3.117685
    13  H    5.965739   5.406847   5.944697   5.642261   3.921509
    14  H    4.426958   4.078016   4.752710   4.463970   2.620486
    15  C    5.786078   4.855839   5.032235   4.900525   3.703024
    16  O    6.589635   5.705497   6.027164   5.612926   4.531720
    17  N    6.182863   5.165248   5.067033   5.216230   4.259144
    18  H    5.771567   4.760398   4.478981   4.944089   3.985420
    19  C    7.476333   6.423540   6.281804   6.334944   5.631399
    20  H    7.937183   6.908156   6.918295   6.734854   6.022542
    21  H    7.495940   6.411921   6.191578   6.203467   5.862444
    22  H    8.182639   7.147191   6.907762   7.171807   6.314292
                    6          7          8          9         10
     6  O    0.000000
     7  N    2.252883   0.000000
     8  H    3.150163   1.010025   0.000000
     9  C    2.775379   1.448978   2.120983   0.000000
    10  H    2.980511   2.083739   2.749736   1.089970   0.000000
    11  C    2.702076   2.452791   3.275706   1.525027   2.139209
    12  H    3.102181   2.702720   3.350651   2.150225   3.041326
    13  H    3.640093   3.386959   4.145357   2.150214   2.459625
    14  H    1.992963   2.702673   3.669991   2.150165   2.466256
    15  C    4.238664   2.450234   2.545586   1.522008   2.136554
    16  O    4.934680   3.390439   3.522012   2.392848   3.079839
    17  N    5.000671   2.935221   2.638239   2.432795   2.714676
    18  H    4.796169   2.751616   2.376174   2.567960   2.607831
    19  C    6.411792   4.298275   3.852673   3.801856   4.095619
    20  H    6.712284   4.701980   4.363454   4.034003   4.462947
    21  H    6.791181   4.567541   3.904815   4.396968   4.787306
    22  H    7.031199   5.002881   4.618093   4.396915   4.440496
                   11         12         13         14         15
    11  C    0.000000
    12  H    1.089957   0.000000
    13  H    1.090023   1.779613   0.000000
    14  H    1.089925   1.779613   1.779617   0.000000
    15  C    2.461892   2.701161   2.668599   3.416575   0.000000
    16  O    2.641573   2.582015   2.551296   3.725845   1.229023
    17  N    3.699299   3.969304   3.925771   4.546826   1.335028
    18  H    4.036067   4.430921   4.391218   4.703262   2.037345
    19  C    4.894249   5.015732   4.963561   5.838908   2.434371
    20  H    4.829824   4.813908   4.762746   5.865159   2.520580
    21  H    5.549437   5.547028   5.773346   6.459055   3.137958
    22  H    5.533585   5.810282   5.476535   6.435498   3.137918
                   16         17         18         19         20
    16  O    0.000000
    17  N    2.252836   0.000000
    18  H    3.150120   1.010029   0.000000
    19  C    2.775378   1.448943   2.120924   0.000000
    20  H    2.337499   2.083768   2.986309   1.089976   0.000000
    21  H    3.519242   2.083777   2.484299   1.090006   1.779551
    22  H    3.519220   2.083713   2.484284   1.089969   1.779611
                   21         22
    21  H    0.000000
    22  H    1.779604   0.000000
 Stoichiometry    C6H12N2O2
 Framework group  C1[X(C6H12N2O2)]
 Deg. of freedom    60
 Full point group                 C1      NOp   1
 Largest Abelian subgroup         C1      NOp   1
 Largest concise Abelian subgroup C1      NOp   1
                         Standard orientation:                         
 ---------------------------------------------------------------------
 Center     Atomic      Atomic             Coordinates (Angstroms)
 Number     Number       Type             X           Y           Z
 ---------------------------------------------------------------------
      1          1           0       -4.068013   -1.313622    0.407873
      2          6           0       -2.999960   -1.522565    0.468751
      3          1           0       -2.764387   -2.394232   -0.141896
      4          1           0       -2.726549   -1.721029    1.505074
      5          6           0       -2.176855   -0.335463   -0.035465
      6          8           0       -2.733720    0.683174   -0.438977
      7          7           0       -0.849332   -0.474321   -0.009128
      8          1           0       -0.437902   -1.331444    0.331776
      9          6           0        0.039574    0.577592   -0.459530
     10          1           0        0.031760    0.619026   -1.548684
     11          6           0       -0.396440    1.934535    0.082970
     12          1           0       -0.384813    1.911551    1.172622
     13          1           0        0.288575    2.705001   -0.270987
     14          1           0       -1.404962    2.158260   -0.264546
     15          6           0        1.466257    0.326565    0.007449
     16          8           0        2.039068    1.140820    0.728124
     17          7           0        2.040005   -0.805839   -0.405803
     18          1           0        1.528235   -1.444433   -0.997789
     19          6           0        3.393897   -1.159692   -0.030036
     20          1           0        3.811399   -0.378241    0.604845
     21          1           0        3.385405   -2.103706    0.514831
     22          1           0        4.004920   -1.263799   -0.926609
 ---------------------------------------------------------------------
 Rotational constants (GHZ):      2.5177004      0.7299461      0.6038589
 Standard basis: 6-31G(d) (6D, 7F)
 There are   174 symmetry adapted basis functions of A   symmetry.
 Integral buffers will be    131072 words long.
 Raffenetti 2 integral format.
 Two-electron integral symmetry is turned on.
   174 basis functions,   328 primitive gaussians,   174 cartesian basis functions
    39 alpha electrons       39 beta electrons
       nuclear repulsion energy       556.4428994347 Hartrees.
 NAtoms=   22 NActive=   22 NUniq=   22 SFac= 7.50D-01 NAtFMM=   80 NAOKFM=F Big=F
 One-electron integrals computed using PRISM.
 NBasis=   174 RedAO= T  NBF=   174
 NBsUse=   174 1.00D-06 NBFU=   174
 Harris functional with IExCor=  402 diagonalized for initial guess.
 ExpMin= 1.61D-01 ExpMax= 5.48D+03 ExpMxC= 8.25D+02 IAcc=1 IRadAn=         1 AccDes= 0.00D+00
 HarFok:  IExCor=  402 AccDes= 0.00D+00 IRadAn=         1 IDoV= 1
 ScaDFX=  1.000000  1.000000  1.000000  1.000000
 FoFCou: FMM=F IPFlag=           0 FMFlag=      100000 FMFlg1=           0
         NFxFlg=           0 DoJE=T BraDBF=F KetDBF=T FulRan=T
         Omega=  0.000000  0.000000  1.000000  0.000000  0.000000 ICntrl=     500 IOpCl=  0
         NMat0=    1 NMatS0=    1 NMatT0=    0 NMatD0=    1 NMtDS0=    0 NMtDT0=    0
         I1Cent=           4 NGrid=           0.
 Petite list used in FoFCou.
 Initial guess orbital symmetries:
       Occupied  (A) (A) (A) (A) (A) (A) (A) (A) (A) (A) (A) (A)
                 (A) (A) (A) (A) (A) (A) (A) (A) (A) (A) (A) (A)
                 (A) (A) (A) (A) (A) (A) (A) (A) (A) (A) (A) (A)
                 (A) (A) (A)
       Virtual   (A) (A) (A) (A) (A) (A) (A) (A) (A) (A) (A) (A)
                 (A) (A) (A) (A) (A) (A) (A) (A) (A) (A) (A) (A)
                 (A) (A) (A) (A) (A) (A) (A) (A) (A) (A) (A) (A)
                 (A) (A) (A) (A) (A) (A) (A) (A) (A) (A) (A) (A)
                 (A) (A) (A) (A) (A) (A) (A) (A) (A) (A) (A) (A)
                 (A) (A) (A) (A) (A) (A) (A) (A) (A) (A) (A) (A)
                 (A) (A) (A) (A) (A) (A) (A) (A) (A) (A) (A) (A)
                 (A) (A) (A) (A) (A) (A) (A) (A) (A) (A) (A) (A)
                 (A) (A) (A) (A) (A) (A) (A) (A) (A) (A) (A) (A)
                 (A) (A) (A) (A) (A) (A) (A) (A) (A) (A) (A) (A)
                 (A) (A) (A) (A) (A) (A) (A) (A) (A) (A) (A) (A)
                 (A) (A) (A)
 The electronic state of the initial guess is 1-A.
 Requested convergence on RMS density matrix=1.00D-08 within 128 cycles.
 Requested convergence on MAX density matrix=1.00D-06.
 Requested convergence on             energy=1.00D-06.
 No special actions if energy rises.
 Integral accuracy reduced to 1.0D-05 until final iterations.
 Initial convergence to 1.0D-05 achieved.  Increase integral accuracy.
 SCF Done:  E(RB3LYP) =  -495.829255498     A.U. after   15 cycles
             Convg  =    0.8052D-08             -V/T =  2.0086
 Range of M.O.s used for correlation:     1   174
 NBasis=   174 NAE=    39 NBE=    39 NFC=     0 NFV=     0
 NROrb=    174 NOA=    39 NOB=    39 NVA=   135 NVB=   135
 Symmetrizing basis deriv contribution to polar:
 IMax=3 JMax=2 DiffMx= 0.00D+00
 G2DrvN: will do    23 centers at a time, making    1 passes doing MaxLOS=2.
 Calling FoFCou, ICntrl=  3107 FMM=F I1Cent=   0 AccDes= 0.00D+00.
 FoFDir/FoFCou used for L=0 through L=2.
 End of G2Drv Frequency-dependent properties file   721 does not exist.
 End of G2Drv Frequency-dependent properties file   722 does not exist.
          IDoAtm=1111111111111111111111
          Differentiating once with respect to nuclear coordinates.
          There are    69 degrees of freedom in the 1st order CPHF.  IDoFFX=5.
     63 vectors produced by pass  0 Test12= 7.63D-11 1.45D-07 XBig12= 1.64D-01 1.01D-01.
 AX will form    63 AO Fock derivatives at one time.
     63 vectors produced by pass  1 Test12= 7.63D-11 1.45D-07 XBig12= 4.43D-02 4.76D-02.
     63 vectors produced by pass  2 Test12= 7.63D-11 1.45D-07 XBig12= 4.52D-05 1.28D-03.
     63 vectors produced by pass  3 Test12= 7.63D-11 1.45D-07 XBig12= 1.27D-07 5.55D-05.
     31 vectors produced by pass  4 Test12= 7.63D-11 1.45D-07 XBig12= 1.14D-10 1.99D-06.
 Inverted reduced A of dimension   283 with in-core refinement.
 End of Minotr Frequency-dependent properties file   721 does not exist.
 End of Minotr Frequency-dependent properties file   722 does not exist.

 **********************************************************************

            Population analysis using the SCF density.

 **********************************************************************

 Orbital symmetries:
       Occupied  (A) (A) (A) (A) (A) (A) (A) (A) (A) (A) (A) (A)
                 (A) (A) (A) (A) (A) (A) (A) (A) (A) (A) (A) (A)
                 (A) (A) (A) (A) (A) (A) (A) (A) (A) (A) (A) (A)
                 (A) (A) (A)
       Virtual   (A) (A) (A) (A) (A) (A) (A) (A) (A) (A) (A) (A)
                 (A) (A) (A) (A) (A) (A) (A) (A) (A) (A) (A) (A)
                 (A) (A) (A) (A) (A) (A) (A) (A) (A) (A) (A) (A)
                 (A) (A) (A) (A) (A) (A) (A) (A) (A) (A) (A) (A)
                 (A) (A) (A) (A) (A) (A) (A) (A) (A) (A) (A) (A)
                 (A) (A) (A) (A) (A) (A) (A) (A) (A) (A) (A) (A)
                 (A) (A) (A) (A) (A) (A) (A) (A) (A) (A) (A) (A)
                 (A) (A) (A) (A) (A) (A) (A) (A) (A) (A) (A) (A)
                 (A) (A) (A) (A) (A) (A) (A) (A) (A) (A) (A) (A)
                 (A) (A) (A) (A) (A) (A) (A) (A) (A) (A) (A) (A)
                 (A) (A) (A) (A) (A) (A) (A) (A) (A) (A) (A) (A)
                 (A) (A) (A)
 The electronic state is 1-A.
 Alpha  occ. eigenvalues --  -19.11161 -19.10311 -14.37673 -14.36819 -10.28712
 Alpha  occ. eigenvalues --  -10.28512 -10.23098 -10.22645 -10.19182 -10.14830
 Alpha  occ. eigenvalues --   -1.03992  -1.02957  -0.94043  -0.92832  -0.78165
 Alpha  occ. eigenvalues --   -0.73063  -0.71639  -0.64097  -0.60241  -0.58313
 Alpha  occ. eigenvalues --   -0.54586  -0.49770  -0.48278  -0.46613  -0.46010
 Alpha  occ. eigenvalues --   -0.44790  -0.42030  -0.41070  -0.40103  -0.39527
 Alpha  occ. eigenvalues --   -0.38384  -0.37733  -0.36011  -0.35665  -0.33835
 Alpha  occ. eigenvalues --   -0.26510  -0.26094  -0.24648  -0.23505
 Alpha virt. eigenvalues --    0.01903   0.03227   0.05338   0.08819   0.11642
 Alpha virt. eigenvalues --    0.12360   0.13603   0.15220   0.15849   0.16206
 Alpha virt. eigenvalues --    0.16848   0.17392   0.17801   0.19451   0.21345
 Alpha virt. eigenvalues --    0.22734   0.24586   0.25978   0.29136   0.32002
 Alpha virt. eigenvalues --    0.35530   0.38901   0.41857   0.50702   0.50753
 Alpha virt. eigenvalues --    0.51596   0.53320   0.53885   0.55596   0.56750
 Alpha virt. eigenvalues --    0.57770   0.59429   0.62670   0.64879   0.65754
 Alpha virt. eigenvalues --    0.66794   0.69755   0.70848   0.72408   0.72749
 Alpha virt. eigenvalues --    0.75187   0.75618   0.78443   0.79665   0.84383
 Alpha virt. eigenvalues --    0.85191   0.86635   0.86766   0.87711   0.88953
 Alpha virt. eigenvalues --    0.89336   0.89851   0.90809   0.91874   0.94057
 Alpha virt. eigenvalues --    0.95159   0.95817   0.97073   0.99483   1.00809
 Alpha virt. eigenvalues --    1.03826   1.07350   1.09444   1.14212   1.17545
 Alpha virt. eigenvalues --    1.19944   1.25909   1.30348   1.31972   1.35394
 Alpha virt. eigenvalues --    1.38272   1.39594   1.42175   1.45371   1.47608
 Alpha virt. eigenvalues --    1.50334   1.56572   1.61077   1.64255   1.68965
 Alpha virt. eigenvalues --    1.73867   1.77698   1.80810   1.81760   1.83607
 Alpha virt. eigenvalues --    1.84428   1.87192   1.87911   1.88825   1.91328
 Alpha virt. eigenvalues --    1.93112   1.94328   1.96797   2.00457   2.03363
 Alpha virt. eigenvalues --    2.04798   2.06456   2.08226   2.13279   2.17522
 Alpha virt. eigenvalues --    2.18409   2.24438   2.26162   2.28555   2.29808
 Alpha virt. eigenvalues --    2.30925   2.32104   2.37284   2.38718   2.40490
 Alpha virt. eigenvalues --    2.43347   2.46076   2.54535   2.60542   2.64830
 Alpha virt. eigenvalues --    2.67470   2.67768   2.72610   2.77136   2.88522
 Alpha virt. eigenvalues --    2.92749   2.97205   3.03964   3.14622   3.21494
 Alpha virt. eigenvalues --    3.91937   3.96395   4.04358   4.12947   4.19078
 Alpha virt. eigenvalues --    4.23551   4.30867   4.41332   4.46439   4.64428
          Condensed to atoms (all electrons):
              1          2          3          4          5          6
     1  H    0.496951   0.360683  -0.021322  -0.020542  -0.017346   0.005146
     2  C    0.360683   5.337559   0.349380   0.351075   0.354201  -0.077449
     3  H   -0.021322   0.349380   0.559888  -0.027556  -0.026142   0.001360
     4  H   -0.020542   0.351075  -0.027556   0.551147  -0.027532   0.001166
     5  C   -0.017346   0.354201  -0.026142  -0.027532   4.345387   0.595244
     6  O    0.005146  -0.077449   0.001360   0.001166   0.595244   8.083516
     7  N    0.004661  -0.140012   0.004834   0.005216   0.222080  -0.105609
     8  H   -0.000143  -0.001064   0.001149   0.000834  -0.015210   0.003676
     9  C   -0.000140   0.006521  -0.000269   0.000086  -0.026242   0.008273
    10  H    0.000003  -0.000014   0.000000  -0.000001  -0.004337   0.002209
    11  C    0.000020  -0.000856   0.000025   0.000007  -0.005633  -0.032339
    12  H    0.000000  -0.000026  -0.000001   0.000009   0.001053  -0.000797
    13  H    0.000000   0.000012   0.000000  -0.000001   0.000673   0.001043
    14  H    0.000001   0.000774  -0.000019  -0.000028  -0.000597   0.022755
    15  C    0.000001  -0.000079  -0.000018   0.000000   0.004651   0.000661
    16  O    0.000000   0.000000   0.000000   0.000000  -0.000143  -0.000001
    17  N    0.000000  -0.000026   0.000001   0.000001   0.000165  -0.000005
    18  H    0.000000   0.000003   0.000000  -0.000003   0.000078   0.000003
    19  C    0.000000   0.000000   0.000000   0.000000   0.000010   0.000000
    20  H    0.000000   0.000000   0.000000   0.000000   0.000001   0.000000
    21  H    0.000000   0.000000   0.000000   0.000000  -0.000002   0.000000
    22  H    0.000000   0.000000   0.000000   0.000000   0.000000   0.000000
              7          8          9         10         11         12
     1  H    0.004661  -0.000143  -0.000140   0.000003   0.000020   0.000000
     2  C   -0.140012  -0.001064   0.006521  -0.000014  -0.000856  -0.000026
     3  H    0.004834   0.001149  -0.000269   0.000000   0.000025  -0.000001
     4  H    0.005216   0.000834   0.000086  -0.000001   0.000007   0.000009
     5  C    0.222080  -0.015210  -0.026242  -0.004337  -0.005633   0.001053
     6  O   -0.105609   0.003676   0.008273   0.002209  -0.032339  -0.000797
     7  N    7.230754   0.294725   0.217725  -0.056157  -0.051486  -0.000683
     8  H    0.294725   0.423262  -0.044398   0.003436   0.004855   0.000223
     9  C    0.217725  -0.044398   5.118802   0.367656   0.381252  -0.035319
    10  H   -0.056157   0.003436   0.367656   0.604039  -0.043066   0.006006
    11  C   -0.051486   0.004855   0.381252  -0.043066   5.140200   0.375576
    12  H   -0.000683   0.000223  -0.035319   0.006006   0.375576   0.556866
    13  H    0.004206  -0.000125  -0.029934  -0.001273   0.359078  -0.023736
    14  H   -0.006345  -0.000224  -0.024517  -0.003093   0.350726  -0.026492
    15  C   -0.019712  -0.003264   0.295419  -0.035268  -0.037604  -0.006726
    16  O    0.000352  -0.000212  -0.092651   0.001778  -0.001550   0.004412
    17  N   -0.003058   0.011938  -0.131582  -0.000272   0.005843   0.000145
    18  H    0.003172   0.001464   0.002306  -0.000091   0.000177  -0.000006
    19  C   -0.000005  -0.000467   0.006604  -0.000286  -0.000170  -0.000003
    20  H   -0.000024  -0.000015   0.001350  -0.000044  -0.000017  -0.000007
    21  H    0.000016  -0.000097  -0.000059  -0.000007   0.000004   0.000000
    22  H   -0.000003   0.000030  -0.000200   0.000018   0.000001   0.000000
             13         14         15         16         17         18
     1  H    0.000000   0.000001   0.000001   0.000000   0.000000   0.000000
     2  C    0.000012   0.000774  -0.000079   0.000000  -0.000026   0.000003
     3  H    0.000000  -0.000019  -0.000018   0.000000   0.000001   0.000000
     4  H   -0.000001  -0.000028   0.000000   0.000000   0.000001  -0.000003
     5  C    0.000673  -0.000597   0.004651  -0.000143   0.000165   0.000078
     6  O    0.001043   0.022755   0.000661  -0.000001  -0.000005   0.000003
     7  N    0.004206  -0.006345  -0.019712   0.000352  -0.003058   0.003172
     8  H   -0.000125  -0.000224  -0.003264  -0.000212   0.011938   0.001464
     9  C   -0.029934  -0.024517   0.295419  -0.092651  -0.131582   0.002306
    10  H   -0.001273  -0.003093  -0.035268   0.001778  -0.000272  -0.000091
    11  C    0.359078   0.350726  -0.037604  -0.001550   0.005843   0.000177
    12  H   -0.023736  -0.026492  -0.006726   0.004412   0.000145  -0.000006
    13  H    0.565580  -0.022743  -0.002543   0.002935   0.000124  -0.000014
    14  H   -0.022743   0.499680   0.004941   0.001001  -0.000052  -0.000019
    15  C   -0.002543   0.004941   4.398269   0.597680   0.271093  -0.025450
    16  O    0.002935   0.001001   0.597680   8.076475  -0.098365   0.003661
    17  N    0.000124  -0.000052   0.271093  -0.098365   7.096713   0.303282
    18  H   -0.000014  -0.000019  -0.025450   0.003661   0.303282   0.416452
    19  C    0.000001   0.000002  -0.023385  -0.008978   0.257551  -0.031269
    20  H   -0.000003   0.000000  -0.000763   0.022175  -0.037351   0.003942
    21  H    0.000000   0.000000   0.001521   0.000601  -0.043600  -0.000469
    22  H    0.000000   0.000000   0.001224   0.000563  -0.043282  -0.001194
             19         20         21         22
     1  H    0.000000   0.000000   0.000000   0.000000
     2  C    0.000000   0.000000   0.000000   0.000000
     3  H    0.000000   0.000000   0.000000   0.000000
     4  H    0.000000   0.000000   0.000000   0.000000
     5  C    0.000010   0.000001  -0.000002   0.000000
     6  O    0.000000   0.000000   0.000000   0.000000
     7  N   -0.000005  -0.000024   0.000016  -0.000003
     8  H   -0.000467  -0.000015  -0.000097   0.000030
     9  C    0.006604   0.001350  -0.000059  -0.000200
    10  H   -0.000286  -0.000044  -0.000007   0.000018
    11  C   -0.000170  -0.000017   0.000004   0.000001
    12  H   -0.000003  -0.000007   0.000000   0.000000
    13  H    0.000001  -0.000003   0.000000   0.000000
    14  H    0.000002   0.000000   0.000000   0.000000
    15  C   -0.023385  -0.000763   0.001521   0.001224
    16  O   -0.008978   0.022175   0.000601   0.000563
    17  N    0.257551  -0.037351  -0.043600  -0.043282
    18  H   -0.031269   0.003942  -0.000469  -0.001194
    19  C    4.973064   0.376665   0.381642   0.384049
    20  H    0.376665   0.466760  -0.023851  -0.023600
    21  H    0.381642  -0.023851   0.564967  -0.038065
    22  H    0.384049  -0.023600  -0.038065   0.557379
 Mulliken atomic charges:
              1
     1  H    0.192028
     2  C   -0.540683
     3  H    0.158691
     4  H    0.166120
     5  C    0.599638
     6  O   -0.508852
     7  N   -0.604647
     8  H    0.319627
     9  C   -0.020683
    10  H    0.158763
    11  C   -0.445042
    12  H    0.149505
    13  H    0.146720
    14  H    0.204251
    15  C    0.579353
    16  O   -0.509733
    17  N   -0.589263
    18  H    0.323976
    19  C   -0.315025
    20  H    0.214781
    21  H    0.157398
    22  H    0.163080
 Sum of Mulliken atomic charges =   0.00000
 Mulliken charges with hydrogens summed into heavy atoms:
              1
     2  C   -0.023844
     5  C    0.599638
     6  O   -0.508852
     7  N   -0.285021
     9  C    0.138080
    11  C    0.055434
    15  C    0.579353
    16  O   -0.509733
    17  N   -0.265288
    19  C    0.220233
 Sum of Mulliken charges with hydrogens summed into heavy atoms =   0.00000
 APT atomic charges:
              1
     1  H    0.745459
     2  C   -1.210021
     3  H    0.359917
     4  H    0.317940
     5  C   -0.141471
     6  O   -0.036684
     7  N   -0.609903
     8  H    0.460834
     9  C   -0.411353
    10  H    0.404713
    11  C   -1.169448
    12  H    0.327118
    13  H    0.478740
    14  H    0.456880
    15  C   -0.213901
    16  O   -0.022567
    17  N   -0.335155
    18  H    0.444368
    19  C   -1.424419
    20  H    0.497818
    21  H    0.465620
    22  H    0.615514
 Sum of APT charges=   0.00000
 APT Atomic charges with hydrogens summed into heavy atoms:
              1
     1  H    0.000000
     2  C    0.213295
     3  H    0.000000
     4  H    0.000000
     5  C   -0.141471
     6  O   -0.036684
     7  N   -0.149069
     8  H    0.000000
     9  C   -0.006639
    10  H    0.000000
    11  C    0.093290
    12  H    0.000000
    13  H    0.000000
    14  H    0.000000
    15  C   -0.213901
    16  O   -0.022567
    17  N    0.109213
    18  H    0.000000
    19  C    0.154533
    20  H    0.000000
    21  H    0.000000
    22  H    0.000000
 Sum of APT charges=   0.00000
 Electronic spatial extent (au):  <R**2>=           1899.9973
 Charge=              0.0000 electrons
 Dipole moment (field-independent basis, Debye):
    X=              1.7919    Y=             -5.5249    Z=             -0.9648  Tot=              5.8878
 Quadrupole moment (field-independent basis, Debye-Ang):
   XX=            -64.6445   YY=            -58.2971   ZZ=            -59.7346
   XY=             -1.0568   XZ=             -6.5586   YZ=             -0.9311
 Traceless Quadrupole moment (field-independent basis, Debye-Ang):
   XX=             -3.7525   YY=              2.5950   ZZ=              1.1575
   XY=             -1.0568   XZ=             -6.5586   YZ=             -0.9311
 Octapole moment (field-independent basis, Debye-Ang**2):
  XXX=             31.7163  YYY=             -8.1486  ZZZ=             -1.2494  XYY=              0.0868
  XXY=            -33.6373  XXZ=              2.8588  XZZ=              0.2127  YZZ=             -2.7320
  YYZ=             -4.2560  XYZ=             -3.6507
 Hexadecapole moment (field-independent basis, Debye-Ang**3):
 XXXX=          -1718.4799 YYYY=           -535.7115 ZZZZ=           -131.4391 XXXY=              5.6631
 XXXZ=            -28.6916 YYYX=            -14.2376 YYYZ=              1.7314 ZZZX=              0.9335
 ZZZY=              2.9231 XXYY=           -386.7474 XXZZ=           -318.0970 YYZZ=           -110.8406
 XXYZ=              0.5806 YYXZ=             -5.5008 ZZXY=             -4.9686
 N-N= 5.564428994347D+02 E-N=-2.269166286525D+03  KE= 4.915918084481D+02
  Exact polarizability:   0.000   0.000   0.000   0.000   0.000   0.000
 Approx polarizability: 117.863  -7.511 124.055   6.048   5.432  93.237
 Calling FoFJK, ICntrl=    100147 FMM=F ISym2X=0 I1Cent= 0 IOpClX= 0 NMat=1 NMatS=1 NMatT=0.
 ***** Axes restored to original set *****
 -------------------------------------------------------------------
 Center     Atomic                   Forces (Hartrees/Bohr)
 Number     Number              X              Y              Z
 -------------------------------------------------------------------
      1        1           0.003718229    0.000910691   -0.000213351
      2        6           0.005348439    0.009095229    0.000747366
      3        1          -0.006010418   -0.000157553    0.002621096
      4        1          -0.006523629    0.000734267   -0.000954827
      5        6          -0.003660814   -0.042573597   -0.008821331
      6        8          -0.006612005   -0.007811279    0.006939047
      7        7          -0.008204580    0.024612751    0.009686384
      8        1          -0.002065726   -0.001041863   -0.001516646
      9        6           0.013527897   -0.001959026   -0.012954731
     10        1           0.002800641   -0.002505731    0.007459356
     11        6           0.009871691   -0.005718140   -0.001475578
     12        1           0.001247396    0.001608345   -0.002309939
     13        1           0.000243501    0.003537375   -0.001812873
     14        1           0.001692241    0.005570044   -0.001513166
     15        6           0.012378713   -0.000593370   -0.025941510
     16        8          -0.002112423    0.003105764    0.005133519
     17        7          -0.012623568    0.008152964    0.016152506
     18        1           0.002033544   -0.000683590    0.001579732
     19        6          -0.002818529    0.000866870    0.004061032
     20        1           0.000635560   -0.003436670   -0.000502903
     21        1          -0.003520097    0.004174791    0.000709775
     22        1           0.000653938    0.004111728    0.002927042
 -------------------------------------------------------------------
 Cartesian Forces:  Max     0.042573597 RMS     0.008805816

 GradGradGradGradGradGradGradGradGradGradGradGradGradGradGradGradGradGrad
 Berny optimization.
 Internal  Forces:  Max     0.042112257 RMS     0.010046777
 Search for a local minimum.
 Step number   1 out of a maximum of  132
 All quantities printed in internal units (Hartrees-Bohrs-Radians)
 Mixed Optimization -- RFO/linear search
 Second derivative matrix not updated -- analytic derivatives used.
     Eigenvalues ---   -0.00066  -0.00030   0.00146   0.00303   0.00418
     Eigenvalues ---    0.01105   0.01783   0.02136   0.03610   0.04002
     Eigenvalues ---    0.04595   0.04868   0.05410   0.05469   0.05826
     Eigenvalues ---    0.05984   0.06397   0.06597   0.11925   0.12355
     Eigenvalues ---    0.12457   0.13203   0.13307   0.13404   0.13909
     Eigenvalues ---    0.14282   0.15147   0.17808   0.17988   0.18427
     Eigenvalues ---    0.18667   0.21250   0.22497   0.23616   0.24278
     Eigenvalues ---    0.25739   0.29531   0.30890   0.33718   0.34597
     Eigenvalues ---    0.34699   0.34817   0.35046   0.35184   0.35317
     Eigenvalues ---    0.35539   0.35903   0.35938   0.36671   0.39123
     Eigenvalues ---    0.40601   0.46617   0.46763   0.50181   0.54744
     Eigenvalues ---    0.81035   0.82477   0.860311000.000001000.00000
     Eigenvalues --- 1000.000001000.000001000.000001000.000001000.00000
     Eigenvalues --- 1000.000001000.000001000.000001000.000001000.00000
     Eigenvalues --- 1000.000001000.000001000.000001000.000001000.00000
     Eigenvalues --- 1000.000001000.000001000.000001000.000001000.00000
     Eigenvalues --- 1000.000001000.000001000.000001000.000001000.00000
     Eigenvalues --- 1000.000001000.000001000.000001000.000001000.00000
     Eigenvalues --- 1000.000001000.000001000.000001000.000001000.00000
     Eigenvalues --- 1000.000001000.000001000.00000
 RFO step:  Lambda=-1.74579413D-02 EMin=-6.60207955D-04
 Linear search not attempted -- first point.
 Maximum step size (   0.300) exceeded in Quadratic search.
    -- Step size scaled by   0.318
 Iteration  1 RMS(Cart)=  0.06312338 RMS(Int)=  0.00274890
 Iteration  2 RMS(Cart)=  0.00302561 RMS(Int)=  0.00004243
 Iteration  3 RMS(Cart)=  0.00000812 RMS(Int)=  0.00004203
 Iteration  4 RMS(Cart)=  0.00000000 RMS(Int)=  0.00004203
 Iteration  1 RMS(Cart)=  0.00001987 RMS(Int)=  0.00000573
 Iteration  2 RMS(Cart)=  0.00001038 RMS(Int)=  0.00000640
 Iteration  3 RMS(Cart)=  0.00000542 RMS(Int)=  0.00000720
 Iteration  4 RMS(Cart)=  0.00000283 RMS(Int)=  0.00000771
 Iteration  5 RMS(Cart)=  0.00000149 RMS(Int)=  0.00000800
 Iteration  6 RMS(Cart)=  0.00000078 RMS(Int)=  0.00000815
 Variable       Old X    -DE/DX   Delta X   Delta X   Delta X     New X
                                 (Linear)    (Quad)   (Total)
    R1        2.05980  -0.00089   0.00000   0.00007   0.00007   2.05987
    R2        2.05988   0.00461   0.00000   0.00362   0.00362   2.06350
    R3        2.05981   0.00464   0.00000   0.00369   0.00369   2.06350
    R4        2.89131  -0.00055   0.00000  -0.00252  -0.00252   2.88879
    R5        2.32255  -0.00208   0.00000  -0.00256  -0.00256   2.31999
    R6        2.52283   0.04001   0.00000   0.01848   0.01848   2.54131
    R7        1.90867   0.00073   0.00000   0.00034   0.00034   1.90901
    R8        2.73817   0.02873   0.00000   0.01286   0.01286   2.75103
    R9        2.05975   0.00820   0.00000   0.00633   0.00633   2.06608
   R10        2.88188   0.01137   0.00000   0.00248   0.00248   2.88437
   R11        2.87618   0.01613   0.00000   0.01161   0.01161   2.88779
   R12        2.05972   0.00173   0.00000   0.00186   0.00186   2.06158
   R13        2.05984   0.00179   0.00000   0.00202   0.00202   2.06187
   R14        2.05966  -0.00528   0.00000  -0.00035  -0.00035   2.05931
   R15        2.32252  -0.00295   0.00000  -0.00433  -0.00433   2.31819
   R16        2.52284   0.03225   0.00000   0.01896   0.01896   2.54180
   R17        1.90868   0.00080   0.00000   0.00049   0.00049   1.90917
   R18        2.73811   0.00692   0.00000   0.00283   0.00283   2.74094
   R19        2.05976  -0.00092   0.00000   0.00027   0.00027   2.06002
   R20        2.05981   0.00430   0.00000   0.00304   0.00304   2.06285
   R21        2.05974   0.00410   0.00000   0.00400   0.00400   2.06374
    A1        1.91109  -0.00020   0.00000   0.00063   0.00068   1.91176
    A2        1.91111  -0.00020   0.00000  -0.00370  -0.00371   1.90740
    A3        1.93907  -0.00788   0.00000  -0.01312  -0.01310   1.92597
    A4        1.91008  -0.00515   0.00000  -0.00819  -0.00827   1.90181
    A5        1.89606   0.00668   0.00000   0.01956   0.01954   1.91561
    A6        1.89615   0.00680   0.00000   0.00495   0.00491   1.90106
    A7        2.10307  -0.00158   0.00000   0.01097   0.01097   2.11404
    A8        2.03504  -0.01869   0.00000  -0.01136  -0.01137   2.02367
    A9        2.14507   0.02027   0.00000   0.00040   0.00039   2.14547
   A10        2.09437  -0.02319   0.00000  -0.00780  -0.00795   2.08642
   A11        2.12749   0.04211   0.00000   0.01337   0.01322   2.14071
   A12        2.06132  -0.01893   0.00000  -0.00556  -0.00571   2.05561
   A13        1.91114  -0.00267   0.00000  -0.00195  -0.00204   1.90909
   A14        1.93905   0.02214   0.00000   0.01024   0.01032   1.94937
   A15        1.93900  -0.01799   0.00000  -0.01921  -0.01928   1.91972
   A16        1.89609  -0.00431   0.00000   0.00019   0.00018   1.89627
   A17        1.89608   0.00186   0.00000  -0.00045  -0.00056   1.89552
   A18        1.88137   0.00088   0.00000   0.01149   0.01157   1.89295
   A19        1.91115   0.00151   0.00000   0.00365   0.00365   1.91479
   A20        1.91106  -0.00138   0.00000  -0.00093  -0.00093   1.91014
   A21        1.91110   0.00430   0.00000   0.00090   0.00089   1.91199
   A22        1.91011  -0.00237   0.00000  -0.00753  -0.00753   1.90257
   A23        1.91023  -0.00132   0.00000   0.00059   0.00058   1.91082
   A24        1.91015  -0.00074   0.00000   0.00332   0.00332   1.91347
   A25        2.10310   0.01154   0.00000   0.01185   0.01185   2.11495
   A26        2.03507  -0.01019   0.00000  -0.01348  -0.01348   2.02159
   A27        2.14501  -0.00135   0.00000   0.00163   0.00163   2.14664
   A28        2.09435  -0.00340   0.00000  -0.00698  -0.00706   2.08729
   A29        2.12756   0.00583   0.00000   0.00482   0.00474   2.13230
   A30        2.06127  -0.00243   0.00000   0.00216   0.00208   2.06335
   A31        1.91121  -0.00695   0.00000  -0.01133  -0.01131   1.89990
   A32        1.91119   0.00542   0.00000   0.00586   0.00584   1.91704
   A33        1.91114   0.00463   0.00000   0.01083   0.01082   1.92197
   A34        1.91000   0.00001   0.00000   0.00130   0.00131   1.91131
   A35        1.91015   0.00015   0.00000  -0.00321  -0.00319   1.90696
   A36        1.91010  -0.00327   0.00000  -0.00346  -0.00351   1.90659
    D1        0.00011  -0.00132   0.00000   0.09275   0.09278   0.09289
    D2        3.14154   0.00134   0.00000   0.08905   0.08907  -3.05258
    D3        2.10340  -0.00213   0.00000   0.09805   0.09800   2.20140
    D4       -1.03836   0.00053   0.00000   0.09435   0.09429  -0.94407
    D5       -2.10327  -0.00059   0.00000   0.10225   0.10228  -2.00098
    D6        1.03816   0.00207   0.00000   0.09855   0.09857   1.13673
    D7        0.00010   0.00423   0.00000   0.01058   0.01060   0.01071
    D8       -3.14155   0.00149   0.00000   0.04334   0.04331  -3.09825
    D9        3.14153   0.00696   0.00000   0.00679   0.00682  -3.13484
   D10       -0.00013   0.00422   0.00000   0.03955   0.03952   0.03939
   D11       -1.30895   0.00143   0.00000  -0.01396  -0.01392  -1.32287
   D12        0.78549   0.00832   0.00000  -0.00852  -0.00848   0.77701
   D13        2.87985   0.01221   0.00000   0.00000   0.00000   2.87984
   D14        1.83258  -0.00127   0.00000   0.01821   0.01824   1.85082
   D15       -2.35616   0.00562   0.00000   0.02364   0.02368  -2.33249
   D16       -0.26181   0.00951   0.00000   0.03216   0.03215  -0.22966
   D17        1.04724  -0.00422   0.00000   0.00217   0.00220   1.04944
   D18        3.14157  -0.00705   0.00000  -0.00540  -0.00537   3.13620
   D19       -1.04726  -0.00618   0.00000  -0.00135  -0.00132  -1.04858
   D20       -3.13259   0.00339   0.00000   0.00621   0.00622  -3.12638
   D21       -1.03826   0.00056   0.00000  -0.00135  -0.00135  -1.03961
   D22        1.05609   0.00144   0.00000   0.00270   0.00270   1.05879
   D23       -1.08102   0.00376   0.00000   0.01208   0.01205  -1.06897
   D24        1.01331   0.00093   0.00000   0.00451   0.00448   1.01779
   D25        3.10766   0.00181   0.00000   0.00856   0.00853   3.11619
   D26       -2.09439  -0.00985   0.00000   0.00146   0.00148  -2.09291
   D27        1.04722  -0.00949   0.00000   0.00000   0.00000   1.04722
   D28        2.08548   0.00338   0.00000   0.01605   0.01604   2.10152
   D29       -1.05609   0.00374   0.00000   0.01459   0.01456  -1.04153
   D30        0.03390   0.00700   0.00000   0.00977   0.00974   0.04363
   D31       -3.10767   0.00736   0.00000   0.00831   0.00826  -3.09941
   D32       -0.00011   0.00129   0.00000   0.02507   0.02504   0.02493
   D33        3.14159   0.00045   0.00000   0.00031   0.00035  -3.14124
   D34        3.14151   0.00166   0.00000   0.02357   0.02353  -3.11815
   D35        0.00002   0.00081   0.00000  -0.00119  -0.00116  -0.00113
   D36        0.00004   0.00034   0.00000   0.07215   0.07217   0.07221
   D37        2.09436  -0.00059   0.00000   0.07039   0.07038   2.16475
   D38       -2.09443   0.00157   0.00000   0.07639   0.07645  -2.01798
   D39       -3.14145  -0.00050   0.00000   0.04784   0.04781  -3.09364
   D40       -1.04712  -0.00142   0.00000   0.04607   0.04602  -1.00110
   D41        1.04727   0.00074   0.00000   0.05208   0.05209   1.09936
         Item               Value     Threshold  Converged?
 Maximum Force            0.042112     0.000450     NO 
 RMS     Force            0.009890     0.000300     NO 
 Maximum Displacement     0.273562     0.001800     NO 
 RMS     Displacement     0.063393     0.001200     NO 
 Predicted change in Energy=-4.875001D-03
 GradGradGradGradGradGradGradGradGradGradGradGradGradGradGradGradGradGrad

                          Input orientation:                          
 ---------------------------------------------------------------------
 Center     Atomic      Atomic             Coordinates (Angstroms)
 Number     Number       Type             X           Y           Z
 ---------------------------------------------------------------------
      1          1           0        1.941181    1.080281   -0.412006
      2          6           0        1.966687    2.159492   -0.260889
      3          1           0        1.497869    2.405663    0.694088
      4          1           0        1.413235    2.649397   -1.064665
      5          6           0        3.409637    2.664076   -0.273426
      6          8           0        4.343284    1.910297   -0.532901
      7          7           0        3.579623    3.967687    0.009766
      8          1           0        2.774927    4.540392    0.221869
      9          6           0        4.884466    4.612801   -0.013053
     10          1           0        5.445936    4.327582    0.880677
     11          6           0        5.690975    4.210951   -1.245034
     12          1           0        5.152700    4.502027   -2.148188
     13          1           0        6.656936    4.718013   -1.228035
     14          1           0        5.843764    3.131975   -1.244834
     15          6           0        4.716321    6.131664   -0.019130
     16          8           0        5.153258    6.815314   -0.939227
     17          7           0        4.065680    6.653455    1.036138
     18          1           0        3.745081    6.044283    1.775604
     19          6           0        3.829103    8.078181    1.170185
     20          1           0        4.189460    8.581144    0.272673
     21          1           0        2.760531    8.266650    1.289568
     22          1           0        4.362545    8.467374    2.040020
 ---------------------------------------------------------------------
                    Distance matrix (angstroms):
                    1          2          3          4          5
     1  H    0.000000
     2  C    1.090038   0.000000
     3  H    1.782304   1.091957   0.000000
     4  H    1.779555   1.091957   1.777577   0.000000
     5  C    2.164249   1.528682   2.158174   2.147532   0.000000
     6  O    2.544335   2.405058   3.138036   3.068261   1.227684
     7  N    3.346565   2.438112   2.691080   2.754184   1.344802
     8  H    3.615149   2.560272   2.531983   2.661811   2.041748
     9  C    4.615278   3.820156   4.103724   4.124353   2.457732
    10  H    4.949677   4.255463   4.394976   4.781562   2.871536
    11  C    4.955400   4.364327   4.959979   4.557416   2.922558
    12  H    5.003651   4.381786   5.082426   4.311596   3.151359
    13  H    6.011435   5.429535   5.971389   5.639350   3.959152
    14  H    4.487004   4.116503   4.813912   4.460373   2.662243
    15  C    5.776870   4.837054   4.974957   4.912200   3.714331
    16  O    6.594392   5.682523   5.956057   5.599855   4.551514
    17  N    6.137662   5.126769   4.975378   5.242263   4.249764
    18  H    5.716731   4.733032   4.411258   5.002987   3.966969
    19  C    7.418773   6.367688   6.151324   6.348438   5.618941
    20  H    7.860439   6.816380   6.749728   6.684424   5.993166
    21  H    7.430383   6.350708   6.024955   6.237881   5.852616
    22  H    8.151354   7.129074   6.838292   7.224012   6.319678
                    6          7          8          9         10
     6  O    0.000000
     7  N    2.260646   0.000000
     8  H    3.153858   1.010205   0.000000
     9  C    2.804755   1.455785   2.123814   0.000000
    10  H    3.009536   2.090726   2.759276   1.093322   0.000000
    11  C    2.759785   2.468098   3.280803   1.526341   2.142964
    12  H    3.159331   2.723391   3.357446   2.154767   3.048023
    13  H    3.703980   3.400735   4.147742   2.151488   2.462849
    14  H    2.061743   2.720068   3.681387   2.151832   2.470939
    15  C    4.268847   2.444528   2.521753   1.528154   2.143993
    16  O    4.988021   3.389085   3.489967   2.404394   3.096212
    17  N    5.003648   2.915997   2.606552   2.436284   2.709051
    18  H    4.772513   2.730899   2.370017   2.558639   2.576987
    19  C    6.419321   4.278431   3.811370   3.810866   4.094504
    20  H    6.721072   4.661010   4.281491   4.038864   4.476740
    21  H    6.799244   4.559593   3.876234   4.422503   4.784856
    22  H    7.043830   4.998207   4.609489   4.398322   4.433474
                   11         12         13         14         15
    11  C    0.000000
    12  H    1.090941   0.000000
    13  H    1.091092   1.776530   0.000000
    14  H    1.089740   1.780634   1.782428   0.000000
    15  C    2.478292   2.716438   2.688093   3.430978   0.000000
    16  O    2.676820   2.610151   2.596754   3.759944   1.226732
    17  N    3.716336   3.993768   3.948040   4.556888   1.345061
    18  H    4.033840   4.444782   4.388591   4.691380   2.042550
    19  C    4.924969   5.054937   5.003881   5.861410   2.447561
    20  H    4.863802   4.840207   4.823313   5.893471   2.522436
    21  H    5.608957   5.631432   5.840644   6.503415   3.177416
    22  H    5.538361   5.821461   5.477419   6.438226   3.133815
                   16         17         18         19         20
    16  O    0.000000
    17  N    2.260772   0.000000
    18  H    3.154007   1.010289   0.000000
    19  C    2.792461   1.450442   2.123755   0.000000
    20  H    2.348567   2.077062   2.981936   1.090117   0.000000
    21  H    3.577575   2.090464   2.478807   1.091613   1.781802
    22  H    3.497205   2.094328   2.514468   1.092083   1.779443
                   21         22
    21  H    0.000000
    22  H    1.780426   0.000000
 Stoichiometry    C6H12N2O2
 Framework group  C1[X(C6H12N2O2)]
 Deg. of freedom    60
 Full point group                 C1      NOp   1
 Largest Abelian subgroup         C1      NOp   1
 Largest concise Abelian subgroup C1      NOp   1
                         Standard orientation:                         
 ---------------------------------------------------------------------
 Center     Atomic      Atomic             Coordinates (Angstroms)
 Number     Number       Type             X           Y           Z
 ---------------------------------------------------------------------
      1          1           0       -4.029861   -1.397078    0.358739
      2          6           0       -2.959166   -1.544724    0.500140
      3          1           0       -2.644877   -2.454771   -0.015037
      4          1           0       -2.747192   -1.649202    1.566218
      5          6           0       -2.180841   -0.347288   -0.045042
      6          8           0       -2.761932    0.648283   -0.467392
      7          7           0       -0.840755   -0.458034   -0.025053
      8          1           0       -0.416046   -1.303628    0.328650
      9          6           0        0.042608    0.614525   -0.459330
     10          1           0        0.045488    0.662397   -1.551600
     11          6           0       -0.402628    1.968263    0.087364
     12          1           0       -0.396840    1.944545    1.178032
     13          1           0        0.285838    2.742426   -0.254936
     14          1           0       -1.409131    2.191056   -0.265976
     15          6           0        1.468003    0.344006    0.020590
     16          8           0        2.047866    1.129493    0.763315
     17          7           0        2.028403   -0.796362   -0.420658
     18          1           0        1.511176   -1.396402   -1.047646
     19          6           0        3.374700   -1.188974   -0.050355
     20          1           0        3.769202   -0.465086    0.662883
     21          1           0        3.358997   -2.180040    0.406985
     22          1           0        4.016181   -1.210502   -0.933918
 ---------------------------------------------------------------------
 Rotational constants (GHZ):      2.4525373      0.7312095      0.6038335
 Standard basis: 6-31G(d) (6D, 7F)
 There are   174 symmetry adapted basis functions of A   symmetry.
 Integral buffers will be    131072 words long.
 Raffenetti 2 integral format.
 Two-electron integral symmetry is turned on.
   174 basis functions,   328 primitive gaussians,   174 cartesian basis functions
    39 alpha electrons       39 beta electrons
       nuclear repulsion energy       554.7854236733 Hartrees.
 NAtoms=   22 NActive=   22 NUniq=   22 SFac= 7.50D-01 NAtFMM=   80 NAOKFM=F Big=F
 One-electron integrals computed using PRISM.
 NBasis=   174 RedAO= T  NBF=   174
 NBsUse=   174 1.00D-06 NBFU=   174
 Initial guess read from the read-write file.
 B after Tr=     0.000000    0.000000    0.000000
         Rot=    1.000000    0.000000    0.000000    0.000000 Ang=   0.00 deg.
 Initial guess orbital symmetries:
       Occupied  (A) (A) (A) (A) (A) (A) (A) (A) (A) (A) (A) (A)
                 (A) (A) (A) (A) (A) (A) (A) (A) (A) (A) (A) (A)
                 (A) (A) (A) (A) (A) (A) (A) (A) (A) (A) (A) (A)
                 (A) (A) (A)
       Virtual   (A) (A) (A) (A) (A) (A) (A) (A) (A) (A) (A) (A)
                 (A) (A) (A) (A) (A) (A) (A) (A) (A) (A) (A) (A)
                 (A) (A) (A) (A) (A) (A) (A) (A) (A) (A) (A) (A)
                 (A) (A) (A) (A) (A) (A) (A) (A) (A) (A) (A) (A)
                 (A) (A) (A) (A) (A) (A) (A) (A) (A) (A) (A) (A)
                 (A) (A) (A) (A) (A) (A) (A) (A) (A) (A) (A) (A)
                 (A) (A) (A) (A) (A) (A) (A) (A) (A) (A) (A) (A)
                 (A) (A) (A) (A) (A) (A) (A) (A) (A) (A) (A) (A)
                 (A) (A) (A) (A) (A) (A) (A) (A) (A) (A) (A) (A)
                 (A) (A) (A) (A) (A) (A) (A) (A) (A) (A) (A) (A)
                 (A) (A) (A) (A) (A) (A) (A) (A) (A) (A) (A) (A)
                 (A) (A) (A)
 Harris functional with IExCor=  402 diagonalized for initial guess.
 ExpMin= 1.61D-01 ExpMax= 5.48D+03 ExpMxC= 8.25D+02 IAcc=1 IRadAn=         1 AccDes= 0.00D+00
 HarFok:  IExCor=  402 AccDes= 0.00D+00 IRadAn=         1 IDoV= 1
 ScaDFX=  1.000000  1.000000  1.000000  1.000000
 FoFCou: FMM=F IPFlag=           0 FMFlag=      100000 FMFlg1=           0
         NFxFlg=           0 DoJE=T BraDBF=F KetDBF=T FulRan=T
         Omega=  0.000000  0.000000  1.000000  0.000000  0.000000 ICntrl=     500 IOpCl=  0
         NMat0=    1 NMatS0=    1 NMatT0=    0 NMatD0=    1 NMtDS0=    0 NMtDT0=    0
         I1Cent=           4 NGrid=           0.
 Petite list used in FoFCou.
 Requested convergence on RMS density matrix=1.00D-08 within 128 cycles.
 Requested convergence on MAX density matrix=1.00D-06.
 Requested convergence on             energy=1.00D-06.
 No special actions if energy rises.
 Integral accuracy reduced to 1.0D-05 until final iterations.
 Initial convergence to 1.0D-05 achieved.  Increase integral accuracy.
 SCF Done:  E(RB3LYP) =  -495.834153129     A.U. after   12 cycles
             Convg  =    0.8310D-08             -V/T =  2.0089
 Calling FoFJK, ICntrl=      2127 FMM=F ISym2X=0 I1Cent= 0 IOpClX= 0 NMat=1 NMatS=1 NMatT=0.
 ***** Axes restored to original set *****
 -------------------------------------------------------------------
 Center     Atomic                   Forces (Hartrees/Bohr)
 Number     Number              X              Y              Z
 -------------------------------------------------------------------
      1        1           0.002613228    0.000514208    0.000004855
      2        6           0.004111285    0.006602579    0.000505658
      3        1          -0.004365474    0.000145074    0.001465569
      4        1          -0.004570882    0.000397733   -0.001019006
      5        6          -0.002681910   -0.030381536   -0.004385143
      6        8          -0.005106111   -0.005487742    0.005038192
      7        7          -0.005350126    0.017665551    0.006699619
      8        1          -0.001666596   -0.000773401   -0.001850185
      9        6           0.009840164   -0.001815525   -0.010718841
     10        1           0.001757249   -0.001696613    0.005358306
     11        6           0.006947796   -0.003995655   -0.000931102
     12        1           0.000947631    0.001201805   -0.001655084
     13        1           0.000093488    0.002559827   -0.001359009
     14        1           0.001194834    0.003962900   -0.001146137
     15        6           0.008903702    0.000026224   -0.017267171
     16        8          -0.001575333    0.002237864    0.003652105
     17        7          -0.009825557    0.005388092    0.011047618
     18        1           0.001926952   -0.000417259    0.001259707
     19        6          -0.001800320    0.000361811    0.003124741
     20        1           0.000487987   -0.002365095   -0.000387498
     21        1          -0.002464823    0.002887057    0.000652570
     22        1           0.000582816    0.002982099    0.001910236
 -------------------------------------------------------------------
 Cartesian Forces:  Max     0.030381536 RMS     0.006251667

 GradGradGradGradGradGradGradGradGradGradGradGradGradGradGradGradGradGrad
 Berny optimization.
 Using GEDIIS/GDIIS optimizer.
 Internal  Forces:  Max     0.030173122 RMS     0.007187714
 Search for a local minimum.
 Step number   2 out of a maximum of  132
 All quantities printed in internal units (Hartrees-Bohrs-Radians)
 Mixed Optimization -- RFO/linear search
 Update second derivatives using D2CorX and points    1    2
 DE= -4.90D-03 DEPred=-4.88D-03 R= 1.00D+00
 SS=  1.41D+00  RLast= 3.00D-01 DXNew= 5.0454D-01 9.0000D-01
 Trust test= 1.00D+00 RLast= 3.00D-01 DXMaxT set to 5.05D-01
 Use linear search instead of GDIIS.
 Linear search step of   0.594 exceeds DXMaxT=   0.505 but not scaled.
 Quartic linear search produced a step of  2.00000.
 Iteration  1 RMS(Cart)=  0.12477651 RMS(Int)=  0.01085867
 Iteration  2 RMS(Cart)=  0.01220918 RMS(Int)=  0.00027088
 Iteration  3 RMS(Cart)=  0.00014390 RMS(Int)=  0.00024830
 Iteration  4 RMS(Cart)=  0.00000003 RMS(Int)=  0.00024830
 Iteration  1 RMS(Cart)=  0.00012245 RMS(Int)=  0.00003526
 Iteration  2 RMS(Cart)=  0.00006468 RMS(Int)=  0.00003940
 Iteration  3 RMS(Cart)=  0.00003415 RMS(Int)=  0.00004438
 Iteration  4 RMS(Cart)=  0.00001804 RMS(Int)=  0.00004758
 Iteration  5 RMS(Cart)=  0.00000954 RMS(Int)=  0.00004942
 Iteration  6 RMS(Cart)=  0.00000506 RMS(Int)=  0.00005044
 Iteration  7 RMS(Cart)=  0.00000269 RMS(Int)=  0.00005100
 Iteration  8 RMS(Cart)=  0.00000145 RMS(Int)=  0.00005130
 Iteration  9 RMS(Cart)=  0.00000079 RMS(Int)=  0.00005147
 Variable       Old X    -DE/DX   Delta X   Delta X   Delta X     New X
                                 (Linear)    (Quad)   (Total)
    R1        2.05987  -0.00057   0.00014   0.00000   0.00014   2.06002
    R2        2.06350   0.00318   0.00725   0.00000   0.00725   2.07075
    R3        2.06350   0.00325   0.00739   0.00000   0.00739   2.07089
    R4        2.88879  -0.00043  -0.00504   0.00000  -0.00504   2.88375
    R5        2.31999  -0.00158  -0.00513   0.00000  -0.00513   2.31486
    R6        2.54131   0.02827   0.03695   0.00000   0.03695   2.57826
    R7        1.90901   0.00050   0.00068   0.00000   0.00068   1.90969
    R8        2.75103   0.02037   0.02573   0.00000   0.02573   2.77676
    R9        2.06608   0.00573   0.01267   0.00000   0.01267   2.07875
   R10        2.88437   0.00797   0.00497   0.00000   0.00497   2.88933
   R11        2.88779   0.01143   0.02323   0.00000   0.02323   2.91102
   R12        2.06158   0.00122   0.00372   0.00000   0.00372   2.06530
   R13        2.06187   0.00125   0.00404   0.00000   0.00404   2.06591
   R14        2.05931  -0.00376  -0.00070   0.00000  -0.00070   2.05861
   R15        2.31819  -0.00205  -0.00866   0.00000  -0.00866   2.30953
   R16        2.54180   0.02262   0.03792   0.00000   0.03792   2.57971
   R17        1.90917   0.00056   0.00098   0.00000   0.00098   1.91015
   R18        2.74094   0.00481   0.00567   0.00000   0.00567   2.74660
   R19        2.06002  -0.00061   0.00053   0.00000   0.00053   2.06055
   R20        2.06285   0.00298   0.00607   0.00000   0.00607   2.06892
   R21        2.06374   0.00287   0.00799   0.00000   0.00799   2.07173
    A1        1.91176  -0.00014   0.00135   0.00000   0.00163   1.91340
    A2        1.90740  -0.00019  -0.00742   0.00000  -0.00749   1.89991
    A3        1.92597  -0.00552  -0.02621   0.00000  -0.02609   1.89988
    A4        1.90181  -0.00371  -0.01654   0.00000  -0.01702   1.88479
    A5        1.91561   0.00472   0.03909   0.00000   0.03899   1.95459
    A6        1.90106   0.00487   0.00981   0.00000   0.00953   1.91059
    A7        2.11404  -0.00132   0.02193   0.00000   0.02192   2.13596
    A8        2.02367  -0.01327  -0.02273   0.00000  -0.02275   2.00093
    A9        2.14547   0.01459   0.00079   0.00000   0.00078   2.14624
   A10        2.08642  -0.01660  -0.01590   0.00000  -0.01674   2.06968
   A11        2.14071   0.03017   0.02644   0.00000   0.02559   2.16630
   A12        2.05561  -0.01350  -0.01142   0.00000  -0.01230   2.04331
   A13        1.90909  -0.00215  -0.00409   0.00000  -0.00466   1.90444
   A14        1.94937   0.01596   0.02064   0.00000   0.02112   1.97049
   A15        1.91972  -0.01310  -0.03857   0.00000  -0.03904   1.88068
   A16        1.89627  -0.00297   0.00036   0.00000   0.00030   1.89658
   A17        1.89552   0.00083  -0.00112   0.00000  -0.00180   1.89372
   A18        1.89295   0.00123   0.02315   0.00000   0.02362   1.91657
   A19        1.91479   0.00108   0.00729   0.00000   0.00728   1.92207
   A20        1.91014  -0.00102  -0.00185   0.00000  -0.00185   1.90829
   A21        1.91199   0.00312   0.00179   0.00000   0.00176   1.91375
   A22        1.90257  -0.00175  -0.01507   0.00000  -0.01506   1.88752
   A23        1.91082  -0.00095   0.00117   0.00000   0.00113   1.91195
   A24        1.91347  -0.00052   0.00664   0.00000   0.00664   1.92011
   A25        2.11495   0.00829   0.02370   0.00000   0.02370   2.13866
   A26        2.02159  -0.00724  -0.02696   0.00000  -0.02697   1.99462
   A27        2.14664  -0.00105   0.00326   0.00000   0.00326   2.14990
   A28        2.08729  -0.00242  -0.01413   0.00000  -0.01461   2.07267
   A29        2.13230   0.00402   0.00947   0.00000   0.00897   2.14127
   A30        2.06335  -0.00161   0.00415   0.00000   0.00363   2.06698
   A31        1.89990  -0.00486  -0.02262   0.00000  -0.02250   1.87740
   A32        1.91704   0.00381   0.01168   0.00000   0.01155   1.92858
   A33        1.92197   0.00329   0.02164   0.00000   0.02156   1.94352
   A34        1.91131  -0.00002   0.00262   0.00000   0.00269   1.91400
   A35        1.90696   0.00006  -0.00637   0.00000  -0.00620   1.90076
   A36        1.90659  -0.00232  -0.00702   0.00000  -0.00733   1.89925
    D1        0.09289  -0.00089   0.18556   0.00000   0.18573   0.27862
    D2       -3.05258   0.00108   0.17814   0.00000   0.17825  -2.87433
    D3        2.20140  -0.00155   0.19601   0.00000   0.19573   2.39714
    D4       -0.94407   0.00042   0.18859   0.00000   0.18825  -0.75581
    D5       -2.00098  -0.00033   0.20457   0.00000   0.20476  -1.79622
    D6        1.13673   0.00164   0.19715   0.00000   0.19729   1.33402
    D7        0.01071   0.00327   0.02121   0.00000   0.02135   0.03206
    D8       -3.09825   0.00109   0.08661   0.00000   0.08639  -3.01186
    D9       -3.13484   0.00524   0.01364   0.00000   0.01387  -3.12097
   D10        0.03939   0.00306   0.07905   0.00000   0.07891   0.11830
   D11       -1.32287   0.00140  -0.02784   0.00000  -0.02758  -1.35045
   D12        0.77701   0.00647  -0.01696   0.00000  -0.01668   0.76034
   D13        2.87984   0.00965   0.00000   0.00000   0.00000   2.87984
   D14        1.85082  -0.00067   0.03647   0.00000   0.03665   1.88747
   D15       -2.33249   0.00440   0.04735   0.00000   0.04755  -2.28494
   D16       -0.22966   0.00757   0.06431   0.00000   0.06423  -0.16543
   D17        1.04944  -0.00286   0.00439   0.00000   0.00458   1.05402
   D18        3.13620  -0.00496  -0.01074   0.00000  -0.01057   3.12563
   D19       -1.04858  -0.00431  -0.00264   0.00000  -0.00247  -1.05106
   D20       -3.12638   0.00254   0.01243   0.00000   0.01246  -3.11392
   D21       -1.03961   0.00043  -0.00270   0.00000  -0.00269  -1.04231
   D22        1.05879   0.00109   0.00540   0.00000   0.00540   1.06419
   D23       -1.06897   0.00256   0.02410   0.00000   0.02392  -1.04505
   D24        1.01779   0.00046   0.00896   0.00000   0.00877   1.02656
   D25        3.11619   0.00111   0.01706   0.00000   0.01687   3.13306
   D26       -2.09291  -0.00716   0.00296   0.00000   0.00310  -2.08982
   D27        1.04722  -0.00697   0.00000   0.00000   0.00000   1.04722
   D28        2.10152   0.00275   0.03208   0.00000   0.03204   2.13356
   D29       -1.04153   0.00294   0.02912   0.00000   0.02894  -1.01259
   D30        0.04363   0.00514   0.01947   0.00000   0.01929   0.06293
   D31       -3.09941   0.00533   0.01651   0.00000   0.01620  -3.08322
   D32        0.02493   0.00117   0.05008   0.00000   0.04989   0.07482
   D33       -3.14124   0.00037   0.00071   0.00000   0.00098  -3.14027
   D34       -3.11815   0.00137   0.04706   0.00000   0.04679  -3.07136
   D35       -0.00113   0.00057  -0.00231   0.00000  -0.00213  -0.00326
   D36        0.07221   0.00035   0.14434   0.00000   0.14444   0.21665
   D37        2.16475  -0.00035   0.14077   0.00000   0.14076   2.30551
   D38       -2.01798   0.00129   0.15290   0.00000   0.15323  -1.86475
   D39       -3.09364  -0.00045   0.09561   0.00000   0.09543  -2.99821
   D40       -1.00110  -0.00115   0.09205   0.00000   0.09175  -0.90935
   D41        1.09936   0.00048   0.10417   0.00000   0.10422   1.20358
         Item               Value     Threshold  Converged?
 Maximum Force            0.030136     0.000450     NO 
 RMS     Force            0.007043     0.000300     NO 
 Maximum Displacement     0.541339     0.001800     NO 
 RMS     Displacement     0.126916     0.001200     NO 
 Predicted change in Energy=-5.259769D-03
 GradGradGradGradGradGradGradGradGradGradGradGradGradGradGradGradGradGrad

                          Input orientation:                          
 ---------------------------------------------------------------------
 Center     Atomic      Atomic             Coordinates (Angstroms)
 Number     Number       Type             X           Y           Z
 ---------------------------------------------------------------------
      1          1           0        1.865880    1.154416   -0.210853
      2          6           0        1.934325    2.240665   -0.271898
      3          1           0        1.362301    2.692127    0.546473
      4          1           0        1.490212    2.570948   -1.217730
      5          6           0        3.405217    2.645148   -0.232022
      6          8           0        4.311241    1.845074   -0.430904
      7          7           0        3.625099    3.966322    0.028019
      8          1           0        2.828813    4.564283    0.200098
      9          6           0        4.943572    4.611418   -0.039893
     10          1           0        5.518043    4.352777    0.861851
     11          6           0        5.748645    4.191698   -1.270111
     12          1           0        5.211173    4.463694   -2.182028
     13          1           0        6.707968    4.715963   -1.271086
     14          1           0        5.912271    3.114856   -1.250927
     15          6           0        4.720508    6.135531   -0.056976
     16          8           0        5.092159    6.843920   -0.980941
     17          7           0        4.070440    6.620122    1.041274
     18          1           0        3.847536    5.983938    1.794481
     19          6           0        3.763733    8.030405    1.213090
     20          1           0        3.935123    8.523492    0.255771
     21          1           0        2.719119    8.161780    1.513369
     22          1           0        4.409820    8.490126    1.970142
 ---------------------------------------------------------------------
                    Distance matrix (angstroms):
                    1          2          3          4          5
     1  H    0.000000
     2  C    1.090114   0.000000
     3  H    1.786530   1.095793   0.000000
     4  H    1.778058   1.095866   1.772980   0.000000
     5  C    2.142962   1.526014   2.186725   2.155080   0.000000
     6  O    2.550534   2.414851   3.220096   3.017316   1.224971
     7  N    3.325467   2.434453   2.648136   2.838433   1.364358
     8  H    3.566975   2.534184   2.403248   2.788453   2.049890
     9  C    4.631660   3.837950   4.105241   4.180492   2.503930
    10  H    4.971770   4.311547   4.486359   4.870625   2.928581
    11  C    5.042120   4.399091   4.978826   4.556734   2.993510
    12  H    5.101748   4.396383   5.039542   4.284613   3.220421
    13  H    6.103649   5.469291   5.997966   5.641712   4.034364
    14  H    4.615014   4.188885   4.910354   4.455507   2.746655
    15  C    5.743178   4.793641   4.847550   4.948577   3.734088
    16  O    6.585770   5.627132   5.786382   5.593601   4.586539
    17  N    6.025101   5.046488   4.796664   5.306268   4.226609
    18  H    5.592192   4.684271   4.309285   5.126294   3.930634
    19  C    7.273836   6.250841   5.891389   6.394016   5.587296
    20  H    7.668298   6.614797   6.380340   6.601634   5.922303
    21  H    7.266644   6.233994   5.717775   6.342438   5.826693
    22  H    8.064801   7.085942   6.703059   7.329618   6.326336
                    6          7          8          9         10
     6  O    0.000000
     7  N    2.276203   0.000000
     8  H    3.160673   1.010564   0.000000
     9  C    2.864505   1.469398   2.128855   0.000000
    10  H    3.068576   2.104248   2.777519   1.100025   0.000000
    11  C    2.876985   2.499077   3.290252   1.528969   2.150439
    12  H    3.276200   2.765378   3.370502   2.163833   3.061319
    13  H    3.833042   3.428369   4.151534   2.154033   2.469260
[...]
    15  C    5.695647   4.776200   4.701379   5.112416   3.745090
    16  O    6.546324   5.560400   5.519926   5.691076   4.598929
    17  N    5.933501   5.078382   4.749207   5.601915   4.226343
    18  H    5.477694   4.750950   4.398878   5.445920   3.909406
    19  C    7.175004   6.288249   5.806109   6.753939   5.595029
    20  H    7.634337   6.667493   6.246451   6.975011   5.969024
    21  H    7.144454   6.276627   5.624359   6.756041   5.830737
    22  H    7.933378   7.113563   6.659344   7.660024   6.312970
                    6          7          8          9         10
     6  O    0.000000
     7  N    2.289164   0.000000
     8  H    3.139486   1.012881   0.000000
     9  C    2.892965   1.480549   2.113128   0.000000
    10  H    3.015598   2.094966   2.875308   1.098369   0.000000
    11  C    3.015536   2.528246   3.141217   1.529956   2.156521
    12  H    3.473926   2.806441   3.126392   2.169105   3.068552
    13  H    3.953400   3.453454   4.030785   2.156020   2.481299
    14  H    2.367818   2.795274   3.588368   2.161783   2.489961
    15  C    4.364293   2.431280   2.438932   1.546580   2.166689
    16  O    5.177473   3.385108   3.275815   2.437333   3.150008
    17  N    4.974788   2.860586   2.677522   2.442766   2.684247
    18  H    4.625572   2.656743   2.620712   2.521391   2.476117
    19  C    6.407514   4.227941   3.845783   3.830746   4.074121
    20  H    6.771820   4.600411   4.172409   4.055286   4.475859
    21  H    6.773751   4.527708   3.960172   4.469359   4.771042
    22  H    7.013933   4.963076   4.727003   4.411589   4.409481
                   11         12         13         14         15
    11  C    0.000000
    12  H    1.093709   0.000000
    13  H    1.093679   1.764550   0.000000
    14  H    1.089779   1.785821   1.784183   0.000000
    15  C    2.518595   2.753022   2.736993   3.470823   0.000000
    16  O    2.764507   2.671337   2.717262   3.845480   1.222369
    17  N    3.753164   4.054106   3.994223   4.582142   1.368610
    18  H    4.010916   4.466484   4.362491   4.651868   2.048135
    19  C    4.994776   5.156653   5.087919   5.914641   2.479130
    20  H    4.947603   4.940343   4.937805   5.964882   2.529602
    21  H    5.713906   5.787774   5.954873   6.586196   3.238204
    22  H    5.579354   5.888810   5.521140   6.467365   3.158316
                   16         17         18         19         20
    16  O    0.000000
    17  N    2.282092   0.000000
    18  H    3.160298   1.010920   0.000000
    19  C    2.838235   1.452896   2.132970   0.000000
    20  H    2.380835   2.061254   2.974528   1.090730   0.000000
    21  H    3.649898   2.110391   2.515777   1.095928   1.783566
    22  H    3.522823   2.115954   2.545873   1.096849   1.779803
                   21         22
    21  H    0.000000
    22  H    1.782594   0.000000
 Stoichiometry    C6H12N2O2
 Framework group  C1[X(C6H12N2O2)]
 Deg. of freedom    60
 Full point group                 C1      NOp   1
 Largest Abelian subgroup         C1      NOp   1
 Largest concise Abelian subgroup C1      NOp   1
                         Standard orientation:                         
 ---------------------------------------------------------------------
 Center     Atomic      Atomic             Coordinates (Angstroms)
 Number     Number       Type             X           Y           Z
 ---------------------------------------------------------------------
      1          1           0       -3.807004   -1.757704    0.199602
      2          6           0       -2.883592   -1.476571    0.710088
      3          1           0       -2.264323   -2.367320    0.859126
      4          1           0       -3.153573   -1.075531    1.694371
      5          6           0       -2.189172   -0.389662   -0.101650
      6          8           0       -2.813886    0.442500   -0.742720
      7          7           0       -0.811164   -0.444761   -0.077781
      8          1           0       -0.420882   -1.059069    0.626658
      9          6           0        0.051488    0.702505   -0.440599
     10          1           0        0.077007    0.768335   -1.536696
     11          6           0       -0.412655    2.043015    0.132437
     12          1           0       -0.418347    2.009412    1.225614
     13          1           0        0.285739    2.828571   -0.169692
     14          1           0       -1.411102    2.280911   -0.233796
     15          6           0        1.472985    0.374442    0.072849
     16          8           0        2.058446    1.065177    0.894010
     17          7           0        2.004473   -0.764520   -0.468796
     18          1           0        1.469943   -1.247198   -1.178204
     19          6           0        3.340597   -1.240151   -0.153428
     20          1           0        3.727760   -0.615095    0.652240
     21          1           0        3.317951   -2.284721    0.177358
     22          1           0        4.009286   -1.158509   -1.019030
 ---------------------------------------------------------------------
 Rotational constants (GHZ):      2.3139717      0.7223064      0.6095814

 **********************************************************************

            Population analysis using the SCF density.

 **********************************************************************

 Orbital symmetries:
       Occupied  (A) (A) (A) (A) (A) (A) (A) (A) (A) (A) (A) (A)
                 (A) (A) (A) (A) (A) (A) (A) (A) (A) (A) (A) (A)
                 (A) (A) (A) (A) (A) (A) (A) (A) (A) (A) (A) (A)
                 (A) (A) (A)
       Virtual   (A) (A) (A) (A) (A) (A) (A) (A) (A) (A) (A) (A)
                 (A) (A) (A) (A) (A) (A) (A) (A) (A) (A) (A) (A)
                 (A) (A) (A) (A) (A) (A) (A) (A) (A) (A) (A) (A)
                 (A) (A) (A) (A) (A) (A) (A) (A) (A) (A) (A) (A)
                 (A) (A) (A) (A) (A) (A) (A) (A) (A) (A) (A) (A)
                 (A) (A) (A) (A) (A) (A) (A) (A) (A) (A) (A) (A)
                 (A) (A) (A) (A) (A) (A) (A) (A) (A) (A) (A) (A)
                 (A) (A) (A) (A) (A) (A) (A) (A) (A) (A) (A) (A)
                 (A) (A) (A) (A) (A) (A) (A) (A) (A) (A) (A) (A)
                 (A) (A) (A) (A) (A) (A) (A) (A) (A) (A) (A) (A)
                 (A) (A) (A) (A) (A) (A) (A) (A) (A) (A) (A) (A)
                 (A) (A) (A)
 The electronic state is 1-A.
 Alpha  occ. eigenvalues --  -19.12101 -19.11324 -14.37151 -14.36489 -10.29318
 Alpha  occ. eigenvalues --  -10.29054 -10.23873 -10.22594 -10.19520 -10.16652
 Alpha  occ. eigenvalues --   -1.04129  -1.03145  -0.93443  -0.91781  -0.77817
 Alpha  occ. eigenvalues --   -0.72849  -0.71654  -0.64113  -0.58929  -0.57606
 Alpha  occ. eigenvalues --   -0.53654  -0.48299  -0.48148  -0.46868  -0.45485
 Alpha  occ. eigenvalues --   -0.44644  -0.42432  -0.41384  -0.40145  -0.39820
 Alpha  occ. eigenvalues --   -0.39262  -0.38013  -0.36698  -0.36216  -0.34546
 Alpha  occ. eigenvalues --   -0.26857  -0.26070  -0.25582  -0.24592
 Alpha virt. eigenvalues --    0.00958   0.02677   0.07016   0.08196   0.11660
 Alpha virt. eigenvalues --    0.12741   0.12869   0.14832   0.15541   0.15630
 Alpha virt. eigenvalues --    0.16636   0.17097   0.17944   0.18837   0.20543
 Alpha virt. eigenvalues --    0.21498   0.23346   0.24832   0.27198   0.31382
 Alpha virt. eigenvalues --    0.34884   0.36705   0.40557   0.50634   0.51240
 Alpha virt. eigenvalues --    0.51319   0.52420   0.53848   0.54272   0.56163
 Alpha virt. eigenvalues --    0.57406   0.60259   0.62408   0.64766   0.65572
 Alpha virt. eigenvalues --    0.67278   0.69467   0.70246   0.70986   0.72860
 Alpha virt. eigenvalues --    0.74617   0.76529   0.77570   0.81800   0.83825
 Alpha virt. eigenvalues --    0.84932   0.85567   0.86108   0.86630   0.87995
 Alpha virt. eigenvalues --    0.89293   0.89791   0.90901   0.92159   0.93497
 Alpha virt. eigenvalues --    0.94102   0.94941   0.96556   0.98053   0.98457
 Alpha virt. eigenvalues --    1.01164   1.06833   1.07405   1.12560   1.16602
 Alpha virt. eigenvalues --    1.16835   1.23968   1.28028   1.31257   1.33884
 Alpha virt. eigenvalues --    1.34671   1.38007   1.41398   1.43537   1.46242
 Alpha virt. eigenvalues --    1.51744   1.52802   1.61300   1.64752   1.70074
 Alpha virt. eigenvalues --    1.74604   1.76656   1.78438   1.80865   1.81668
 Alpha virt. eigenvalues --    1.82231   1.83691   1.85130   1.88022   1.89774
 Alpha virt. eigenvalues --    1.92441   1.92897   1.96190   1.98739   2.00863
 Alpha virt. eigenvalues --    2.03349   2.04039   2.06395   2.11359   2.18366
 Alpha virt. eigenvalues --    2.20763   2.22835   2.25062   2.28884   2.29982
 Alpha virt. eigenvalues --    2.30192   2.30615   2.35190   2.38113   2.39658
 Alpha virt. eigenvalues --    2.41733   2.45441   2.53183   2.55472   2.63431
 Alpha virt. eigenvalues --    2.63905   2.66397   2.71830   2.76008   2.85849
 Alpha virt. eigenvalues --    2.90936   2.97265   3.01550   3.10992   3.15265
 Alpha virt. eigenvalues --    3.90194   3.94104   4.04800   4.11550   4.18113
 Alpha virt. eigenvalues --    4.22019   4.27082   4.43851   4.47016   4.62563
          Condensed to atoms (all electrons):
              1          2          3          4          5          6
     1  H    0.511178   0.357917  -0.024945  -0.021590  -0.018697   0.003289
     2  C    0.357917   5.336707   0.343075   0.360777   0.343591  -0.080109
     3  H   -0.024945   0.343075   0.573493  -0.026672  -0.025430   0.002695
     4  H   -0.021590   0.360777  -0.026672   0.524179  -0.020560  -0.000148
     5  C   -0.018697   0.343591  -0.025430  -0.020560   4.320268   0.591493
     6  O    0.003289  -0.080109   0.002695  -0.000148   0.591493   8.054538
     7  N    0.003883  -0.126436   0.006334   0.000427   0.249852  -0.094497
     8  H    0.000069   0.001172   0.001316  -0.000095  -0.016902   0.003445
     9  C   -0.000182   0.007551   0.000104  -0.000149  -0.021262   0.010024
    10  H    0.000017  -0.000067  -0.000026  -0.000007  -0.005301   0.002261
    11  C    0.000001  -0.000714   0.000030   0.000099  -0.002390  -0.012505
    12  H    0.000003  -0.000014  -0.000007  -0.000003   0.000084  -0.000252
    13  H    0.000000   0.000005   0.000000  -0.000002   0.000200   0.000188
    14  H   -0.000002   0.000479  -0.000012  -0.000023   0.003422   0.015671
    15  C    0.000002  -0.000060  -0.000061   0.000001   0.004339   0.000450
    16  O    0.000000   0.000001   0.000000   0.000000  -0.000131   0.000000
    17  N    0.000000  -0.000036   0.000003   0.000000   0.000336  -0.000006
    18  H   -0.000001   0.000004   0.000007   0.000001   0.000031  -0.000003
    19  C    0.000000   0.000000   0.000000   0.000000   0.000010   0.000000
    20  H    0.000000   0.000000   0.000000   0.000000   0.000001   0.000000
    21  H    0.000000   0.000000   0.000000   0.000000  -0.000002   0.000000
    22  H    0.000000   0.000000   0.000000   0.000000   0.000000   0.000000
              7          8          9         10         11         12
     1  H    0.003883   0.000069  -0.000182   0.000017   0.000001   0.000003
     2  C   -0.126436   0.001172   0.007551  -0.000067  -0.000714  -0.000014
     3  H    0.006334   0.001316   0.000104  -0.000026   0.000030  -0.000007
     4  H    0.000427  -0.000095  -0.000149  -0.000007   0.000099  -0.000003
     5  C    0.249852  -0.016902  -0.021262  -0.005301  -0.002390   0.000084
     6  O   -0.094497   0.003445   0.010024   0.002261  -0.012505  -0.000252
     7  N    7.199550   0.289162   0.216533  -0.047924  -0.049548  -0.000232
     8  H    0.289162   0.424583  -0.046487   0.005458   0.002497   0.001130
     9  C    0.216533  -0.046487   5.091975   0.365200   0.371757  -0.034779
    10  H   -0.047924   0.005458   0.365200   0.590041  -0.043714   0.005475
    11  C   -0.049548   0.002497   0.371757  -0.043714   5.112286   0.373901
    12  H   -0.000232   0.001130  -0.034779   0.005475   0.373901   0.555827
    13  H    0.004291  -0.000104  -0.028087  -0.000691   0.364085  -0.025367
    14  H   -0.007800  -0.000164  -0.023431  -0.003770   0.358552  -0.028017
    15  C   -0.024087   0.000400   0.304497  -0.033390  -0.035465  -0.006055
    16  O   -0.000400   0.000135  -0.083895   0.001782   0.003473   0.005039
    17  N   -0.003910   0.008056  -0.124987   0.000069   0.005553   0.000177
    18  H    0.006194  -0.000546   0.002026  -0.000222   0.000243  -0.000009
    19  C    0.000022  -0.000341   0.005857  -0.000247  -0.000143  -0.000002
    20  H   -0.000029  -0.000047   0.001245  -0.000035  -0.000017  -0.000005
    21  H    0.000023  -0.000068  -0.000064  -0.000008   0.000003   0.000000
    22  H   -0.000003   0.000020  -0.000202   0.000018   0.000001   0.000000
             13         14         15         16         17         18
     1  H    0.000000  -0.000002   0.000002   0.000000   0.000000  -0.000001
     2  C    0.000005   0.000479  -0.000060   0.000001  -0.000036   0.000004
     3  H    0.000000  -0.000012  -0.000061   0.000000   0.000003   0.000007
     4  H   -0.000002  -0.000023   0.000001   0.000000   0.000000   0.000001
     5  C    0.000200   0.003422   0.004339  -0.000131   0.000336   0.000031
     6  O    0.000188   0.015671   0.000450   0.000000  -0.000006  -0.000003
     7  N    0.004291  -0.007800  -0.024087  -0.000400  -0.003910   0.006194
     8  H   -0.000104  -0.000164   0.000400   0.000135   0.008056  -0.000546
     9  C   -0.028087  -0.023431   0.304497  -0.083895  -0.124987   0.002026
    10  H   -0.000691  -0.003770  -0.033390   0.001782   0.000069  -0.000222
    11  C    0.364085   0.358552  -0.035465   0.003473   0.005553   0.000243
    12  H   -0.025367  -0.028017  -0.006055   0.005039   0.000177  -0.000009
    13  H    0.554197  -0.024937  -0.001872   0.002467   0.000078  -0.000030
    14  H   -0.024937   0.517916   0.004580   0.000565  -0.000048  -0.000014
    15  C   -0.001872   0.004580   4.409232   0.594830   0.272267  -0.022754
    16  O    0.002467   0.000565   0.594830   8.056072  -0.095048   0.003395
    17  N    0.000078  -0.000048   0.272267  -0.095048   7.076675   0.302831
    18  H   -0.000030  -0.000014  -0.022754   0.003395   0.302831   0.404366
    19  C   -0.000001   0.000002  -0.023281  -0.007532   0.264895  -0.031145
    20  H   -0.000002   0.000000  -0.000638   0.020367  -0.040394   0.004089
    21  H    0.000000   0.000000   0.001775   0.000423  -0.040238  -0.000679
    22  H    0.000000   0.000000   0.000455   0.000474  -0.041950  -0.001106
             19         20         21         22
     1  H    0.000000   0.000000   0.000000   0.000000
     2  C    0.000000   0.000000   0.000000   0.000000
     3  H    0.000000   0.000000   0.000000   0.000000
     4  H    0.000000   0.000000   0.000000   0.000000
     5  C    0.000010   0.000001  -0.000002   0.000000
     6  O    0.000000   0.000000   0.000000   0.000000
     7  N    0.000022  -0.000029   0.000023  -0.000003
     8  H   -0.000341  -0.000047  -0.000068   0.000020
     9  C    0.005857   0.001245  -0.000064  -0.000202
    10  H   -0.000247  -0.000035  -0.000008   0.000018
    11  C   -0.000143  -0.000017   0.000003   0.000001
    12  H   -0.000002  -0.000005   0.000000   0.000000
    13  H   -0.000001  -0.000002   0.000000   0.000000
    14  H    0.000002   0.000000   0.000000   0.000000
    15  C   -0.023281  -0.000638   0.001775   0.000455
    16  O   -0.007532   0.020367   0.000423   0.000474
    17  N    0.264895  -0.040394  -0.040238  -0.041950
    18  H   -0.031145   0.004089  -0.000679  -0.001106
    19  C    4.964000   0.377018   0.379118   0.383637
    20  H    0.377018   0.482036  -0.023857  -0.025488
    21  H    0.379118  -0.023857   0.567037  -0.040140
    22  H    0.383637  -0.025488  -0.040140   0.561754
 Mulliken atomic charges:
              1
     1  H    0.189059
     2  C   -0.543840
     3  H    0.150096
     4  H    0.183765
     5  C    0.597048
     6  O   -0.496533
     7  N   -0.621406
     8  H    0.327311
     9  C   -0.013244
    10  H    0.165081
    11  C   -0.447984
    12  H    0.153108
    13  H    0.155584
    14  H    0.187033
    15  C    0.554838
    16  O   -0.502016
    17  N   -0.584321
    18  H    0.333325
    19  C   -0.311864
    20  H    0.205756
    21  H    0.156676
    22  H    0.162529
 Sum of Mulliken atomic charges =   0.00000
 Mulliken charges with hydrogens summed into heavy atoms:
              1
     2  C   -0.020920
     5  C    0.597048
     6  O   -0.496533
     7  N   -0.294095
     9  C    0.151837
    11  C    0.047741
    15  C    0.554838
    16  O   -0.502016
    17  N   -0.250996
    19  C    0.213097
 Sum of Mulliken charges with hydrogens summed into heavy atoms =   0.00000
 Electronic spatial extent (au):  <R**2>=           1915.0305
 Charge=              0.0000 electrons
 Dipole moment (field-independent basis, Debye):
    X=              1.6017    Y=             -4.0795    Z=             -0.2218  Tot=              4.3883
 Quadrupole moment (field-independent basis, Debye-Ang):
   XX=            -65.5081   YY=            -58.0143   ZZ=            -60.0563
   XY=             -1.6238   XZ=             -9.7298   YZ=             -1.5557
 Traceless Quadrupole moment (field-independent basis, Debye-Ang):
   XX=             -4.3152   YY=              3.1786   ZZ=              1.1366
   XY=             -1.6238   XZ=             -9.7298   YZ=             -1.5557
 Octapole moment (field-independent basis, Debye-Ang**2):
  XXX=             31.1445  YYY=             -3.7993  ZZZ=             -2.0566  XYY=             -1.3936
  XXY=            -31.3886  XXZ=              6.3043  XZZ=              0.4493  YZZ=             -3.8709
  YYZ=             -3.5866  XYZ=             -4.0966
 Hexadecapole moment (field-independent basis, Debye-Ang**3):
 XXXX=          -1718.5971 YYYY=           -541.0527 ZZZZ=           -169.8134 XXXY=              2.9637
 XXXZ=            -47.4260 YYYX=             -9.9183 YYYZ=             -1.5246 ZZZX=             -2.1181
 ZZZY=              4.3876 XXYY=           -371.9457 XXZZ=           -323.2820 YYZZ=           -121.2043
 XXYZ=              1.2957 YYXZ=             -4.8352 ZZXY=             -5.2113
 N-N= 5.501320841602D+02 E-N=-2.256159742811D+03  KE= 4.912277046276D+02
 1\1\GINC-NODE005\FOpt\RB3LYP\6-31G(d)\C6H12N2O2\MANAGER\10-Feb-2017\0\
 \# b3lyp/6-31G* Opt=(ModRedundant, maxcycles=1000, calcfc) geom=nocrow
 d\\Phi Psi fixed scan\\0,1\H,1.797472728,1.2405803763,0.1010557743\C,1
 .9560409076,2.2352345546,-0.3206543792\H,1.2520205729,2.9399485905,0.1
 341803234\H,1.7442765299,2.1812570941,-1.3952604009\C,3.4149748728,2.6
 249618753,-0.115388296\O,4.316895125,1.8003437558,-0.1320270394\N,3.62
 46500874,3.9676389921,0.1207559453\H,2.8284120289,4.5638507713,-0.0702
 016082\C,4.940590369,4.6241051193,-0.0506439654\H,5.5539405861,4.37803
 00707,0.826659974\C,5.6888187571,4.2091548642,-1.3190035686\H,5.107907
 7922,4.4711727161,-2.2078725346\H,6.6379177799,4.7498048684,-1.3741628
 94\H,5.8794797863,3.1362523654,-1.3068624384\C,4.6821055475,6.14884306
 1,-0.067021202\O,4.9627419485,6.8598958536,-1.0208723313\N,4.100681250
 4,6.6207437426,1.0785569069\H,3.9485862913,5.9697303532,1.8368500379\C
 ,3.8013905357,8.0264796456,1.2912527063\H,3.9960202342,8.5471606835,0.
 3527949399\H,2.7514078055,8.166524935,1.572287854\H,4.4368684639,8.456
 9857111,2.0747761962\\Version=EM64L-G09RevA.02\State=1-A\HF=-495.84185
 79\RMSD=6.787e-09\RMSF=1.450e-03\Dipole=-1.1835133,0.7138945,1.0346069
 \Quadrupole=3.7725482,-6.0995019,2.3269537,1.0807395,1.405907,5.643533
 1\PG=C01 [X(C6H12N2O2)]\\@


      LET US REMEMBER, PLEASE, THAT THE SEARCH FOR THE CONSTITUTION
      OF THE WORLD IS ONE OF THE GREATEST AND NOBLEST PROBLEMS PRESENTED 
      BY NATURE.

                                                  -- GALILEO
 Job cpu time:  0 days  1 hours 25 minutes  3.1 seconds.
 File lengths (MBytes):  RWF=    186 Int=      0 D2E=      0 Chk=      4 Scr=      2
 Normal termination of Gaussian 09 at Fri Feb 10 21:00:38 2017.
