 Entering Gaussian System, Link 0=g09
 Initial command:
 /home/steboss/Software/g09/l1.exe /home/steboss/projects/phi_psi_scan/alanine/MP2/315/5576/Gau-3481.inp -scrdir=/home/steboss/projects/phi_psi_scan/alanine/MP2/315/5576/
 Entering Link 1 = /home/steboss/Software/g09/l1.exe PID=      3495.
  
 Copyright (c) 1988,1990,1992,1993,1995,1998,2003,2009, Gaussian, Inc.
                  All Rights Reserved.
  
 This is part of the Gaussian(R) 09 program.  It is based on
 the Gaussian(R) 03 system (copyright 2003, Gaussian, Inc.),
 the Gaussian(R) 98 system (copyright 1998, Gaussian, Inc.),
 the Gaussian(R) 94 system (copyright 1995, Gaussian, Inc.),
 the Gaussian 92(TM) system (copyright 1992, Gaussian, Inc.),
 the Gaussian 90(TM) system (copyright 1990, Gaussian, Inc.),
 the Gaussian 88(TM) system (copyright 1988, Gaussian, Inc.),
 the Gaussian 86(TM) system (copyright 1986, Carnegie Mellon
 University), and the Gaussian 82(TM) system (copyright 1983,
 Carnegie Mellon University). Gaussian is a federally registered
 trademark of Gaussian, Inc.
  
 This software contains proprietary and confidential information,
 including trade secrets, belonging to Gaussian, Inc.
  
 This software is provided under written license and may be
 used, copied, transmitted, or stored only in accord with that
 written license.
  
 The following legend is applicable only to US Government
 contracts under FAR:
  
                    RESTRICTED RIGHTS LEGEND
  
 Use, reproduction and disclosure by the US Government is
 subject to restrictions as set forth in subparagraphs (a)
 and (c) of the Commercial Computer Software - Restricted
 Rights clause in FAR 52.227-19.
  
 Gaussian, Inc.
 340 Quinnipiac St., Bldg. 40, Wallingford CT 06492
  
  
 ---------------------------------------------------------------
 Warning -- This program may not be used in any manner that
 competes with the business of Gaussian, Inc. or will provide
 assistance to any competitor of Gaussian, Inc.  The licensee
 of this program is prohibited from giving any competitor of
 Gaussian, Inc. access to this program.  By using this program,
 the user acknowledges that Gaussian, Inc. is engaged in the
 business of creating and licensing software in the field of
 computational chemistry and represents and warrants to the
 licensee that it is not a competitor of Gaussian, Inc. and that
 it will not use this program in any manner prohibited above.
 ---------------------------------------------------------------
  

 Cite this work as:
 Gaussian 09, Revision A.02,
 M. J. Frisch, G. W. Trucks, H. B. Schlegel, G. E. Scuseria, 
 M. A. Robb, J. R. Cheeseman, G. Scalmani, V. Barone, B. Mennucci, 
 G. A. Petersson, H. Nakatsuji, M. Caricato, X. Li, H. P. Hratchian, 
 A. F. Izmaylov, J. Bloino, G. Zheng, J. L. Sonnenberg, M. Hada, 
 M. Ehara, K. Toyota, R. Fukuda, J. Hasegawa, M. Ishida, T. Nakajima, 
 Y. Honda, O. Kitao, H. Nakai, T. Vreven, J. A. Montgomery, Jr., 
 J. E. Peralta, F. Ogliaro, M. Bearpark, J. J. Heyd, E. Brothers, 
 K. N. Kudin, V. N. Staroverov, R. Kobayashi, J. Normand, 
 K. Raghavachari, A. Rendell, J. C. Burant, S. S. Iyengar, J. Tomasi, 
 M. Cossi, N. Rega, J. M. Millam, M. Klene, J. E. Knox, J. B. Cross, 
 V. Bakken, C. Adamo, J. Jaramillo, R. Gomperts, R. E. Stratmann, 
 O. Yazyev, A. J. Austin, R. Cammi, C. Pomelli, J. W. Ochterski, 
 R. L. Martin, K. Morokuma, V. G. Zakrzewski, G. A. Voth, 
 P. Salvador, J. J. Dannenberg, S. Dapprich, A. D. Daniels, 
 O. Farkas, J. B. Foresman, J. V. Ortiz, J. Cioslowski, 
 and D. J. Fox, Gaussian, Inc., Wallingford CT, 2009.
 
 ******************************************
 Gaussian 09:  EM64L-G09RevA.02 11-Jun-2009
                13-Feb-2017 
 ******************************************
 %chk=structure_270.chk
 %NProcShared=8
 Will use up to    8 processors via shared memory.
 -------------------
 #SP MP2/aug-cc-pVDZ
 -------------------
 1/38=1/1;
 2/12=2,17=6,18=5,40=1/2;
 3/5=16,7=10,11=9,16=1,25=1,30=1/1,2,3;
 4//1;
 5/5=2,38=5/2;
 8/10=1/1;
 9/16=-3/6;
 6/7=2,8=2,9=2,10=2/1;
 99/5=1,9=1/99;
 -------------------------------
 Single Point calculation at MP2
 -------------------------------
 Symbolic Z-matrix:
 Charge =  0 Multiplicity = 1
 H                     3.5272   -1.3814   -1.1414 
 C                     3.3302   -0.4303   -0.6418 
 H                     3.4823    0.3893   -1.3523 
 H                     4.0593   -0.325     0.1699 
 C                     1.9252   -0.4777   -0.0467 
 O                     1.4715   -1.4884    0.4624 
 N                     1.2324    0.7066   -0.1356 
 H                     1.7363    1.5017   -0.5048 
 C                    -0.0385    1.0292    0.5264 
 H                     0.1351    1.0933    1.6087 
 C                    -0.5268    2.3916    0.0269 
 H                    -0.6702    2.4073   -1.0599 
 H                    -1.4757    2.6554    0.501 
 H                     0.2032    3.1712    0.2774 
 C                    -1.1063   -0.0979    0.4363 
 O                    -1.3129   -0.8473    1.3746 
 N                    -1.9384   -0.0369   -0.6552 
 H                    -1.5908    0.4396   -1.477 
 C                    -2.9384   -1.073    -0.8725 
 H                    -3.3966   -1.3119    0.0882 
 H                    -3.703    -0.6981   -1.5588 
 H                    -2.505    -1.9948   -1.2826 
 
                          Input orientation:                          
 ---------------------------------------------------------------------
 Center     Atomic      Atomic             Coordinates (Angstroms)
 Number     Number       Type             X           Y           Z
 ---------------------------------------------------------------------
      1          1           0        3.527200   -1.381400   -1.141400
      2          6           0        3.330200   -0.430300   -0.641800
      3          1           0        3.482300    0.389300   -1.352300
      4          1           0        4.059300   -0.325000    0.169900
      5          6           0        1.925200   -0.477700   -0.046700
      6          8           0        1.471500   -1.488400    0.462400
      7          7           0        1.232400    0.706600   -0.135600
      8          1           0        1.736300    1.501700   -0.504800
      9          6           0       -0.038500    1.029200    0.526400
     10          1           0        0.135100    1.093300    1.608700
     11          6           0       -0.526800    2.391600    0.026900
     12          1           0       -0.670200    2.407300   -1.059900
     13          1           0       -1.475700    2.655400    0.501000
     14          1           0        0.203200    3.171200    0.277400
     15          6           0       -1.106300   -0.097900    0.436300
     16          8           0       -1.312900   -0.847300    1.374600
     17          7           0       -1.938400   -0.036900   -0.655200
     18          1           0       -1.590800    0.439600   -1.477000
     19          6           0       -2.938400   -1.073000   -0.872500
     20          1           0       -3.396600   -1.311900    0.088200
     21          1           0       -3.703000   -0.698100   -1.558800
     22          1           0       -2.505000   -1.994800   -1.282600
 ---------------------------------------------------------------------
                    Distance matrix (angstroms):
                    1          2          3          4          5
     1  H    0.000000
     2  C    1.092246   0.000000
     3  H    1.783781   1.095303   0.000000
     4  H    1.765961   1.096144   1.777708   0.000000
     5  C    2.140431   1.526570   2.209262   2.150492   0.000000
     6  O    2.609507   2.406990   3.295787   2.852326   1.219238
     7  N    3.261516   2.439169   2.577419   3.024714   1.374933
     8  H    3.453237   2.508368   2.237008   3.031234   2.040481
     9  C    4.615925   3.852658   4.041660   4.330464   2.540730
    10  H    5.019316   4.194612   4.524034   4.413736   2.900491
    11  C    5.659980   4.825632   4.688740   5.332230   3.774997
    12  H    5.655003   4.922396   4.626130   5.598754   4.010723
    13  H    6.634926   5.824449   5.757751   6.295128   4.656438
    14  H    5.812756   4.857351   4.598629   5.206196   4.047814
    15  C    5.060221   4.577698   4.948909   5.177448   3.093142
    16  O    5.481066   5.079187   5.653239   5.530337   3.555558
    17  N    5.649500   5.283284   5.481932   6.061039   3.935985
    18  H    5.442664   5.066609   5.074882   5.934688   3.905055
    19  C    6.478534   6.305682   6.602569   7.114345   4.968997
    20  H    7.032478   6.823486   7.231071   7.521376   5.388473
    21  H    7.274401   7.097782   7.270049   7.961213   5.831951
    22  H    6.064951   6.075183   6.444886   6.927339   4.843110
                    6          7          8          9         10
     6  O    0.000000
     7  N    2.287531   0.000000
     8  H    3.153774   1.011142   0.000000
     9  C    2.936410   1.468844   2.106311   0.000000
    10  H    3.124923   2.096709   2.682818   1.098007   0.000000
    11  C    4.386030   2.441396   2.489226   1.531036   2.150764
    12  H    4.699016   2.714148   2.630492   2.194209   3.081644
    13  H    5.085131   3.396599   3.558033   2.170418   2.502365
    14  H    4.832668   2.702605   2.397804   2.169927   2.468738
    15  C    2.929031   2.538466   3.394814   1.555207   2.081959
    16  O    2.999333   3.342733   4.283406   2.421733   2.432578
    17  N    3.870827   3.297992   3.986644   2.478380   3.271391
    18  H    4.105623   3.137053   3.625303   2.602091   3.595497
    19  C    4.626201   4.594080   5.349496   3.845203   4.505065
    20  H    4.885650   5.054906   5.883422   4.116990   4.535395
    21  H    5.611174   5.325115   5.961210   4.556335   5.288968
    22  H    4.371958   4.751982   5.551496   4.301242   4.986593
                   11         12         13         14         15
    11  C    0.000000
    12  H    1.096332   0.000000
    13  H    1.093056   1.773920   0.000000
    14  H    1.097008   1.770520   1.770523   0.000000
    15  C    2.588636   2.950394   2.778723   3.525203   0.000000
    16  O    3.595097   4.114885   3.613667   4.432917   1.218479
    17  N    2.890586   2.783204   2.966373   3.968387   1.373857
    18  H    2.684048   2.212085   2.972457   3.709177   2.045572
    19  C    4.316038   4.158406   4.234024   5.404179   2.453644
    20  H    4.685661   4.752246   4.427158   5.752612   2.615424
    21  H    4.706266   4.369243   4.522124   5.796681   3.329191
    22  H    4.986840   4.774366   5.085769   6.037839   2.917055
                   16         17         18         19         20
    16  O    0.000000
    17  N    2.273343   0.000000
    18  H    3.140854   1.011550   0.000000
    19  C    2.782562   1.456270   2.114097   0.000000
    20  H    2.492485   2.074757   2.962856   1.090855   0.000000
    21  H    3.786776   2.089854   2.400509   1.093696   1.784164
    22  H    3.130267   2.132613   2.607653   1.098059   1.772116
                   21         22
    21  H    0.000000
    22  H    1.786875   0.000000
 Stoichiometry    C6H12N2O2
 Framework group  C1[X(C6H12N2O2)]
 Deg. of freedom    60
 Full point group                 C1      NOp   1
 Largest Abelian subgroup         C1      NOp   1
 Largest concise Abelian subgroup C1      NOp   1
                         Standard orientation:                         
 ---------------------------------------------------------------------
 Center     Atomic      Atomic             Coordinates (Angstroms)
 Number     Number       Type             X           Y           Z
 ---------------------------------------------------------------------
      1          1           0        3.527193   -1.381379   -1.141405
      2          6           0        3.330186   -0.430281   -0.641805
      3          1           0        3.482281    0.389320   -1.352305
      4          1           0        4.059286   -0.324976    0.169895
      5          6           0        1.925187   -0.477691   -0.046705
      6          8           0        1.471494   -1.488394    0.462395
      7          7           0        1.232378    0.706605   -0.135605
      8          1           0        1.736273    1.501708   -0.504805
      9          6           0       -0.038524    1.029196    0.526395
     10          1           0        0.135076    1.093297    1.608695
     11          6           0       -0.526833    2.391593    0.026895
     12          1           0       -0.670233    2.407292   -1.059905
     13          1           0       -1.475735    2.655386    0.500995
     14          1           0        0.203161    3.171198    0.277395
     15          6           0       -1.106316   -0.097911    0.436295
     16          8           0       -1.312911   -0.847313    1.374595
     17          7           0       -1.938416   -0.036917   -0.655205
     18          1           0       -1.590820    0.439585   -1.477005
     19          6           0       -2.938409   -1.073024   -0.872505
     20          1           0       -3.396608   -1.311927    0.088195
     21          1           0       -3.703012   -0.698129   -1.558805
     22          1           0       -2.505003   -1.994821   -1.282605
 ---------------------------------------------------------------------
 Rotational constants (GHZ):      1.9269661      0.8567776      0.7158391
 Standard basis: Aug-CC-pVDZ (5D, 7F)
 There are   338 symmetry adapted basis functions of A   symmetry.
 Integral buffers will be    131072 words long.
 Raffenetti 1 integral format.
 Two-electron integral symmetry is turned on.
   338 basis functions,   562 primitive gaussians,   358 cartesian basis functions
    39 alpha electrons       39 beta electrons
       nuclear repulsion energy       557.0624168030 Hartrees.
 NAtoms=   22 NActive=   22 NUniq=   22 SFac= 7.50D-01 NAtFMM=   80 NAOKFM=F Big=F
 One-electron integrals computed using PRISM.
 NBasis=   338 RedAO= T  NBF=   338
 NBsUse=   338 1.00D-06 NBFU=   338
 Harris functional with IExCor=  205 diagonalized for initial guess.
 ExpMin= 2.97D-02 ExpMax= 1.17D+04 ExpMxC= 4.01D+02 IAcc=3 IRadAn=         0 AccDes= 0.00D+00
 HarFok:  IExCor=  205 AccDes= 0.00D+00 IRadAn=         0 IDoV= 1
 ScaDFX=  1.000000  1.000000  1.000000  1.000000
 FoFCou: FMM=F IPFlag=           0 FMFlag=      100000 FMFlg1=           0
         NFxFlg=           0 DoJE=T BraDBF=F KetDBF=T FulRan=T
         Omega=  0.000000  0.000000  1.000000  0.000000  0.000000 ICntrl=     500 IOpCl=  0
         NMat0=    1 NMatS0=    1 NMatT0=    0 NMatD0=    1 NMtDS0=    0 NMtDT0=    0
         I1Cent=           4 NGrid=           0.
 Petite list used in FoFCou.
 Initial guess orbital symmetries:
       Occupied  (A) (A) (A) (A) (A) (A) (A) (A) (A) (A) (A) (A)
                 (A) (A) (A) (A) (A) (A) (A) (A) (A) (A) (A) (A)
                 (A) (A) (A) (A) (A) (A) (A) (A) (A) (A) (A) (A)
                 (A) (A) (A)
       Virtual   (A) (A) (A) (A) (A) (A) (A) (A) (A) (A) (A) (A)
                 (A) (A) (A) (A) (A) (A) (A) (A) (A) (A) (A) (A)
                 (A) (A) (A) (A) (A) (A) (A) (A) (A) (A) (A) (A)
                 (A) (A) (A) (A) (A) (A) (A) (A) (A) (A) (A) (A)
                 (A) (A) (A) (A) (A) (A) (A) (A) (A) (A) (A) (A)
                 (A) (A) (A) (A) (A) (A) (A) (A) (A) (A) (A) (A)
                 (A) (A) (A) (A) (A) (A) (A) (A) (A) (A) (A) (A)
                 (A) (A) (A) (A) (A) (A) (A) (A) (A) (A) (A) (A)
                 (A) (A) (A) (A) (A) (A) (A) (A) (A) (A) (A) (A)
                 (A) (A) (A) (A) (A) (A) (A) (A) (A) (A) (A) (A)
                 (A) (A) (A) (A) (A) (A) (A) (A) (A) (A) (A) (A)
                 (A) (A) (A) (A) (A) (A) (A) (A) (A) (A) (A) (A)
                 (A) (A) (A) (A) (A) (A) (A) (A) (A) (A) (A) (A)
                 (A) (A) (A) (A) (A) (A) (A) (A) (A) (A) (A) (A)
                 (A) (A) (A) (A) (A) (A) (A) (A) (A) (A) (A) (A)
                 (A) (A) (A) (A) (A) (A) (A) (A) (A) (A) (A) (A)
                 (A) (A) (A) (A) (A) (A) (A) (A) (A) (A) (A) (A)
                 (A) (A) (A) (A) (A) (A) (A) (A) (A) (A) (A) (A)
                 (A) (A) (A) (A) (A) (A) (A) (A) (A) (A) (A) (A)
                 (A) (A) (A) (A) (A) (A) (A) (A) (A) (A) (A) (A)
                 (A) (A) (A) (A) (A) (A) (A) (A) (A) (A) (A) (A)
                 (A) (A) (A) (A) (A) (A) (A) (A) (A) (A) (A) (A)
                 (A) (A) (A) (A) (A) (A) (A) (A) (A) (A) (A) (A)
                 (A) (A) (A) (A) (A) (A) (A) (A) (A) (A) (A) (A)
                 (A) (A) (A) (A) (A) (A) (A) (A) (A) (A) (A)
 The electronic state of the initial guess is 1-A.
 Requested convergence on RMS density matrix=1.00D-08 within 128 cycles.
 Requested convergence on MAX density matrix=1.00D-06.
 Requested convergence on             energy=1.00D-06.
 No special actions if energy rises.
 Initial convergence to 1.0D-05 achieved.  Increase integral accuracy.
 SCF Done:  E(RHF) =  -492.907615011     A.U. after   14 cycles
             Convg  =    0.7542D-08             -V/T =  2.0018
 ExpMin= 2.97D-02 ExpMax= 1.17D+04 ExpMxC= 4.01D+02 IAcc=3 IRadAn=         5 AccDes= 0.00D+00
 HarFok:  IExCor=  205 AccDes= 0.00D+00 IRadAn=         5 IDoV=-2
 ScaDFX=  1.000000  1.000000  1.000000  1.000000
 Range of M.O.s used for correlation:    11   338
 NBasis=   338 NAE=    39 NBE=    39 NFC=    10 NFV=     0
 NROrb=    328 NOA=    29 NOB=    29 NVA=   299 NVB=   299

 **** Warning!!: The largest alpha MO coefficient is  0.66831556D+02

 Disk-based method using OVN memory for 29 occupieds at a time.
 Estimated scratch disk usage=  1384334055 words.
 Actual    scratch disk usage=  1370996150 words.
 JobTyp=1 Pass  1:  I=   1 to  29 NPSUse=  8 ParTrn=T ParDer=T DoDerP=F.
 Spin components of T(2) and E(2):
     alpha-alpha T2 =       0.6802547580D-01 E2=     -0.2056877694D+00
     alpha-beta  T2 =       0.3781461280D+00 E2=     -0.1191642971D+01
     beta-beta   T2 =       0.6802547580D-01 E2=     -0.2056877694D+00
 ANorm=    0.1230527155D+01
 E2 =    -0.1603018510D+01 EUMP2 =    -0.49451063352072D+03

 **********************************************************************

            Population analysis using the SCF density.

 **********************************************************************

 Orbital symmetries:
       Occupied  (A) (A) (A) (A) (A) (A) (A) (A) (A) (A) (A) (A)
                 (A) (A) (A) (A) (A) (A) (A) (A) (A) (A) (A) (A)
                 (A) (A) (A) (A) (A) (A) (A) (A) (A) (A) (A) (A)
                 (A) (A) (A)
       Virtual   (A) (A) (A) (A) (A) (A) (A) (A) (A) (A) (A) (A)
                 (A) (A) (A) (A) (A) (A) (A) (A) (A) (A) (A) (A)
                 (A) (A) (A) (A) (A) (A) (A) (A) (A) (A) (A) (A)
                 (A) (A) (A) (A) (A) (A) (A) (A) (A) (A) (A) (A)
                 (A) (A) (A) (A) (A) (A) (A) (A) (A) (A) (A) (A)
                 (A) (A) (A) (A) (A) (A) (A) (A) (A) (A) (A) (A)
                 (A) (A) (A) (A) (A) (A) (A) (A) (A) (A) (A) (A)
                 (A) (A) (A) (A) (A) (A) (A) (A) (A) (A) (A) (A)
                 (A) (A) (A) (A) (A) (A) (A) (A) (A) (A) (A) (A)
                 (A) (A) (A) (A) (A) (A) (A) (A) (A) (A) (A) (A)
                 (A) (A) (A) (A) (A) (A) (A) (A) (A) (A) (A) (A)
                 (A) (A) (A) (A) (A) (A) (A) (A) (A) (A) (A) (A)
                 (A) (A) (A) (A) (A) (A) (A) (A) (A) (A) (A) (A)
                 (A) (A) (A) (A) (A) (A) (A) (A) (A) (A) (A) (A)
                 (A) (A) (A) (A) (A) (A) (A) (A) (A) (A) (A) (A)
                 (A) (A) (A) (A) (A) (A) (A) (A) (A) (A) (A) (A)
                 (A) (A) (A) (A) (A) (A) (A) (A) (A) (A) (A) (A)
                 (A) (A) (A) (A) (A) (A) (A) (A) (A) (A) (A) (A)
                 (A) (A) (A) (A) (A) (A) (A) (A) (A) (A) (A) (A)
                 (A) (A) (A) (A) (A) (A) (A) (A) (A) (A) (A) (A)
                 (A) (A) (A) (A) (A) (A) (A) (A) (A) (A) (A) (A)
                 (A) (A) (A) (A) (A) (A) (A) (A) (A) (A) (A) (A)
                 (A) (A) (A) (A) (A) (A) (A) (A) (A) (A) (A) (A)
                 (A) (A) (A) (A) (A) (A) (A) (A) (A) (A) (A) (A)
                 (A) (A) (A) (A) (A) (A) (A) (A) (A) (A) (A)
 The electronic state is 1-A.
 Alpha  occ. eigenvalues --  -20.52819 -20.52333 -15.60290 -15.58914 -11.36264
 Alpha  occ. eigenvalues --  -11.35313 -11.29809 -11.26166 -11.25503 -11.24892
 Alpha  occ. eigenvalues --   -1.38635  -1.37553  -1.24356  -1.22223  -1.06118
 Alpha  occ. eigenvalues --   -0.99400  -0.94967  -0.88652  -0.80747  -0.77498
 Alpha  occ. eigenvalues --   -0.69782  -0.69201  -0.67010  -0.63545  -0.61945
 Alpha  occ. eigenvalues --   -0.61244  -0.59217  -0.58072  -0.57843  -0.55804
 Alpha  occ. eigenvalues --   -0.55198  -0.54523  -0.53727  -0.51300  -0.50142
 Alpha  occ. eigenvalues --   -0.42939  -0.41370  -0.39407  -0.38574
 Alpha virt. eigenvalues --    0.02249   0.03512   0.03908   0.04572   0.05536
 Alpha virt. eigenvalues --    0.05950   0.06018   0.06666   0.07191   0.07916
 Alpha virt. eigenvalues --    0.08591   0.09162   0.11595   0.11841   0.12207
 Alpha virt. eigenvalues --    0.13471   0.13775   0.14705   0.14840   0.15445
 Alpha virt. eigenvalues --    0.15545   0.16029   0.16610   0.17055   0.17188
 Alpha virt. eigenvalues --    0.17485   0.18112   0.18226   0.18654   0.18912
 Alpha virt. eigenvalues --    0.19468   0.19961   0.20197   0.21420   0.22456
 Alpha virt. eigenvalues --    0.22877   0.24435   0.24695   0.25379   0.26575
 Alpha virt. eigenvalues --    0.27543   0.27763   0.28865   0.29535   0.30628
 Alpha virt. eigenvalues --    0.31829   0.32007   0.32541   0.33148   0.33739
 Alpha virt. eigenvalues --    0.34510   0.35198   0.35723   0.36496   0.37271
 Alpha virt. eigenvalues --    0.37714   0.38542   0.39202   0.40138   0.40481
 Alpha virt. eigenvalues --    0.40908   0.41498   0.42220   0.42604   0.42912
 Alpha virt. eigenvalues --    0.43422   0.43623   0.44047   0.45056   0.45362
 Alpha virt. eigenvalues --    0.46290   0.47180   0.47801   0.48055   0.48786
 Alpha virt. eigenvalues --    0.49759   0.50602   0.51121   0.51874   0.52585
 Alpha virt. eigenvalues --    0.53062   0.53926   0.54452   0.54518   0.55801
 Alpha virt. eigenvalues --    0.56408   0.57057   0.57374   0.57860   0.58641
 Alpha virt. eigenvalues --    0.59006   0.60069   0.60308   0.60478   0.61612
 Alpha virt. eigenvalues --    0.62847   0.63699   0.64342   0.64775   0.65387
 Alpha virt. eigenvalues --    0.65740   0.66282   0.67106   0.67595   0.68376
 Alpha virt. eigenvalues --    0.68766   0.69470   0.69614   0.70514   0.72303
 Alpha virt. eigenvalues --    0.72578   0.73001   0.73401   0.74326   0.75651
 Alpha virt. eigenvalues --    0.75769   0.76153   0.77354   0.78020   0.79160
 Alpha virt. eigenvalues --    0.80081   0.80427   0.80537   0.82183   0.83005
 Alpha virt. eigenvalues --    0.83938   0.85240   0.85594   0.86874   0.88357
 Alpha virt. eigenvalues --    0.89138   0.90175   0.90937   0.91787   0.93179
 Alpha virt. eigenvalues --    0.93835   0.95249   0.95836   0.96759   0.99120
 Alpha virt. eigenvalues --    0.99920   1.01572   1.01824   1.02619   1.05005
 Alpha virt. eigenvalues --    1.07760   1.07979   1.08715   1.09427   1.10952
 Alpha virt. eigenvalues --    1.11625   1.12956   1.14362   1.15329   1.15814
 Alpha virt. eigenvalues --    1.17313   1.18582   1.19012   1.21357   1.22021
 Alpha virt. eigenvalues --    1.23692   1.25372   1.27156   1.27985   1.30031
 Alpha virt. eigenvalues --    1.30826   1.31632   1.33970   1.35663   1.36707
 Alpha virt. eigenvalues --    1.38427   1.41860   1.43282   1.45288   1.47464
 Alpha virt. eigenvalues --    1.49265   1.50272   1.51834   1.52126   1.53776
 Alpha virt. eigenvalues --    1.56815   1.58379   1.59373   1.60016   1.65035
 Alpha virt. eigenvalues --    1.65977   1.68472   1.69665   1.70978   1.73274
 Alpha virt. eigenvalues --    1.73648   1.75606   1.76294   1.78621   1.81237
 Alpha virt. eigenvalues --    1.81765   1.83447   1.84347   1.85941   1.87183
 Alpha virt. eigenvalues --    1.89404   1.90137   1.90808   1.92124   1.93774
 Alpha virt. eigenvalues --    1.94057   1.95908   1.98117   1.99702   2.01160
 Alpha virt. eigenvalues --    2.01712   2.03896   2.06147   2.07139   2.09313
 Alpha virt. eigenvalues --    2.11123   2.12079   2.13524   2.15082   2.17017
 Alpha virt. eigenvalues --    2.17566   2.18995   2.19125   2.21620   2.22205
 Alpha virt. eigenvalues --    2.24896   2.28113   2.29824   2.30955   2.31532
 Alpha virt. eigenvalues --    2.32406   2.33849   2.35427   2.35945   2.38295
 Alpha virt. eigenvalues --    2.40277   2.40362   2.41365   2.43320   2.45292
 Alpha virt. eigenvalues --    2.45837   2.46901   2.49197   2.51007   2.51570
 Alpha virt. eigenvalues --    2.53068   2.54418   2.56383   2.56593   2.59032
 Alpha virt. eigenvalues --    2.60970   2.61984   2.64266   2.67548   2.68284
 Alpha virt. eigenvalues --    2.70557   2.70866   2.77041   2.77754   2.78004
 Alpha virt. eigenvalues --    2.81363   2.83300   2.86145   2.87307   2.87940
 Alpha virt. eigenvalues --    2.89243   2.92337   2.93824   2.94684   2.97277
 Alpha virt. eigenvalues --    2.97845   3.00391   3.03384   3.04725   3.08823
 Alpha virt. eigenvalues --    3.10033   3.12957   3.16520   3.17493   3.27570
 Alpha virt. eigenvalues --    3.29664   3.38488   3.42451   3.45447   3.53546
 Alpha virt. eigenvalues --    3.60400   3.68008   3.78532   3.83770   3.84773
 Alpha virt. eigenvalues --    3.86905   3.89198   3.93169   4.00089   4.02985
 Alpha virt. eigenvalues --    4.06173   4.12513   4.21476   4.29916
          Condensed to atoms (all electrons):
              1          2          3          4          5          6
     1  H    0.770686   0.326666  -0.102362  -0.050927  -0.042852   0.027656
     2  C    0.326666   4.589936   0.369027   0.388040   0.132261  -0.030749
     3  H   -0.102362   0.369027   1.071600  -0.067500   0.082770  -0.005848
     4  H   -0.050927   0.388040  -0.067500   0.721368  -0.089437   0.010432
     5  C   -0.042852   0.132261   0.082770  -0.089437   5.381150   0.229643
     6  O    0.027656  -0.030749  -0.005848   0.010432   0.229643   8.644321
     7  N    0.060887  -0.056965  -0.190968   0.040305   0.149195  -0.128579
     8  H   -0.004192  -0.078747   0.007394  -0.009607  -0.070394  -0.001177
     9  C    0.010065  -0.005994  -0.029904  -0.003872  -0.237816   0.064255
    10  H    0.000821  -0.017350  -0.003269  -0.002874  -0.010115   0.017113
    11  C    0.000708  -0.033688  -0.012115   0.000410  -0.042079   0.007433
    12  H   -0.000440  -0.007157  -0.000958  -0.000301  -0.016490   0.000747
    13  H    0.000260   0.003083   0.000353   0.000053   0.010378  -0.000115
    14  H   -0.000207  -0.007603  -0.001018  -0.000069  -0.011678   0.001054
    15  C    0.000765   0.031653   0.006077   0.001762  -0.051258  -0.041086
    16  O    0.000064  -0.005320  -0.000085  -0.000064   0.042007  -0.016211
    17  N   -0.001081  -0.000280   0.000812   0.000476   0.045801   0.015039
    18  H    0.000011  -0.000628  -0.000880   0.000186  -0.028763   0.000238
    19  C   -0.000666   0.001935   0.000685   0.000192   0.010192   0.003545
    20  H   -0.000019  -0.000080   0.000012  -0.000014  -0.005481  -0.000233
    21  H   -0.000101   0.000114   0.000080   0.000017   0.002112   0.000499
    22  H    0.000160  -0.000313  -0.000034  -0.000044   0.001737  -0.000647
              7          8          9         10         11         12
     1  H    0.060887  -0.004192   0.010065   0.000821   0.000708  -0.000440
     2  C   -0.056965  -0.078747  -0.005994  -0.017350  -0.033688  -0.007157
     3  H   -0.190968   0.007394  -0.029904  -0.003269  -0.012115  -0.000958
     4  H    0.040305  -0.009607  -0.003872  -0.002874   0.000410  -0.000301
     5  C    0.149195  -0.070394  -0.237816  -0.010115  -0.042079  -0.016490
     6  O   -0.128579  -0.001177   0.064255   0.017113   0.007433   0.000747
     7  N    7.564217   0.391950  -0.408350   0.069547  -0.016929  -0.032182
     8  H    0.391950   0.996472  -0.222908   0.017133   0.038232   0.014408
     9  C   -0.408350  -0.222908   7.063695  -0.200660   0.115752  -0.150276
    10  H    0.069547   0.017133  -0.200660   1.229903  -0.010324   0.056860
    11  C   -0.016929   0.038232   0.115752  -0.010324   4.391595   0.453097
    12  H   -0.032182   0.014408  -0.150276   0.056860   0.453097   1.028601
    13  H    0.081644  -0.000171  -0.146299  -0.061407   0.299477  -0.097415
    14  H   -0.084914   0.005469   0.176682  -0.027812   0.269148  -0.229178
    15  C    0.051590  -0.010970  -0.197863   0.001592  -0.159057  -0.006174
    16  O    0.001495   0.001368  -0.015684   0.056968   0.001223   0.000629
    17  N    0.070700   0.010706  -0.258170   0.073868   0.037658   0.003350
    18  H   -0.030490  -0.001441   0.102900  -0.001143  -0.023552   0.010847
    19  C    0.003652  -0.000869  -0.125285   0.005679   0.005828  -0.000639
    20  H   -0.000077  -0.000176  -0.001927   0.001891  -0.005934   0.000907
    21  H   -0.000603  -0.000406  -0.033397  -0.001521   0.012598   0.001550
    22  H   -0.001405   0.000560   0.038449   0.000979  -0.008358  -0.003021
             13         14         15         16         17         18
     1  H    0.000260  -0.000207   0.000765   0.000064  -0.001081   0.000011
     2  C    0.003083  -0.007603   0.031653  -0.005320  -0.000280  -0.000628
     3  H    0.000353  -0.001018   0.006077  -0.000085   0.000812  -0.000880
     4  H    0.000053  -0.000069   0.001762  -0.000064   0.000476   0.000186
     5  C    0.010378  -0.011678  -0.051258   0.042007   0.045801  -0.028763
     6  O   -0.000115   0.001054  -0.041086  -0.016211   0.015039   0.000238
     7  N    0.081644  -0.084914   0.051590   0.001495   0.070700  -0.030490
     8  H   -0.000171   0.005469  -0.010970   0.001368   0.010706  -0.001441
     9  C   -0.146299   0.176682  -0.197863  -0.015684  -0.258170   0.102900
    10  H   -0.061407  -0.027812   0.001592   0.056968   0.073868  -0.001143
    11  C    0.299477   0.269148  -0.159057   0.001223   0.037658  -0.023552
    12  H   -0.097415  -0.229178  -0.006174   0.000629   0.003350   0.010847
    13  H    1.190355  -0.225234  -0.017704  -0.003679   0.033975  -0.014560
    14  H   -0.225234   1.211063   0.024261  -0.003498  -0.000388   0.003326
    15  C   -0.017704   0.024261   5.277364   0.144578   0.116096  -0.064920
    16  O   -0.003679  -0.003498   0.144578   8.741298  -0.112805   0.001343
    17  N    0.033975  -0.000388   0.116096  -0.112805   7.271902   0.252896
    18  H   -0.014560   0.003326  -0.064920   0.001343   0.252896   0.970201
    19  C    0.008166   0.004039  -0.064943   0.008829   0.202560  -0.113883
    20  H    0.000481   0.000045   0.075499  -0.021802  -0.087984   0.009998
    21  H   -0.000839   0.000809  -0.041538   0.013860  -0.157347   0.004066
    22  H   -0.000749   0.000379  -0.034946  -0.000522   0.120062  -0.005838
             19         20         21         22
     1  H   -0.000666  -0.000019  -0.000101   0.000160
     2  C    0.001935  -0.000080   0.000114  -0.000313
     3  H    0.000685   0.000012   0.000080  -0.000034
     4  H    0.000192  -0.000014   0.000017  -0.000044
     5  C    0.010192  -0.005481   0.002112   0.001737
     6  O    0.003545  -0.000233   0.000499  -0.000647
     7  N    0.003652  -0.000077  -0.000603  -0.001405
     8  H   -0.000869  -0.000176  -0.000406   0.000560
     9  C   -0.125285  -0.001927  -0.033397   0.038449
    10  H    0.005679   0.001891  -0.001521   0.000979
    11  C    0.005828  -0.005934   0.012598  -0.008358
    12  H   -0.000639   0.000907   0.001550  -0.003021
    13  H    0.008166   0.000481  -0.000839  -0.000749
    14  H    0.004039   0.000045   0.000809   0.000379
    15  C   -0.064943   0.075499  -0.041538  -0.034946
    16  O    0.008829  -0.021802   0.013860  -0.000522
    17  N    0.202560  -0.087984  -0.157347   0.120062
    18  H   -0.113883   0.009998   0.004066  -0.005838
    19  C    4.180628   0.408988   0.490841   0.251250
    20  H    0.408988   0.997984  -0.188521  -0.073942
    21  H    0.490841  -0.188521   1.270789  -0.189893
    22  H    0.251250  -0.073942  -0.189893   0.957497
 Mulliken atomic charges:
              1
     1  H    0.004098
     2  C    0.402160
     3  H   -0.123868
     4  H    0.061466
     5  C    0.519118
     6  O   -0.797330
     7  N   -0.533718
     8  H   -0.082635
     9  C    0.466608
    10  H   -0.195880
    11  C    0.678879
    12  H   -0.026764
    13  H   -0.060050
    14  H   -0.104677
    15  C    0.959221
    16  O   -0.833992
    17  N   -0.637846
    18  H   -0.069917
    19  C    0.719274
    20  H   -0.109616
    21  H   -0.183168
    22  H   -0.051363
 Sum of Mulliken atomic charges =   0.00000
 Mulliken charges with hydrogens summed into heavy atoms:
              1
     2  C    0.343857
     5  C    0.519118
     6  O   -0.797330
     7  N   -0.616353
     9  C    0.270728
    11  C    0.487388
    15  C    0.959221
    16  O   -0.833992
    17  N   -0.707763
    19  C    0.375127
 Sum of Mulliken charges with hydrogens summed into heavy atoms =   0.00000
 Electronic spatial extent (au):  <R**2>=           1753.6325
 Charge=              0.0000 electrons
 Dipole moment (field-independent basis, Debye):
    X=              1.2500    Y=              5.3173    Z=             -4.4591  Tot=              7.0512
 Quadrupole moment (field-independent basis, Debye-Ang):
   XX=            -52.1420   YY=            -63.0582   ZZ=            -62.9405
   XY=              3.5689   XZ=              2.6316   YZ=              5.1149
 Traceless Quadrupole moment (field-independent basis, Debye-Ang):
   XX=              7.2382   YY=             -3.6779   ZZ=             -3.5603
   XY=              3.5689   XZ=              2.6316   YZ=              5.1149
 Octapole moment (field-independent basis, Debye-Ang**2):
  XXX=             16.1047  YYY=             11.0857  ZZZ=             -7.4117  XYY=             -3.9965
  XXY=             -1.1929  XXZ=            -13.6175  XZZ=              1.8195  YZZ=              5.4192
  YYZ=             -5.9885  XYZ=             -1.8668
 Hexadecapole moment (field-independent basis, Debye-Ang**3):
 XXXX=          -1361.0361 YYYY=           -589.0277 ZZZZ=           -260.0429 XXXY=             13.8876
 XXXZ=              8.5295 YYYX=             19.2598 YYYZ=              7.0563 ZZZX=             16.1856
 ZZZY=             -0.2936 XXYY=           -340.3974 XXZZ=           -281.2589 YYZZ=           -141.7976
 XXYZ=             10.1774 YYXZ=             -7.8666 ZZXY=             -6.4729
 N-N= 5.570624168030D+02 E-N=-2.269518316268D+03  KE= 4.920441353969D+02
 1\1\GINC-NODE007\SP\RMP2-FC\Aug-CC-pVDZ\C6H12N2O2\MANAGER\13-Feb-2017\
 0\\#SP MP2/aug-cc-pVDZ\\Single Point calculation at MP2\\0,1\H,0,3.527
 2,-1.3814,-1.1414\C,0,3.3302,-0.4303,-0.6418\H,0,3.4823,0.3893,-1.3523
 \H,0,4.0593,-0.325,0.1699\C,0,1.9252,-0.4777,-0.0467\O,0,1.4715,-1.488
 4,0.4624\N,0,1.2324,0.7066,-0.1356\H,0,1.7363,1.5017,-0.5048\C,0,-0.03
 85,1.0292,0.5264\H,0,0.1351,1.0933,1.6087\C,0,-0.5268,2.3916,0.0269\H,
 0,-0.6702,2.4073,-1.0599\H,0,-1.4757,2.6554,0.501\H,0,0.2032,3.1712,0.
 2774\C,0,-1.1063,-0.0979,0.4363\O,0,-1.3129,-0.8473,1.3746\N,0,-1.9384
 ,-0.0369,-0.6552\H,0,-1.5908,0.4396,-1.477\C,0,-2.9384,-1.073,-0.8725\
 H,0,-3.3966,-1.3119,0.0882\H,0,-3.703,-0.6981,-1.5588\H,0,-2.505,-1.99
 48,-1.2826\\Version=EM64L-G09RevA.02\State=1-A\HF=-492.907615\MP2=-494
 .5106335\RMSD=7.542e-09\PG=C01 [X(C6H12N2O2)]\\@


 In the beginning the Universe was created.
 This has made a lot of people very angry
 and been widely regarded as a bad move.
                               -D.Adams
 Job cpu time:  0 days 18 hours 20 minutes  8.8 seconds.
 File lengths (MBytes):  RWF=  10576 Int=      0 D2E=      0 Chk=      7 Scr=      2
 Normal termination of Gaussian 09 at Mon Feb 13 20:06:41 2017.
