 Entering Gaussian System, Link 0=g09
 Initial command:
 /home/steboss/Software/g09/l1.exe /home/steboss/projects/phi_psi_scan/alanine/MP2/315/5585/Gau-30074.inp -scrdir=/home/steboss/projects/phi_psi_scan/alanine/MP2/315/5585/
 Entering Link 1 = /home/steboss/Software/g09/l1.exe PID=     30076.
  
 Copyright (c) 1988,1990,1992,1993,1995,1998,2003,2009, Gaussian, Inc.
                  All Rights Reserved.
  
 This is part of the Gaussian(R) 09 program.  It is based on
 the Gaussian(R) 03 system (copyright 2003, Gaussian, Inc.),
 the Gaussian(R) 98 system (copyright 1998, Gaussian, Inc.),
 the Gaussian(R) 94 system (copyright 1995, Gaussian, Inc.),
 the Gaussian 92(TM) system (copyright 1992, Gaussian, Inc.),
 the Gaussian 90(TM) system (copyright 1990, Gaussian, Inc.),
 the Gaussian 88(TM) system (copyright 1988, Gaussian, Inc.),
 the Gaussian 86(TM) system (copyright 1986, Carnegie Mellon
 University), and the Gaussian 82(TM) system (copyright 1983,
 Carnegie Mellon University). Gaussian is a federally registered
 trademark of Gaussian, Inc.
  
 This software contains proprietary and confidential information,
 including trade secrets, belonging to Gaussian, Inc.
  
 This software is provided under written license and may be
 used, copied, transmitted, or stored only in accord with that
 written license.
  
 The following legend is applicable only to US Government
 contracts under FAR:
  
                    RESTRICTED RIGHTS LEGEND
  
 Use, reproduction and disclosure by the US Government is
 subject to restrictions as set forth in subparagraphs (a)
 and (c) of the Commercial Computer Software - Restricted
 Rights clause in FAR 52.227-19.
  
 Gaussian, Inc.
 340 Quinnipiac St., Bldg. 40, Wallingford CT 06492
  
  
 ---------------------------------------------------------------
 Warning -- This program may not be used in any manner that
 competes with the business of Gaussian, Inc. or will provide
 assistance to any competitor of Gaussian, Inc.  The licensee
 of this program is prohibited from giving any competitor of
 Gaussian, Inc. access to this program.  By using this program,
 the user acknowledges that Gaussian, Inc. is engaged in the
 business of creating and licensing software in the field of
 computational chemistry and represents and warrants to the
 licensee that it is not a competitor of Gaussian, Inc. and that
 it will not use this program in any manner prohibited above.
 ---------------------------------------------------------------
  

 Cite this work as:
 Gaussian 09, Revision A.02,
 M. J. Frisch, G. W. Trucks, H. B. Schlegel, G. E. Scuseria, 
 M. A. Robb, J. R. Cheeseman, G. Scalmani, V. Barone, B. Mennucci, 
 G. A. Petersson, H. Nakatsuji, M. Caricato, X. Li, H. P. Hratchian, 
 A. F. Izmaylov, J. Bloino, G. Zheng, J. L. Sonnenberg, M. Hada, 
 M. Ehara, K. Toyota, R. Fukuda, J. Hasegawa, M. Ishida, T. Nakajima, 
 Y. Honda, O. Kitao, H. Nakai, T. Vreven, J. A. Montgomery, Jr., 
 J. E. Peralta, F. Ogliaro, M. Bearpark, J. J. Heyd, E. Brothers, 
 K. N. Kudin, V. N. Staroverov, R. Kobayashi, J. Normand, 
 K. Raghavachari, A. Rendell, J. C. Burant, S. S. Iyengar, J. Tomasi, 
 M. Cossi, N. Rega, J. M. Millam, M. Klene, J. E. Knox, J. B. Cross, 
 V. Bakken, C. Adamo, J. Jaramillo, R. Gomperts, R. E. Stratmann, 
 O. Yazyev, A. J. Austin, R. Cammi, C. Pomelli, J. W. Ochterski, 
 R. L. Martin, K. Morokuma, V. G. Zakrzewski, G. A. Voth, 
 P. Salvador, J. J. Dannenberg, S. Dapprich, A. D. Daniels, 
 O. Farkas, J. B. Foresman, J. V. Ortiz, J. Cioslowski, 
 and D. J. Fox, Gaussian, Inc., Wallingford CT, 2009.
 
 ******************************************
 Gaussian 09:  EM64L-G09RevA.02 11-Jun-2009
                13-Feb-2017 
 ******************************************
 %chk=structure_75.chk
 %NProcShared=8
 Will use up to    8 processors via shared memory.
 -------------------
 #SP MP2/aug-cc-pVDZ
 -------------------
 1/38=1/1;
 2/12=2,17=6,18=5,40=1/2;
 3/5=16,7=10,11=9,16=1,25=1,30=1/1,2,3;
 4//1;
 5/5=2,38=5/2;
 8/10=1/1;
 9/16=-3/6;
 6/7=2,8=2,9=2,10=2/1;
 99/5=1,9=1/99;
 -------------------------------
 Single Point calculation at MP2
 -------------------------------
 Symbolic Z-matrix:
 Charge =  0 Multiplicity = 1
 H                    -3.7478   -1.3161    0.187 
 C                    -3.0749   -0.6369    0.7152 
 H                    -2.8482   -1.0851    1.6896 
 H                    -3.5815    0.3189    0.8816 
 C                    -1.786    -0.5115   -0.0829 
 O                    -1.299    -1.4871   -0.6545 
 N                    -1.2634    0.7492   -0.152 
 H                    -1.6996    1.422     0.4667 
 C                     0.1139    1.127    -0.5431 
 H                     0.1821    0.9796   -1.6294 
 C                     0.3174    2.6041   -0.2239 
 H                     0.3294    2.765     0.8584 
 H                     1.2808    2.9436   -0.6101 
 H                    -0.4753    3.2062   -0.6814 
 C                     1.2531    0.2721    0.0925 
 O                     1.9924    0.7546    0.9467 
 N                     1.4138   -0.9718   -0.4246 
 H                     0.5914   -1.3726   -0.8728 
 C                     2.4045   -1.8756    0.1379 
 H                     3.3346   -1.3286    0.3039 
 H                     2.0833   -2.2997    1.0989 
 H                     2.5827   -2.6912   -0.5676 
 
                          Input orientation:                          
 ---------------------------------------------------------------------
 Center     Atomic      Atomic             Coordinates (Angstroms)
 Number     Number       Type             X           Y           Z
 ---------------------------------------------------------------------
      1          1           0       -3.747800   -1.316100    0.187000
      2          6           0       -3.074900   -0.636900    0.715200
      3          1           0       -2.848200   -1.085100    1.689600
      4          1           0       -3.581500    0.318900    0.881600
      5          6           0       -1.786000   -0.511500   -0.082900
      6          8           0       -1.299000   -1.487100   -0.654500
      7          7           0       -1.263400    0.749200   -0.152000
      8          1           0       -1.699600    1.422000    0.466700
      9          6           0        0.113900    1.127000   -0.543100
     10          1           0        0.182100    0.979600   -1.629400
     11          6           0        0.317400    2.604100   -0.223900
     12          1           0        0.329400    2.765000    0.858400
     13          1           0        1.280800    2.943600   -0.610100
     14          1           0       -0.475300    3.206200   -0.681400
     15          6           0        1.253100    0.272100    0.092500
     16          8           0        1.992400    0.754600    0.946700
     17          7           0        1.413800   -0.971800   -0.424600
     18          1           0        0.591400   -1.372600   -0.872800
     19          6           0        2.404500   -1.875600    0.137900
     20          1           0        3.334600   -1.328600    0.303900
     21          1           0        2.083300   -2.299700    1.098900
     22          1           0        2.582700   -2.691200   -0.567600
 ---------------------------------------------------------------------
                    Distance matrix (angstroms):
                    1          2          3          4          5
     1  H    0.000000
     2  C    1.092292   0.000000
     3  H    1.766479   1.096235   0.000000
     4  H    1.784194   1.094480   1.778148   0.000000
     5  C    2.137495   1.521168   2.144538   2.200828   0.000000
     6  O    2.594992   2.398487   2.838385   3.291055   1.231134
     7  N    3.248481   2.440254   3.044296   2.574311   1.366474
     8  H    3.430823   2.488428   3.016673   2.220477   2.011951
     9  C    4.627581   3.855270   4.318839   4.042125   2.550703
    10  H    4.900374   4.326462   4.945853   4.572344   2.913496
    11  C    5.662390   4.784735   5.224242   4.652493   3.761800
    12  H    5.807729   4.814840   5.060761   4.612926   4.012034
    13  H    6.638315   5.792109   6.210289   5.723302   4.649830
    14  H    5.649298   4.845393   5.446793   4.519729   3.987158
    15  C    5.247886   4.466052   4.605799   4.898798   3.143394
    16  O    6.149377   5.259980   5.231425   5.591282   4.115749
    17  N    5.209099   4.643246   4.758920   5.322132   3.250747
    18  H    4.467105   4.062604   4.298767   4.832410   2.649050
    19  C    6.177884   5.647254   5.533852   6.418810   4.412461
    20  H    7.083376   6.459823   6.340857   7.133052   5.199790
    21  H    5.983373   5.433153   5.113108   6.244537   4.423324
    22  H    6.521929   6.154199   6.096653   7.011294   4.906278
                    6          7          8          9         10
     6  O    0.000000
     7  N    2.292338   0.000000
     8  H    3.143316   1.012778   0.000000
     9  C    2.973586   1.480759   2.096546   0.000000
    10  H    3.037877   2.079727   2.851341   1.098374   0.000000
    11  C    4.419964   2.438186   2.437740   1.524836   2.152379
    12  H    4.798011   2.760683   2.464532   2.166492   3.065697
    13  H    5.127226   3.390900   3.515331   2.160134   2.470508
    14  H    4.765110   2.634049   2.449574   2.165492   2.507713
    15  C    3.188418   2.572970   3.190726   1.559685   2.147682
    16  O    4.292129   3.436190   3.782418   2.426303   3.156597
    17  N    2.770861   3.194300   4.027152   2.471587   2.603188
    18  H    1.906404   2.908930   3.853924   2.566069   2.504559
    19  C    3.807196   4.519636   5.275027   3.837475   4.026733
    20  H    4.734332   5.066232   5.738944   4.137667   4.359322
    21  H    3.895470   4.696908   5.344255   4.279833   4.670331
    22  H    4.065096   5.177022   6.027129   4.546892   4.512768
                   11         12         13         14         15
    11  C    0.000000
    12  H    1.094261   0.000000
    13  H    1.092039   1.758850   0.000000
    14  H    1.095538   1.792536   1.777056   0.000000
    15  C    2.532561   2.766654   2.762486   3.492167   0.000000
    16  O    2.756189   2.610570   2.778799   3.840650   1.228425
    17  N    3.745589   4.097034   3.922047   4.592421   1.356652
    18  H    4.038600   4.492820   4.378797   4.705305   2.018586
    19  C    4.955260   5.134231   5.004687   5.898236   2.437293
    20  H    4.984797   5.108450   4.827544   6.004212   2.634307
    21  H    5.377309   5.365183   5.572870   6.326993   2.883787
    22  H    5.769741   6.072969   5.783400   6.644068   3.314320
                   16         17         18         19         20
    16  O    0.000000
    17  N    2.279408   0.000000
    18  H    3.130233   1.018757   0.000000
    19  C    2.782433   1.454217   2.135850   0.000000
    20  H    2.560159   2.085064   2.985248   1.091719   0.000000
    21  H    3.059440   2.128991   2.640621   1.098431   1.772234
    22  H    3.809868   2.084014   2.407723   1.093018   1.783688
                   21         22
    21  H    0.000000
    22  H    1.783226   0.000000
 Stoichiometry    C6H12N2O2
 Framework group  C1[X(C6H12N2O2)]
 Deg. of freedom    60
 Full point group                 C1      NOp   1
 Largest Abelian subgroup         C1      NOp   1
 Largest concise Abelian subgroup C1      NOp   1
                         Standard orientation:                         
 ---------------------------------------------------------------------
 Center     Atomic      Atomic             Coordinates (Angstroms)
 Number     Number       Type             X           Y           Z
 ---------------------------------------------------------------------
      1          1           0       -3.747824   -1.316015    0.186995
      2          6           0       -3.074911   -0.636828    0.715195
      3          1           0       -2.848220   -1.085032    1.689595
      4          1           0       -3.581493    0.318982    0.881595
      5          6           0       -1.786009   -0.511453   -0.082905
      6          8           0       -1.299027   -1.487062   -0.654505
      7          7           0       -1.263384    0.749237   -0.152005
      8          1           0       -1.699571    1.422046    0.466695
      9          6           0        0.113923    1.127011   -0.543105
     10          1           0        0.182120    0.979609   -1.629405
     11          6           0        0.317451    2.604107   -0.223905
     12          1           0        0.329455    2.765006    0.858395
     13          1           0        1.280858    2.943588   -0.610105
     14          1           0       -0.475237    3.206222   -0.681405
     15          6           0        1.253107    0.272089    0.092495
     16          8           0        1.992416    0.754574    0.946695
     17          7           0        1.413783   -0.971814   -0.424605
     18          1           0        0.591375   -1.372599   -0.872805
     19          6           0        2.404465   -1.875634    0.137895
     20          1           0        3.334576   -1.328651    0.303895
     21          1           0        2.083257   -2.299727    1.098895
     22          1           0        2.582649   -2.691237   -0.567605
 ---------------------------------------------------------------------
 Rotational constants (GHZ):      1.6457923      1.0300201      0.7141533
 Standard basis: Aug-CC-pVDZ (5D, 7F)
 There are   338 symmetry adapted basis functions of A   symmetry.
 Integral buffers will be    131072 words long.
 Raffenetti 1 integral format.
 Two-electron integral symmetry is turned on.
   338 basis functions,   562 primitive gaussians,   358 cartesian basis functions
    39 alpha electrons       39 beta electrons
       nuclear repulsion energy       561.0949649810 Hartrees.
 NAtoms=   22 NActive=   22 NUniq=   22 SFac= 7.50D-01 NAtFMM=   80 NAOKFM=F Big=F
 One-electron integrals computed using PRISM.
 NBasis=   338 RedAO= T  NBF=   338
 NBsUse=   338 1.00D-06 NBFU=   338
 Harris functional with IExCor=  205 diagonalized for initial guess.
 ExpMin= 2.97D-02 ExpMax= 1.17D+04 ExpMxC= 4.01D+02 IAcc=3 IRadAn=         0 AccDes= 0.00D+00
 HarFok:  IExCor=  205 AccDes= 0.00D+00 IRadAn=         0 IDoV= 1
 ScaDFX=  1.000000  1.000000  1.000000  1.000000
 FoFCou: FMM=F IPFlag=           0 FMFlag=      100000 FMFlg1=           0
         NFxFlg=           0 DoJE=T BraDBF=F KetDBF=T FulRan=T
         Omega=  0.000000  0.000000  1.000000  0.000000  0.000000 ICntrl=     500 IOpCl=  0
         NMat0=    1 NMatS0=    1 NMatT0=    0 NMatD0=    1 NMtDS0=    0 NMtDT0=    0
         I1Cent=           4 NGrid=           0.
 Petite list used in FoFCou.
 Initial guess orbital symmetries:
       Occupied  (A) (A) (A) (A) (A) (A) (A) (A) (A) (A) (A) (A)
                 (A) (A) (A) (A) (A) (A) (A) (A) (A) (A) (A) (A)
                 (A) (A) (A) (A) (A) (A) (A) (A) (A) (A) (A) (A)
                 (A) (A) (A)
       Virtual   (A) (A) (A) (A) (A) (A) (A) (A) (A) (A) (A) (A)
                 (A) (A) (A) (A) (A) (A) (A) (A) (A) (A) (A) (A)
                 (A) (A) (A) (A) (A) (A) (A) (A) (A) (A) (A) (A)
                 (A) (A) (A) (A) (A) (A) (A) (A) (A) (A) (A) (A)
                 (A) (A) (A) (A) (A) (A) (A) (A) (A) (A) (A) (A)
                 (A) (A) (A) (A) (A) (A) (A) (A) (A) (A) (A) (A)
                 (A) (A) (A) (A) (A) (A) (A) (A) (A) (A) (A) (A)
                 (A) (A) (A) (A) (A) (A) (A) (A) (A) (A) (A) (A)
                 (A) (A) (A) (A) (A) (A) (A) (A) (A) (A) (A) (A)
                 (A) (A) (A) (A) (A) (A) (A) (A) (A) (A) (A) (A)
                 (A) (A) (A) (A) (A) (A) (A) (A) (A) (A) (A) (A)
                 (A) (A) (A) (A) (A) (A) (A) (A) (A) (A) (A) (A)
                 (A) (A) (A) (A) (A) (A) (A) (A) (A) (A) (A) (A)
                 (A) (A) (A) (A) (A) (A) (A) (A) (A) (A) (A) (A)
                 (A) (A) (A) (A) (A) (A) (A) (A) (A) (A) (A) (A)
                 (A) (A) (A) (A) (A) (A) (A) (A) (A) (A) (A) (A)
                 (A) (A) (A) (A) (A) (A) (A) (A) (A) (A) (A) (A)
                 (A) (A) (A) (A) (A) (A) (A) (A) (A) (A) (A) (A)
                 (A) (A) (A) (A) (A) (A) (A) (A) (A) (A) (A) (A)
                 (A) (A) (A) (A) (A) (A) (A) (A) (A) (A) (A) (A)
                 (A) (A) (A) (A) (A) (A) (A) (A) (A) (A) (A) (A)
                 (A) (A) (A) (A) (A) (A) (A) (A) (A) (A) (A) (A)
                 (A) (A) (A) (A) (A) (A) (A) (A) (A) (A) (A) (A)
                 (A) (A) (A) (A) (A) (A) (A) (A) (A) (A) (A) (A)
                 (A) (A) (A) (A) (A) (A) (A) (A) (A) (A) (A)
 The electronic state of the initial guess is 1-A.
 Requested convergence on RMS density matrix=1.00D-08 within 128 cycles.
 Requested convergence on MAX density matrix=1.00D-06.
 Requested convergence on             energy=1.00D-06.
 No special actions if energy rises.
 Initial convergence to 1.0D-05 achieved.  Increase integral accuracy.
 SCF Done:  E(RHF) =  -492.920643608     A.U. after   14 cycles
             Convg  =    0.8861D-08             -V/T =  2.0017
 ExpMin= 2.97D-02 ExpMax= 1.17D+04 ExpMxC= 4.01D+02 IAcc=3 IRadAn=         5 AccDes= 0.00D+00
 HarFok:  IExCor=  205 AccDes= 0.00D+00 IRadAn=         5 IDoV=-2
 ScaDFX=  1.000000  1.000000  1.000000  1.000000
 Range of M.O.s used for correlation:    11   338
 NBasis=   338 NAE=    39 NBE=    39 NFC=    10 NFV=     0
 NROrb=    328 NOA=    29 NOB=    29 NVA=   299 NVB=   299

 **** Warning!!: The largest alpha MO coefficient is  0.58389315D+02

 Disk-based method using OVN memory for 29 occupieds at a time.
 Estimated scratch disk usage=  1389197224 words.
 Actual    scratch disk usage=  1376215254 words.
 JobTyp=1 Pass  1:  I=   1 to  29 NPSUse=  8 ParTrn=T ParDer=T DoDerP=F.
 Spin components of T(2) and E(2):
     alpha-alpha T2 =       0.6813713227D-01 E2=     -0.2062333399D+00
     alpha-beta  T2 =       0.3774812446D+00 E2=     -0.1191560246D+01
     beta-beta   T2 =       0.6813713227D-01 E2=     -0.2062333399D+00
 ANorm=    0.1230347719D+01
 E2 =    -0.1604026926D+01 EUMP2 =    -0.49452467053460D+03

 **********************************************************************

            Population analysis using the SCF density.

 **********************************************************************

 Orbital symmetries:
       Occupied  (A) (A) (A) (A) (A) (A) (A) (A) (A) (A) (A) (A)
                 (A) (A) (A) (A) (A) (A) (A) (A) (A) (A) (A) (A)
                 (A) (A) (A) (A) (A) (A) (A) (A) (A) (A) (A) (A)
                 (A) (A) (A)
       Virtual   (A) (A) (A) (A) (A) (A) (A) (A) (A) (A) (A) (A)
                 (A) (A) (A) (A) (A) (A) (A) (A) (A) (A) (A) (A)
                 (A) (A) (A) (A) (A) (A) (A) (A) (A) (A) (A) (A)
                 (A) (A) (A) (A) (A) (A) (A) (A) (A) (A) (A) (A)
                 (A) (A) (A) (A) (A) (A) (A) (A) (A) (A) (A) (A)
                 (A) (A) (A) (A) (A) (A) (A) (A) (A) (A) (A) (A)
                 (A) (A) (A) (A) (A) (A) (A) (A) (A) (A) (A) (A)
                 (A) (A) (A) (A) (A) (A) (A) (A) (A) (A) (A) (A)
                 (A) (A) (A) (A) (A) (A) (A) (A) (A) (A) (A) (A)
                 (A) (A) (A) (A) (A) (A) (A) (A) (A) (A) (A) (A)
                 (A) (A) (A) (A) (A) (A) (A) (A) (A) (A) (A) (A)
                 (A) (A) (A) (A) (A) (A) (A) (A) (A) (A) (A) (A)
                 (A) (A) (A) (A) (A) (A) (A) (A) (A) (A) (A) (A)
                 (A) (A) (A) (A) (A) (A) (A) (A) (A) (A) (A) (A)
                 (A) (A) (A) (A) (A) (A) (A) (A) (A) (A) (A) (A)
                 (A) (A) (A) (A) (A) (A) (A) (A) (A) (A) (A) (A)
                 (A) (A) (A) (A) (A) (A) (A) (A) (A) (A) (A) (A)
                 (A) (A) (A) (A) (A) (A) (A) (A) (A) (A) (A) (A)
                 (A) (A) (A) (A) (A) (A) (A) (A) (A) (A) (A) (A)
                 (A) (A) (A) (A) (A) (A) (A) (A) (A) (A) (A) (A)
                 (A) (A) (A) (A) (A) (A) (A) (A) (A) (A) (A) (A)
                 (A) (A) (A) (A) (A) (A) (A) (A) (A) (A) (A) (A)
                 (A) (A) (A) (A) (A) (A) (A) (A) (A) (A) (A) (A)
                 (A) (A) (A) (A) (A) (A) (A) (A) (A) (A) (A) (A)
                 (A) (A) (A) (A) (A) (A) (A) (A) (A) (A) (A)
 The electronic state is 1-A.
 Alpha  occ. eigenvalues --  -20.54818 -20.52651 -15.61418 -15.57418 -11.38100
 Alpha  occ. eigenvalues --  -11.35175 -11.30013 -11.25880 -11.25563 -11.23880
 Alpha  occ. eigenvalues --   -1.40103  -1.37680  -1.25218  -1.21813  -1.06185
 Alpha  occ. eigenvalues --   -1.00060  -0.95252  -0.87200  -0.81438  -0.76753
 Alpha  occ. eigenvalues --   -0.71930  -0.69518  -0.67463  -0.63732  -0.62163
 Alpha  occ. eigenvalues --   -0.61282  -0.59962  -0.59258  -0.57792  -0.54645
 Alpha  occ. eigenvalues --   -0.54351  -0.53502  -0.52749  -0.51778  -0.50892
 Alpha  occ. eigenvalues --   -0.45012  -0.43822  -0.39935  -0.37642
 Alpha virt. eigenvalues --    0.02681   0.04052   0.04311   0.04715   0.05652
 Alpha virt. eigenvalues --    0.06089   0.06499   0.06810   0.07310   0.08144
 Alpha virt. eigenvalues --    0.09155   0.10043   0.11141   0.11763   0.12962
 Alpha virt. eigenvalues --    0.13393   0.13666   0.14640   0.14912   0.15443
 Alpha virt. eigenvalues --    0.15728   0.15930   0.16301   0.16434   0.16845
 Alpha virt. eigenvalues --    0.17582   0.18149   0.18416   0.18852   0.19315
 Alpha virt. eigenvalues --    0.19695   0.19899   0.21042   0.21575   0.22973
 Alpha virt. eigenvalues --    0.23193   0.23576   0.24413   0.25130   0.26543
 Alpha virt. eigenvalues --    0.27656   0.28912   0.29359   0.30038   0.31063
 Alpha virt. eigenvalues --    0.31966   0.32234   0.32844   0.33111   0.33545
 Alpha virt. eigenvalues --    0.34159   0.34756   0.35473   0.36112   0.36697
 Alpha virt. eigenvalues --    0.37054   0.37871   0.38239   0.39472   0.39953
 Alpha virt. eigenvalues --    0.40507   0.41010   0.41487   0.42561   0.43093
 Alpha virt. eigenvalues --    0.43690   0.44466   0.44874   0.45625   0.46147
 Alpha virt. eigenvalues --    0.46407   0.46735   0.47595   0.48999   0.49146
 Alpha virt. eigenvalues --    0.49851   0.50113   0.51096   0.51912   0.53110
 Alpha virt. eigenvalues --    0.53502   0.53912   0.54045   0.55809   0.55938
 Alpha virt. eigenvalues --    0.56285   0.57149   0.57546   0.58128   0.59396
 Alpha virt. eigenvalues --    0.59425   0.60331   0.61632   0.62015   0.62248
 Alpha virt. eigenvalues --    0.63149   0.63870   0.64406   0.64816   0.65241
 Alpha virt. eigenvalues --    0.66034   0.66300   0.67154   0.67690   0.68669
 Alpha virt. eigenvalues --    0.69321   0.69707   0.70161   0.70836   0.71333
 Alpha virt. eigenvalues --    0.72043   0.72940   0.73554   0.74738   0.75040
 Alpha virt. eigenvalues --    0.76368   0.77180   0.77860   0.78316   0.78877
 Alpha virt. eigenvalues --    0.80082   0.80645   0.82050   0.82224   0.84356
 Alpha virt. eigenvalues --    0.85578   0.86105   0.86988   0.87856   0.89071
 Alpha virt. eigenvalues --    0.89494   0.90083   0.90430   0.91300   0.91976
 Alpha virt. eigenvalues --    0.93799   0.95690   0.96351   0.97907   0.98997
 Alpha virt. eigenvalues --    0.99651   1.00378   1.01953   1.03949   1.05866
 Alpha virt. eigenvalues --    1.07132   1.07957   1.08686   1.09579   1.11877
 Alpha virt. eigenvalues --    1.12726   1.13184   1.13997   1.14749   1.16139
 Alpha virt. eigenvalues --    1.17874   1.18125   1.20210   1.22086   1.22516
 Alpha virt. eigenvalues --    1.23518   1.24278   1.26098   1.28722   1.29864
 Alpha virt. eigenvalues --    1.30594   1.32575   1.34904   1.38395   1.38760
 Alpha virt. eigenvalues --    1.39349   1.42311   1.44781   1.45402   1.46985
 Alpha virt. eigenvalues --    1.49290   1.51207   1.51710   1.53021   1.55037
 Alpha virt. eigenvalues --    1.56891   1.58224   1.60559   1.62903   1.64285
 Alpha virt. eigenvalues --    1.65394   1.68536   1.69744   1.70012   1.74397
 Alpha virt. eigenvalues --    1.74738   1.76843   1.77525   1.78150   1.80645
 Alpha virt. eigenvalues --    1.82112   1.83096   1.84377   1.86483   1.87658
 Alpha virt. eigenvalues --    1.89260   1.89538   1.91379   1.92784   1.94828
 Alpha virt. eigenvalues --    1.96126   1.97109   1.97944   1.99622   2.00620
 Alpha virt. eigenvalues --    2.02407   2.04009   2.05027   2.08267   2.09311
 Alpha virt. eigenvalues --    2.10374   2.11951   2.13688   2.14908   2.15710
 Alpha virt. eigenvalues --    2.18095   2.19417   2.21649   2.22768   2.24082
 Alpha virt. eigenvalues --    2.25261   2.26738   2.27662   2.28121   2.29766
 Alpha virt. eigenvalues --    2.31730   2.32098   2.34182   2.35404   2.36971
 Alpha virt. eigenvalues --    2.37805   2.38835   2.41931   2.43401   2.45190
 Alpha virt. eigenvalues --    2.45343   2.47303   2.49043   2.49629   2.51539
 Alpha virt. eigenvalues --    2.52847   2.54317   2.56368   2.58780   2.60775
 Alpha virt. eigenvalues --    2.61584   2.63866   2.66219   2.68035   2.68374
 Alpha virt. eigenvalues --    2.70169   2.72439   2.77541   2.78213   2.80948
 Alpha virt. eigenvalues --    2.82514   2.83835   2.86118   2.87737   2.89358
 Alpha virt. eigenvalues --    2.90990   2.91832   2.91925   2.95843   2.97071
 Alpha virt. eigenvalues --    3.01069   3.02126   3.03883   3.07351   3.10157
 Alpha virt. eigenvalues --    3.10519   3.12746   3.19058   3.20671   3.23712
 Alpha virt. eigenvalues --    3.32840   3.37936   3.44059   3.49677   3.52269
 Alpha virt. eigenvalues --    3.61829   3.66929   3.77123   3.82455   3.87133
 Alpha virt. eigenvalues --    3.88185   3.90236   3.91082   3.96991   4.04349
 Alpha virt. eigenvalues --    4.08226   4.15929   4.22763   4.22898
          Condensed to atoms (all electrons):
              1          2          3          4          5          6
     1  H    0.777786   0.412837  -0.051049  -0.111368  -0.093237   0.015826
     2  C    0.412837   4.531439   0.347467   0.266704   0.162122  -0.033885
     3  H   -0.051049   0.347467   0.736263  -0.062241  -0.084240   0.014523
     4  H   -0.111368   0.266704  -0.062241   1.067463   0.183945  -0.003146
     5  C   -0.093237   0.162122  -0.084240   0.183945   5.530043   0.145265
     6  O    0.015826  -0.033885   0.014523  -0.003146   0.145265   8.791412
     7  N    0.050305   0.002883   0.040686  -0.185329   0.066092  -0.114209
     8  H   -0.002722  -0.056641  -0.009926   0.009440  -0.057371  -0.007550
     9  C   -0.009847   0.065856   0.022974  -0.028305  -0.378094   0.082860
    10  H   -0.002443  -0.006884   0.001078  -0.001082  -0.011713   0.014713
    11  C    0.000744  -0.031659  -0.001576  -0.008355  -0.016874   0.009180
    12  H   -0.000215  -0.007799  -0.000832  -0.001189  -0.010394   0.001546
    13  H    0.000055   0.000607   0.000006  -0.000160   0.003614  -0.000378
    14  H    0.000186   0.007245   0.000367   0.000281  -0.012647   0.001155
    15  C    0.001260  -0.022952  -0.000591  -0.011546  -0.101476   0.011814
    16  O   -0.000053   0.001198   0.000691   0.000380   0.031019  -0.003669
    17  N    0.001148   0.000174  -0.003478   0.004034   0.024685  -0.029580
    18  H   -0.001636  -0.016385  -0.001596   0.003351  -0.007212   0.005031
    19  C   -0.000290  -0.004215  -0.000463  -0.000069   0.011034  -0.009094
    20  H   -0.000090   0.001212   0.000106   0.000042  -0.004803  -0.002152
    21  H   -0.000142  -0.000470  -0.000101   0.000233   0.004001   0.001332
    22  H    0.000072  -0.001818  -0.000124  -0.000186   0.001925   0.003231
              7          8          9         10         11         12
     1  H    0.050305  -0.002722  -0.009847  -0.002443   0.000744  -0.000215
     2  C    0.002883  -0.056641   0.065856  -0.006884  -0.031659  -0.007799
     3  H    0.040686  -0.009926   0.022974   0.001078  -0.001576  -0.000832
     4  H   -0.185329   0.009440  -0.028305  -0.001082  -0.008355  -0.001189
     5  C    0.066092  -0.057371  -0.378094  -0.011713  -0.016874  -0.010394
     6  O   -0.114209  -0.007550   0.082860   0.014713   0.009180   0.001546
     7  N    7.378995   0.426217  -0.156296  -0.000929  -0.074044   0.005361
     8  H    0.426217   0.897196  -0.285054   0.016889   0.003239   0.013457
     9  C   -0.156296  -0.285054   7.480309  -0.288164   0.136302  -0.175437
    10  H   -0.000929   0.016889  -0.288164   1.326585  -0.013884   0.060542
    11  C   -0.074044   0.003239   0.136302  -0.013884   4.436853   0.430287
    12  H    0.005361   0.013457  -0.175437   0.060542   0.430287   0.976486
    13  H    0.042976   0.001663   0.023058  -0.058238   0.207608  -0.150898
    14  H   -0.059226  -0.012491   0.205466  -0.051021   0.234116  -0.207065
    15  C    0.159474   0.047652  -0.812422   0.210586   0.020922   0.048245
    16  O    0.013279  -0.001703  -0.052527  -0.016203  -0.054133   0.001376
    17  N   -0.003047   0.014941   0.105799  -0.036452  -0.016188  -0.004278
    18  H   -0.016573  -0.003147  -0.009738   0.028860   0.010440   0.000885
    19  C    0.016045   0.005709  -0.101052   0.012368   0.007132   0.001898
    20  H   -0.001252  -0.000012   0.009490   0.003411  -0.006469  -0.000880
    21  H    0.001248   0.000753   0.010508   0.000261   0.001660   0.000046
    22  H    0.001396  -0.000085  -0.017983  -0.002125   0.003823   0.000584
             13         14         15         16         17         18
     1  H    0.000055   0.000186   0.001260  -0.000053   0.001148  -0.001636
     2  C    0.000607   0.007245  -0.022952   0.001198   0.000174  -0.016385
     3  H    0.000006   0.000367  -0.000591   0.000691  -0.003478  -0.001596
     4  H   -0.000160   0.000281  -0.011546   0.000380   0.004034   0.003351
     5  C    0.003614  -0.012647  -0.101476   0.031019   0.024685  -0.007212
     6  O   -0.000378   0.001155   0.011814  -0.003669  -0.029580   0.005031
     7  N    0.042976  -0.059226   0.159474   0.013279  -0.003047  -0.016573
     8  H    0.001663  -0.012491   0.047652  -0.001703   0.014941  -0.003147
     9  C    0.023058   0.205466  -0.812422  -0.052527   0.105799  -0.009738
    10  H   -0.058238  -0.051021   0.210586  -0.016203  -0.036452   0.028860
    11  C    0.207608   0.234116   0.020922  -0.054133  -0.016188   0.010440
    12  H   -0.150898  -0.207065   0.048245   0.001376  -0.004278   0.000885
    13  H    1.249361  -0.225339   0.013730   0.009752  -0.002917   0.002627
    14  H   -0.225339   1.209792  -0.068229   0.011060   0.008950  -0.001801
    15  C    0.013730  -0.068229   5.272502   0.275036   0.151632  -0.049321
    16  O    0.009752   0.011060   0.275036   8.772543  -0.158694   0.003346
    17  N   -0.002917   0.008950   0.151632  -0.158694   7.170241   0.201596
    18  H    0.002627  -0.001801  -0.049321   0.003346   0.201596   0.942689
    19  C    0.002112  -0.000627  -0.055529   0.014938   0.185092  -0.123429
    20  H   -0.000147  -0.000069   0.054860  -0.028804  -0.063156   0.001591
    21  H    0.000559  -0.000067  -0.010246   0.004226   0.108894  -0.017524
    22  H   -0.000370   0.000176  -0.026565   0.012756  -0.151543   0.030935
             19         20         21         22
     1  H   -0.000290  -0.000090  -0.000142   0.000072
     2  C   -0.004215   0.001212  -0.000470  -0.001818
     3  H   -0.000463   0.000106  -0.000101  -0.000124
     4  H   -0.000069   0.000042   0.000233  -0.000186
     5  C    0.011034  -0.004803   0.004001   0.001925
     6  O   -0.009094  -0.002152   0.001332   0.003231
     7  N    0.016045  -0.001252   0.001248   0.001396
     8  H    0.005709  -0.000012   0.000753  -0.000085
     9  C   -0.101052   0.009490   0.010508  -0.017983
    10  H    0.012368   0.003411   0.000261  -0.002125
    11  C    0.007132  -0.006469   0.001660   0.003823
    12  H    0.001898  -0.000880   0.000046   0.000584
    13  H    0.002112  -0.000147   0.000559  -0.000370
    14  H   -0.000627  -0.000069  -0.000067   0.000176
    15  C   -0.055529   0.054860  -0.010246  -0.026565
    16  O    0.014938  -0.028804   0.004226   0.012756
    17  N    0.185092  -0.063156   0.108894  -0.151543
    18  H   -0.123429   0.001591  -0.017524   0.030935
    19  C    4.129132   0.425500   0.251079   0.455348
    20  H    0.425500   1.022117  -0.103867  -0.184372
    21  H    0.251079  -0.103867   0.970667  -0.159725
    22  H    0.455348  -0.184372  -0.159725   1.207356
 Mulliken atomic charges:
              1
     1  H    0.012872
     2  C    0.382964
     3  H    0.052056
     4  H   -0.122895
     5  C    0.614316
     6  O   -0.894222
     7  N   -0.594051
     8  H   -0.000455
     9  C    0.172298
    10  H   -0.186154
    11  C    0.720876
    12  H    0.018276
    13  H   -0.119278
    14  H   -0.040213
    15  C    0.891165
    16  O   -0.835812
    17  N   -0.507854
    18  H    0.017013
    19  C    0.777381
    20  H   -0.122254
    21  H   -0.063323
    22  H   -0.172704
 Sum of Mulliken atomic charges =   0.00000
 Mulliken charges with hydrogens summed into heavy atoms:
              1
     2  C    0.324996
     5  C    0.614316
     6  O   -0.894222
     7  N   -0.594506
     9  C   -0.013856
    11  C    0.579661
    15  C    0.891165
    16  O   -0.835812
    17  N   -0.490841
    19  C    0.419099
 Sum of Mulliken charges with hydrogens summed into heavy atoms =   0.00000
 Electronic spatial extent (au):  <R**2>=           1695.5089
 Charge=              0.0000 electrons
 Dipole moment (field-independent basis, Debye):
    X=             -3.3935    Y=              1.1243    Z=             -0.1347  Tot=              3.5775
 Quadrupole moment (field-independent basis, Debye-Ang):
   XX=            -59.2949   YY=            -60.1747   ZZ=            -63.3751
   XY=             -7.5018   XZ=             -8.4394   YZ=             -3.8156
 Traceless Quadrupole moment (field-independent basis, Debye-Ang):
   XX=              1.6533   YY=              0.7736   ZZ=             -2.4269
   XY=             -7.5018   XZ=             -8.4394   YZ=             -3.8156
 Octapole moment (field-independent basis, Debye-Ang**2):
  XXX=            -31.3584  YYY=              5.6379  ZZZ=             -0.7354  XYY=              7.1319
  XXY=            -11.7938  XXZ=             -0.0538  XZZ=             -5.9022  YZZ=             -2.1575
  YYZ=              1.5946  XYZ=             -2.8298
 Hexadecapole moment (field-independent basis, Debye-Ang**3):
 XXXX=          -1193.9069 YYYY=           -792.2817 ZZZZ=           -186.0708 XXXY=            -10.9749
 XXXZ=            -25.4493 YYYX=            -21.3980 YYYZ=              3.0953 ZZZX=             -3.6612
 ZZZY=             -0.5947 XXYY=           -329.5410 XXZZ=           -253.4122 YYZZ=           -161.0944
 XXYZ=            -10.1951 YYXZ=            -14.2227 ZZXY=             -2.5504
 N-N= 5.610949649810D+02 E-N=-2.277419327888D+03  KE= 4.920690626002D+02
 1\1\GINC-NODE005\SP\RMP2-FC\Aug-CC-pVDZ\C6H12N2O2\MANAGER\13-Feb-2017\
 0\\#SP MP2/aug-cc-pVDZ\\Single Point calculation at MP2\\0,1\H,0,-3.74
 78,-1.3161,0.187\C,0,-3.0749,-0.6369,0.7152\H,0,-2.8482,-1.0851,1.6896
 \H,0,-3.5815,0.3189,0.8816\C,0,-1.786,-0.5115,-0.0829\O,0,-1.299,-1.48
 71,-0.6545\N,0,-1.2634,0.7492,-0.152\H,0,-1.6996,1.422,0.4667\C,0,0.11
 39,1.127,-0.5431\H,0,0.1821,0.9796,-1.6294\C,0,0.3174,2.6041,-0.2239\H
 ,0,0.3294,2.765,0.8584\H,0,1.2808,2.9436,-0.6101\H,0,-0.4753,3.2062,-0
 .6814\C,0,1.2531,0.2721,0.0925\O,0,1.9924,0.7546,0.9467\N,0,1.4138,-0.
 9718,-0.4246\H,0,0.5914,-1.3726,-0.8728\C,0,2.4045,-1.8756,0.1379\H,0,
 3.3346,-1.3286,0.3039\H,0,2.0833,-2.2997,1.0989\H,0,2.5827,-2.6912,-0.
 5676\\Version=EM64L-G09RevA.02\State=1-A\HF=-492.9206436\MP2=-494.5246
 705\RMSD=8.861e-09\PG=C01 [X(C6H12N2O2)]\\@


 Sometimes the fool who rushes in gets the job done.
                                    -- Al Bernstein
 Job cpu time:  0 days 15 hours 44 minutes 31.0 seconds.
 File lengths (MBytes):  RWF=  10616 Int=      0 D2E=      0 Chk=      7 Scr=      2
 Normal termination of Gaussian 09 at Mon Feb 13 20:10:53 2017.
