 Entering Gaussian System, Link 0=g09
 Initial command:
 /home/steboss/Software/g09/l1.exe /tmp/Gau-2111.inp -scrdir=/tmp/
 Entering Link 1 = /home/steboss/Software/g09/l1.exe PID=      2113.
  
 Copyright (c) 1988,1990,1992,1993,1995,1998,2003,2009, Gaussian, Inc.
                  All Rights Reserved.
  
 This is part of the Gaussian(R) 09 program.  It is based on
 the Gaussian(R) 03 system (copyright 2003, Gaussian, Inc.),
 the Gaussian(R) 98 system (copyright 1998, Gaussian, Inc.),
 the Gaussian(R) 94 system (copyright 1995, Gaussian, Inc.),
 the Gaussian 92(TM) system (copyright 1992, Gaussian, Inc.),
 the Gaussian 90(TM) system (copyright 1990, Gaussian, Inc.),
 the Gaussian 88(TM) system (copyright 1988, Gaussian, Inc.),
 the Gaussian 86(TM) system (copyright 1986, Carnegie Mellon
 University), and the Gaussian 82(TM) system (copyright 1983,
 Carnegie Mellon University). Gaussian is a federally registered
 trademark of Gaussian, Inc.
  
 This software contains proprietary and confidential information,
 including trade secrets, belonging to Gaussian, Inc.
  
 This software is provided under written license and may be
 used, copied, transmitted, or stored only in accord with that
 written license.
  
 The following legend is applicable only to US Government
 contracts under FAR:
  
                    RESTRICTED RIGHTS LEGEND
  
 Use, reproduction and disclosure by the US Government is
 subject to restrictions as set forth in subparagraphs (a)
 and (c) of the Commercial Computer Software - Restricted
 Rights clause in FAR 52.227-19.
  
 Gaussian, Inc.
 340 Quinnipiac St., Bldg. 40, Wallingford CT 06492
  
  
 ---------------------------------------------------------------
 Warning -- This program may not be used in any manner that
 competes with the business of Gaussian, Inc. or will provide
 assistance to any competitor of Gaussian, Inc.  The licensee
 of this program is prohibited from giving any competitor of
 Gaussian, Inc. access to this program.  By using this program,
 the user acknowledges that Gaussian, Inc. is engaged in the
 business of creating and licensing software in the field of
 computational chemistry and represents and warrants to the
 licensee that it is not a competitor of Gaussian, Inc. and that
 it will not use this program in any manner prohibited above.
 ---------------------------------------------------------------
  

 Cite this work as:
 Gaussian 09, Revision A.02,
 M. J. Frisch, G. W. Trucks, H. B. Schlegel, G. E. Scuseria, 
 M. A. Robb, J. R. Cheeseman, G. Scalmani, V. Barone, B. Mennucci, 
 G. A. Petersson, H. Nakatsuji, M. Caricato, X. Li, H. P. Hratchian, 
 A. F. Izmaylov, J. Bloino, G. Zheng, J. L. Sonnenberg, M. Hada, 
 M. Ehara, K. Toyota, R. Fukuda, J. Hasegawa, M. Ishida, T. Nakajima, 
 Y. Honda, O. Kitao, H. Nakai, T. Vreven, J. A. Montgomery, Jr., 
 J. E. Peralta, F. Ogliaro, M. Bearpark, J. J. Heyd, E. Brothers, 
 K. N. Kudin, V. N. Staroverov, R. Kobayashi, J. Normand, 
 K. Raghavachari, A. Rendell, J. C. Burant, S. S. Iyengar, J. Tomasi, 
 M. Cossi, N. Rega, J. M. Millam, M. Klene, J. E. Knox, J. B. Cross, 
 V. Bakken, C. Adamo, J. Jaramillo, R. Gomperts, R. E. Stratmann, 
 O. Yazyev, A. J. Austin, R. Cammi, C. Pomelli, J. W. Ochterski, 
 R. L. Martin, K. Morokuma, V. G. Zakrzewski, G. A. Voth, 
 P. Salvador, J. J. Dannenberg, S. Dapprich, A. D. Daniels, 
 O. Farkas, J. B. Foresman, J. V. Ortiz, J. Cioslowski, 
 and D. J. Fox, Gaussian, Inc., Wallingford CT, 2009.
 
 ******************************************
 Gaussian 09:  EM64L-G09RevA.02 11-Jun-2009
                 9-Feb-2017 
 ******************************************
 %chk=structure_225.chk
 %NProcShared=8
 Will use up to    8 processors via shared memory.
 -------------------------------------------
 # HF/6-31G* Opt=(ModRedundant) geom=nocrowd
 -------------------------------------------
 1/18=120,19=15,38=1/1,3;
 2/9=110,12=1,17=6,18=5,40=1/2;
 3/5=1,6=6,7=1,11=9,16=1,25=1,30=1,71=1/1,2,3;
 4//1;
 5/5=2,38=5/2;
 6/7=2,8=2,9=2,10=2,28=1/1;
 7//1,2,3,16;
 1/18=20,19=15/3(2);
 2/9=110,12=1/2;
 99//99;
 2/9=110,12=1/2;
 3/5=1,6=6,7=1,11=9,16=1,25=1,30=1,71=1/1,2,3;
 4/5=5,16=3/1;
 5/5=2,38=5/2;
 7//1,2,3,16;
 1/18=20,19=15/3(-5);
 2/9=110,12=1/2;
 6/7=2,8=2,9=2,10=2,19=2,28=1/1;
 99/9=1/99;
 ------------------
 Phi Psi fixed scan
 ------------------
 Symbolic Z-matrix:
 Charge =  0 Multiplicity = 1
 H                     1.3513    2.3068   -1.9013 
 C                     1.6731    2.7486   -0.9582 
 H                     1.7242    1.9746   -0.1925 
 H                     0.9598    3.5143   -0.6531 
 C                     3.0539    3.3932   -1.0948 
 O                     3.6506    3.3681   -2.1689 
 N                     3.5554    3.9697    0. 
 H                     3.0267    3.9647    0.8606 
 C                     4.8533    4.6139    0. 
 H                     5.4076    4.3155    0.8898 
 C                     5.6613    4.2208   -1.2322 
 H                     5.1233    4.5214   -2.1312 
 H                     6.6305    4.7189   -1.2058 
 H                     5.8085    3.1409   -1.2414 
 C                     4.7127    6.1294    0. 
 O                     3.9095    6.6814    0.7488 
 N                     5.4979    6.8026   -0.8441 
 H                     6.143     6.3041   -1.4403 
 C                     5.4589    8.248    -0.9387 
 H                     4.72      8.6386   -0.239 
 H                     6.4402    8.6552   -0.695 
 H                     5.1871    8.539    -1.9534 
 
 The following ModRedundant input section has been read:
 D    5    7    9   15 F                                                       
 D    7    9   15   17 F                                                       

 GradGradGradGradGradGradGradGradGradGradGradGradGradGradGradGradGradGrad
 Berny optimization.
 Initialization pass.
                           ----------------------------
                           !    Initial Parameters    !
                           ! (Angstroms and Degrees)  !
 --------------------------                            --------------------------
 ! Name  Definition              Value          Derivative Info.                !
 --------------------------------------------------------------------------------
 ! R1    R(1,2)                  1.09           estimate D2E/DX2                !
 ! R2    R(2,3)                  1.0899         estimate D2E/DX2                !
 ! R3    R(2,4)                  1.09           estimate D2E/DX2                !
 ! R4    R(2,5)                  1.53           estimate D2E/DX2                !
 ! R5    R(5,6)                  1.229          estimate D2E/DX2                !
 ! R6    R(5,7)                  1.3351         estimate D2E/DX2                !
 ! R7    R(7,8)                  1.01           estimate D2E/DX2                !
 ! R8    R(7,9)                  1.449          estimate D2E/DX2                !
 ! R9    R(9,10)                 1.09           estimate D2E/DX2                !
 ! R10   R(9,11)                 1.525          estimate D2E/DX2                !
 ! R11   R(9,15)                 1.522          estimate D2E/DX2                !
 ! R12   R(11,12)                1.09           estimate D2E/DX2                !
 ! R13   R(11,13)                1.09           estimate D2E/DX2                !
 ! R14   R(11,14)                1.0899         estimate D2E/DX2                !
 ! R15   R(15,16)                1.229          estimate D2E/DX2                !
 ! R16   R(15,17)                1.335          estimate D2E/DX2                !
 ! R17   R(17,18)                1.01           estimate D2E/DX2                !
 ! R18   R(17,19)                1.449          estimate D2E/DX2                !
 ! R19   R(19,20)                1.09           estimate D2E/DX2                !
 ! R20   R(19,21)                1.09           estimate D2E/DX2                !
 ! R21   R(19,22)                1.09           estimate D2E/DX2                !
 ! A1    A(1,2,3)              109.5017         estimate D2E/DX2                !
 ! A2    A(1,2,4)              109.493          estimate D2E/DX2                !
 ! A3    A(1,2,5)              111.0973         estimate D2E/DX2                !
 ! A4    A(3,2,4)              109.4436         estimate D2E/DX2                !
 ! A5    A(3,2,5)              108.6387         estimate D2E/DX2                !
 ! A6    A(4,2,5)              108.6398         estimate D2E/DX2                !
 ! A7    A(2,5,6)              120.5054         estimate D2E/DX2                !
 ! A8    A(2,5,7)              116.5979         estimate D2E/DX2                !
 ! A9    A(6,5,7)              122.8967         estimate D2E/DX2                !
 ! A10   A(5,7,8)              119.9959         estimate D2E/DX2                !
 ! A11   A(5,7,9)              121.9004         estimate D2E/DX2                !
 ! A12   A(8,7,9)              118.1037         estimate D2E/DX2                !
 ! A13   A(7,9,10)             109.5            estimate D2E/DX2                !
 ! A14   A(7,9,11)             111.0992         estimate D2E/DX2                !
 ! A15   A(7,9,15)             111.0966         estimate D2E/DX2                !
 ! A16   A(10,9,11)            108.6382         estimate D2E/DX2                !
 ! A17   A(10,9,15)            108.6373         estimate D2E/DX2                !
 ! A18   A(11,9,15)            107.7947         estimate D2E/DX2                !
 ! A19   A(9,11,12)            109.5007         estimate D2E/DX2                !
 ! A20   A(9,11,13)            109.4959         estimate D2E/DX2                !
 ! A21   A(9,11,14)            109.4978         estimate D2E/DX2                !
 ! A22   A(12,11,13)           109.441          estimate D2E/DX2                !
 ! A23   A(12,11,14)           109.4482         estimate D2E/DX2                !
 ! A24   A(13,11,14)           109.4436         estimate D2E/DX2                !
 ! A25   A(9,15,16)            120.5029         estimate D2E/DX2                !
 ! A26   A(9,15,17)            116.6012         estimate D2E/DX2                !
 ! A27   A(16,15,17)           122.8959         estimate D2E/DX2                !
 ! A28   A(15,17,18)           120.0006         estimate D2E/DX2                !
 ! A29   A(15,17,19)           121.9013         estimate D2E/DX2                !
 ! A30   A(18,17,19)           118.0981         estimate D2E/DX2                !
 ! A31   A(17,19,20)           109.4988         estimate D2E/DX2                !
 ! A32   A(17,19,21)           109.5003         estimate D2E/DX2                !
 ! A33   A(17,19,22)           109.4985         estimate D2E/DX2                !
 ! A34   A(20,19,21)           109.444          estimate D2E/DX2                !
 ! A35   A(20,19,22)           109.4425         estimate D2E/DX2                !
 ! A36   A(21,19,22)           109.4431         estimate D2E/DX2                !
 ! D1    D(1,2,5,6)             -0.0038         estimate D2E/DX2                !
 ! D2    D(1,2,5,7)            179.9948         estimate D2E/DX2                !
 ! D3    D(3,2,5,6)            120.5106         estimate D2E/DX2                !
 ! D4    D(3,2,5,7)            -59.4908         estimate D2E/DX2                !
 ! D5    D(4,2,5,6)           -120.5082         estimate D2E/DX2                !
 ! D6    D(4,2,5,7)             59.4904         estimate D2E/DX2                !
 ! D7    D(2,5,7,8)              0.0007         estimate D2E/DX2                !
 ! D8    D(2,5,7,9)            179.9954         estimate D2E/DX2                !
 ! D9    D(6,5,7,8)            179.9993         estimate D2E/DX2                !
 ! D10   D(6,5,7,9)             -0.006          estimate D2E/DX2                !
 ! D11   D(5,7,9,10)          -134.9963         estimate D2E/DX2                !
 ! D12   D(5,7,9,11)           -14.9937         estimate D2E/DX2                !
 ! D13   D(5,7,9,15)           105.0038         Frozen                          !
 ! D14   D(8,7,9,10)            44.9985         estimate D2E/DX2                !
 ! D15   D(8,7,9,11)           165.0011         estimate D2E/DX2                !
 ! D16   D(8,7,9,15)           -75.0013         estimate D2E/DX2                !
 ! D17   D(7,9,11,12)           60.0024         estimate D2E/DX2                !
 ! D18   D(7,9,11,13)          179.9986         estimate D2E/DX2                !
 ! D19   D(7,9,11,14)          -60.0038         estimate D2E/DX2                !
 ! D20   D(10,9,11,12)        -179.4843         estimate D2E/DX2                !
 ! D21   D(10,9,11,13)         -59.4881         estimate D2E/DX2                !
 ! D22   D(10,9,11,14)          60.5095         estimate D2E/DX2                !
 ! D23   D(15,9,11,12)         -61.938          estimate D2E/DX2                !
 ! D24   D(15,9,11,13)          58.0582         estimate D2E/DX2                !
 ! D25   D(15,9,11,14)         178.0558         estimate D2E/DX2                !
 ! D26   D(7,9,15,16)           45.001          estimate D2E/DX2                !
 ! D27   D(7,9,15,17)         -134.9977         Frozen                          !
 ! D28   D(10,9,15,16)         -75.5101         estimate D2E/DX2                !
 ! D29   D(10,9,15,17)         104.4912         estimate D2E/DX2                !
 ! D30   D(11,9,15,16)         166.9431         estimate D2E/DX2                !
 ! D31   D(11,9,15,17)         -13.0557         estimate D2E/DX2                !
 ! D32   D(9,15,17,18)          -0.0065         estimate D2E/DX2                !
 ! D33   D(9,15,17,19)        -179.9968         estimate D2E/DX2                !
 ! D34   D(16,15,17,18)        179.9949         estimate D2E/DX2                !
 ! D35   D(16,15,17,19)          0.0045         estimate D2E/DX2                !
 ! D36   D(15,17,19,20)         -0.0032         estimate D2E/DX2                !
 ! D37   D(15,17,19,21)        119.9981         estimate D2E/DX2                !
 ! D38   D(15,17,19,22)       -120.0017         estimate D2E/DX2                !
 ! D39   D(18,17,19,20)       -179.9937         estimate D2E/DX2                !
 ! D40   D(18,17,19,21)        -59.9924         estimate D2E/DX2                !
 ! D41   D(18,17,19,22)         60.0078         estimate D2E/DX2                !
 --------------------------------------------------------------------------------
 Trust Radius=3.00D-01 FncErr=1.00D-07 GrdErr=1.00D-07
 Number of steps in this run= 108 maximum allowed number of steps= 132.
 GradGradGradGradGradGradGradGradGradGradGradGradGradGradGradGradGradGrad

                          Input orientation:                          
 ---------------------------------------------------------------------
 Center     Atomic      Atomic             Coordinates (Angstroms)
 Number     Number       Type             X           Y           Z
 ---------------------------------------------------------------------
      1          1           0        1.351300    2.306800   -1.901300
      2          6           0        1.673100    2.748600   -0.958200
      3          1           0        1.724200    1.974600   -0.192500
      4          1           0        0.959800    3.514300   -0.653100
      5          6           0        3.053900    3.393200   -1.094800
      6          8           0        3.650600    3.368100   -2.168900
      7          7           0        3.555400    3.969700    0.000000
      8          1           0        3.026700    3.964700    0.860600
      9          6           0        4.853300    4.613900    0.000000
     10          1           0        5.407600    4.315500    0.889800
     11          6           0        5.661300    4.220800   -1.232200
     12          1           0        5.123300    4.521400   -2.131200
     13          1           0        6.630500    4.718900   -1.205800
     14          1           0        5.808500    3.140900   -1.241400
     15          6           0        4.712700    6.129400    0.000000
     16          8           0        3.909500    6.681400    0.748800
     17          7           0        5.497900    6.802600   -0.844100
     18          1           0        6.143000    6.304100   -1.440300
     19          6           0        5.458900    8.248000   -0.938700
     20          1           0        4.720000    8.638600   -0.239000
     21          1           0        6.440200    8.655200   -0.695000
     22          1           0        5.187100    8.539000   -1.953400
 ---------------------------------------------------------------------
                    Distance matrix (angstroms):
                    1          2          3          4          5
     1  H    0.000000
     2  C    1.090037   0.000000
     3  H    1.780283   1.089947   0.000000
     4  H    1.780262   1.090036   1.779645   0.000000
     5  C    2.174754   1.529960   2.143519   2.143600   0.000000
     6  O    2.546517   2.400017   3.091766   3.091833   1.228972
     7  N    3.352348   2.439731   2.714917   2.714971   1.335081
     8  H    3.630935   2.572774   2.601158   2.601197   2.037386
     9  C    4.604526   3.809352   4.098076   4.098171   2.434448
    10  H    5.317771   4.451603   4.496512   4.775499   3.213904
    11  C    4.763107   4.260069   4.650500   4.789426   2.739039
    12  H    4.380102   4.052484   4.668900   4.531419   2.574758
    13  H    5.845674   5.340337   5.712245   5.823519   3.816002
    14  H    4.582338   4.163608   4.375152   4.898512   2.770012
    15  C    5.433804   4.646195   5.121577   4.620557   3.381863
    16  O    5.718789   4.835520   5.274045   4.549349   3.865640
    17  N    6.206785   5.574678   6.162384   5.607473   4.202380
    18  H    6.257101   5.731841   6.310893   5.938706   4.258550
    19  C    7.286757   6.676531   7.338961   6.536925   5.420099
    20  H    7.362274   6.670303   7.306564   6.369382   5.569785
    21  H    8.225220   7.594896   8.192898   7.514346   6.270208
    22  H    7.318223   6.845973   7.627830   6.693912   5.636222
                    6          7          8          9         10
     6  O    0.000000
     7  N    2.252801   0.000000
     8  H    3.150088   1.010040   0.000000
     9  C    2.775362   1.448978   2.120981   0.000000
    10  H    3.652432   2.083739   2.406782   1.089970   0.000000
    11  C    2.376430   2.452791   3.374391   1.525027   2.139209
    12  H    1.870927   2.702720   3.695472   2.150225   3.041326
    13  H    3.410576   3.386959   4.222109   2.150214   2.459625
    14  H    2.359748   2.702673   3.582661   2.150165   2.466256
    15  C    3.668373   2.450234   2.875614   1.522008   2.136554
    16  O    4.422438   2.835384   2.858722   2.392910   2.803867
    17  N    4.118665   3.537108   4.131163   2.432781   3.033188
    18  H    3.919568   3.770883   4.525291   2.567989   3.150351
    19  C    5.347594   4.775806   5.244019   3.801919   4.337119
    20  H    5.713694   4.817888   5.091338   4.033993   4.520639
    21  H    6.156921   5.546080   6.006052   4.396974   4.734010
    22  H    5.398655   5.230365   5.788795   4.396999   5.096112
                   11         12         13         14         15
    11  C    0.000000
    12  H    1.089957   0.000000
    13  H    1.090023   1.779613   0.000000
    14  H    1.089925   1.779613   1.779617   0.000000
    15  C    2.461892   2.701161   2.668599   3.416575   0.000000
    16  O    3.612162   3.799120   3.882745   4.483552   1.229039
    17  N    2.615915   2.645907   2.399045   3.696264   1.335006
    18  H    2.148367   2.166830   1.674964   3.187050   2.037337
    19  C    4.042950   3.927115   3.728074   5.127994   2.434428
    20  H    4.624873   4.549111   4.466404   5.693360   2.520567
    21  H    4.534222   4.570033   3.973863   5.577195   3.137985
    22  H    4.403617   4.022038   4.151563   5.480198   3.137993
                   16         17         18         19         20
    16  O    0.000000
    17  N    2.252784   0.000000
    18  H    3.150085   1.010005   0.000000
    19  C    2.775344   1.449017   2.120930   0.000000
    20  H    2.337368   2.083788   2.986292   1.090010   0.000000
    21  H    3.519217   2.083815   2.484245   1.090023   1.779691
    22  H    3.519208   2.083801   2.484310   1.090033   1.779683
                   21         22
    21  H    0.000000
    22  H    1.779700   0.000000
 Stoichiometry    C6H12N2O2
 Framework group  C1[X(C6H12N2O2)]
 Deg. of freedom    60
 Full point group                 C1      NOp   1
 Largest Abelian subgroup         C1      NOp   1
 Largest concise Abelian subgroup C1      NOp   1
                         Standard orientation:                         
 ---------------------------------------------------------------------
 Center     Atomic      Atomic             Coordinates (Angstroms)
 Number     Number       Type             X           Y           Z
 ---------------------------------------------------------------------
      1          1           0        3.927981   -0.306233   -1.273041
      2          6           0        3.280941   -0.824246   -0.565099
      3          1           0        3.826981   -1.007291    0.360276
      4          1           0        2.961918   -1.774986   -0.992295
      5          6           0        2.038580    0.008640   -0.243198
      6          8           0        1.873995    1.110026   -0.763037
      7          7           0        1.167605   -0.524813    0.616610
      8          1           0        1.346834   -1.434148    1.018068
      9          6           0       -0.047166    0.164316    1.002580
     10          1           0       -0.178120    0.093731    2.082351
     11          6           0        0.010435    1.637855    0.613901
     12          1           0        0.132176    1.724879   -0.465734
     13          1           0       -0.914153    2.130068    0.915585
     14          1           0        0.854317    2.113208    1.113740
     15          6           0       -1.263894   -0.448514    0.323963
     16          8           0       -1.404809   -1.668630    0.279303
     17          7           0       -2.145086    0.403012   -0.205796
     18          1           0       -1.985583    1.398412   -0.143765
     19          6           0       -3.343768   -0.055461   -0.878563
     20          1           0       -3.374931   -1.144931   -0.864221
     21          1           0       -4.221670    0.339415   -0.367178
     22          1           0       -3.337640    0.293781   -1.911115
 ---------------------------------------------------------------------
 Rotational constants (GHZ):      2.5506270      0.7724024      0.6955550
 Standard basis: 6-31G(d) (6D, 7F)
 There are   174 symmetry adapted basis functions of A   symmetry.
 Integral buffers will be    131072 words long.
 Raffenetti 1 integral format.
 Two-electron integral symmetry is turned on.
   174 basis functions,   328 primitive gaussians,   174 cartesian basis functions
    39 alpha electrons       39 beta electrons
       nuclear repulsion energy       566.0746479674 Hartrees.
 NAtoms=   22 NActive=   22 NUniq=   22 SFac= 7.50D-01 NAtFMM=   80 NAOKFM=F Big=F
 One-electron integrals computed using PRISM.
 NBasis=   174 RedAO= T  NBF=   174
 NBsUse=   174 1.00D-06 NBFU=   174
 Harris functional with IExCor=  205 diagonalized for initial guess.
 ExpMin= 1.61D-01 ExpMax= 5.48D+03 ExpMxC= 8.25D+02 IAcc=1 IRadAn=         1 AccDes= 0.00D+00
 HarFok:  IExCor=  205 AccDes= 0.00D+00 IRadAn=         1 IDoV= 1
 ScaDFX=  1.000000  1.000000  1.000000  1.000000
 FoFCou: FMM=F IPFlag=           0 FMFlag=      100000 FMFlg1=           0
         NFxFlg=           0 DoJE=T BraDBF=F KetDBF=T FulRan=T
         Omega=  0.000000  0.000000  1.000000  0.000000  0.000000 ICntrl=     500 IOpCl=  0
         NMat0=    1 NMatS0=    1 NMatT0=    0 NMatD0=    1 NMtDS0=    0 NMtDT0=    0
         I1Cent=           4 NGrid=           0.
 Petite list used in FoFCou.
 Initial guess orbital symmetries:
       Occupied  (A) (A) (A) (A) (A) (A) (A) (A) (A) (A) (A) (A)
                 (A) (A) (A) (A) (A) (A) (A) (A) (A) (A) (A) (A)
                 (A) (A) (A) (A) (A) (A) (A) (A) (A) (A) (A) (A)
                 (A) (A) (A)
       Virtual   (A) (A) (A) (A) (A) (A) (A) (A) (A) (A) (A) (A)
                 (A) (A) (A) (A) (A) (A) (A) (A) (A) (A) (A) (A)
                 (A) (A) (A) (A) (A) (A) (A) (A) (A) (A) (A) (A)
                 (A) (A) (A) (A) (A) (A) (A) (A) (A) (A) (A) (A)
                 (A) (A) (A) (A) (A) (A) (A) (A) (A) (A) (A) (A)
                 (A) (A) (A) (A) (A) (A) (A) (A) (A) (A) (A) (A)
                 (A) (A) (A) (A) (A) (A) (A) (A) (A) (A) (A) (A)
                 (A) (A) (A) (A) (A) (A) (A) (A) (A) (A) (A) (A)
                 (A) (A) (A) (A) (A) (A) (A) (A) (A) (A) (A) (A)
                 (A) (A) (A) (A) (A) (A) (A) (A) (A) (A) (A) (A)
                 (A) (A) (A) (A) (A) (A) (A) (A) (A) (A) (A) (A)
                 (A) (A) (A)
 The electronic state of the initial guess is 1-A.
 Requested convergence on RMS density matrix=1.00D-08 within 128 cycles.
 Requested convergence on MAX density matrix=1.00D-06.
 Requested convergence on             energy=1.00D-06.
 No special actions if energy rises.
 Integral accuracy reduced to 1.0D-05 until final iterations.
 Initial convergence to 1.0D-05 achieved.  Increase integral accuracy.
 SCF Done:  E(RHF) =  -492.814142150     A.U. after   15 cycles
             Convg  =    0.4752D-08             -V/T =  2.0016

 **********************************************************************

            Population analysis using the SCF density.

 **********************************************************************

 Orbital symmetries:
       Occupied  (A) (A) (A) (A) (A) (A) (A) (A) (A) (A) (A) (A)
                 (A) (A) (A) (A) (A) (A) (A) (A) (A) (A) (A) (A)
                 (A) (A) (A) (A) (A) (A) (A) (A) (A) (A) (A) (A)
                 (A) (A) (A)
       Virtual   (A) (A) (A) (A) (A) (A) (A) (A) (A) (A) (A) (A)
                 (A) (A) (A) (A) (A) (A) (A) (A) (A) (A) (A) (A)
                 (A) (A) (A) (A) (A) (A) (A) (A) (A) (A) (A) (A)
                 (A) (A) (A) (A) (A) (A) (A) (A) (A) (A) (A) (A)
                 (A) (A) (A) (A) (A) (A) (A) (A) (A) (A) (A) (A)
                 (A) (A) (A) (A) (A) (A) (A) (A) (A) (A) (A) (A)
                 (A) (A) (A) (A) (A) (A) (A) (A) (A) (A) (A) (A)
                 (A) (A) (A) (A) (A) (A) (A) (A) (A) (A) (A) (A)
                 (A) (A) (A) (A) (A) (A) (A) (A) (A) (A) (A) (A)
                 (A) (A) (A) (A) (A) (A) (A) (A) (A) (A) (A) (A)
                 (A) (A) (A) (A) (A) (A) (A) (A) (A) (A) (A) (A)
                 (A) (A) (A)
 The electronic state is 1-A.
 Alpha  occ. eigenvalues --  -20.51252 -20.51213 -15.59719 -15.58881 -11.35436
 Alpha  occ. eigenvalues --  -11.34197 -11.28476 -11.25719 -11.23683 -11.21181
 Alpha  occ. eigenvalues --   -1.38256  -1.36909  -1.24283  -1.23322  -1.06312
 Alpha  occ. eigenvalues --   -0.99078  -0.94634  -0.89176  -0.80464  -0.77222
 Alpha  occ. eigenvalues --   -0.73236  -0.70776  -0.65015  -0.63807  -0.61911
 Alpha  occ. eigenvalues --   -0.61755  -0.59176  -0.57430  -0.56257  -0.55866
 Alpha  occ. eigenvalues --   -0.54217  -0.53771  -0.52640  -0.51266  -0.50531
 Alpha  occ. eigenvalues --   -0.42405  -0.39736  -0.38332  -0.37988
 Alpha virt. eigenvalues --    0.19070   0.20114   0.22445   0.23841   0.26469
 Alpha virt. eigenvalues --    0.27307   0.28278   0.31018   0.31164   0.32115
 Alpha virt. eigenvalues --    0.32556   0.33149   0.34135   0.35643   0.37282
 Alpha virt. eigenvalues --    0.39136   0.41202   0.44020   0.48251   0.51360
 Alpha virt. eigenvalues --    0.53021   0.58974   0.62118   0.70479   0.72058
 Alpha virt. eigenvalues --    0.74129   0.74897   0.76059   0.77940   0.81313
 Alpha virt. eigenvalues --    0.81465   0.82055   0.84319   0.90840   0.91883
 Alpha virt. eigenvalues --    0.93657   0.94390   0.95697   0.96183   0.98811
 Alpha virt. eigenvalues --    0.99766   1.00847   1.05107   1.06472   1.09659
 Alpha virt. eigenvalues --    1.12042   1.13658   1.14074   1.14238   1.15639
 Alpha virt. eigenvalues --    1.16451   1.17735   1.18330   1.20698   1.20973
 Alpha virt. eigenvalues --    1.22241   1.22739   1.23437   1.27451   1.28842
 Alpha virt. eigenvalues --    1.30218   1.34679   1.35135   1.39787   1.44881
 Alpha virt. eigenvalues --    1.48352   1.55644   1.57341   1.60351   1.63355
 Alpha virt. eigenvalues --    1.65853   1.66369   1.71111   1.75094   1.78097
 Alpha virt. eigenvalues --    1.78705   1.83068   1.87125   1.92480   1.98505
 Alpha virt. eigenvalues --    2.00457   2.07847   2.10334   2.11351   2.14031
 Alpha virt. eigenvalues --    2.15094   2.16783   2.17323   2.21692   2.21821
 Alpha virt. eigenvalues --    2.24974   2.27126   2.32031   2.32832   2.35266
 Alpha virt. eigenvalues --    2.40009   2.42487   2.43576   2.46963   2.50316
 Alpha virt. eigenvalues --    2.51938   2.58044   2.60021   2.63316   2.63823
 Alpha virt. eigenvalues --    2.65381   2.66204   2.70429   2.74549   2.76530
 Alpha virt. eigenvalues --    2.79312   2.81310   2.87198   2.92394   2.97793
 Alpha virt. eigenvalues --    3.01277   3.03921   3.07545   3.10029   3.24933
 Alpha virt. eigenvalues --    3.30853   3.35721   3.40466   3.53841   3.58664
 Alpha virt. eigenvalues --    4.38910   4.44416   4.49378   4.59411   4.64583
 Alpha virt. eigenvalues --    4.66601   4.70075   4.79211   4.93247   5.13695
          Condensed to atoms (all electrons):
              1          2          3          4          5          6
     1  H    0.455858   0.385239  -0.018681  -0.018126  -0.030323   0.003603
     2  C    0.385239   5.246954   0.374169   0.375179   0.375678  -0.064346
     3  H   -0.018681   0.374169   0.516194  -0.023371  -0.036209   0.001187
     4  H   -0.018126   0.375179  -0.023371   0.502634  -0.034490   0.001122
     5  C   -0.030323   0.375678  -0.036209  -0.034490   4.194463   0.573116
     6  O    0.003603  -0.064346   0.001187   0.001122   0.573116   8.309145
     7  N    0.003794  -0.118926   0.003880   0.003676   0.257583  -0.100199
     8  H   -0.000015  -0.000317   0.000380   0.000472  -0.017729   0.002256
     9  C   -0.000057   0.002687  -0.000006  -0.000172  -0.031101   0.001583
    10  H    0.000001  -0.000073   0.000010  -0.000001   0.001896  -0.000078
    11  C    0.000002  -0.000191  -0.000007   0.000019  -0.003091  -0.063316
    12  H    0.000011  -0.000045   0.000008  -0.000013  -0.001139  -0.018347
    13  H    0.000000   0.000024  -0.000001   0.000000   0.000243   0.004230
    14  H    0.000005  -0.000159   0.000006   0.000002   0.000275  -0.006361
    15  C    0.000001  -0.000160   0.000003   0.000031  -0.000589  -0.000205
    16  O    0.000000  -0.000023   0.000000   0.000005   0.000521  -0.000002
    17  N    0.000000   0.000002   0.000000   0.000000   0.000420  -0.000098
    18  H    0.000000   0.000000   0.000000   0.000000  -0.000019  -0.000109
    19  C    0.000000   0.000000   0.000000   0.000000  -0.000009   0.000002
    20  H    0.000000   0.000000   0.000000   0.000000  -0.000001   0.000000
    21  H    0.000000   0.000000   0.000000   0.000000   0.000000   0.000000
    22  H    0.000000   0.000000   0.000000   0.000000  -0.000001   0.000000
              7          8          9         10         11         12
     1  H    0.003794  -0.000015  -0.000057   0.000001   0.000002   0.000011
     2  C   -0.118926  -0.000317   0.002687  -0.000073  -0.000191  -0.000045
     3  H    0.003880   0.000380  -0.000006   0.000010  -0.000007   0.000008
     4  H    0.003676   0.000472  -0.000172  -0.000001   0.000019  -0.000013
     5  C    0.257583  -0.017729  -0.031101   0.001896  -0.003091  -0.001139
     6  O   -0.100199   0.002256   0.001583  -0.000078  -0.063316  -0.018347
     7  N    7.349553   0.323786   0.204337  -0.041886  -0.046273  -0.001878
     8  H    0.323786   0.304760  -0.022376  -0.001587   0.003170  -0.000152
     9  C    0.204337  -0.022376   5.054958   0.411845   0.325973  -0.035087
    10  H   -0.041886  -0.001587   0.411845   0.495165  -0.033451   0.003493
    11  C   -0.046273   0.003170   0.325973  -0.033451   5.273182   0.405189
    12  H   -0.001878  -0.000152  -0.035087   0.003493   0.405189   0.445599
    13  H    0.004554  -0.000053  -0.036484  -0.004321   0.362550  -0.037290
    14  H   -0.001450  -0.000184  -0.031867  -0.002420   0.397936  -0.013014
    15  C   -0.064571  -0.000430   0.367164  -0.039180  -0.069640  -0.001026
    16  O    0.002502   0.003923  -0.079379   0.000007   0.002681  -0.000061
    17  N    0.001598   0.000087  -0.099718   0.001010  -0.018476  -0.000637
    18  H    0.000092  -0.000013  -0.003086   0.000159   0.000578   0.000559
    19  C   -0.000119   0.000000   0.004080  -0.000175   0.000161  -0.000201
    20  H   -0.000016  -0.000001   0.000544  -0.000014  -0.000070  -0.000008
    21  H   -0.000001   0.000000  -0.000124   0.000017   0.000031   0.000009
    22  H    0.000009   0.000000  -0.000049  -0.000001  -0.000036  -0.000001
             13         14         15         16         17         18
     1  H    0.000000   0.000005   0.000001   0.000000   0.000000   0.000000
     2  C    0.000024  -0.000159  -0.000160  -0.000023   0.000002   0.000000
     3  H   -0.000001   0.000006   0.000003   0.000000   0.000000   0.000000
     4  H    0.000000   0.000002   0.000031   0.000005   0.000000   0.000000
     5  C    0.000243   0.000275  -0.000589   0.000521   0.000420  -0.000019
     6  O    0.004230  -0.006361  -0.000205  -0.000002  -0.000098  -0.000109
     7  N    0.004554  -0.001450  -0.064571   0.002502   0.001598   0.000092
     8  H   -0.000053  -0.000184  -0.000430   0.003923   0.000087  -0.000013
     9  C   -0.036484  -0.031867   0.367164  -0.079379  -0.099718  -0.003086
    10  H   -0.004321  -0.002420  -0.039180   0.000007   0.001010   0.000159
    11  C    0.362550   0.397936  -0.069640   0.002681  -0.018476   0.000578
    12  H   -0.037290  -0.013014  -0.001026  -0.000061  -0.000637   0.000559
    13  H    0.607723  -0.023783  -0.005111  -0.000059  -0.007877   0.001185
    14  H   -0.023783   0.483008   0.003952  -0.000055   0.000511   0.000326
    15  C   -0.005111   0.003952   4.153887   0.593242   0.303127  -0.013680
    16  O   -0.000059  -0.000055   0.593242   8.227565  -0.098983   0.002487
    17  N   -0.007877   0.000511   0.303127  -0.098983   7.347891   0.315531
    18  H    0.001185   0.000326  -0.013680   0.002487   0.315531   0.306056
    19  C    0.000436   0.000003  -0.027060  -0.004703   0.188267  -0.021837
    20  H   -0.000021   0.000001  -0.002032   0.010947  -0.032417   0.002257
    21  H   -0.000041   0.000000   0.001056   0.000374  -0.047855  -0.000938
    22  H    0.000030  -0.000001   0.000885   0.000386  -0.047596  -0.001012
             19         20         21         22
     1  H    0.000000   0.000000   0.000000   0.000000
     2  C    0.000000   0.000000   0.000000   0.000000
     3  H    0.000000   0.000000   0.000000   0.000000
     4  H    0.000000   0.000000   0.000000   0.000000
     5  C   -0.000009  -0.000001   0.000000  -0.000001
     6  O    0.000002   0.000000   0.000000   0.000000
     7  N   -0.000119  -0.000016  -0.000001   0.000009
     8  H    0.000000  -0.000001   0.000000   0.000000
     9  C    0.004080   0.000544  -0.000124  -0.000049
    10  H   -0.000175  -0.000014   0.000017  -0.000001
    11  C    0.000161  -0.000070   0.000031  -0.000036
    12  H   -0.000201  -0.000008   0.000009  -0.000001
    13  H    0.000436  -0.000021  -0.000041   0.000030
    14  H    0.000003   0.000001   0.000000  -0.000001
    15  C   -0.027060  -0.002032   0.001056   0.000885
    16  O   -0.004703   0.010947   0.000374   0.000386
    17  N    0.188267  -0.032417  -0.047855  -0.047596
    18  H   -0.021837   0.002257  -0.000938  -0.001012
    19  C    4.949245   0.396799   0.402131   0.403080
    20  H    0.396799   0.434686  -0.022716  -0.022541
    21  H    0.402131  -0.022716   0.537154  -0.036622
    22  H    0.403080  -0.022541  -0.036622   0.531252
 Mulliken atomic charges:
              1
     1  H    0.218688
     2  C   -0.575694
     3  H    0.182435
     4  H    0.193033
     5  C    0.750505
     6  O   -0.643185
     7  N   -0.780046
     8  H    0.404022
     9  C   -0.033666
    10  H    0.209583
    11  C   -0.536922
    12  H    0.254031
    13  H    0.134066
    14  H    0.193269
    15  C    0.800338
    16  O   -0.661375
    17  N   -0.804788
    18  H    0.411464
    19  C   -0.290101
    20  H    0.234602
    21  H    0.167524
    22  H    0.172217
 Sum of Mulliken atomic charges =   0.00000
 Mulliken charges with hydrogens summed into heavy atoms:
              1
     2  C    0.018463
     5  C    0.750505
     6  O   -0.643185
     7  N   -0.376024
     9  C    0.175916
    11  C    0.044444
    15  C    0.800338
    16  O   -0.661375
    17  N   -0.393324
    19  C    0.284243
 Sum of Mulliken charges with hydrogens summed into heavy atoms =   0.00000
 Electronic spatial extent (au):  <R**2>=           1760.7660
 Charge=              0.0000 electrons
 Dipole moment (field-independent basis, Debye):
    X=             -0.0871    Y=              0.5881    Z=              1.4624  Tot=              1.5787
 Quadrupole moment (field-independent basis, Debye-Ang):
   XX=            -52.8190   YY=            -66.3579   ZZ=            -59.0368
   XY=            -13.2428   XZ=              4.9620   YZ=              2.0130
 Traceless Quadrupole moment (field-independent basis, Debye-Ang):
   XX=              6.5856   YY=             -6.9534   ZZ=              0.3678
   XY=            -13.2428   XZ=              4.9620   YZ=              2.0130
 Octapole moment (field-independent basis, Debye-Ang**2):
  XXX=             -5.4472  YYY=              4.9779  ZZZ=              2.4819  XYY=              3.1460
  XXY=             -6.8004  XXZ=             -5.3971  XZZ=             -1.7363  YZZ=             -4.6948
  YYZ=              1.1088  XYZ=              1.6835
 Hexadecapole moment (field-independent basis, Debye-Ang**3):
 XXXX=          -1513.5617 YYYY=           -427.1026 ZZZZ=           -227.3512 XXXY=            -26.6813
 XXXZ=             18.0586 YYYX=            -26.9195 YYYZ=             -3.5809 ZZZX=              1.6105
 ZZZY=             -7.7639 XXYY=           -351.4004 XXZZ=           -304.8246 YYZZ=           -106.8095
 XXYZ=              9.7617 YYXZ=             14.0868 ZZXY=             -3.6579
 N-N= 5.660746479674D+02 E-N=-2.287700987943D+03  KE= 4.920340153092D+02
 Calling FoFJK, ICntrl=      2127 FMM=F ISym2X=0 I1Cent= 0 IOpClX= 0 NMat=1 NMatS=1 NMatT=0.
 ***** Axes restored to original set *****
 -------------------------------------------------------------------
 Center     Atomic                   Forces (Hartrees/Bohr)
 Number     Number              X              Y              Z
 -------------------------------------------------------------------
      1        1           0.006272220    0.004667745    0.005654290
      2        6           0.006965183    0.004504666    0.004874965
      3        1          -0.004335279    0.002357570   -0.001523269
      4        1          -0.000068116   -0.005007258    0.000625905
      5        6          -0.002670437   -0.014215816   -0.052569573
      6        8          -0.054527423   -0.014798234    0.027448912
      7        7           0.002291426    0.000667834    0.020540582
      8        1           0.006781708    0.003735293   -0.014014010
      9        6           0.012970568    0.004142675   -0.013570434
     10        1          -0.005438950    0.003739126   -0.000318327
     11        6           0.018740556   -0.007384744   -0.005444674
     12        1           0.021532592   -0.003240766    0.011574044
     13        1           0.001945449   -0.012978342    0.007164125
     14        1           0.003242182    0.008707693   -0.005284622
     15        6          -0.035698638    0.020093682    0.035163611
     16        8           0.023198140   -0.018831655   -0.021253380
     17        7           0.011046287    0.006661014   -0.007375649
     18        1          -0.016121449    0.016611126    0.011528459
     19        6           0.000271893    0.002932993    0.000073506
     20        1           0.006495375   -0.004935757   -0.006042608
     21        1          -0.004441218    0.001220865   -0.001708269
     22        1           0.001547933    0.001350290    0.004456417
 -------------------------------------------------------------------
 Cartesian Forces:  Max     0.054527423 RMS     0.015047070

 GradGradGradGradGradGradGradGradGradGradGradGradGradGradGradGradGradGrad
 Berny optimization.
 Internal  Forces:  Max     0.132627907 RMS     0.024696942
 Search for a local minimum.
 Step number   1 out of a maximum of  108
 All quantities printed in internal units (Hartrees-Bohrs-Radians)
 Mixed Optimization -- RFO/linear search
 Second derivative matrix not updated -- first step.
     Eigenvalues ---    0.00370   0.00435   0.00999   0.01043   0.01269
     Eigenvalues ---    0.01422   0.01660   0.02551   0.02552   0.03503
     Eigenvalues ---    0.05232   0.05841   0.05844   0.05844   0.07166
     Eigenvalues ---    0.07464   0.07685   0.07686   0.15421   0.16000
     Eigenvalues ---    0.16000   0.16000   0.16000   0.16000   0.16000
     Eigenvalues ---    0.16000   0.16000   0.16000   0.16000   0.16000
     Eigenvalues ---    0.16180   0.22000   0.22000   0.25000   0.25000
     Eigenvalues ---    0.25000   0.25000   0.29427   0.29887   0.30174
     Eigenvalues ---    0.34808   0.34808   0.34809   0.34810   0.34810
     Eigenvalues ---    0.34811   0.34816   0.34818   0.34819   0.34821
     Eigenvalues ---    0.38374   0.38379   0.45966   0.45972   0.58322
     Eigenvalues ---    0.58339   0.91488   0.915161000.000001000.00000
     Eigenvalues --- 1000.000001000.000001000.000001000.000001000.00000
     Eigenvalues --- 1000.000001000.000001000.000001000.000001000.00000
     Eigenvalues --- 1000.000001000.000001000.000001000.000001000.00000
     Eigenvalues --- 1000.000001000.000001000.000001000.000001000.00000
     Eigenvalues --- 1000.000001000.000001000.000001000.000001000.00000
     Eigenvalues --- 1000.000001000.000001000.000001000.000001000.00000
     Eigenvalues --- 1000.000001000.000001000.000001000.000001000.00000
     Eigenvalues --- 1000.000001000.000001000.00000
 RFO step:  Lambda=-1.50349642D-01 EMin= 3.69635118D-03
 Linear search not attempted -- first point.
 Maximum step size (   0.300) exceeded in Quadratic search.
    -- Step size scaled by   0.449
 Iteration  1 RMS(Cart)=  0.18399182 RMS(Int)=  0.00826429
 Iteration  2 RMS(Cart)=  0.01826612 RMS(Int)=  0.00039955
 Iteration  3 RMS(Cart)=  0.00015087 RMS(Int)=  0.00039492
 Iteration  4 RMS(Cart)=  0.00000008 RMS(Int)=  0.00039492
 Iteration  1 RMS(Cart)=  0.00024533 RMS(Int)=  0.00008368
 Iteration  2 RMS(Cart)=  0.00013094 RMS(Int)=  0.00009343
 Iteration  3 RMS(Cart)=  0.00007015 RMS(Int)=  0.00010541
 Iteration  4 RMS(Cart)=  0.00003782 RMS(Int)=  0.00011332
 Iteration  5 RMS(Cart)=  0.00002059 RMS(Int)=  0.00011799
 Iteration  6 RMS(Cart)=  0.00001138 RMS(Int)=  0.00012068
 Iteration  7 RMS(Cart)=  0.00000642 RMS(Int)=  0.00012222
 Iteration  8 RMS(Cart)=  0.00000372 RMS(Int)=  0.00012309
 Iteration  9 RMS(Cart)=  0.00000222 RMS(Int)=  0.00012360
 Iteration 10 RMS(Cart)=  0.00000137 RMS(Int)=  0.00012390
 Iteration 11 RMS(Cart)=  0.00000087 RMS(Int)=  0.00012408
 Variable       Old X    -DE/DX   Delta X   Delta X   Delta X     New X
                                 (Linear)    (Quad)   (Total)
    R1        2.05987  -0.00864   0.00000  -0.00778  -0.00778   2.05209
    R2        2.05970  -0.00295   0.00000  -0.00265  -0.00265   2.05705
    R3        2.05987  -0.00330   0.00000  -0.00297  -0.00297   2.05690
    R4        2.89121  -0.00986   0.00000  -0.00996  -0.00996   2.88125
    R5        2.32242  -0.05016   0.00000  -0.02114  -0.02114   2.30128
    R6        2.52294   0.04058   0.00000   0.02484   0.02484   2.54778
    R7        1.90870  -0.01551   0.00000  -0.01142  -0.01142   1.89728
    R8        2.73817   0.04324   0.00000   0.03634   0.03634   2.77452
    R9        2.05975  -0.00405   0.00000  -0.00365  -0.00365   2.05610
   R10        2.88188   0.02145   0.00000   0.02144   0.02144   2.90333
   R11        2.87618   0.02626   0.00000   0.02608   0.02608   2.90226
   R12        2.05972  -0.02107   0.00000  -0.01898  -0.01898   2.04074
   R13        2.05984  -0.00403   0.00000  -0.00363  -0.00363   2.05622
   R14        2.05966  -0.00815   0.00000  -0.00734  -0.00734   2.05232
   R15        2.32255  -0.03657   0.00000  -0.01541  -0.01541   2.30713
   R16        2.52280   0.01073   0.00000   0.00656   0.00656   2.52936
   R17        1.90863  -0.02530   0.00000  -0.01862  -0.01862   1.89001
   R18        2.73825   0.00067   0.00000   0.00057   0.00057   2.73881
   R19        2.05982  -0.01005   0.00000  -0.00905  -0.00905   2.05077
   R20        2.05985  -0.00392   0.00000  -0.00353  -0.00353   2.05631
   R21        2.05986  -0.00417   0.00000  -0.00376  -0.00376   2.05610
    A1        1.91116   0.00047   0.00000   0.00050   0.00052   1.91169
    A2        1.91101   0.00079   0.00000   0.00091   0.00093   1.91194
    A3        1.93901  -0.00823   0.00000  -0.01212  -0.01210   1.92692
    A4        1.91015  -0.00454   0.00000  -0.00613  -0.00618   1.90398
    A5        1.89610   0.00618   0.00000   0.00905   0.00904   1.90515
    A6        1.89612   0.00538   0.00000   0.00787   0.00786   1.90398
    A7        2.10322  -0.02370   0.00000  -0.02658  -0.02658   2.07663
    A8        2.03502  -0.04002   0.00000  -0.04489  -0.04489   1.99013
    A9        2.14495   0.06372   0.00000   0.07147   0.07147   2.21642
   A10        2.09432  -0.06585   0.00000  -0.07972  -0.07979   2.01454
   A11        2.12756   0.13263   0.00000   0.16079   0.16072   2.28829
   A12        2.06130  -0.06678   0.00000  -0.08107  -0.08115   1.98015
   A13        1.91114  -0.01276   0.00000  -0.01340  -0.01344   1.89770
   A14        1.93905   0.05929   0.00000   0.07331   0.07423   2.01328
   A15        1.93900  -0.04785   0.00000  -0.05552  -0.05767   1.88133
   A16        1.89609  -0.02896   0.00000  -0.04417  -0.04372   1.85238
   A17        1.89608   0.00444   0.00000   0.00526   0.00455   1.90063
   A18        1.88137   0.02550   0.00000   0.03381   0.03483   1.91621
   A19        1.91115   0.01658   0.00000   0.02595   0.02583   1.93698
   A20        1.91106  -0.00567   0.00000  -0.00959  -0.00957   1.90150
   A21        1.91110   0.00690   0.00000   0.00940   0.00927   1.92037
   A22        1.91011  -0.00340   0.00000  -0.00377  -0.00373   1.90637
   A23        1.91023  -0.00681   0.00000  -0.00707  -0.00733   1.90290
   A24        1.91015  -0.00762   0.00000  -0.01496  -0.01495   1.89520
   A25        2.10317  -0.02338   0.00000  -0.02622  -0.02634   2.07683
   A26        2.03507   0.04046   0.00000   0.04538   0.04526   2.08034
   A27        2.14494  -0.01709   0.00000  -0.01916  -0.01928   2.12566
   A28        2.09441   0.00440   0.00000   0.00643   0.00643   2.10084
   A29        2.12758   0.00058   0.00000   0.00071   0.00071   2.12829
   A30        2.06120  -0.00498   0.00000  -0.00714  -0.00714   2.05406
   A31        1.91112  -0.00356   0.00000  -0.00535  -0.00535   1.90577
   A32        1.91114   0.00421   0.00000   0.00622   0.00621   1.91735
   A33        1.91111   0.00352   0.00000   0.00516   0.00516   1.91627
   A34        1.91016  -0.00069   0.00000  -0.00114  -0.00114   1.90902
   A35        1.91013  -0.00055   0.00000  -0.00103  -0.00102   1.90911
   A36        1.91014  -0.00294   0.00000  -0.00386  -0.00388   1.90626
    D1       -0.00007   0.00056   0.00000   0.00159   0.00155   0.00148
    D2        3.14150  -0.00059   0.00000  -0.00159  -0.00154   3.13996
    D3        2.10331   0.00005   0.00000   0.00056   0.00049   2.10380
    D4       -1.03831  -0.00111   0.00000  -0.00262  -0.00260  -1.04091
    D5       -2.10327   0.00121   0.00000   0.00288   0.00286  -2.10040
    D6        1.03830   0.00006   0.00000  -0.00030  -0.00023   1.03807
    D7        0.00001  -0.00310   0.00000  -0.01557  -0.01526  -0.01525
    D8        3.14151   0.00040   0.00000   0.00890   0.00872  -3.13295
    D9        3.14158  -0.00429   0.00000  -0.01883  -0.01865   3.12293
   D10       -0.00011  -0.00079   0.00000   0.00564   0.00533   0.00523
   D11       -2.35613  -0.01243   0.00000  -0.03723  -0.03658  -2.39271
   D12       -0.26169  -0.01930   0.00000  -0.05459  -0.05348  -0.31517
   D13        1.83266   0.02056   0.00000   0.00000   0.00000   1.83266
   D14        0.78537  -0.00900   0.00000  -0.01321  -0.01298   0.77239
   D15        2.87981  -0.01587   0.00000  -0.03056  -0.02988   2.84994
   D16       -1.30902   0.02399   0.00000   0.02402   0.02360  -1.28542
   D17        1.04724   0.00298   0.00000   0.01504   0.01623   1.06347
   D18        3.14157   0.00550   0.00000   0.02046   0.02156  -3.12006
   D19       -1.04726  -0.00307   0.00000   0.00202   0.00305  -1.04421
   D20       -3.13259   0.00516   0.00000   0.01527   0.01532  -3.11728
   D21       -1.03826   0.00768   0.00000   0.02069   0.02065  -1.01761
   D22        1.05609  -0.00089   0.00000   0.00224   0.00214   1.05823
   D23       -1.08102   0.00881   0.00000   0.01626   0.01526  -1.06576
   D24        1.01331   0.01133   0.00000   0.02168   0.02059   1.03390
   D25        3.10766   0.00276   0.00000   0.00323   0.00208   3.10974
   D26        0.78542  -0.03387   0.00000  -0.02851  -0.02828   0.75714
   D27       -2.35615  -0.03466   0.00000   0.00000   0.00000  -2.35616
   D28       -1.31790   0.00866   0.00000   0.01902   0.01912  -1.29878
   D29        1.82372   0.00787   0.00000   0.04754   0.04739   1.87111
   D30        2.91371   0.02660   0.00000   0.05000   0.04950   2.96321
   D31       -0.22786   0.02581   0.00000   0.07851   0.07778  -0.15009
   D32       -0.00011   0.00173   0.00000  -0.01122  -0.01114  -0.01125
   D33       -3.14154   0.00112   0.00000  -0.01286  -0.01278   3.12887
   D34        3.14150   0.00091   0.00000   0.01804   0.01796  -3.12372
   D35        0.00008   0.00030   0.00000   0.01640   0.01632   0.01640
   D36       -0.00006   0.00022   0.00000   0.00065   0.00065   0.00060
   D37        2.09436  -0.00022   0.00000  -0.00022  -0.00023   2.09413
   D38       -2.09443   0.00092   0.00000   0.00203   0.00204  -2.09238
   D39       -3.14148  -0.00038   0.00000  -0.00095  -0.00095   3.14076
   D40       -1.04706  -0.00082   0.00000  -0.00182  -0.00183  -1.04890
   D41        1.04733   0.00032   0.00000   0.00043   0.00044   1.04778
         Item               Value     Threshold  Converged?
 Maximum Force            0.132628     0.000450     NO 
 RMS     Force            0.024214     0.000300     NO 
 Maximum Displacement     0.747754     0.001800     NO 
 RMS     Displacement     0.190763     0.001200     NO 
 Predicted change in Energy=-5.912209D-02
 GradGradGradGradGradGradGradGradGradGradGradGradGradGradGradGradGradGrad

                          Input orientation:                          
 ---------------------------------------------------------------------
 Center     Atomic      Atomic             Coordinates (Angstroms)
 Number     Number       Type             X           Y           Z
 ---------------------------------------------------------------------
      1          1           0        1.104460    2.363051   -1.723556
      2          6           0        1.562235    2.830361   -0.856788
      3          1           0        1.636097    2.104808   -0.048679
      4          1           0        0.949387    3.667813   -0.528388
      5          6           0        2.957645    3.338723   -1.201867
      6          8           0        3.380593    3.179858   -2.332743
      7          7           0        3.593887    3.936189   -0.174278
      8          1           0        3.074169    3.987509    0.683204
      9          6           0        4.921463    4.557688   -0.091060
     10          1           0        5.391574    4.253921    0.841974
     11          6           0        5.901038    4.169002   -1.209007
     12          1           0        5.518994    4.459887   -2.176294
     13          1           0        6.852176    4.667886   -1.034599
     14          1           0        6.066680    3.095688   -1.201881
     15          6           0        4.726458    6.081001   -0.076930
     16          8           0        3.842344    6.558020    0.616864
     17          7           0        5.507207    6.846344   -0.849076
     18          1           0        6.215310    6.431527   -1.420757
     19          6           0        5.364441    8.287921   -0.893724
     20          1           0        4.562245    8.587793   -0.227196
     21          1           0        6.292066    8.761151   -0.578064
     22          1           0        5.128331    8.603560   -1.907856
 ---------------------------------------------------------------------
                    Distance matrix (angstroms):
                    1          2          3          4          5
     1  H    0.000000
     2  C    1.085920   0.000000
     3  H    1.776103   1.088542   0.000000
     4  H    1.776198   1.088465   1.773324   0.000000
     5  C    2.158329   1.524690   2.144499   2.143589   0.000000
     6  O    2.493805   2.367915   3.068542   3.066685   1.217786
     7  N    3.327502   2.411698   2.683780   2.681567   1.348225
     8  H    3.508719   2.448778   2.479570   2.466750   1.996996
     9  C    4.695847   3.854142   4.100249   4.093961   2.564439
    10  H    5.341973   4.424495   4.417642   4.685556   3.307399
    11  C    5.151055   4.554254   4.878215   5.023274   3.058264
    12  H    4.908136   4.477991   5.014981   4.921817   2.960917
    13  H    6.230823   5.602820   5.894819   6.008270   4.118498
    14  H    5.043067   4.525430   4.684206   5.193034   3.118520
    15  C    5.445493   4.602950   5.035995   4.504837   3.451707
    16  O    5.529135   4.611506   5.014137   4.246657   3.801888
    17  N    6.344195   5.629475   6.173192   5.565934   4.350648
    18  H    6.539492   5.910801   6.447658   6.013683   4.497303
    19  C    7.344395   6.651548   7.269494   6.400903   5.512003
    20  H    7.276178   6.522612   7.115006   6.111436   5.574716
    21  H    8.316194   7.590999   8.140344   7.381651   6.396110
    22  H    7.427614   6.866704   7.608287   6.612723   5.738364
                    6          7          8          9         10
     6  O    0.000000
     7  N    2.297064   0.000000
     8  H    3.137217   1.003999   0.000000
     9  C    3.049235   1.468211   2.082566   0.000000
    10  H    3.908514   2.089354   2.338065   1.088040   0.000000
    11  C    2.931523   2.539254   3.406551   1.536375   2.115014
    12  H    2.497140   2.826370   3.791707   2.171361   3.027970
    13  H    3.993907   3.448475   4.205603   2.151758   2.413762
    14  H    2.915647   2.806620   3.647466   2.163998   2.444302
    15  C    3.913652   2.427430   2.773188   1.535810   2.150578
    16  O    4.508366   2.749842   2.683658   2.380543   2.785616
    17  N    4.490754   3.547556   4.054688   2.481055   3.097366
    18  H    4.409159   3.827830   4.501848   2.636931   3.246607
    19  C    5.665574   4.752897   5.121092   3.841242   4.391644
    20  H    5.922447   4.751624   4.919939   4.048372   4.540193
    21  H    6.535013   5.542876   5.893497   4.448014   4.810666
    22  H    5.714163   5.210007   5.678124   4.439890   5.152691
                   11         12         13         14         15
    11  C    0.000000
    12  H    1.079915   0.000000
    13  H    1.088103   1.767514   0.000000
    14  H    1.086043   1.763656   1.765445   0.000000
    15  C    2.513360   2.768295   2.726298   3.460319   0.000000
    16  O    3.644096   3.874926   3.919059   4.499249   1.220882
    17  N    2.729985   2.730719   2.566912   3.808530   1.338480
    18  H    2.294041   2.223298   1.914456   3.346314   2.036031
    19  C    4.165674   4.040138   3.916357   5.248560   2.438169
    20  H    4.720385   4.664114   4.611003   5.777244   2.516654
    21  H    4.651755   4.653262   4.156556   5.704157   3.144116
    22  H    4.555302   4.170696   4.384490   5.631657   3.142785
                   16         17         18         19         20
    16  O    0.000000
    17  N    2.236935   0.000000
    18  H    3.130314   1.000152   0.000000
    19  C    2.755215   1.449317   2.109015   0.000000
    20  H    2.313152   2.076615   2.967608   1.085219   0.000000
    21  H    3.504679   2.087088   2.478542   1.088153   1.773540
    22  H    3.494597   2.086234   2.477200   1.088044   1.773505
                   21         22
    21  H    0.000000
    22  H    1.774108   0.000000
 Stoichiometry    C6H12N2O2
 Framework group  C1[X(C6H12N2O2)]
 Deg. of freedom    60
 Full point group                 C1      NOp   1
 Largest Abelian subgroup         C1      NOp   1
 Largest concise Abelian subgroup C1      NOp   1
                         Standard orientation:                         
 ---------------------------------------------------------------------
 Center     Atomic      Atomic             Coordinates (Angstroms)
 Number     Number       Type             X           Y           Z
 ---------------------------------------------------------------------
      1          1           0       -3.968692   -0.788942    1.053222
      2          6           0       -3.231100   -1.050034    0.300221
      3          1           0       -3.705442   -1.079297   -0.679098
      4          1           0       -2.814270   -2.030463    0.523305
      5          6           0       -2.105075   -0.022245    0.280247
      6          8           0       -2.147863    0.915064    1.056535
      7          7           0       -1.144546   -0.277965   -0.630633
      8          1           0       -1.275693   -1.112940   -1.172511
      9          6           0        0.091131    0.443758   -0.959055
     10          1           0        0.195801    0.482799   -2.041345
     11          6           0        0.152156    1.899428   -0.471459
     12          1           0        0.079330    1.950080    0.604807
     13          1           0        1.096036    2.338726   -0.787806
     14          1           0       -0.660176    2.472523   -0.908688
     15          6           0        1.268170   -0.350451   -0.373801
     16          8           0        1.281766   -1.565076   -0.496500
     17          7           0        2.233424    0.302636    0.284447
     18          1           0        2.193136    1.296879    0.385254
     19          6           0        3.362601   -0.388826    0.873820
     20          1           0        3.267707   -1.453138    0.684254
     21          1           0        4.289179   -0.025003    0.434317
     22          1           0        3.382414   -0.213614    1.947480
 ---------------------------------------------------------------------
 Rotational constants (GHZ):      2.3795912      0.7455972      0.6710778
 Standard basis: 6-31G(d) (6D, 7F)
 There are   174 symmetry adapted basis functions of A   symmetry.
 Integral buffers will be    131072 words long.
 Raffenetti 1 integral format.
 Two-electron integral symmetry is turned on.
   174 basis functions,   328 primitive gaussians,   174 cartesian basis functions
    39 alpha electrons       39 beta electrons
       nuclear repulsion energy       557.2552875449 Hartrees.
 NAtoms=   22 NActive=   22 NUniq=   22 SFac= 7.50D-01 NAtFMM=   80 NAOKFM=F Big=F
 One-electron integrals computed using PRISM.
 NBasis=   174 RedAO= T  NBF=   174
 NBsUse=   174 1.00D-06 NBFU=   174
 Initial guess read from the read-write file.
 B after Tr=     0.000000    0.000000    0.000000
         Rot=    1.000000    0.000000    0.000000    0.000000 Ang=   0.00 deg.
 Initial guess orbital symmetries:
       Occupied  (A) (A) (A) (A) (A) (A) (A) (A) (A) (A) (A) (A)
                 (A) (A) (A) (A) (A) (A) (A) (A) (A) (A) (A) (A)
                 (A) (A) (A) (A) (A) (A) (A) (A) (A) (A) (A) (A)
                 (A) (A) (A)
       Virtual   (A) (A) (A) (A) (A) (A) (A) (A) (A) (A) (A) (A)
                 (A) (A) (A) (A) (A) (A) (A) (A) (A) (A) (A) (A)
                 (A) (A) (A) (A) (A) (A) (A) (A) (A) (A) (A) (A)
                 (A) (A) (A) (A) (A) (A) (A) (A) (A) (A) (A) (A)
                 (A) (A) (A) (A) (A) (A) (A) (A) (A) (A) (A) (A)
                 (A) (A) (A) (A) (A) (A) (A) (A) (A) (A) (A) (A)
                 (A) (A) (A) (A) (A) (A) (A) (A) (A) (A) (A) (A)
                 (A) (A) (A) (A) (A) (A) (A) (A) (A) (A) (A) (A)
                 (A) (A) (A) (A) (A) (A) (A) (A) (A) (A) (A) (A)
                 (A) (A) (A) (A) (A) (A) (A) (A) (A) (A) (A) (A)
                 (A) (A) (A) (A) (A) (A) (A) (A) (A) (A) (A) (A)
                 (A) (A) (A)
 Harris functional with IExCor=  205 diagonalized for initial guess.
 ExpMin= 1.61D-01 ExpMax= 5.48D+03 ExpMxC= 8.25D+02 IAcc=1 IRadAn=         1 AccDes= 0.00D+00
 HarFok:  IExCor=  205 AccDes= 0.00D+00 IRadAn=         1 IDoV= 1
 ScaDFX=  1.000000  1.000000  1.000000  1.000000
 FoFCou: FMM=F IPFlag=           0 FMFlag=      100000 FMFlg1=           0
         NFxFlg=           0 DoJE=T BraDBF=F KetDBF=T FulRan=T
         Omega=  0.000000  0.000000  1.000000  0.000000  0.000000 ICntrl=     500 IOpCl=  0
         NMat0=    1 NMatS0=    1 NMatT0=    0 NMatD0=    1 NMtDS0=    0 NMtDT0=    0
         I1Cent=           4 NGrid=           0.
 Petite list used in FoFCou.
 Requested convergence on RMS density matrix=1.00D-08 within 128 cycles.
 Requested convergence on MAX density matrix=1.00D-06.
 Requested convergence on             energy=1.00D-06.
 No special actions if energy rises.
 Integral accuracy reduced to 1.0D-05 until final iterations.
 Initial convergence to 1.0D-05 achieved.  Increase integral accuracy.
 SCF Done:  E(RHF) =  -492.839610061     A.U. after   16 cycles
             Convg  =    0.7992D-08             -V/T =  2.0019
 Calling FoFJK, ICntrl=      2127 FMM=F ISym2X=0 I1Cent= 0 IOpClX= 0 NMat=1 NMatS=1 NMatT=0.
 ***** Axes restored to original set *****
 -------------------------------------------------------------------
 Center     Atomic                   Forces (Hartrees/Bohr)
 Number     Number              X              Y              Z
 -------------------------------------------------------------------
      1        1           0.005025809    0.002962437    0.002846129
      2        6           0.003965990    0.003306413    0.005487951
      3        1          -0.003684675    0.001608857   -0.000728559
      4        1          -0.000967564   -0.003715419    0.000857888
      5        6          -0.004270807   -0.011284314   -0.038203722
      6        8           0.000963049    0.009420954    0.028693509
      7        7           0.010984206   -0.002764735    0.017954763
      8        1           0.004514602    0.003861596   -0.008385588
      9        6           0.006494337    0.003928437   -0.023349589
     10        1          -0.007841976    0.004405597    0.001246364
     11        6          -0.005201224   -0.011846271    0.001872762
     12        1           0.001396106   -0.003872495   -0.000505087
     13        1          -0.000968180   -0.006000103    0.002109505
     14        1           0.000467944    0.003287675   -0.002858227
     15        6          -0.033212840    0.012075988    0.024564058
     16        8           0.018632086   -0.012455803   -0.010575194
     17        7           0.009086174    0.000611890   -0.003449059
     18        1          -0.008481077    0.005757021    0.005067336
     19        6           0.000433971    0.002331224   -0.000463648
     20        1           0.004852561   -0.002918506   -0.004018238
     21        1          -0.002923841    0.000513599   -0.001276525
     22        1           0.000735349    0.000785959    0.003113172
 -------------------------------------------------------------------
 Cartesian Forces:  Max     0.038203722 RMS     0.010229778

 GradGradGradGradGradGradGradGradGradGradGradGradGradGradGradGradGradGrad
 Berny optimization.
 Using GEDIIS/GDIIS optimizer.
 Internal  Forces:  Max     0.028089942 RMS     0.006960193
 Search for a local minimum.
 Step number   2 out of a maximum of  108
 All quantities printed in internal units (Hartrees-Bohrs-Radians)
 Mixed Optimization -- RFO/linear search
 Update second derivatives using D2CorX and points    1    2
 DE= -2.55D-02 DEPred=-5.91D-02 R= 4.31D-01
 Trust test= 4.31D-01 RLast= 3.00D-01 DXMaxT set to 3.00D-01
 Use linear search instead of GDIIS.
     Eigenvalues ---    0.00370   0.00439   0.01003   0.01043   0.01339
     Eigenvalues ---    0.01421   0.01666   0.02551   0.02552   0.03692
     Eigenvalues ---    0.05069   0.05656   0.05878   0.05939   0.07210
     Eigenvalues ---    0.07387   0.07630   0.07696   0.15220   0.15985
     Eigenvalues ---    0.15998   0.16000   0.16000   0.16000   0.16000
     Eigenvalues ---    0.16000   0.16000   0.16000   0.16000   0.16067
     Eigenvalues ---    0.17499   0.21993   0.24219   0.24775   0.24992
     Eigenvalues ---    0.25000   0.29401   0.29782   0.30075   0.34603
     Eigenvalues ---    0.34730   0.34808   0.34809   0.34809   0.34810
     Eigenvalues ---    0.34811   0.34815   0.34819   0.34821   0.37007
     Eigenvalues ---    0.38374   0.45615   0.45962   0.56652   0.58282
     Eigenvalues ---    0.88820   0.90160   0.925641000.000001000.00000
     Eigenvalues --- 1000.000001000.000001000.000001000.000001000.00000
     Eigenvalues --- 1000.000001000.000001000.000001000.000001000.00000
     Eigenvalues --- 1000.000001000.000001000.000001000.000001000.00000
     Eigenvalues --- 1000.000001000.000001000.000001000.000001000.00000
     Eigenvalues --- 1000.000001000.000001000.000001000.000001000.00000
     Eigenvalues --- 1000.000001000.000001000.000001000.000001000.00000
     Eigenvalues --- 1000.000001000.000001000.000001000.000001000.00000
     Eigenvalues --- 1000.000001000.000001000.00000
 RFO step:  Lambda=-1.82348397D-02 EMin= 3.69635157D-03
 Quartic linear search produced a step of -0.00228.
 Maximum step size (   0.300) exceeded in Quadratic search.
    -- Step size scaled by   0.729
 Iteration  1 RMS(Cart)=  0.10057339 RMS(Int)=  0.00242551
 Iteration  2 RMS(Cart)=  0.00365031 RMS(Int)=  0.00039085
 Iteration  3 RMS(Cart)=  0.00000468 RMS(Int)=  0.00039083
 Iteration  4 RMS(Cart)=  0.00000000 RMS(Int)=  0.00039083
 Iteration  1 RMS(Cart)=  0.00010306 RMS(Int)=  0.00003500
 Iteration  2 RMS(Cart)=  0.00005600 RMS(Int)=  0.00003910
 Iteration  3 RMS(Cart)=  0.00003043 RMS(Int)=  0.00004414
 Iteration  4 RMS(Cart)=  0.00001654 RMS(Int)=  0.00004746
 Iteration  5 RMS(Cart)=  0.00000899 RMS(Int)=  0.00004939
 Iteration  6 RMS(Cart)=  0.00000488 RMS(Int)=  0.00005047
 Iteration  7 RMS(Cart)=  0.00000265 RMS(Int)=  0.00005107
 Iteration  8 RMS(Cart)=  0.00000144 RMS(Int)=  0.00005140
 Iteration  9 RMS(Cart)=  0.00000078 RMS(Int)=  0.00005158
 Variable       Old X    -DE/DX   Delta X   Delta X   Delta X     New X
                                 (Linear)    (Quad)   (Total)
    R1        2.05209  -0.00567   0.00002  -0.01203  -0.01201   2.04008
    R2        2.05705  -0.00186   0.00001  -0.00397  -0.00396   2.05309
    R3        2.05690  -0.00205   0.00001  -0.00438  -0.00437   2.05253
    R4        2.88125  -0.00344   0.00002  -0.00909  -0.00906   2.87218
    R5        2.30128  -0.02754   0.00005  -0.02368  -0.02363   2.27765
    R6        2.54778  -0.00071  -0.00006   0.00205   0.00199   2.54977
    R7        1.89728  -0.00930   0.00003  -0.01532  -0.01530   1.88199
    R8        2.77452  -0.01687  -0.00008  -0.02592  -0.02601   2.74851
    R9        2.05610  -0.00355   0.00001  -0.00739  -0.00738   2.04872
   R10        2.90333   0.00147  -0.00005   0.00583   0.00578   2.90911
   R11        2.90226   0.00815  -0.00006   0.02135   0.02129   2.92355
   R12        2.04074  -0.00108   0.00004  -0.00434  -0.00430   2.03644
   R13        2.05622  -0.00326   0.00001  -0.00682  -0.00681   2.04941
   R14        2.05232  -0.00320   0.00002  -0.00713  -0.00711   2.04521
   R15        2.30713  -0.02437   0.00004  -0.02057  -0.02054   2.28660
   R16        2.52936   0.00680  -0.00001   0.00889   0.00888   2.53824
   R17        1.89001  -0.01129   0.00004  -0.01915  -0.01911   1.87090
   R18        2.73881   0.00048   0.00000   0.00093   0.00093   2.73974
   R19        2.05077  -0.00686   0.00002  -0.01452  -0.01450   2.03627
   R20        2.05631  -0.00264   0.00001  -0.00559  -0.00558   2.05073
   R21        2.05610  -0.00283   0.00001  -0.00600  -0.00599   2.05011
    A1        1.91169   0.00002   0.00000  -0.00127  -0.00113   1.91056
    A2        1.91194   0.00025   0.00000  -0.00037  -0.00025   1.91169
    A3        1.92692  -0.00636   0.00003  -0.02854  -0.02838   1.89854
    A4        1.90398  -0.00389   0.00001  -0.01338  -0.01368   1.89030
    A5        1.90515   0.00527  -0.00002   0.02305   0.02294   1.92808
    A6        1.90398   0.00475  -0.00002   0.02076   0.02065   1.92463
    A7        2.07663   0.01489   0.00006   0.03680   0.03686   2.11349
    A8        1.99013  -0.00117   0.00010  -0.00838  -0.00828   1.98185
    A9        2.21642  -0.01372  -0.00016  -0.02842  -0.02858   2.18784
   A10        2.01454   0.00676   0.00018   0.01208   0.01148   2.02601
   A11        2.28829  -0.01043  -0.00037  -0.01300  -0.01414   2.27415
   A12        1.98015   0.00363   0.00018  -0.00048  -0.00107   1.97908
   A13        1.89770   0.00286   0.00003  -0.02930  -0.03061   1.86709
   A14        2.01328  -0.01258  -0.00017  -0.03057  -0.03091   1.98237
   A15        1.88133  -0.00912   0.00013  -0.02829  -0.02869   1.85264
   A16        1.85238  -0.00038   0.00010   0.00399   0.00352   1.85590
   A17        1.90063  -0.00911  -0.00001  -0.03497  -0.03724   1.86339
   A18        1.91621   0.02809  -0.00008   0.11671   0.11679   2.03300
   A19        1.93698   0.00398  -0.00006   0.02289   0.02269   1.95967
   A20        1.90150  -0.00016   0.00002   0.00009  -0.00003   1.90147
   A21        1.92037   0.00225  -0.00002   0.00453   0.00450   1.92486
   A22        1.90637   0.00066   0.00001   0.01333   0.01308   1.91945
   A23        1.90290  -0.00402   0.00002  -0.02045  -0.02046   1.88245
   A24        1.89520  -0.00286   0.00003  -0.02119  -0.02116   1.87404
   A25        2.07683  -0.00731   0.00006  -0.02247  -0.02251   2.05432
   A26        2.08034   0.00671  -0.00010   0.02345   0.02326   2.10359
   A27        2.12566   0.00065   0.00004  -0.00035  -0.00040   2.12526
   A28        2.10084  -0.00026  -0.00001   0.00122   0.00119   2.10203
   A29        2.12829   0.00299   0.00000   0.00912   0.00910   2.13739
   A30        2.05406  -0.00273   0.00002  -0.01035  -0.01034   2.04372
   A31        1.90577  -0.00250   0.00001  -0.01168  -0.01164   1.89413
   A32        1.91735   0.00269  -0.00001   0.01219   0.01215   1.92950
   A33        1.91627   0.00232  -0.00001   0.01031   0.01027   1.92653
   A34        1.90902  -0.00031   0.00000  -0.00208  -0.00205   1.90698
   A35        1.90911  -0.00033   0.00000  -0.00271  -0.00268   1.90643
   A36        1.90626  -0.00187   0.00001  -0.00610  -0.00619   1.90008
    D1        0.00148   0.00002   0.00000   0.00069   0.00070   0.00218
    D2        3.13996   0.00000   0.00000   0.00052   0.00053   3.14049
    D3        2.10380  -0.00056   0.00000  -0.00397  -0.00415   2.09965
    D4       -1.04091  -0.00058   0.00001  -0.00414  -0.00432  -1.04523
    D5       -2.10040   0.00063  -0.00001   0.00566   0.00583  -2.09457
    D6        1.03807   0.00062   0.00000   0.00549   0.00567   1.04374
    D7       -0.01525  -0.00127   0.00003  -0.04272  -0.04275  -0.05799
    D8       -3.13295   0.00088  -0.00002   0.03609   0.03613  -3.09683
    D9        3.12293  -0.00122   0.00004  -0.04277  -0.04278   3.08015
   D10        0.00523   0.00093  -0.00001   0.03605   0.03609   0.04132
   D11       -2.39271  -0.00312   0.00008  -0.07308  -0.07292  -2.46563
   D12       -0.31517  -0.00970   0.00012  -0.10924  -0.10829  -0.42346
   D13        1.83266   0.01120   0.00000   0.00000   0.00000   1.83266
   D14        0.77239  -0.00104   0.00003   0.00437   0.00412   0.77651
   D15        2.84994  -0.00762   0.00007  -0.03178  -0.03125   2.81869
   D16       -1.28542   0.01328  -0.00005   0.07745   0.07704  -1.20838
   D17        1.06347   0.00120  -0.00004   0.04300   0.04305   1.10652
   D18       -3.12006   0.00438  -0.00005   0.07379   0.07396  -3.04610
   D19       -1.04421   0.00214  -0.00001   0.05071   0.05085  -0.99336
   D20       -3.11728  -0.00318  -0.00003  -0.00998  -0.01070  -3.12798
   D21       -1.01761   0.00001  -0.00005   0.02081   0.02021  -0.99741
   D22        1.05823  -0.00223   0.00000  -0.00227  -0.00290   1.05533
   D23       -1.06576   0.00029  -0.00003   0.01093   0.01131  -1.05445
   D24        1.03390   0.00348  -0.00005   0.04173   0.04222   1.07612
   D25        3.10974   0.00124   0.00000   0.01865   0.01911   3.12885
   D26        0.75714   0.00049   0.00006   0.02490   0.02498   0.78212
   D27       -2.35616  -0.00167   0.00000   0.00000   0.00000  -2.35615
   D28       -1.29878   0.00711  -0.00004   0.09445   0.09347  -1.20531
   D29        1.87111   0.00495  -0.00011   0.06955   0.06849   1.93960
   D30        2.96321  -0.00286  -0.00011   0.04474   0.04521   3.00842
   D31       -0.15009  -0.00502  -0.00018   0.01984   0.02023  -0.12985
   D32       -0.01125   0.00177   0.00003   0.02582   0.02602   0.01477
   D33        3.12887   0.00132   0.00003   0.01645   0.01663  -3.13768
   D34       -3.12372  -0.00032  -0.00004   0.00055   0.00036  -3.12336
   D35        0.01640  -0.00077  -0.00004  -0.00881  -0.00903   0.00737
   D36        0.00060   0.00014   0.00000   0.00405   0.00404   0.00463
   D37        2.09413  -0.00015   0.00000   0.00172   0.00166   2.09579
   D38       -2.09238   0.00067   0.00000   0.00828   0.00831  -2.08408
   D39        3.14076  -0.00029   0.00000  -0.00507  -0.00505   3.13571
   D40       -1.04890  -0.00058   0.00000  -0.00739  -0.00743  -1.05632
   D41        1.04778   0.00024   0.00000  -0.00084  -0.00078   1.04700
         Item               Value     Threshold  Converged?
 Maximum Force            0.027540     0.000450     NO 
 RMS     Force            0.006795     0.000300     NO 
 Maximum Displacement     0.410312     0.001800     NO 
 RMS     Displacement     0.100203     0.001200     NO 
 Predicted change in Energy=-9.282868D-03
 GradGradGradGradGradGradGradGradGradGradGradGradGradGradGradGradGradGrad

                          Input orientation:                          
 ---------------------------------------------------------------------
 Center     Atomic      Atomic             Coordinates (Angstroms)
 Number     Number       Type             X           Y           Z
 ---------------------------------------------------------------------
      1          1           0        1.138943    2.450909   -1.732628
      2          6           0        1.586599    2.900630   -0.859234
      3          1           0        1.616115    2.173584   -0.052452
      4          1           0        0.984029    3.744552   -0.536081
      5          6           0        2.991590    3.360957   -1.211625
      6          8           0        3.438539    3.203647   -2.319865
      7          7           0        3.642450    3.942315   -0.182568
      8          1           0        3.122223    4.049849    0.659825
      9          6           0        4.962775    4.549871   -0.127449
     10          1           0        5.396115    4.279174    0.828733
     11          6           0        5.928273    4.023727   -1.204874
     12          1           0        5.592670    4.255179   -2.202425
     13          1           0        6.910766    4.450759   -1.036088
     14          1           0        6.025746    2.948545   -1.128626
     15          6           0        4.731685    6.079261   -0.095695
     16          8           0        3.873817    6.503309    0.644833
     17          7           0        5.462915    6.896015   -0.871802
     18          1           0        6.149417    6.526421   -1.481959
     19          6           0        5.284996    8.334867   -0.872027
     20          1           0        4.507204    8.583776   -0.169042
     21          1           0        6.204126    8.832434   -0.579994
     22          1           0        4.997807    8.679919   -1.859656
 ---------------------------------------------------------------------
                    Distance matrix (angstroms):
                    1          2          3          4          5
     1  H    0.000000
     2  C    1.079565   0.000000
     3  H    1.768501   1.086447   0.000000
     4  H    1.768964   1.086150   1.761071   0.000000
     5  C    2.128834   1.519895   2.155335   2.152627   0.000000
     6  O    2.489900   2.378013   3.086004   3.082058   1.205283
     7  N    3.300686   2.401981   2.692838   2.689105   1.349279
     8  H    3.494831   2.446710   2.509198   2.468861   1.998489
     9  C    4.648003   3.828063   4.105180   4.079944   2.544508
    10  H    5.294019   4.388853   4.415699   4.649198   3.284498
    11  C    5.068527   4.497883   4.831751   4.997077   3.010551
    12  H    4.828227   4.437067   4.976787   4.927171   2.923514
    13  H    6.148049   5.548057   5.846914   5.989570   4.071661
    14  H    4.949071   4.447572   4.604733   5.138448   3.063181
    15  C    5.362115   4.536326   4.996295   4.437311   3.415026
    16  O    5.436341   4.524697   4.932540   4.166074   3.754882
    17  N    6.260729   5.566785   6.145777   5.486789   4.326611
    18  H    6.463550   5.861182   6.445271   5.942619   4.479410
    19  C    7.249231   6.573373   7.217604   6.299379   5.487697
    20  H    7.169522   6.426854   7.032962   5.997130   5.537319
    21  H    8.228517   7.522355   8.103606   7.289573   6.376237
    22  H    7.328542   6.785084   7.552101   6.497701   5.721557
                    6          7          8          9         10
     6  O    0.000000
     7  N    2.270518   0.000000
     8  H    3.113626   0.995904   0.000000
     9  C    2.990368   1.454448   2.063359   0.000000
    10  H    3.860380   2.052205   2.291660   1.084134   0.000000
    11  C    2.848598   2.505339   3.369228   1.539435   2.117547
    12  H    2.399956   2.825078   3.786521   2.188409   3.037620
    13  H    3.906371   3.415977   4.170120   2.151771   2.408561
    14  H    2.859679   2.750037   3.583556   2.167143   2.449136
    15  C    3.858538   2.400107   2.698090   1.547077   2.129871
    16  O    4.457204   2.701261   2.566044   2.366046   2.701480
    17  N    4.452928   3.537440   3.990662   2.511692   3.121561
    18  H    4.369413   3.827650   4.459209   2.673867   3.310118
    19  C    5.642256   4.740023   5.038406   3.870971   4.399270
    20  H    5.891848   4.721349   4.812659   4.059762   4.507252
    21  H    6.508368   5.534744   5.823091   4.481751   4.834208
    22  H    5.712501   5.205238   5.594921   4.478735   5.172296
                   11         12         13         14         15
    11  C    0.000000
    12  H    1.077640   0.000000
    13  H    1.084498   1.770868   0.000000
    14  H    1.082280   1.745822   1.745987   0.000000
    15  C    2.624371   2.916656   2.878325   3.541600   0.000000
    16  O    3.713562   4.014402   4.032558   4.517998   1.210015
    17  N    2.928744   2.959969   2.846497   3.995656   1.343178
    18  H    2.527679   2.446953   2.255399   3.597407   2.032645
    19  C    4.371559   4.302148   4.213827   5.443071   2.448796
    20  H    4.887375   4.904043   4.859086   5.914610   2.515624
    21  H    4.856978   4.894632   4.461663   5.912104   3.159523
    22  H    4.793186   4.477687   4.714178   5.868536   3.153696
                   16         17         18         19         20
    16  O    0.000000
[...]
    12  H    4.903757   4.499613   5.091222   4.922221   2.994178
    13  H    6.135707   5.558126   5.875212   6.019209   4.080319
    14  H    4.846757   4.431147   4.693988   5.137873   3.022567
    15  C    5.412024   4.523204   4.852960   4.486217   3.420655
    16  O    5.574900   4.579410   4.774462   4.343653   3.821564
    17  N    6.294144   5.519478   6.000090   5.445881   4.300598
    18  H    6.340038   5.688107   6.245294   5.740067   4.329571
    19  C    7.304659   6.511549   7.020407   6.231101   5.457718
    20  H    7.811047   6.925177   7.297369   6.615667   5.961609
    21  H    8.091660   7.365948   7.926479   7.134556   6.216904
    22  H    7.036649   6.284795   6.879561   5.850000   5.396092
                    6          7          8          9         10
     6  O    0.000000
     7  N    2.266248   0.000000
     8  H    3.108308   0.995598   0.000000
     9  C    2.946765   1.455363   2.057842   0.000000
    10  H    3.827000   2.035269   2.309878   1.085951   0.000000
    11  C    2.827731   2.519305   3.386532   1.526864   2.113674
    12  H    2.452086   2.894354   3.825184   2.189182   3.041263
    13  H    3.898153   3.418169   4.166705   2.139255   2.372010
    14  H    2.772266   2.722989   3.615509   2.149241   2.471634
    15  C    3.857503   2.414415   2.610557   1.537229   2.075035
    16  O    4.520472   2.752300   2.490579   2.366048   2.618975
    17  N    4.415698   3.533442   3.891723   2.477841   3.067059
    18  H    4.184083   3.747704   4.318937   2.616227   3.299360
    19  C    5.609255   4.731568   4.910863   3.834098   4.336092
    20  H    6.285108   5.053143   5.053460   4.150533   4.416340
    21  H    6.201468   5.561524   5.850647   4.539455   5.036705
    22  H    5.557161   4.851495   4.972421   4.243457   4.887498
                   11         12         13         14         15
    11  C    0.000000
    12  H    1.079145   0.000000
    13  H    1.085756   1.771537   0.000000
    14  H    1.081374   1.739058   1.752657   0.000000
    15  C    2.615535   2.920483   2.878703   3.525003   0.000000
    16  O    3.708443   4.048490   4.006191   4.504078   1.204595
    17  N    2.883116   2.891727   2.839434   3.950008   1.343470
    18  H    2.453210   2.259379   2.317040   3.526528   2.022934
    19  C    4.325006   4.230740   4.204642   5.396019   2.432666
    20  H    4.863614   4.971606   4.668302   5.897304   2.678425
    21  H    4.721651   4.530756   4.427396   5.800183   3.300352
    22  H    4.824876   4.574351   4.909632   5.868969   2.829974
                   16         17         18         19         20
    16  O    0.000000
    17  N    2.236626   0.000000
    18  H    3.107098   0.991977   0.000000
    19  C    2.753359   1.448531   2.109332   0.000000
    20  H    2.637575   2.080510   2.901628   1.080220   0.000000
    21  H    3.787541   2.066871   2.301671   1.081774   1.761222
    22  H    2.934706   2.105361   2.720595   1.084104   1.755633
                   21         22
    21  H    0.000000
    22  H    1.764233   0.000000
 Stoichiometry    C6H12N2O2
 Framework group  C1[X(C6H12N2O2)]
 Deg. of freedom    60
 Full point group                 C1      NOp   1
 Largest Abelian subgroup         C1      NOp   1
 Largest concise Abelian subgroup C1      NOp   1
                         Standard orientation:                         
 ---------------------------------------------------------------------
 Center     Atomic      Atomic             Coordinates (Angstroms)
 Number     Number       Type             X           Y           Z
 ---------------------------------------------------------------------
      1          1           0       -3.963848   -0.835324    0.908368
      2          6           0       -3.114690   -1.178974    0.336344
      3          1           0       -3.436937   -1.477872   -0.654719
      4          1           0       -2.688530   -2.047694    0.829324
      5          6           0       -2.081089   -0.070808    0.283930
      6          8           0       -2.124763    0.866411    1.032746
      7          7           0       -1.131512   -0.254106   -0.668364
      8          1           0       -1.099960   -1.151963   -1.097401
      9          6           0        0.078130    0.522997   -0.894105
     10          1           0        0.223254    0.528122   -1.970304
     11          6           0        0.007153    1.982760   -0.452099
     12          1           0       -0.046204    2.099870    0.619345
     13          1           0        0.876675    2.506802   -0.837036
     14          1           0       -0.874743    2.449301   -0.869193
     15          6           0        1.265380   -0.309215   -0.383291
     16          8           0        1.337342   -1.470312   -0.695902
     17          7           0        2.202750    0.300499    0.361355
     18          1           0        2.031551    1.216208    0.702218
     19          6           0        3.329812   -0.434760    0.897423
     20          1           0        3.804597   -1.003352    0.111193
     21          1           0        4.042094    0.270848    1.303634
     22          1           0        3.024586   -1.120480    1.679667
 ---------------------------------------------------------------------
 Rotational constants (GHZ):      2.2869392      0.7629882      0.6839635

 **********************************************************************

            Population analysis using the SCF density.

 **********************************************************************

 Orbital symmetries:
       Occupied  (A) (A) (A) (A) (A) (A) (A) (A) (A) (A) (A) (A)
                 (A) (A) (A) (A) (A) (A) (A) (A) (A) (A) (A) (A)
                 (A) (A) (A) (A) (A) (A) (A) (A) (A) (A) (A) (A)
                 (A) (A) (A)
       Virtual   (A) (A) (A) (A) (A) (A) (A) (A) (A) (A) (A) (A)
                 (A) (A) (A) (A) (A) (A) (A) (A) (A) (A) (A) (A)
                 (A) (A) (A) (A) (A) (A) (A) (A) (A) (A) (A) (A)
                 (A) (A) (A) (A) (A) (A) (A) (A) (A) (A) (A) (A)
                 (A) (A) (A) (A) (A) (A) (A) (A) (A) (A) (A) (A)
                 (A) (A) (A) (A) (A) (A) (A) (A) (A) (A) (A) (A)
                 (A) (A) (A) (A) (A) (A) (A) (A) (A) (A) (A) (A)
                 (A) (A) (A) (A) (A) (A) (A) (A) (A) (A) (A) (A)
                 (A) (A) (A) (A) (A) (A) (A) (A) (A) (A) (A) (A)
                 (A) (A) (A) (A) (A) (A) (A) (A) (A) (A) (A) (A)
                 (A) (A) (A) (A) (A) (A) (A) (A) (A) (A) (A) (A)
                 (A) (A) (A)
 The electronic state is 1-A.
 Alpha  occ. eigenvalues --  -20.52442 -20.51965 -15.59237 -15.58274 -11.34785
 Alpha  occ. eigenvalues --  -11.34714 -11.28592 -11.26122 -11.22808 -11.22547
 Alpha  occ. eigenvalues --   -1.39649  -1.38621  -1.23918  -1.23554  -1.05824
 Alpha  occ. eigenvalues --   -0.99024  -0.95810  -0.89542  -0.80365  -0.76470
 Alpha  occ. eigenvalues --   -0.72587  -0.69783  -0.65586  -0.64690  -0.62272
 Alpha  occ. eigenvalues --   -0.61812  -0.59594  -0.58795  -0.56488  -0.55994
 Alpha  occ. eigenvalues --   -0.55611  -0.54685  -0.53084  -0.51627  -0.50565
 Alpha  occ. eigenvalues --   -0.43096  -0.41173  -0.39584  -0.38089
 Alpha virt. eigenvalues --    0.19256   0.20888   0.21906   0.23849   0.25745
 Alpha virt. eigenvalues --    0.27216   0.29296   0.30437   0.31464   0.31816
 Alpha virt. eigenvalues --    0.32879   0.33641   0.33851   0.34530   0.37222
 Alpha virt. eigenvalues --    0.38960   0.40959   0.45126   0.46924   0.50570
 Alpha virt. eigenvalues --    0.50862   0.59553   0.62738   0.69047   0.72252
 Alpha virt. eigenvalues --    0.74372   0.75166   0.75937   0.77042   0.79898
 Alpha virt. eigenvalues --    0.80399   0.82508   0.84121   0.88932   0.90451
 Alpha virt. eigenvalues --    0.93249   0.94887   0.95742   0.97281   0.99245
 Alpha virt. eigenvalues --    1.00625   1.02409   1.05280   1.05724   1.08678
 Alpha virt. eigenvalues --    1.12098   1.13076   1.13751   1.14555   1.15859
 Alpha virt. eigenvalues --    1.16296   1.18614   1.19296   1.20727   1.21000
 Alpha virt. eigenvalues --    1.21837   1.22244   1.23560   1.26276   1.27571
 Alpha virt. eigenvalues --    1.28593   1.33147   1.35201   1.37610   1.43175
 Alpha virt. eigenvalues --    1.45696   1.47330   1.54212   1.58011   1.60663
 Alpha virt. eigenvalues --    1.64745   1.69630   1.71642   1.74173   1.75622
 Alpha virt. eigenvalues --    1.78894   1.80985   1.84760   1.89565   1.95628
 Alpha virt. eigenvalues --    2.00819   2.06364   2.09097   2.10122   2.12905
 Alpha virt. eigenvalues --    2.14175   2.16032   2.19416   2.20902   2.21441
 Alpha virt. eigenvalues --    2.25021   2.26400   2.29594   2.33454   2.34332
 Alpha virt. eigenvalues --    2.38488   2.40230   2.42867   2.44380   2.45611
 Alpha virt. eigenvalues --    2.51992   2.55671   2.56409   2.61775   2.64974
 Alpha virt. eigenvalues --    2.67701   2.68392   2.71885   2.74277   2.76948
 Alpha virt. eigenvalues --    2.80380   2.82401   2.85814   2.91730   2.98002
 Alpha virt. eigenvalues --    3.03483   3.04549   3.05510   3.10037   3.26735
 Alpha virt. eigenvalues --    3.32823   3.37690   3.41451   3.53669   3.59675
 Alpha virt. eigenvalues --    4.37530   4.43461   4.49453   4.56446   4.62789
 Alpha virt. eigenvalues --    4.64626   4.72477   4.76294   4.95741   5.10961
          Condensed to atoms (all electrons):
              1          2          3          4          5          6
     1  H    0.465019   0.384653  -0.020083  -0.017453  -0.033076   0.003671
     2  C    0.384653   5.276036   0.375889   0.374066   0.376864  -0.071982
     3  H   -0.020083   0.375889   0.514951  -0.024557  -0.035680   0.001838
     4  H   -0.017453   0.374066  -0.024557   0.494939  -0.026759   0.000628
     5  C   -0.033076   0.376864  -0.035680  -0.026759   4.143611   0.613877
     6  O    0.003671  -0.071982   0.001838   0.000628   0.613877   8.159268
     7  N    0.004475  -0.127362   0.005306   0.000921   0.251507  -0.099782
     8  H    0.000068  -0.001138   0.000004   0.000254  -0.018371   0.002279
     9  C   -0.000074   0.003069   0.000149  -0.000273  -0.021357   0.003393
    10  H    0.000002  -0.000062  -0.000006  -0.000002   0.001780  -0.000055
    11  C    0.000004   0.000009  -0.000015  -0.000002  -0.002224  -0.005795
    12  H    0.000001   0.000051   0.000000  -0.000004   0.000897   0.002308
    13  H    0.000000   0.000011   0.000000   0.000000   0.000167   0.000693
    14  H    0.000001  -0.000058  -0.000001   0.000001   0.000193  -0.000377
    15  C   -0.000002  -0.000194   0.000006   0.000071  -0.000989  -0.000172
    16  O    0.000000  -0.000097  -0.000001   0.000016   0.000648   0.000000
    17  N    0.000000   0.000001   0.000000   0.000000   0.000271  -0.000042
    18  H    0.000000   0.000000   0.000000   0.000000   0.000005  -0.000039
    19  C    0.000000   0.000000   0.000000   0.000000  -0.000008   0.000001
    20  H    0.000000   0.000000   0.000000   0.000000   0.000000   0.000000
    21  H    0.000000   0.000000   0.000000   0.000000   0.000000   0.000000
    22  H    0.000000   0.000000   0.000000   0.000000  -0.000001   0.000000
              7          8          9         10         11         12
     1  H    0.004475   0.000068  -0.000074   0.000002   0.000004   0.000001
     2  C   -0.127362  -0.001138   0.003069  -0.000062   0.000009   0.000051
     3  H    0.005306   0.000004   0.000149  -0.000006  -0.000015   0.000000
     4  H    0.000921   0.000254  -0.000273  -0.000002  -0.000002  -0.000004
     5  C    0.251507  -0.018371  -0.021357   0.001780  -0.002224   0.000897
     6  O   -0.099782   0.002279   0.003393  -0.000055  -0.005795   0.002308
     7  N    7.390021   0.322365   0.211595  -0.049043  -0.040592  -0.001962
     8  H    0.322365   0.311055  -0.029763  -0.001831   0.003386  -0.000109
     9  C    0.211595  -0.029763   5.010078   0.421854   0.325071  -0.032044
    10  H   -0.049043  -0.001831   0.421854   0.509396  -0.037177   0.003745
    11  C   -0.040592   0.003386   0.325071  -0.037177   5.149035   0.390317
    12  H   -0.001962  -0.000109  -0.032044   0.003745   0.390317   0.479757
    13  H    0.003844  -0.000070  -0.039854  -0.004470   0.378742  -0.029275
    14  H   -0.001751  -0.000102  -0.028951  -0.003273   0.394876  -0.020448
    15  C   -0.064842  -0.001629   0.381313  -0.052095  -0.044385  -0.002886
    16  O   -0.005555   0.011786  -0.078829   0.000181   0.002621  -0.000033
    17  N    0.001848   0.000438  -0.098156   0.002436  -0.001711   0.000413
    18  H    0.000024  -0.000030  -0.002923   0.000254   0.002302   0.002261
    19  C   -0.000162  -0.000009   0.004230  -0.000193  -0.000127  -0.000080
    20  H   -0.000009  -0.000002   0.000062   0.000022  -0.000004   0.000002
    21  H    0.000000   0.000000   0.000035   0.000003  -0.000023   0.000008
    22  H    0.000025   0.000001  -0.000228  -0.000008   0.000004  -0.000012
             13         14         15         16         17         18
     1  H    0.000000   0.000001  -0.000002   0.000000   0.000000   0.000000
     2  C    0.000011  -0.000058  -0.000194  -0.000097   0.000001   0.000000
     3  H    0.000000  -0.000001   0.000006  -0.000001   0.000000   0.000000
     4  H    0.000000   0.000001   0.000071   0.000016   0.000000   0.000000
     5  C    0.000167   0.000193  -0.000989   0.000648   0.000271   0.000005
     6  O    0.000693  -0.000377  -0.000172   0.000000  -0.000042  -0.000039
     7  N    0.003844  -0.001751  -0.064842  -0.005555   0.001848   0.000024
     8  H   -0.000070  -0.000102  -0.001629   0.011786   0.000438  -0.000030
     9  C   -0.039854  -0.028951   0.381313  -0.078829  -0.098156  -0.002923
    10  H   -0.004470  -0.003273  -0.052095   0.000181   0.002436   0.000254
    11  C    0.378742   0.394876  -0.044385   0.002621  -0.001711   0.002302
    12  H   -0.029275  -0.020448  -0.002886  -0.000033   0.000413   0.002261
    13  H    0.557323  -0.024092  -0.001734  -0.000035   0.000751  -0.000726
    14  H   -0.024092   0.478368   0.003157  -0.000048   0.000012   0.000062
    15  C   -0.001734   0.003157   4.167967   0.594637   0.291562  -0.015765
    16  O   -0.000035  -0.000048   0.594637   8.200798  -0.106961   0.002496
    17  N    0.000751   0.000012   0.291562  -0.106961   7.319458   0.322189
    18  H   -0.000726   0.000062  -0.015765   0.002496   0.322189   0.311407
    19  C   -0.000029   0.000004  -0.030622   0.008558   0.195839  -0.023029
    20  H   -0.000010   0.000000  -0.003172   0.003451  -0.039830   0.002524
    21  H    0.000000   0.000000   0.004461   0.000387  -0.037862  -0.004035
    22  H    0.000005   0.000000  -0.003097   0.001370  -0.045942   0.001166
             19         20         21         22
     1  H    0.000000   0.000000   0.000000   0.000000
     2  C    0.000000   0.000000   0.000000   0.000000
     3  H    0.000000   0.000000   0.000000   0.000000
     4  H    0.000000   0.000000   0.000000   0.000000
     5  C   -0.000008   0.000000   0.000000  -0.000001
     6  O    0.000001   0.000000   0.000000   0.000000
     7  N   -0.000162  -0.000009   0.000000   0.000025
     8  H   -0.000009  -0.000002   0.000000   0.000001
     9  C    0.004230   0.000062   0.000035  -0.000228
    10  H   -0.000193   0.000022   0.000003  -0.000008
    11  C   -0.000127  -0.000004  -0.000023   0.000004
    12  H   -0.000080   0.000002   0.000008  -0.000012
    13  H   -0.000029  -0.000010   0.000000   0.000005
    14  H    0.000004   0.000000   0.000000   0.000000
    15  C   -0.030622  -0.003172   0.004461  -0.003097
    16  O    0.008558   0.003451   0.000387   0.001370
    17  N    0.195839  -0.039830  -0.037862  -0.045942
    18  H   -0.023029   0.002524  -0.004035   0.001166
    19  C    4.910851   0.404084   0.397625   0.405833
    20  H    0.404084   0.487661  -0.025015  -0.032511
    21  H    0.397625  -0.025015   0.525964  -0.031284
    22  H    0.405833  -0.032511  -0.031284   0.521529
 Mulliken atomic charges:
              1
     1  H    0.212792
     2  C   -0.589755
     3  H    0.182200
     4  H    0.198155
     5  C    0.748642
     6  O   -0.609713
     7  N   -0.800872
     8  H    0.401417
     9  C   -0.028398
    10  H    0.208540
    11  C   -0.514314
    12  H    0.207093
    13  H    0.158760
    14  H    0.202425
    15  C    0.778408
    16  O   -0.635390
    17  N   -0.804715
    18  H    0.401856
    19  C   -0.272765
    20  H    0.202749
    21  H    0.169736
    22  H    0.183148
 Sum of Mulliken atomic charges =   0.00000
 Mulliken charges with hydrogens summed into heavy atoms:
              1
     2  C    0.003393
     5  C    0.748642
     6  O   -0.609713
     7  N   -0.399455
     9  C    0.180143
    11  C    0.053964
    15  C    0.778408
    16  O   -0.635390
    17  N   -0.402859
    19  C    0.282869
 Sum of Mulliken charges with hydrogens summed into heavy atoms =   0.00000
 Electronic spatial extent (au):  <R**2>=           1802.7606
 Charge=              0.0000 electrons
 Dipole moment (field-independent basis, Debye):
    X=              1.4091    Y=              0.7095    Z=             -0.6402  Tot=              1.7026
 Quadrupole moment (field-independent basis, Debye-Ang):
   XX=            -55.4983   YY=            -62.8717   ZZ=            -61.0407
   XY=             11.2877   XZ=              8.1916   YZ=             -3.7689
 Traceless Quadrupole moment (field-independent basis, Debye-Ang):
   XX=              4.3052   YY=             -3.0681   ZZ=             -1.2371
   XY=             11.2877   XZ=              8.1916   YZ=             -3.7689
 Octapole moment (field-independent basis, Debye-Ang**2):
  XXX=             17.2510  YYY=              5.8526  ZZZ=             -3.4165  XYY=             -3.3093
  XXY=            -11.8157  XXZ=              4.4697  XZZ=              6.9648  YZZ=             -2.5985
  YYZ=              2.5711  XYZ=              3.1878
 Hexadecapole moment (field-independent basis, Debye-Ang**3):
 XXXX=          -1505.0498 YYYY=           -473.5106 ZZZZ=           -248.3517 XXXY=             22.2779
 XXXZ=             37.3140 YYYX=             13.9176 YYYZ=              0.6569 ZZZX=              3.7910
 ZZZY=              4.0544 XXYY=           -350.4895 XXZZ=           -313.7798 YYZZ=           -117.3888
 XXYZ=             -9.6985 YYXZ=             15.7044 ZZXY=              9.7249
 N-N= 5.591616869526D+02 E-N=-2.273752197510D+03  KE= 4.921180230711D+02
 1\1\GINC-RODAN\FOpt\RHF\6-31G(d)\C6H12N2O2\STEBOSS\09-Feb-2017\0\\# HF
 /6-31G* Opt=(ModRedundant) geom=nocrowd\\Phi Psi fixed scan\\0,1\H,1.2
 688780297,2.2509177576,-1.7348964873\C,1.5927066869,2.9239580001,-0.95
 48144054\H,1.4908477375,2.4419672881,0.010948951\H,0.9545252279,3.8025
 796982,-0.9628514782\C,3.0249478971,3.3379744888,-1.2311957018\O,3.532
 6014881,3.1691836916,-2.3058160616\N,3.6448601999,3.905484462,-0.16545
 66105\H,3.0654851453,4.1540243283,0.6051068224\C,4.9508278371,4.546189
 7108,-0.1204297096\H,5.3559721373,4.3109111419,0.8592602475\C,5.960760
 5403,4.0406142627,-1.1479238704\H,5.7020900341,4.3029518963,-2.1622322
 081\H,6.9394351422,4.4413471944,-0.9020067324\H,6.0212454521,2.9619102
 301,-1.102009875\C,4.7197899398,6.0643207832,-0.0499138752\O,3.9124197
 595,6.4925847144,0.7348110197\N,5.4576591337,6.8626675815,-0.839282547
 9\H,6.0080542678,6.4586879739,-1.558924498\C,5.267027543,8.2985988416,
 -0.8413671179\H,5.2858246258,8.6728489781,0.1717753642\H,6.0722820332,
 8.7541052403,-1.4020051739\H,4.3205591414,8.5758717361,-1.2914760512\\
 Version=EM64L-G09RevA.02\State=1-A\HF=-492.8491829\RMSD=6.647e-09\RMSF
 =6.026e-04\Dipole=0.5815084,0.2756461,0.1859979\Quadrupole=5.5774041,0
 .2454447,-5.8228488,4.6198831,-1.3972774,-8.2271457\PG=C01 [X(C6H12N2O
 2)]\\@


 BULLDOZER: SOMEONE WHO SLEEPS THROUGH SPEECHES.
 Job cpu time:  0 days  0 hours 25 minutes 43.2 seconds.
 File lengths (MBytes):  RWF=     25 Int=      0 D2E=      0 Chk=      3 Scr=      1
 Normal termination of Gaussian 09 at Thu Feb  9 22:43:49 2017.
