 Entering Gaussian System, Link 0=g09
 Initial command:
 /home/steboss/Software/g09/l1.exe /tmp/Gau-19348.inp -scrdir=/tmp/
 Entering Link 1 = /home/steboss/Software/g09/l1.exe PID=     19350.
  
 Copyright (c) 1988,1990,1992,1993,1995,1998,2003,2009, Gaussian, Inc.
                  All Rights Reserved.
  
 This is part of the Gaussian(R) 09 program.  It is based on
 the Gaussian(R) 03 system (copyright 2003, Gaussian, Inc.),
 the Gaussian(R) 98 system (copyright 1998, Gaussian, Inc.),
 the Gaussian(R) 94 system (copyright 1995, Gaussian, Inc.),
 the Gaussian 92(TM) system (copyright 1992, Gaussian, Inc.),
 the Gaussian 90(TM) system (copyright 1990, Gaussian, Inc.),
 the Gaussian 88(TM) system (copyright 1988, Gaussian, Inc.),
 the Gaussian 86(TM) system (copyright 1986, Carnegie Mellon
 University), and the Gaussian 82(TM) system (copyright 1983,
 Carnegie Mellon University). Gaussian is a federally registered
 trademark of Gaussian, Inc.
  
 This software contains proprietary and confidential information,
 including trade secrets, belonging to Gaussian, Inc.
  
 This software is provided under written license and may be
 used, copied, transmitted, or stored only in accord with that
 written license.
  
 The following legend is applicable only to US Government
 contracts under FAR:
  
                    RESTRICTED RIGHTS LEGEND
  
 Use, reproduction and disclosure by the US Government is
 subject to restrictions as set forth in subparagraphs (a)
 and (c) of the Commercial Computer Software - Restricted
 Rights clause in FAR 52.227-19.
  
 Gaussian, Inc.
 340 Quinnipiac St., Bldg. 40, Wallingford CT 06492
  
  
 ---------------------------------------------------------------
 Warning -- This program may not be used in any manner that
 competes with the business of Gaussian, Inc. or will provide
 assistance to any competitor of Gaussian, Inc.  The licensee
 of this program is prohibited from giving any competitor of
 Gaussian, Inc. access to this program.  By using this program,
 the user acknowledges that Gaussian, Inc. is engaged in the
 business of creating and licensing software in the field of
 computational chemistry and represents and warrants to the
 licensee that it is not a competitor of Gaussian, Inc. and that
 it will not use this program in any manner prohibited above.
 ---------------------------------------------------------------
  

 Cite this work as:
 Gaussian 09, Revision A.02,
 M. J. Frisch, G. W. Trucks, H. B. Schlegel, G. E. Scuseria, 
 M. A. Robb, J. R. Cheeseman, G. Scalmani, V. Barone, B. Mennucci, 
 G. A. Petersson, H. Nakatsuji, M. Caricato, X. Li, H. P. Hratchian, 
 A. F. Izmaylov, J. Bloino, G. Zheng, J. L. Sonnenberg, M. Hada, 
 M. Ehara, K. Toyota, R. Fukuda, J. Hasegawa, M. Ishida, T. Nakajima, 
 Y. Honda, O. Kitao, H. Nakai, T. Vreven, J. A. Montgomery, Jr., 
 J. E. Peralta, F. Ogliaro, M. Bearpark, J. J. Heyd, E. Brothers, 
 K. N. Kudin, V. N. Staroverov, R. Kobayashi, J. Normand, 
 K. Raghavachari, A. Rendell, J. C. Burant, S. S. Iyengar, J. Tomasi, 
 M. Cossi, N. Rega, J. M. Millam, M. Klene, J. E. Knox, J. B. Cross, 
 V. Bakken, C. Adamo, J. Jaramillo, R. Gomperts, R. E. Stratmann, 
 O. Yazyev, A. J. Austin, R. Cammi, C. Pomelli, J. W. Ochterski, 
 R. L. Martin, K. Morokuma, V. G. Zakrzewski, G. A. Voth, 
 P. Salvador, J. J. Dannenberg, S. Dapprich, A. D. Daniels, 
 O. Farkas, J. B. Foresman, J. V. Ortiz, J. Cioslowski, 
 and D. J. Fox, Gaussian, Inc., Wallingford CT, 2009.
 
 ******************************************
 Gaussian 09:  EM64L-G09RevA.02 11-Jun-2009
                 9-Feb-2017 
 ******************************************
 %chk=structure_345.chk
 %NProcShared=8
 Will use up to    8 processors via shared memory.
 -------------------------------------------
 # HF/6-31G* Opt=(ModRedundant) geom=nocrowd
 -------------------------------------------
 1/18=120,19=15,38=1/1,3;
 2/9=110,12=1,17=6,18=5,40=1/2;
 3/5=1,6=6,7=1,11=9,16=1,25=1,30=1,71=1/1,2,3;
 4//1;
 5/5=2,38=5/2;
 6/7=2,8=2,9=2,10=2,28=1/1;
 7//1,2,3,16;
 1/18=20,19=15/3(2);
 2/9=110,12=1/2;
 99//99;
 2/9=110,12=1/2;
 3/5=1,6=6,7=1,11=9,16=1,25=1,30=1,71=1/1,2,3;
 4/5=5,16=3/1;
 5/5=2,38=5/2;
 7//1,2,3,16;
 1/18=20,19=15/3(-5);
 2/9=110,12=1/2;
 6/7=2,8=2,9=2,10=2,19=2,28=1/1;
 99/9=1/99;
 ------------------
 Phi Psi fixed scan
 ------------------
 Symbolic Z-matrix:
 Charge =  0 Multiplicity = 1
 H                     1.3513    2.3068   -1.9013 
 C                     1.6731    2.7486   -0.9582 
 H                     1.7242    1.9746   -0.1925 
 H                     0.9598    3.5143   -0.6531 
 C                     3.0539    3.3932   -1.0948 
 O                     3.6506    3.3681   -2.1689 
 N                     3.5554    3.9697    0. 
 H                     3.0267    3.9647    0.8606 
 C                     4.8533    4.6139    0. 
 H                     5.4076    4.3155    0.8898 
 C                     5.6613    4.2208   -1.2322 
 H                     5.1233    4.5214   -2.1312 
 H                     6.6305    4.7189   -1.2058 
 H                     5.8085    3.1409   -1.2414 
 C                     4.7127    6.1294    0. 
 O                     5.6735    6.845     0.2741 
 N                     3.5094    6.6181   -0.3089 
 H                     2.7497    5.9893   -0.5272 
 C                     3.2474    8.0428   -0.3436 
 H                     4.1568    8.5863   -0.0875 
 H                     2.9233    8.329    -1.3442 
 H                     2.4646    8.2864    0.3748 
 
 The following ModRedundant input section has been read:
 D    5    7    9   15 F                                                       
 D    7    9   15   17 F                                                       

 GradGradGradGradGradGradGradGradGradGradGradGradGradGradGradGradGradGrad
 Berny optimization.
 Initialization pass.
                           ----------------------------
                           !    Initial Parameters    !
                           ! (Angstroms and Degrees)  !
 --------------------------                            --------------------------
 ! Name  Definition              Value          Derivative Info.                !
 --------------------------------------------------------------------------------
 ! R1    R(1,2)                  1.09           estimate D2E/DX2                !
 ! R2    R(2,3)                  1.0899         estimate D2E/DX2                !
 ! R3    R(2,4)                  1.09           estimate D2E/DX2                !
 ! R4    R(2,5)                  1.53           estimate D2E/DX2                !
 ! R5    R(5,6)                  1.229          estimate D2E/DX2                !
 ! R6    R(5,7)                  1.3351         estimate D2E/DX2                !
 ! R7    R(7,8)                  1.01           estimate D2E/DX2                !
 ! R8    R(7,9)                  1.449          estimate D2E/DX2                !
 ! R9    R(9,10)                 1.09           estimate D2E/DX2                !
 ! R10   R(9,11)                 1.525          estimate D2E/DX2                !
 ! R11   R(9,15)                 1.522          estimate D2E/DX2                !
 ! R12   R(11,12)                1.09           estimate D2E/DX2                !
 ! R13   R(11,13)                1.09           estimate D2E/DX2                !
 ! R14   R(11,14)                1.0899         estimate D2E/DX2                !
 ! R15   R(15,16)                1.229          estimate D2E/DX2                !
 ! R16   R(15,17)                1.335          estimate D2E/DX2                !
 ! R17   R(17,18)                1.01           estimate D2E/DX2                !
 ! R18   R(17,19)                1.449          estimate D2E/DX2                !
 ! R19   R(19,20)                1.0899         estimate D2E/DX2                !
 ! R20   R(19,21)                1.09           estimate D2E/DX2                !
 ! R21   R(19,22)                1.0901         estimate D2E/DX2                !
 ! A1    A(1,2,3)              109.5017         estimate D2E/DX2                !
 ! A2    A(1,2,4)              109.493          estimate D2E/DX2                !
 ! A3    A(1,2,5)              111.0973         estimate D2E/DX2                !
 ! A4    A(3,2,4)              109.4436         estimate D2E/DX2                !
 ! A5    A(3,2,5)              108.6387         estimate D2E/DX2                !
 ! A6    A(4,2,5)              108.6398         estimate D2E/DX2                !
 ! A7    A(2,5,6)              120.5054         estimate D2E/DX2                !
 ! A8    A(2,5,7)              116.5979         estimate D2E/DX2                !
 ! A9    A(6,5,7)              122.8967         estimate D2E/DX2                !
 ! A10   A(5,7,8)              119.9959         estimate D2E/DX2                !
 ! A11   A(5,7,9)              121.9004         estimate D2E/DX2                !
 ! A12   A(8,7,9)              118.1037         estimate D2E/DX2                !
 ! A13   A(7,9,10)             109.5            estimate D2E/DX2                !
 ! A14   A(7,9,11)             111.0992         estimate D2E/DX2                !
 ! A15   A(7,9,15)             111.0966         estimate D2E/DX2                !
 ! A16   A(10,9,11)            108.6382         estimate D2E/DX2                !
 ! A17   A(10,9,15)            108.6373         estimate D2E/DX2                !
 ! A18   A(11,9,15)            107.7947         estimate D2E/DX2                !
 ! A19   A(9,11,12)            109.5007         estimate D2E/DX2                !
 ! A20   A(9,11,13)            109.4959         estimate D2E/DX2                !
 ! A21   A(9,11,14)            109.4978         estimate D2E/DX2                !
 ! A22   A(12,11,13)           109.441          estimate D2E/DX2                !
 ! A23   A(12,11,14)           109.4482         estimate D2E/DX2                !
 ! A24   A(13,11,14)           109.4436         estimate D2E/DX2                !
 ! A25   A(9,15,16)            120.502          estimate D2E/DX2                !
 ! A26   A(9,15,17)            116.6009         estimate D2E/DX2                !
 ! A27   A(16,15,17)           122.8971         estimate D2E/DX2                !
 ! A28   A(15,17,18)           120.0044         estimate D2E/DX2                !
 ! A29   A(15,17,19)           121.9009         estimate D2E/DX2                !
 ! A30   A(18,17,19)           118.0947         estimate D2E/DX2                !
 ! A31   A(17,19,20)           109.4992         estimate D2E/DX2                !
 ! A32   A(17,19,21)           109.5059         estimate D2E/DX2                !
 ! A33   A(17,19,22)           109.4991         estimate D2E/DX2                !
 ! A34   A(20,19,21)           109.4414         estimate D2E/DX2                !
 ! A35   A(20,19,22)           109.4439         estimate D2E/DX2                !
 ! A36   A(21,19,22)           109.4378         estimate D2E/DX2                !
 ! D1    D(1,2,5,6)             -0.0038         estimate D2E/DX2                !
 ! D2    D(1,2,5,7)            179.9948         estimate D2E/DX2                !
 ! D3    D(3,2,5,6)            120.5106         estimate D2E/DX2                !
 ! D4    D(3,2,5,7)            -59.4908         estimate D2E/DX2                !
 ! D5    D(4,2,5,6)           -120.5082         estimate D2E/DX2                !
 ! D6    D(4,2,5,7)             59.4904         estimate D2E/DX2                !
 ! D7    D(2,5,7,8)              0.0007         estimate D2E/DX2                !
 ! D8    D(2,5,7,9)            179.9954         estimate D2E/DX2                !
 ! D9    D(6,5,7,8)            179.9993         estimate D2E/DX2                !
 ! D10   D(6,5,7,9)             -0.006          estimate D2E/DX2                !
 ! D11   D(5,7,9,10)          -134.9963         estimate D2E/DX2                !
 ! D12   D(5,7,9,11)           -14.9937         estimate D2E/DX2                !
 ! D13   D(5,7,9,15)           105.0038         Frozen                          !
 ! D14   D(8,7,9,10)            44.9985         estimate D2E/DX2                !
 ! D15   D(8,7,9,11)           165.0011         estimate D2E/DX2                !
 ! D16   D(8,7,9,15)           -75.0013         estimate D2E/DX2                !
 ! D17   D(7,9,11,12)           60.0024         estimate D2E/DX2                !
 ! D18   D(7,9,11,13)          179.9986         estimate D2E/DX2                !
 ! D19   D(7,9,11,14)          -60.0038         estimate D2E/DX2                !
 ! D20   D(10,9,11,12)        -179.4843         estimate D2E/DX2                !
 ! D21   D(10,9,11,13)         -59.4881         estimate D2E/DX2                !
 ! D22   D(10,9,11,14)          60.5095         estimate D2E/DX2                !
 ! D23   D(15,9,11,12)         -61.938          estimate D2E/DX2                !
 ! D24   D(15,9,11,13)          58.0582         estimate D2E/DX2                !
 ! D25   D(15,9,11,14)         178.0558         estimate D2E/DX2                !
 ! D26   D(7,9,15,16)          164.9978         estimate D2E/DX2                !
 ! D27   D(7,9,15,17)          -14.9978         Frozen                          !
 ! D28   D(10,9,15,16)          44.4867         estimate D2E/DX2                !
 ! D29   D(10,9,15,17)        -135.5089         estimate D2E/DX2                !
 ! D30   D(11,9,15,16)         -73.0602         estimate D2E/DX2                !
 ! D31   D(11,9,15,17)         106.9442         estimate D2E/DX2                !
 ! D32   D(9,15,17,18)          -0.005          estimate D2E/DX2                !
 ! D33   D(9,15,17,19)        -179.9969         estimate D2E/DX2                !
 ! D34   D(16,15,17,18)        179.9996         estimate D2E/DX2                !
 ! D35   D(16,15,17,19)          0.0076         estimate D2E/DX2                !
 ! D36   D(15,17,19,20)         -0.0055         estimate D2E/DX2                !
 ! D37   D(15,17,19,21)        119.9964         estimate D2E/DX2                !
 ! D38   D(15,17,19,22)       -120.0063         estimate D2E/DX2                !
 ! D39   D(18,17,19,20)       -179.9976         estimate D2E/DX2                !
 ! D40   D(18,17,19,21)        -59.9957         estimate D2E/DX2                !
 ! D41   D(18,17,19,22)         60.0016         estimate D2E/DX2                !
 --------------------------------------------------------------------------------
 Trust Radius=3.00D-01 FncErr=1.00D-07 GrdErr=1.00D-07
 Number of steps in this run= 108 maximum allowed number of steps= 132.
 GradGradGradGradGradGradGradGradGradGradGradGradGradGradGradGradGradGrad

                          Input orientation:                          
 ---------------------------------------------------------------------
 Center     Atomic      Atomic             Coordinates (Angstroms)
 Number     Number       Type             X           Y           Z
 ---------------------------------------------------------------------
      1          1           0        1.351300    2.306800   -1.901300
      2          6           0        1.673100    2.748600   -0.958200
      3          1           0        1.724200    1.974600   -0.192500
      4          1           0        0.959800    3.514300   -0.653100
      5          6           0        3.053900    3.393200   -1.094800
      6          8           0        3.650600    3.368100   -2.168900
      7          7           0        3.555400    3.969700    0.000000
      8          1           0        3.026700    3.964700    0.860600
      9          6           0        4.853300    4.613900    0.000000
     10          1           0        5.407600    4.315500    0.889800
     11          6           0        5.661300    4.220800   -1.232200
     12          1           0        5.123300    4.521400   -2.131200
     13          1           0        6.630500    4.718900   -1.205800
     14          1           0        5.808500    3.140900   -1.241400
     15          6           0        4.712700    6.129400    0.000000
     16          8           0        5.673500    6.845000    0.274100
     17          7           0        3.509400    6.618100   -0.308900
     18          1           0        2.749700    5.989300   -0.527200
     19          6           0        3.247400    8.042800   -0.343600
     20          1           0        4.156800    8.586300   -0.087500
     21          1           0        2.923300    8.329000   -1.344200
     22          1           0        2.464600    8.286400    0.374800
 ---------------------------------------------------------------------
                    Distance matrix (angstroms):
                    1          2          3          4          5
     1  H    0.000000
     2  C    1.090037   0.000000
     3  H    1.780283   1.089947   0.000000
     4  H    1.780262   1.090036   1.779645   0.000000
     5  C    2.174754   1.529960   2.143519   2.143600   0.000000
     6  O    2.546517   2.400017   3.091766   3.091833   1.228972
     7  N    3.352348   2.439731   2.714917   2.714971   1.335081
     8  H    3.630935   2.572774   2.601158   2.601197   2.037386
     9  C    4.604526   3.809352   4.098076   4.098171   2.434448
    10  H    5.317771   4.451603   4.496512   4.775499   3.213904
    11  C    4.763107   4.260069   4.650500   4.789426   2.739039
    12  H    4.380102   4.052484   4.668900   4.531419   2.574758
    13  H    5.845674   5.340337   5.712245   5.823519   3.816002
    14  H    4.582338   4.163608   4.375152   4.898512   2.770012
    15  C    5.433804   4.646195   5.121577   4.620557   3.381863
    16  O    6.633931   5.856813   6.287725   5.845702   4.544350
    17  N    5.077444   4.332046   4.976201   4.031440   3.350388
    18  H    4.171868   3.441942   4.157101   3.056995   2.674779
    19  C    6.238856   5.557401   6.258276   5.082934   4.713865
    20  H    7.112863   6.403563   7.045789   6.022117   5.403640
    21  H    6.248875   5.731741   6.568307   5.245406   4.943822
    22  H    6.494281   5.750703   6.380348   5.108223   5.142996
                    6          7          8          9         10
     6  O    0.000000
     7  N    2.252801   0.000000
     8  H    3.150088   1.010040   0.000000
     9  C    2.775362   1.448978   2.120981   0.000000
    10  H    3.652432   2.083739   2.406782   1.089970   0.000000
    11  C    2.376430   2.452791   3.374391   1.525027   2.139209
    12  H    1.870927   2.702720   3.695472   2.150225   3.041326
    13  H    3.410576   3.386959   4.222109   2.150214   2.459625
    14  H    2.359748   2.702673   3.582661   2.150165   2.466256
    15  C    3.668373   2.450234   2.875614   1.522008   2.136554
    16  O    4.706294   3.581735   3.955460   2.392836   2.616899
    17  N    3.747271   2.666750   2.939602   2.432756   3.215900
    18  H    3.221411   2.237382   2.470167   2.568034   3.445857
    19  C    5.034591   4.099155   4.257899   3.801885   4.481128
    20  H    5.640751   4.656429   4.851310   4.033947   4.556243
    21  H    5.081301   4.605423   4.890700   4.397015   5.222134
    22  H    5.662745   4.468134   4.385094   4.397001   4.969358
                   11         12         13         14         15
    11  C    0.000000
    12  H    1.089957   0.000000
    13  H    1.090023   1.779613   0.000000
    14  H    1.089925   1.779613   1.779617   0.000000
    15  C    2.461892   2.701161   2.668599   3.416575   0.000000
    16  O    3.025808   3.389293   2.761567   4.004413   1.228963
    17  N    3.351150   3.212725   3.762002   4.271573   1.334982
    18  H    3.478797   3.218932   4.139447   4.240250   2.037385
    19  C    4.606974   4.372044   4.820484   5.603026   2.434392
    20  H    4.757252   4.651263   4.725100   5.806202   2.520523
    21  H    4.938268   4.467347   5.176418   5.937283   3.138004
    22  H    5.415759   5.246327   5.707896   6.345860   3.138005
                   16         17         18         19         20
    16  O    0.000000
    17  N    2.252710   0.000000
    18  H    3.150065   1.010044   0.000000
    19  C    2.775291   1.449006   2.120914   0.000000
    20  H    2.337362   2.083736   2.986248   1.089949   0.000000
    21  H    3.519197   2.083876   2.484315   1.090024   1.779612
    22  H    3.519206   2.083813   2.484261   1.090053   1.779663
                   21         22
    21  H    0.000000
    22  H    1.779658   0.000000
 Stoichiometry    C6H12N2O2
 Framework group  C1[X(C6H12N2O2)]
 Deg. of freedom    60
 Full point group                 C1      NOp   1
 Largest Abelian subgroup         C1      NOp   1
 Largest concise Abelian subgroup C1      NOp   1
                         Standard orientation:                         
 ---------------------------------------------------------------------
 Center     Atomic      Atomic             Coordinates (Angstroms)
 Number     Number       Type             X           Y           Z
 ---------------------------------------------------------------------
      1          1           0       -3.654794   -1.402441    0.502081
      2          6           0       -2.911617   -1.303907   -0.289221
      3          1           0       -3.406285   -1.029404   -1.220851
      4          1           0       -2.391881   -2.253045   -0.420337
      5          6           0       -1.881712   -0.225719    0.053685
      6          8           0       -1.960589    0.399267    1.108930
      7          7           0       -0.916922   -0.013463   -0.844407
      8          1           0       -0.894043   -0.552955   -1.697991
      9          6           0        0.117325    0.979912   -0.636853
     10          1           0        0.258462    1.554892   -1.552010
     11          6           0       -0.259887    1.938455    0.487698
     12          1           0       -0.395624    1.378477    1.412903
     13          1           0        0.534337    2.672954    0.621371
     14          1           0       -1.188156    2.450018    0.233617
     15          6           0        1.439802    0.324500   -0.265373
     16          8           0        2.488721    0.962763   -0.317714
     17          7           0        1.387782   -0.955252    0.111068
     18          1           0        0.501032   -1.438077    0.138323
     19          6           0        2.577363   -1.691175    0.489130
     20          1           0        3.448259   -1.040638    0.409563
     21          1           0        2.478035   -2.040360    1.516921
     22          1           0        2.701937   -2.547051   -0.174325
 ---------------------------------------------------------------------
 Rotational constants (GHZ):      2.1126860      0.8949476      0.7304235
 Standard basis: 6-31G(d) (6D, 7F)
 There are   174 symmetry adapted basis functions of A   symmetry.
 Integral buffers will be    131072 words long.
 Raffenetti 1 integral format.
 Two-electron integral symmetry is turned on.
   174 basis functions,   328 primitive gaussians,   174 cartesian basis functions
    39 alpha electrons       39 beta electrons
       nuclear repulsion energy       569.9182020884 Hartrees.
 NAtoms=   22 NActive=   22 NUniq=   22 SFac= 7.50D-01 NAtFMM=   80 NAOKFM=F Big=F
 One-electron integrals computed using PRISM.
 NBasis=   174 RedAO= T  NBF=   174
 NBsUse=   174 1.00D-06 NBFU=   174
 Harris functional with IExCor=  205 diagonalized for initial guess.
 ExpMin= 1.61D-01 ExpMax= 5.48D+03 ExpMxC= 8.25D+02 IAcc=1 IRadAn=         1 AccDes= 0.00D+00
 HarFok:  IExCor=  205 AccDes= 0.00D+00 IRadAn=         1 IDoV= 1
 ScaDFX=  1.000000  1.000000  1.000000  1.000000
 FoFCou: FMM=F IPFlag=           0 FMFlag=      100000 FMFlg1=           0
         NFxFlg=           0 DoJE=T BraDBF=F KetDBF=T FulRan=T
         Omega=  0.000000  0.000000  1.000000  0.000000  0.000000 ICntrl=     500 IOpCl=  0
         NMat0=    1 NMatS0=    1 NMatT0=    0 NMatD0=    1 NMtDS0=    0 NMtDT0=    0
         I1Cent=           4 NGrid=           0.
 Petite list used in FoFCou.
 Initial guess orbital symmetries:
       Occupied  (A) (A) (A) (A) (A) (A) (A) (A) (A) (A) (A) (A)
                 (A) (A) (A) (A) (A) (A) (A) (A) (A) (A) (A) (A)
                 (A) (A) (A) (A) (A) (A) (A) (A) (A) (A) (A) (A)
                 (A) (A) (A)
       Virtual   (A) (A) (A) (A) (A) (A) (A) (A) (A) (A) (A) (A)
                 (A) (A) (A) (A) (A) (A) (A) (A) (A) (A) (A) (A)
                 (A) (A) (A) (A) (A) (A) (A) (A) (A) (A) (A) (A)
                 (A) (A) (A) (A) (A) (A) (A) (A) (A) (A) (A) (A)
                 (A) (A) (A) (A) (A) (A) (A) (A) (A) (A) (A) (A)
                 (A) (A) (A) (A) (A) (A) (A) (A) (A) (A) (A) (A)
                 (A) (A) (A) (A) (A) (A) (A) (A) (A) (A) (A) (A)
                 (A) (A) (A) (A) (A) (A) (A) (A) (A) (A) (A) (A)
                 (A) (A) (A) (A) (A) (A) (A) (A) (A) (A) (A) (A)
                 (A) (A) (A) (A) (A) (A) (A) (A) (A) (A) (A) (A)
                 (A) (A) (A) (A) (A) (A) (A) (A) (A) (A) (A) (A)
                 (A) (A) (A)
 The electronic state of the initial guess is 1-A.
 Requested convergence on RMS density matrix=1.00D-08 within 128 cycles.
 Requested convergence on MAX density matrix=1.00D-06.
 Requested convergence on             energy=1.00D-06.
 No special actions if energy rises.
 Integral accuracy reduced to 1.0D-05 until final iterations.
 Initial convergence to 1.0D-05 achieved.  Increase integral accuracy.
 SCF Done:  E(RHF) =  -492.821003096     A.U. after   15 cycles
             Convg  =    0.5809D-08             -V/T =  2.0016

 **********************************************************************

            Population analysis using the SCF density.

 **********************************************************************

 Orbital symmetries:
       Occupied  (A) (A) (A) (A) (A) (A) (A) (A) (A) (A) (A) (A)
                 (A) (A) (A) (A) (A) (A) (A) (A) (A) (A) (A) (A)
                 (A) (A) (A) (A) (A) (A) (A) (A) (A) (A) (A) (A)
                 (A) (A) (A)
       Virtual   (A) (A) (A) (A) (A) (A) (A) (A) (A) (A) (A) (A)
                 (A) (A) (A) (A) (A) (A) (A) (A) (A) (A) (A) (A)
                 (A) (A) (A) (A) (A) (A) (A) (A) (A) (A) (A) (A)
                 (A) (A) (A) (A) (A) (A) (A) (A) (A) (A) (A) (A)
                 (A) (A) (A) (A) (A) (A) (A) (A) (A) (A) (A) (A)
                 (A) (A) (A) (A) (A) (A) (A) (A) (A) (A) (A) (A)
                 (A) (A) (A) (A) (A) (A) (A) (A) (A) (A) (A) (A)
                 (A) (A) (A) (A) (A) (A) (A) (A) (A) (A) (A) (A)
                 (A) (A) (A) (A) (A) (A) (A) (A) (A) (A) (A) (A)
                 (A) (A) (A) (A) (A) (A) (A) (A) (A) (A) (A) (A)
                 (A) (A) (A) (A) (A) (A) (A) (A) (A) (A) (A) (A)
                 (A) (A) (A)
 The electronic state is 1-A.
 Alpha  occ. eigenvalues --  -20.52347 -20.51102 -15.60944 -15.59122 -11.36531
 Alpha  occ. eigenvalues --  -11.34195 -11.28253 -11.25915 -11.25007 -11.20039
 Alpha  occ. eigenvalues --   -1.39246  -1.36908  -1.26157  -1.22671  -1.06187
 Alpha  occ. eigenvalues --   -0.99445  -0.95842  -0.88098  -0.80683  -0.78380
 Alpha  occ. eigenvalues --   -0.73662  -0.70922  -0.66088  -0.62915  -0.62618
 Alpha  occ. eigenvalues --   -0.61819  -0.59488  -0.58384  -0.57217  -0.55328
 Alpha  occ. eigenvalues --   -0.54919  -0.53821  -0.52563  -0.51475  -0.49316
 Alpha  occ. eigenvalues --   -0.43644  -0.40002  -0.38641  -0.38291
 Alpha virt. eigenvalues --    0.18433   0.18755   0.20069   0.23177   0.25967
 Alpha virt. eigenvalues --    0.27835   0.28843   0.30008   0.31772   0.31994
 Alpha virt. eigenvalues --    0.32483   0.33354   0.34490   0.35565   0.36370
 Alpha virt. eigenvalues --    0.38336   0.40858   0.42012   0.48361   0.49191
 Alpha virt. eigenvalues --    0.54405   0.58906   0.63892   0.71253   0.72720
 Alpha virt. eigenvalues --    0.72933   0.74941   0.75907   0.76325   0.79261
 Alpha virt. eigenvalues --    0.80983   0.83102   0.83744   0.88277   0.90510
 Alpha virt. eigenvalues --    0.92309   0.93603   0.95637   0.96840   0.99965
 Alpha virt. eigenvalues --    1.01434   1.02600   1.03209   1.06056   1.09606
 Alpha virt. eigenvalues --    1.10579   1.13067   1.13808   1.14127   1.15065
 Alpha virt. eigenvalues --    1.15898   1.16830   1.18036   1.19354   1.19871
 Alpha virt. eigenvalues --    1.22117   1.22287   1.23696   1.27962   1.29099
 Alpha virt. eigenvalues --    1.31689   1.35734   1.37471   1.39047   1.44127
 Alpha virt. eigenvalues --    1.46304   1.53732   1.58320   1.59701   1.62370
 Alpha virt. eigenvalues --    1.63433   1.65880   1.71219   1.74368   1.77285
 Alpha virt. eigenvalues --    1.80623   1.82063   1.86322   1.91850   1.96660
 Alpha virt. eigenvalues --    2.02432   2.04942   2.09077   2.11272   2.13380
 Alpha virt. eigenvalues --    2.14846   2.17034   2.17965   2.19934   2.21927
 Alpha virt. eigenvalues --    2.26066   2.27847   2.31832   2.32467   2.35004
 Alpha virt. eigenvalues --    2.40189   2.42253   2.44458   2.45217   2.49722
 Alpha virt. eigenvalues --    2.51153   2.56026   2.59340   2.63198   2.64712
 Alpha virt. eigenvalues --    2.66645   2.68229   2.69108   2.71836   2.76054
 Alpha virt. eigenvalues --    2.78389   2.79976   2.86753   2.90064   3.00142
 Alpha virt. eigenvalues --    3.01768   3.04484   3.06379   3.12713   3.21838
 Alpha virt. eigenvalues --    3.32202   3.35313   3.40426   3.53682   3.57619
 Alpha virt. eigenvalues --    4.37963   4.47849   4.52018   4.60527   4.62280
 Alpha virt. eigenvalues --    4.66418   4.69592   4.83171   4.92465   5.13725
          Condensed to atoms (all electrons):
              1          2          3          4          5          6
     1  H    0.446982   0.385288  -0.017477  -0.018492  -0.029772   0.003644
     2  C    0.385288   5.252277   0.375919   0.372809   0.374464  -0.064892
     3  H   -0.017477   0.375919   0.506984  -0.024144  -0.036706   0.001064
     4  H   -0.018492   0.372809  -0.024144   0.524982  -0.036004   0.001268
     5  C   -0.029772   0.374464  -0.036706  -0.036004   4.228428   0.580982
     6  O    0.003644  -0.064892   0.001064   0.001268   0.580982   8.288689
     7  N    0.003858  -0.124396   0.004318   0.003729   0.233751  -0.102514
     8  H   -0.000022  -0.000148   0.000420   0.000493  -0.019145   0.002416
     9  C   -0.000036   0.002208  -0.000002  -0.000165  -0.022514   0.004914
    10  H    0.000001  -0.000071   0.000008   0.000000   0.001713  -0.000098
    11  C    0.000005  -0.000346   0.000002   0.000022  -0.005907  -0.067668
    12  H    0.000011  -0.000063   0.000007  -0.000009  -0.000308  -0.021416
    13  H    0.000000   0.000020  -0.000001   0.000000   0.000276   0.003278
    14  H    0.000006  -0.000207   0.000011   0.000001  -0.000210  -0.007101
    15  C    0.000001  -0.000192   0.000002   0.000026  -0.003072  -0.000751
    16  O    0.000000   0.000000   0.000000   0.000000  -0.000036   0.000000
    17  N    0.000000  -0.000052   0.000002   0.000016   0.003052  -0.000081
    18  H   -0.000004  -0.000133   0.000001   0.000507   0.000816  -0.000431
    19  C    0.000000  -0.000001   0.000000  -0.000003  -0.000033   0.000003
    20  H    0.000000   0.000000   0.000000   0.000000  -0.000001   0.000000
    21  H    0.000000   0.000000   0.000000   0.000000  -0.000010   0.000001
    22  H    0.000000   0.000000   0.000000   0.000000   0.000005   0.000000
              7          8          9         10         11         12
     1  H    0.003858  -0.000022  -0.000036   0.000001   0.000005   0.000011
     2  C   -0.124396  -0.000148   0.002208  -0.000071  -0.000346  -0.000063
     3  H    0.004318   0.000420  -0.000002   0.000008   0.000002   0.000007
     4  H    0.003729   0.000493  -0.000165   0.000000   0.000022  -0.000009
     5  C    0.233751  -0.019145  -0.022514   0.001713  -0.005907  -0.000308
     6  O   -0.102514   0.002416   0.004914  -0.000098  -0.067668  -0.021416
     7  N    7.521429   0.324777   0.100953  -0.044637  -0.040240  -0.001509
     8  H    0.324777   0.318097  -0.022776  -0.002110   0.002983  -0.000189
     9  C    0.100953  -0.022776   5.122015   0.417200   0.337390  -0.034261
    10  H   -0.044637  -0.002110   0.417200   0.481454  -0.028680   0.003545
    11  C   -0.040240   0.002983   0.337390  -0.028680   5.169650   0.406201
    12  H   -0.001509  -0.000189  -0.034261   0.003545   0.406201   0.460026
    13  H    0.004097  -0.000062  -0.032901  -0.002673   0.374005  -0.025502
    14  H   -0.001450  -0.000141  -0.041039  -0.003513   0.400334  -0.018129
    15  C   -0.053946   0.000383   0.375279  -0.045812  -0.050933  -0.005382
    16  O    0.002741  -0.000019  -0.071523   0.003523  -0.001113  -0.000059
    17  N   -0.016987   0.001750  -0.107854   0.002675  -0.001846   0.001968
    18  H    0.009194   0.000028  -0.003232   0.000133   0.000396  -0.000015
    19  C   -0.000255  -0.000049   0.004147  -0.000081  -0.000187  -0.000064
    20  H   -0.000067   0.000000   0.000576  -0.000015  -0.000019  -0.000003
    21  H    0.000003   0.000005  -0.000160  -0.000002   0.000033  -0.000010
    22  H    0.000003  -0.000015   0.000000   0.000011  -0.000005   0.000002
             13         14         15         16         17         18
     1  H    0.000000   0.000006   0.000001   0.000000   0.000000  -0.000004
     2  C    0.000020  -0.000207  -0.000192   0.000000  -0.000052  -0.000133
     3  H   -0.000001   0.000011   0.000002   0.000000   0.000002   0.000001
     4  H    0.000000   0.000001   0.000026   0.000000   0.000016   0.000507
     5  C    0.000276  -0.000210  -0.003072  -0.000036   0.003052   0.000816
     6  O    0.003278  -0.007101  -0.000751   0.000000  -0.000081  -0.000431
     7  N    0.004097  -0.001450  -0.053946   0.002741  -0.016987   0.009194
     8  H   -0.000062  -0.000141   0.000383  -0.000019   0.001750   0.000028
     9  C   -0.032901  -0.041039   0.375279  -0.071523  -0.107854  -0.003232
    10  H   -0.002673  -0.003513  -0.045812   0.003523   0.002675   0.000133
    11  C    0.374005   0.400334  -0.050933  -0.001113  -0.001846   0.000396
    12  H   -0.025502  -0.018129  -0.005382  -0.000059   0.001968  -0.000015
    13  H    0.518750  -0.024772  -0.004649   0.004745   0.000414  -0.000037
    14  H   -0.024772   0.513935   0.005817  -0.000020  -0.000095  -0.000007
    15  C   -0.004649   0.005817   4.179632   0.579131   0.296443  -0.017163
    16  O    0.004745  -0.000020   0.579131   8.224282  -0.097344   0.002452
    17  N    0.000414  -0.000095   0.296443  -0.097344   7.327059   0.317565
    18  H   -0.000037  -0.000007  -0.017163   0.002452   0.317565   0.317155
    19  C   -0.000001   0.000004  -0.026999  -0.005295   0.189533  -0.023249
    20  H   -0.000004   0.000000  -0.001761   0.011269  -0.032274   0.002210
    21  H    0.000000   0.000000   0.001358   0.000393  -0.047296  -0.001024
    22  H    0.000000   0.000000   0.000433   0.000375  -0.048681  -0.000810
             19         20         21         22
     1  H    0.000000   0.000000   0.000000   0.000000
     2  C   -0.000001   0.000000   0.000000   0.000000
     3  H    0.000000   0.000000   0.000000   0.000000
     4  H   -0.000003   0.000000   0.000000   0.000000
     5  C   -0.000033  -0.000001  -0.000010   0.000005
     6  O    0.000003   0.000000   0.000001   0.000000
     7  N   -0.000255  -0.000067   0.000003   0.000003
     8  H   -0.000049   0.000000   0.000005  -0.000015
     9  C    0.004147   0.000576  -0.000160   0.000000
    10  H   -0.000081  -0.000015  -0.000002   0.000011
    11  C   -0.000187  -0.000019   0.000033  -0.000005
    12  H   -0.000064  -0.000003  -0.000010   0.000002
    13  H   -0.000001  -0.000004   0.000000   0.000000
    14  H    0.000004   0.000000   0.000000   0.000000
    15  C   -0.026999  -0.001761   0.001358   0.000433
    16  O   -0.005295   0.011269   0.000393   0.000375
    17  N    0.189533  -0.032274  -0.047296  -0.048681
    18  H   -0.023249   0.002210  -0.001024  -0.000810
    19  C    4.951084   0.396151   0.402160   0.402984
    20  H    0.396151   0.431147  -0.021964  -0.022888
    21  H    0.402160  -0.021964   0.530923  -0.036964
    22  H    0.402984  -0.022888  -0.036964   0.541593
 Mulliken atomic charges:
              1
     1  H    0.226008
     2  C   -0.572484
     3  H    0.189592
     4  H    0.174965
     5  C    0.730232
     6  O   -0.621306
     7  N   -0.822853
     8  H    0.393323
     9  C   -0.028218
    10  H    0.217429
    11  C   -0.494077
    12  H    0.235160
    13  H    0.185017
    14  H    0.176576
    15  C    0.772153
    16  O   -0.653501
    17  N   -0.787968
    18  H    0.395651
    19  C   -0.289850
    20  H    0.237641
    21  H    0.172554
    22  H    0.163956
 Sum of Mulliken atomic charges =   0.00000
 Mulliken charges with hydrogens summed into heavy atoms:
              1
     2  C    0.018082
     5  C    0.730232
     6  O   -0.621306
     7  N   -0.429530
     9  C    0.189211
    11  C    0.102676
    15  C    0.772153
    16  O   -0.653501
    17  N   -0.392317
    19  C    0.284301
 Sum of Mulliken charges with hydrogens summed into heavy atoms =   0.00000
 Electronic spatial extent (au):  <R**2>=           1670.9353
 Charge=              0.0000 electrons
 Dipole moment (field-independent basis, Debye):
    X=             -2.4962    Y=             -4.4546    Z=             -2.8317  Tot=              5.8389
 Quadrupole moment (field-independent basis, Debye-Ang):
   XX=            -68.5047   YY=            -57.8933   ZZ=            -60.3364
   XY=             -3.2441   XZ=              8.0999   YZ=             -0.6711
 Traceless Quadrupole moment (field-independent basis, Debye-Ang):
   XX=             -6.2599   YY=              4.3515   ZZ=              1.9084
   XY=             -3.2441   XZ=              8.0999   YZ=             -0.6711
 Octapole moment (field-independent basis, Debye-Ang**2):
  XXX=            -25.0153  YYY=             -6.3538  ZZZ=             -9.2710  XYY=             -3.6308
  XXY=            -30.7361  XXZ=             -3.2632  XZZ=              4.4288  YZZ=             -2.4876
  YYZ=              0.6567  XYZ=              2.0876
 Hexadecapole moment (field-independent basis, Debye-Ang**3):
 XXXX=          -1375.9053 YYYY=           -576.9409 ZZZZ=           -193.0164 XXXY=            -31.7375
 XXXZ=             33.7512 YYYX=             -9.8207 YYYZ=             -1.4292 ZZZX=              6.9235
 ZZZY=             -0.0065 XXYY=           -327.9270 XXZZ=           -272.2895 YYZZ=           -129.0016
 XXYZ=             -5.1162 YYXZ=              1.6824 ZZXY=              4.4153
 N-N= 5.699182020884D+02 E-N=-2.295137024760D+03  KE= 4.920223606762D+02
 Calling FoFJK, ICntrl=      2127 FMM=F ISym2X=0 I1Cent= 0 IOpClX= 0 NMat=1 NMatS=1 NMatT=0.
 ***** Axes restored to original set *****
 -------------------------------------------------------------------
 Center     Atomic                   Forces (Hartrees/Bohr)
 Number     Number              X              Y              Z
 -------------------------------------------------------------------
      1        1           0.005997867    0.004891569    0.005794658
      2        6           0.007218844    0.003938261    0.004239954
      3        1          -0.004401914    0.002594879   -0.001538932
      4        1          -0.001231334   -0.005197870    0.000840371
      5        6          -0.001210962   -0.022424525   -0.059273916
      6        8          -0.060151971   -0.014957842    0.031620092
      7        7          -0.000601332   -0.001688032    0.019503101
      8        1           0.006744429   -0.002361760   -0.012741057
      9        6           0.005213533    0.005565297   -0.000381880
     10        1          -0.005160939    0.005194941   -0.002015342
     11        6           0.024497446    0.010473132   -0.008360801
     12        1           0.022737365   -0.000756551    0.012036780
     13        1          -0.002891438   -0.002404138    0.006904899
     14        1           0.001533876    0.007834843   -0.003820900
     15        6           0.036045501    0.023989694    0.019185144
     16        8          -0.029279316   -0.026678092   -0.009349046
     17        7          -0.015725126    0.000865329   -0.003368128
     18        1           0.015917363    0.011509754    0.003527789
     19        6          -0.001070320    0.002571329   -0.001868061
     20        1          -0.007515739   -0.006498448   -0.002189804
     21        1           0.000686084    0.001723162    0.004766839
     22        1           0.002648083    0.001815068   -0.003511760
 -------------------------------------------------------------------
 Cartesian Forces:  Max     0.060151971 RMS     0.015624426

 GradGradGradGradGradGradGradGradGradGradGradGradGradGradGradGradGradGrad
 Berny optimization.
 Internal  Forces:  Max     0.142960687 RMS     0.025447134
 Search for a local minimum.
 Step number   1 out of a maximum of  108
 All quantities printed in internal units (Hartrees-Bohrs-Radians)
 Mixed Optimization -- RFO/linear search
 Second derivative matrix not updated -- first step.
     Eigenvalues ---    0.00370   0.00435   0.00999   0.01044   0.01269
     Eigenvalues ---    0.01422   0.01660   0.02551   0.02552   0.03503
     Eigenvalues ---    0.05232   0.05841   0.05844   0.05844   0.07166
     Eigenvalues ---    0.07464   0.07685   0.07685   0.15421   0.16000
     Eigenvalues ---    0.16000   0.16000   0.16000   0.16000   0.16000
     Eigenvalues ---    0.16000   0.16000   0.16000   0.16000   0.16000
     Eigenvalues ---    0.16180   0.22000   0.22000   0.25000   0.25000
     Eigenvalues ---    0.25000   0.25000   0.29427   0.29887   0.30174
     Eigenvalues ---    0.34807   0.34808   0.34808   0.34810   0.34810
     Eigenvalues ---    0.34816   0.34818   0.34819   0.34819   0.34821
     Eigenvalues ---    0.38375   0.38379   0.45965   0.45966   0.58322
     Eigenvalues ---    0.58344   0.91516   0.915201000.000001000.00000
     Eigenvalues --- 1000.000001000.000001000.000001000.000001000.00000
     Eigenvalues --- 1000.000001000.000001000.000001000.000001000.00000
     Eigenvalues --- 1000.000001000.000001000.000001000.000001000.00000
     Eigenvalues --- 1000.000001000.000001000.000001000.000001000.00000
     Eigenvalues --- 1000.000001000.000001000.000001000.000001000.00000
     Eigenvalues --- 1000.000001000.000001000.000001000.000001000.00000
     Eigenvalues --- 1000.000001000.000001000.000001000.000001000.00000
     Eigenvalues --- 1000.000001000.000001000.00000
 RFO step:  Lambda=-1.55021327D-01 EMin= 3.69635118D-03
 Linear search not attempted -- first point.
 Maximum step size (   0.300) exceeded in Quadratic search.
    -- Step size scaled by   0.453
 Iteration  1 RMS(Cart)=  0.17001610 RMS(Int)=  0.00810756
 Iteration  2 RMS(Cart)=  0.01389405 RMS(Int)=  0.00021087
 Iteration  3 RMS(Cart)=  0.00013038 RMS(Int)=  0.00020533
 Iteration  4 RMS(Cart)=  0.00000005 RMS(Int)=  0.00020533
 Iteration  1 RMS(Cart)=  0.00007172 RMS(Int)=  0.00003138
 Iteration  2 RMS(Cart)=  0.00004789 RMS(Int)=  0.00003471
 Iteration  3 RMS(Cart)=  0.00003222 RMS(Int)=  0.00003982
 Iteration  4 RMS(Cart)=  0.00002177 RMS(Int)=  0.00004404
 Iteration  5 RMS(Cart)=  0.00001474 RMS(Int)=  0.00004712
 Iteration  6 RMS(Cart)=  0.00000999 RMS(Int)=  0.00004928
 Iteration  7 RMS(Cart)=  0.00000678 RMS(Int)=  0.00005076
 Iteration  8 RMS(Cart)=  0.00000460 RMS(Int)=  0.00005178
 Iteration  9 RMS(Cart)=  0.00000312 RMS(Int)=  0.00005247
 Iteration 10 RMS(Cart)=  0.00000212 RMS(Int)=  0.00005294
 Iteration 11 RMS(Cart)=  0.00000143 RMS(Int)=  0.00005326
 Iteration 12 RMS(Cart)=  0.00000097 RMS(Int)=  0.00005347
 Variable       Old X    -DE/DX   Delta X   Delta X   Delta X     New X
                                 (Linear)    (Quad)   (Total)
    R1        2.05987  -0.00877   0.00000  -0.00790  -0.00790   2.05197
    R2        2.05970  -0.00313   0.00000  -0.00282  -0.00282   2.05688
    R3        2.05987  -0.00261   0.00000  -0.00235  -0.00235   2.05752
    R4        2.89121  -0.00863   0.00000  -0.00871  -0.00871   2.88250
    R5        2.32242  -0.05654   0.00000  -0.02394  -0.02394   2.29848
    R6        2.52294   0.04868   0.00000   0.02988   0.02988   2.55282
    R7        1.90870  -0.01437   0.00000  -0.01060  -0.01060   1.89810
    R8        2.73817   0.05832   0.00000   0.04906   0.04906   2.78723
    R9        2.05975  -0.00569   0.00000  -0.00513  -0.00513   2.05462
   R10        2.88188   0.01494   0.00000   0.01492   0.01492   2.89680
   R11        2.87618   0.00910   0.00000   0.00903   0.00903   2.88521
   R12        2.05972  -0.02136   0.00000  -0.01924  -0.01924   2.04048
   R13        2.05984  -0.00350   0.00000  -0.00316  -0.00316   2.05669
   R14        2.05966  -0.00752   0.00000  -0.00678  -0.00678   2.05288
   R15        2.32240  -0.04051   0.00000  -0.01716  -0.01716   2.30525
   R16        2.52275   0.00956   0.00000   0.00587   0.00587   2.52862
   R17        1.90871  -0.01990   0.00000  -0.01467  -0.01467   1.89403
   R18        2.73822   0.00063   0.00000   0.00053   0.00053   2.73876
   R19        2.05970  -0.01003   0.00000  -0.00903  -0.00903   2.05067
   R20        2.05985  -0.00413   0.00000  -0.00372  -0.00372   2.05613
   R21        2.05990  -0.00381   0.00000  -0.00343  -0.00343   2.05647
    A1        1.91116   0.00047   0.00000   0.00046   0.00048   1.91165
    A2        1.91101   0.00008   0.00000  -0.00008  -0.00005   1.91096
    A3        1.93901  -0.00812   0.00000  -0.01188  -0.01186   1.92716
    A4        1.91015  -0.00510   0.00000  -0.00691  -0.00696   1.90319
    A5        1.89610   0.00595   0.00000   0.00865   0.00864   1.90474
    A6        1.89612   0.00676   0.00000   0.00983   0.00982   1.90595
    A7        2.10322  -0.02622   0.00000  -0.02934  -0.02934   2.07387
    A8        2.03502  -0.04113   0.00000  -0.04603  -0.04603   1.98898
    A9        2.14495   0.06735   0.00000   0.07537   0.07537   2.22032
   A10        2.09432  -0.07341   0.00000  -0.08916  -0.08916   2.00516
   A11        2.12756   0.14296   0.00000   0.17278   0.17278   2.30034
   A12        2.06130  -0.06955   0.00000  -0.08362  -0.08362   1.97768
   A13        1.91114  -0.02637   0.00000  -0.02593  -0.02555   1.88559
   A14        1.93905   0.07298   0.00000   0.09104   0.09148   2.03053
   A15        1.93900  -0.01148   0.00000  -0.00516  -0.00500   1.93400
   A16        1.89609  -0.01736   0.00000  -0.03117  -0.03125   1.86484
   A17        1.89608   0.00934   0.00000   0.00360   0.00273   1.89880
   A18        1.88137  -0.02825   0.00000  -0.03455  -0.03558   1.84580
   A19        1.91115   0.01658   0.00000   0.02497   0.02489   1.93603
   A20        1.91106  -0.01387   0.00000  -0.02178  -0.02169   1.88937
   A21        1.91110   0.00680   0.00000   0.01050   0.01034   1.92144
   A22        1.91011  -0.00394   0.00000  -0.00709  -0.00693   1.90317
   A23        1.91023  -0.00504   0.00000  -0.00361  -0.00392   1.90631
   A24        1.91015  -0.00054   0.00000  -0.00300  -0.00298   1.90718
   A25        2.10316  -0.01061   0.00000  -0.01188  -0.01199   2.09117
   A26        2.03507   0.01234   0.00000   0.01380   0.01369   2.04876
   A27        2.14496  -0.00172   0.00000  -0.00193  -0.00204   2.14292
   A28        2.09447  -0.00369   0.00000  -0.00471  -0.00471   2.08976
   A29        2.12757   0.00517   0.00000   0.00625   0.00625   2.13382
   A30        2.06114  -0.00148   0.00000  -0.00154  -0.00154   2.05960
   A31        1.91112  -0.00414   0.00000  -0.00619  -0.00618   1.90494
   A32        1.91124   0.00434   0.00000   0.00636   0.00635   1.91759
   A33        1.91112   0.00403   0.00000   0.00590   0.00590   1.91702
   A34        1.91011  -0.00064   0.00000  -0.00115  -0.00114   1.90897
   A35        1.91016  -0.00051   0.00000  -0.00097  -0.00097   1.90919
   A36        1.91005  -0.00307   0.00000  -0.00395  -0.00397   1.90608
    D1       -0.00007   0.00079   0.00000   0.00213   0.00206   0.00200
    D2        3.14150  -0.00078   0.00000  -0.00213  -0.00207   3.13944
    D3        2.10331   0.00019   0.00000   0.00094   0.00084   2.10415
    D4       -1.03831  -0.00139   0.00000  -0.00332  -0.00329  -1.04159
    D5       -2.10327   0.00134   0.00000   0.00322   0.00318  -2.10008
    D6        1.03830  -0.00023   0.00000  -0.00104  -0.00094   1.03736
    D7        0.00001  -0.00169   0.00000  -0.00534  -0.00535  -0.00534
    D8        3.14151  -0.00200   0.00000  -0.00360  -0.00342   3.13809
    D9        3.14158  -0.00330   0.00000  -0.00971  -0.00989   3.13169
   D10       -0.00011  -0.00362   0.00000  -0.00797  -0.00796  -0.00807
   D11       -2.35613  -0.00902   0.00000  -0.01563  -0.01585  -2.37198
   D12       -0.26169  -0.00166   0.00000  -0.01375  -0.01434  -0.27603
   D13        1.83266   0.00376   0.00000   0.00000   0.00000   1.83267
   D14        0.78537  -0.00932   0.00000  -0.01393  -0.01394   0.77143
   D15        2.87981  -0.00196   0.00000  -0.01205  -0.01244   2.86737
   D16       -1.30902   0.00345   0.00000   0.00170   0.00191  -1.30711
   D17        1.04724   0.01054   0.00000   0.02442   0.02451   1.07175
   D18        3.14157   0.00736   0.00000   0.01768   0.01761  -3.12401
   D19       -1.04726   0.00237   0.00000   0.00708   0.00696  -1.04030
   D20       -3.13259   0.01184   0.00000   0.02851   0.02820  -3.10439
   D21       -1.03826   0.00867   0.00000   0.02178   0.02131  -1.01696
   D22        1.05609   0.00368   0.00000   0.01118   0.01066   1.06675
   D23       -1.08102  -0.00192   0.00000  -0.00292  -0.00232  -1.08334
   D24        1.01331  -0.00509   0.00000  -0.00965  -0.00922   1.00409
   D25        3.10766  -0.01008   0.00000  -0.02025  -0.01987   3.08779
   D26        2.87975  -0.03261   0.00000  -0.02703  -0.02686   2.85289
   D27       -0.26176  -0.03426   0.00000   0.00000   0.00000  -0.26176
   D28        0.77644   0.00109   0.00000   0.00593   0.00589   0.78233
   D29       -2.36508  -0.00055   0.00000   0.03296   0.03276  -2.33232
   D30       -1.27514   0.03211   0.00000   0.05984   0.05970  -1.21544
   D31        1.86653   0.03047   0.00000   0.08686   0.08657   1.95309
   D32       -0.00009   0.00068   0.00000  -0.01433  -0.01432  -0.01441
   D33       -3.14154   0.00161   0.00000  -0.01188  -0.01187   3.12977
   D34        3.14158  -0.00100   0.00000   0.01341   0.01340  -3.12820
   D35        0.00013  -0.00007   0.00000   0.01586   0.01585   0.01599
   D36       -0.00010  -0.00049   0.00000  -0.00128  -0.00128  -0.00138
   D37        2.09433  -0.00116   0.00000  -0.00259  -0.00261   2.09172
   D38       -2.09450   0.00021   0.00000   0.00009   0.00010  -2.09440
   D39       -3.14155   0.00043   0.00000   0.00113   0.00113  -3.14042
   D40       -1.04712  -0.00025   0.00000  -0.00018  -0.00019  -1.04732
   D41        1.04723   0.00113   0.00000   0.00250   0.00251   1.04974
         Item               Value     Threshold  Converged?
 Maximum Force            0.142961     0.000450     NO 
 RMS     Force            0.025106     0.000300     NO 
 Maximum Displacement     0.648682     0.001800     NO 
 RMS     Displacement     0.175197     0.001200     NO 
 Predicted change in Energy=-6.130775D-02
 GradGradGradGradGradGradGradGradGradGradGradGradGradGradGradGradGradGrad

                          Input orientation:                          
 ---------------------------------------------------------------------
 Center     Atomic      Atomic             Coordinates (Angstroms)
 Number     Number       Type             X           Y           Z
 ---------------------------------------------------------------------
      1          1           0        1.109566    2.284905   -1.721113
      2          6           0        1.561417    2.750094   -0.850185
      3          1           0        1.676168    2.009726   -0.060614
      4          1           0        0.919168    3.553559   -0.493213
      5          6           0        2.931052    3.321601   -1.202568
      6          8           0        3.339718    3.204670   -2.342177
      7          7           0        3.558025    3.921605   -0.167281
      8          1           0        3.044780    3.919849    0.696119
      9          6           0        4.869536    4.588683   -0.065351
     10          1           0        5.345694    4.256390    0.853879
     11          6           0        5.860952    4.317158   -1.202549
     12          1           0        5.466568    4.658911   -2.147844
     13          1           0        6.782445    4.854668   -0.987038
     14          1           0        6.072859    3.253632   -1.266887
     15          6           0        4.703954    6.105562   -0.013018
     16          8           0        5.628012    6.803706    0.370167
     17          7           0        3.515667    6.607622   -0.368529
     18          1           0        2.784071    5.990429   -0.665858
     19          6           0        3.238294    8.029914   -0.344345
     20          1           0        4.122456    8.559202   -0.004189
     21          1           0        2.974457    8.372270   -1.342868
     22          1           0        2.412041    8.233541    0.333962
 ---------------------------------------------------------------------
                    Distance matrix (angstroms):
                    1          2          3          4          5
     1  H    0.000000
     2  C    1.085857   0.000000
     3  H    1.775955   1.088455   0.000000
     4  H    1.775802   1.088792   1.773023   0.000000
     5  C    2.159037   1.525351   2.144717   2.145849   0.000000
     6  O    2.491037   2.365383   3.066075   3.065852   1.216301
     7  N    3.329884   2.413553   2.684780   2.684260   1.350895
     8  H    3.501586   2.441260   2.468667   2.463109   1.993953
     9  C    4.710236   3.865233   4.104710   4.106088   2.580016
    10  H    5.334990   4.415146   4.398775   4.680038   3.306554
    11  C    5.193710   4.589755   4.913316   5.050491   3.094422
    12  H    4.980107   4.536265   5.073642   4.963713   3.018407
    13  H    6.270894   5.630905   5.918279   6.026173   4.150901
    14  H    5.077305   4.558541   4.725811   5.220062   3.143200
    15  C    5.516760   4.672853   5.093685   4.589979   3.508369
    16  O    6.723791   5.870113   6.227752   5.786371   4.676767
    17  N    5.128809   4.351046   4.961775   4.010567   3.440251
    18  H    4.201005   3.468232   4.176095   3.073435   2.726226
    19  C    6.279499   5.562759   6.226026   5.043635   4.795744
    20  H    7.168831   6.404714   6.991648   5.962940   5.503456
    21  H    6.377844   5.817927   6.619040   5.307174   5.052804
    22  H    6.426978   5.673972   6.279576   4.981478   5.172761
                    6          7          8          9         10
     6  O    0.000000
     7  N    2.300397   0.000000
     8  H    3.135237   1.004431   0.000000
     9  C    3.072422   1.474940   2.087321   0.000000
    10  H    3.917248   2.085812   2.330740   1.087257   0.000000
    11  C    2.982114   2.555722   3.419593   1.532922   2.120868
    12  H    2.583810   2.847593   3.807806   2.167523   3.031002
    13  H    4.051082   3.455358   4.204407   2.139971   2.410636
    14  H    2.937466   2.824838   3.669672   2.161952   2.456001
    15  C    3.962486   2.471158   2.834268   1.526787   2.140742
    16  O    5.054321   3.588901   3.885352   2.381447   2.608160
    17  N    3.937807   2.693879   2.929049   2.449692   3.220492
    18  H    3.298370   2.264424   2.492038   2.583537   3.446505
    19  C    5.223466   4.124535   4.244131   3.818489   4.485126
    20  H    5.894903   4.674665   4.814085   4.040655   4.554864
    21  H    5.275995   4.640148   4.897598   4.420283   5.233443
    22  H    5.771642   4.489690   4.374866   4.414037   4.969342
                   11         12         13         14         15
    11  C    0.000000
    12  H    1.079776   0.000000
    13  H    1.088353   1.765595   0.000000
    14  H    1.086339   1.765923   1.773456   0.000000
    15  C    2.439676   2.689212   2.614111   3.402881   0.000000
    16  O    2.951376   3.311584   2.640733   3.934573   1.219885
    17  N    3.382628   3.281683   3.758622   4.312253   1.338087
    18  H    3.543313   3.341408   4.168945   4.320581   2.031109
    19  C    4.625949   4.425095   4.801692   5.630161   2.441529
    20  H    4.738499   4.649104   4.665310   5.792026   2.521620
    21  H    4.979505   4.543967   5.196240   5.983839   3.146049
    22  H    5.440028   5.316716   5.679987   6.384654   3.146673
                   16         17         18         19         20
    16  O    0.000000
    17  N    2.246357   0.000000
    18  H    3.134129   1.002279   0.000000
    19  C    2.779364   1.449288   2.114045   0.000000
    20  H    2.342778   2.075959   2.971140   1.085170   0.000000
    21  H    3.526504   2.087158   2.483496   1.088056   1.773389
    22  H    3.519688   2.086887   2.483867   1.088236   1.773674
                   21         22
    21  H    0.000000
    22  H    1.774068   0.000000
 Stoichiometry    C6H12N2O2
 Framework group  C1[X(C6H12N2O2)]
 Deg. of freedom    60
 Full point group                 C1      NOp   1
 Largest Abelian subgroup         C1      NOp   1
 Largest concise Abelian subgroup C1      NOp   1
                         Standard orientation:                         
 ---------------------------------------------------------------------
 Center     Atomic      Atomic             Coordinates (Angstroms)
 Number     Number       Type             X           Y           Z
 ---------------------------------------------------------------------
      1          1           0       -3.757436   -1.412241    0.238954
      2          6           0       -2.945719   -1.236230   -0.460490
      3          1           0       -3.351500   -0.888911   -1.408880
      4          1           0       -2.400904   -2.164314   -0.625730
      5          6           0       -1.988431   -0.183566    0.089232
      6          8           0       -2.220301    0.309032    1.176877
      7          7           0       -0.946422    0.089502   -0.725980
      8          1           0       -0.931187   -0.434785   -1.582586
      9          6           0        0.188040    1.022568   -0.592455
     10          1           0        0.318538    1.532203   -1.543964
     11          6           0        0.051631    2.110255    0.479077
     12          1           0       -0.044741    1.673508    1.461869
     13          1           0        0.946124    2.729653    0.451885
     14          1           0       -0.818511    2.727859    0.275231
     15          6           0        1.473242    0.269474   -0.257514
     16          8           0        2.553190    0.817332   -0.404759
     17          7           0        1.353837   -0.995528    0.161996
     18          1           0        0.443526   -1.404249    0.256043
     19          6           0        2.504107   -1.812056    0.494559
     20          1           0        3.408357   -1.231500    0.343295
     21          1           0        2.446464   -2.125994    1.534744
     22          1           0        2.529035   -2.692628   -0.144370
 ---------------------------------------------------------------------
 Rotational constants (GHZ):      2.0023915      0.8548539      0.6945724
 Standard basis: 6-31G(d) (6D, 7F)
 There are   174 symmetry adapted basis functions of A   symmetry.
 Integral buffers will be    131072 words long.
 Raffenetti 1 integral format.
 Two-electron integral symmetry is turned on.
   174 basis functions,   328 primitive gaussians,   174 cartesian basis functions
    39 alpha electrons       39 beta electrons
       nuclear repulsion energy       560.4753826051 Hartrees.
 NAtoms=   22 NActive=   22 NUniq=   22 SFac= 7.50D-01 NAtFMM=   80 NAOKFM=F Big=F
 One-electron integrals computed using PRISM.
 NBasis=   174 RedAO= T  NBF=   174
 NBsUse=   174 1.00D-06 NBFU=   174
 Initial guess read from the read-write file.
 B after Tr=     0.000000    0.000000    0.000000
         Rot=    1.000000    0.000000    0.000000    0.000000 Ang=   0.00 deg.
 Initial guess orbital symmetries:
       Occupied  (A) (A) (A) (A) (A) (A) (A) (A) (A) (A) (A) (A)
                 (A) (A) (A) (A) (A) (A) (A) (A) (A) (A) (A) (A)
                 (A) (A) (A) (A) (A) (A) (A) (A) (A) (A) (A) (A)
                 (A) (A) (A)
       Virtual   (A) (A) (A) (A) (A) (A) (A) (A) (A) (A) (A) (A)
                 (A) (A) (A) (A) (A) (A) (A) (A) (A) (A) (A) (A)
                 (A) (A) (A) (A) (A) (A) (A) (A) (A) (A) (A) (A)
                 (A) (A) (A) (A) (A) (A) (A) (A) (A) (A) (A) (A)
                 (A) (A) (A) (A) (A) (A) (A) (A) (A) (A) (A) (A)
                 (A) (A) (A) (A) (A) (A) (A) (A) (A) (A) (A) (A)
                 (A) (A) (A) (A) (A) (A) (A) (A) (A) (A) (A) (A)
                 (A) (A) (A) (A) (A) (A) (A) (A) (A) (A) (A) (A)
                 (A) (A) (A) (A) (A) (A) (A) (A) (A) (A) (A) (A)
                 (A) (A) (A) (A) (A) (A) (A) (A) (A) (A) (A) (A)
                 (A) (A) (A) (A) (A) (A) (A) (A) (A) (A) (A) (A)
                 (A) (A) (A)
 Harris functional with IExCor=  205 diagonalized for initial guess.
 ExpMin= 1.61D-01 ExpMax= 5.48D+03 ExpMxC= 8.25D+02 IAcc=1 IRadAn=         1 AccDes= 0.00D+00
 HarFok:  IExCor=  205 AccDes= 0.00D+00 IRadAn=         1 IDoV= 1
 ScaDFX=  1.000000  1.000000  1.000000  1.000000
 FoFCou: FMM=F IPFlag=           0 FMFlag=      100000 FMFlg1=           0
         NFxFlg=           0 DoJE=T BraDBF=F KetDBF=T FulRan=T
         Omega=  0.000000  0.000000  1.000000  0.000000  0.000000 ICntrl=     500 IOpCl=  0
         NMat0=    1 NMatS0=    1 NMatT0=    0 NMatD0=    1 NMtDS0=    0 NMtDT0=    0
         I1Cent=           4 NGrid=           0.
 Petite list used in FoFCou.
 Requested convergence on RMS density matrix=1.00D-08 within 128 cycles.
 Requested convergence on MAX density matrix=1.00D-06.
 Requested convergence on             energy=1.00D-06.
 No special actions if energy rises.
 Integral accuracy reduced to 1.0D-05 until final iterations.
 Initial convergence to 1.0D-05 achieved.  Increase integral accuracy.
 SCF Done:  E(RHF) =  -492.843453875     A.U. after   14 cycles
             Convg  =    0.6652D-08             -V/T =  2.0019
 Calling FoFJK, ICntrl=      2127 FMM=F ISym2X=0 I1Cent= 0 IOpClX= 0 NMat=1 NMatS=1 NMatT=0.
 ***** Axes restored to original set *****
 -------------------------------------------------------------------
 Center     Atomic                   Forces (Hartrees/Bohr)
 Number     Number              X              Y              Z
 -------------------------------------------------------------------
      1        1           0.004763793    0.003300543    0.002962210
      2        6           0.004003226    0.002886438    0.005180627
      3        1          -0.003836635    0.001614479   -0.000662353
      4        1          -0.001668349   -0.003960517    0.001039686
      5        6          -0.004218892   -0.017300055   -0.040944884
      6        8           0.000509799    0.010476454    0.031467244
      7        7           0.009212405    0.001066915    0.013823737
      8        1           0.004949232   -0.001531238   -0.006732600
      9        6          -0.004424521    0.002330954   -0.013522025
     10        1          -0.006102338    0.005356459   -0.000300961
     11        6           0.000600525   -0.007736860   -0.000629684
     12        1           0.000973517   -0.002193898   -0.001110632
     13        1          -0.004970442   -0.002786200    0.000868758
     14        1          -0.000240053    0.002818491   -0.002460330
     15        6           0.019131836    0.017348403    0.025131114
     16        8          -0.016487190   -0.017779484   -0.010381032
     17        7          -0.009507133    0.000746296   -0.003709824
     18        1           0.010040409    0.006005520    0.002380265
     19        6          -0.000301218    0.001000382   -0.001707567
     20        1          -0.004703652   -0.003970719   -0.001846963
     21        1           0.000279384    0.001006824    0.003295409
     22        1           0.001996298    0.001300812   -0.002140192
 -------------------------------------------------------------------
 Cartesian Forces:  Max     0.040944884 RMS     0.009748132

 GradGradGradGradGradGradGradGradGradGradGradGradGradGradGradGradGradGrad
 Berny optimization.
 Using GEDIIS/GDIIS optimizer.
 Internal  Forces:  Max     0.030318998 RMS     0.006172584
 Search for a local minimum.
 Step number   2 out of a maximum of  108
 All quantities printed in internal units (Hartrees-Bohrs-Radians)
 Mixed Optimization -- RFO/linear search
 Update second derivatives using D2CorX and points    1    2
 DE= -2.25D-02 DEPred=-6.13D-02 R= 3.66D-01
 Trust test= 3.66D-01 RLast= 3.00D-01 DXMaxT set to 3.00D-01
 Use linear search instead of GDIIS.
     Eigenvalues ---    0.00370   0.00437   0.01004   0.01044   0.01344
     Eigenvalues ---    0.01419   0.01659   0.02552   0.02552   0.03523
     Eigenvalues ---    0.05031   0.05688   0.05927   0.06134   0.07205
     Eigenvalues ---    0.07379   0.07626   0.07699   0.15783   0.15986
     Eigenvalues ---    0.16000   0.16000   0.16000   0.16000   0.16000
     Eigenvalues ---    0.16000   0.16000   0.16000   0.16000   0.16403
     Eigenvalues ---    0.17277   0.21990   0.24278   0.24871   0.24993
     Eigenvalues ---    0.25000   0.29412   0.29848   0.30146   0.34568
     Eigenvalues ---    0.34719   0.34807   0.34808   0.34809   0.34810
     Eigenvalues ---    0.34814   0.34817   0.34819   0.34821   0.36874
     Eigenvalues ---    0.38375   0.45696   0.45966   0.56502   0.58314
     Eigenvalues ---    0.88504   0.90845   0.935031000.000001000.00000
     Eigenvalues --- 1000.000001000.000001000.000001000.000001000.00000
     Eigenvalues --- 1000.000001000.000001000.000001000.000001000.00000
     Eigenvalues --- 1000.000001000.000001000.000001000.000001000.00000
     Eigenvalues --- 1000.000001000.000001000.000001000.000001000.00000
     Eigenvalues --- 1000.000001000.000001000.000001000.000001000.00000
     Eigenvalues --- 1000.000001000.000001000.000001000.000001000.00000
     Eigenvalues --- 1000.000001000.000001000.000001000.000001000.00000
     Eigenvalues --- 1000.000001000.000001000.00000
 RFO step:  Lambda=-8.06392425D-03 EMin= 3.69635088D-03
 Quartic linear search produced a step of -0.15573.
 Iteration  1 RMS(Cart)=  0.10000943 RMS(Int)=  0.00187431
 Iteration  2 RMS(Cart)=  0.00297910 RMS(Int)=  0.00036381
 Iteration  3 RMS(Cart)=  0.00000374 RMS(Int)=  0.00036380
 Iteration  4 RMS(Cart)=  0.00000000 RMS(Int)=  0.00036380
 Iteration  1 RMS(Cart)=  0.00015155 RMS(Int)=  0.00006456
 Iteration  2 RMS(Cart)=  0.00010249 RMS(Int)=  0.00007124
 Iteration  3 RMS(Cart)=  0.00006964 RMS(Int)=  0.00008193
 Iteration  4 RMS(Cart)=  0.00004746 RMS(Int)=  0.00009107
 Iteration  5 RMS(Cart)=  0.00003240 RMS(Int)=  0.00009791
 Iteration  6 RMS(Cart)=  0.00002215 RMS(Int)=  0.00010281
 Iteration  7 RMS(Cart)=  0.00001515 RMS(Int)=  0.00010625
 Iteration  8 RMS(Cart)=  0.00001037 RMS(Int)=  0.00010863
 Iteration  9 RMS(Cart)=  0.00000710 RMS(Int)=  0.00011029
 Iteration 10 RMS(Cart)=  0.00000486 RMS(Int)=  0.00011142
 Iteration 11 RMS(Cart)=  0.00000333 RMS(Int)=  0.00011220
 Iteration 12 RMS(Cart)=  0.00000228 RMS(Int)=  0.00011274
 Iteration 13 RMS(Cart)=  0.00000156 RMS(Int)=  0.00011311
 Iteration 14 RMS(Cart)=  0.00000107 RMS(Int)=  0.00011336
 Iteration 15 RMS(Cart)=  0.00000073 RMS(Int)=  0.00011353
 Variable       Old X    -DE/DX   Delta X   Delta X   Delta X     New X
                                 (Linear)    (Quad)   (Total)
    R1        2.05197  -0.00577   0.00123  -0.01662  -0.01539   2.03658
    R2        2.05688  -0.00198   0.00044  -0.00575  -0.00531   2.05157
    R3        2.05752  -0.00160   0.00037  -0.00466  -0.00430   2.05322
    R4        2.88250  -0.00240   0.00136  -0.00981  -0.00845   2.87404
    R5        2.29848  -0.03032   0.00373  -0.03805  -0.03432   2.26416
    R6        2.55282   0.00227  -0.00465   0.01555   0.01090   2.56372
    R7        1.89810  -0.00831   0.00165  -0.01920  -0.01755   1.88055
    R8        2.78723  -0.01106  -0.00764  -0.00499  -0.01263   2.77460
    R9        2.05462  -0.00456   0.00080  -0.01272  -0.01192   2.04269
   R10        2.89680   0.00187  -0.00232   0.01051   0.00819   2.90499
   R11        2.88521   0.00595  -0.00141   0.01945   0.01804   2.90325
   R12        2.04048  -0.00008   0.00300  -0.00739  -0.00440   2.03608
   R13        2.05669  -0.00541   0.00049  -0.01399  -0.01350   2.04319
   R14        2.05288  -0.00266   0.00106  -0.00883  -0.00778   2.04510
   R15        2.30525  -0.02593   0.00267  -0.03110  -0.02843   2.27682
   R16        2.52862   0.00523  -0.00091   0.00987   0.00895   2.53757
   R17        1.89403  -0.01173   0.00229  -0.02698  -0.02469   1.86934
   R18        2.73876  -0.00017  -0.00008  -0.00016  -0.00024   2.73852
   R19        2.05067  -0.00635   0.00141  -0.01841  -0.01700   2.03367
   R20        2.05613  -0.00278   0.00058  -0.00796  -0.00738   2.04874
   R21        2.05647  -0.00261   0.00053  -0.00746  -0.00692   2.04955
    A1        1.91165   0.00000  -0.00008  -0.00202  -0.00189   1.90976
    A2        1.91096  -0.00031   0.00001  -0.00339  -0.00313   1.90783
    A3        1.92716  -0.00632   0.00185  -0.03690  -0.03482   1.89233
    A4        1.90319  -0.00435   0.00108  -0.01962  -0.01910   1.88409
    A5        1.90474   0.00514  -0.00134   0.02900   0.02747   1.93221
    A6        1.90595   0.00588  -0.00153   0.03322   0.03152   1.93747
    A7        2.07387   0.01527   0.00457   0.03993   0.04450   2.11837
    A8        1.98898   0.00025   0.00717  -0.01480  -0.00764   1.98135
    A9        2.22032  -0.01552  -0.01174  -0.02516  -0.03691   2.18342
   A10        2.00516   0.00487   0.01389  -0.01058   0.00323   2.00839
   A11        2.30034  -0.00984  -0.02691   0.01921  -0.00777   2.29257
   A12        1.97768   0.00497   0.01302  -0.00859   0.00436   1.98204
   A13        1.88559  -0.00130   0.00398  -0.02437  -0.02025   1.86534
   A14        2.03053  -0.01252  -0.01425  -0.03825  -0.05410   1.97643
   A15        1.93400   0.01058   0.00078   0.06190   0.06356   1.99756
   A16        1.86484   0.00512   0.00487   0.01017   0.01437   1.87922
   A17        1.89880  -0.00801  -0.00042  -0.03341  -0.03358   1.86522
   A18        1.84580   0.00581   0.00554   0.02153   0.02798   1.87378
   A19        1.93603   0.00279  -0.00388   0.02035   0.01648   1.95251
   A20        1.88937  -0.00327   0.00338  -0.02001  -0.01658   1.87280
   A21        1.92144   0.00289  -0.00161   0.01541   0.01381   1.93525
   A22        1.90317   0.00070   0.00108   0.00539   0.00652   1.90969
   A23        1.90631  -0.00313   0.00061  -0.02102  -0.02044   1.88587
   A24        1.90718  -0.00001   0.00046  -0.00026   0.00026   1.90744
   A25        2.09117  -0.00727   0.00187  -0.02717  -0.02587   2.06530
   A26        2.04876   0.00564  -0.00213   0.02349   0.02079   2.06955
   A27        2.14292   0.00171   0.00032   0.00512   0.00486   2.14778
   A28        2.08976  -0.00333   0.00073  -0.01587  -0.01529   2.07447
   A29        2.13382   0.00343  -0.00097   0.01469   0.01356   2.14738
   A30        2.05960  -0.00011   0.00024   0.00111   0.00120   2.06080
   A31        1.90494  -0.00253   0.00096  -0.01571  -0.01470   1.89024
   A32        1.91759   0.00294  -0.00099   0.01728   0.01623   1.93382
   A33        1.91702   0.00256  -0.00092   0.01496   0.01398   1.93100
   A34        1.90897  -0.00050   0.00018  -0.00392  -0.00369   1.90528
   A35        1.90919  -0.00045   0.00015  -0.00410  -0.00390   1.90529
   A36        1.90608  -0.00204   0.00062  -0.00862  -0.00817   1.89791
    D1        0.00200   0.00017  -0.00032   0.00230   0.00204   0.00404
    D2        3.13944  -0.00016   0.00032  -0.00490  -0.00467   3.13476
    D3        2.10415  -0.00049  -0.00013  -0.00468  -0.00503   2.09912
    D4       -1.04159  -0.00083   0.00051  -0.01188  -0.01175  -1.05335
    D5       -2.10008   0.00075  -0.00050   0.00832   0.00823  -2.09185
    D6        1.03736   0.00042   0.00015   0.00113   0.00151   1.03887
    D7       -0.00534   0.00003   0.00083  -0.00142  -0.00057  -0.00591
    D8        3.13809  -0.00139   0.00053  -0.02499  -0.02471   3.11339
    D9        3.13169  -0.00025   0.00154  -0.00914  -0.00735   3.12434
   D10       -0.00807  -0.00167   0.00124  -0.03271  -0.03148  -0.03955
   D11       -2.37198  -0.00026   0.00247  -0.01958  -0.01725  -2.38922
   D12       -0.27603  -0.00290   0.00223  -0.05030  -0.04685  -0.32288
   D13        1.83267   0.00412   0.00000   0.00000   0.00000   1.83266
   D14        0.77143  -0.00166   0.00217  -0.04286  -0.04109   0.73034
   D15        2.86737  -0.00431   0.00194  -0.07357  -0.07069   2.79668
   D16       -1.30711   0.00272  -0.00030  -0.02328  -0.02385  -1.33096
   D17        1.07175   0.00521  -0.00382   0.02720   0.02312   1.09487
   D18       -3.12401   0.00568  -0.00274   0.03340   0.03038  -3.09363
   D19       -1.04030   0.00538  -0.00108   0.02997   0.02858  -1.01172
   D20       -3.10439  -0.00070  -0.00439  -0.02127  -0.02564  -3.13003
   D21       -1.01696  -0.00022  -0.00332  -0.01507  -0.01839  -1.03535
   D22        1.06675  -0.00053  -0.00166  -0.01850  -0.02019   1.04656
   D23       -1.08334  -0.00474   0.00036  -0.04456  -0.04389  -1.12724
   D24        1.00409  -0.00426   0.00144  -0.03837  -0.03664   0.96745
   D25        3.08779  -0.00457   0.00309  -0.04179  -0.03844   3.04935
   D26        2.85289   0.00246   0.00418   0.05855   0.06187   2.91476
   D27       -0.26176  -0.00077   0.00000   0.00000   0.00000  -0.26176
   D28        0.78233   0.00272  -0.00092   0.07221   0.07106   0.85339
   D29       -2.33232  -0.00052  -0.00510   0.01366   0.00919  -2.32313
   D30       -1.21544  -0.00239  -0.00930   0.06520   0.05671  -1.15873
   D31        1.95309  -0.00562  -0.01348   0.00665  -0.00516   1.94793
   D32       -0.01441   0.00117   0.00223   0.01517   0.01762   0.00321
   D33        3.12977   0.00223   0.00185   0.04911   0.05100  -3.10241
   D34       -3.12820  -0.00202  -0.00209  -0.04474  -0.04686   3.10812
   D35        0.01599  -0.00097  -0.00247  -0.01079  -0.01348   0.00250
   D36       -0.00138  -0.00060   0.00020  -0.01817  -0.01803  -0.01941
   D37        2.09172  -0.00098   0.00041  -0.02215  -0.02189   2.06983
   D38       -2.09440  -0.00005  -0.00002  -0.01257  -0.01257  -2.10697
   D39       -3.14042   0.00044  -0.00018   0.01524   0.01513  -3.12529
   D40       -1.04732   0.00006   0.00003   0.01126   0.01126  -1.03605
   D41        1.04974   0.00099  -0.00039   0.02084   0.02059   1.07033
         Item               Value     Threshold  Converged?
 Maximum Force            0.030319     0.000450     NO 
 RMS     Force            0.006201     0.000300     NO 
 Maximum Displacement     0.360008     0.001800     NO 
 RMS     Displacement     0.099745     0.001200     NO 
 Predicted change in Energy=-4.995092D-03
 GradGradGradGradGradGradGradGradGradGradGradGradGradGradGradGradGradGrad

                          Input orientation:                          
 ---------------------------------------------------------------------
 Center     Atomic      Atomic             Coordinates (Angstroms)
 Number     Number       Type             X           Y           Z
 ---------------------------------------------------------------------
      1          1           0        1.203564    2.177272   -1.753325
      2          6           0        1.607649    2.631404   -0.863414
      3          1           0        1.747091    1.870788   -0.101415
      4          1           0        0.901309    3.363051   -0.480925
      5          6           0        2.933436    3.286929   -1.217877
      6          8           0        3.367974    3.251824   -2.333890
      7          7           0        3.531777    3.901425   -0.166727
      8          1           0        3.031302    3.850958    0.691932
      9          6           0        4.810435    4.615122   -0.059733
     10          1           0        5.272125    4.295083    0.863773
     11          6           0        5.783640    4.291124   -1.204744
     12          1           0        5.392742    4.594770   -2.161767
     13          1           0        6.702817    4.824706   -1.006219
     14          1           0        5.988788    3.229397   -1.247838
     15          6           0        4.681061    6.144270    0.013032
     16          8           0        5.648076    6.785097    0.338407
     17          7           0        3.510235    6.706749   -0.327502
     18          1           0        2.764713    6.122279   -0.612336
     19          6           0        3.296271    8.139975   -0.339814
     20          1           0        4.204900    8.620085   -0.020381
     21          1           0        3.043988    8.483009   -1.336839
     22          1           0        2.493007    8.412383    0.336101
 ---------------------------------------------------------------------
                    Distance matrix (angstroms):
                    1          2          3          4          5
     1  H    0.000000
     2  C    1.077711   0.000000
     3  H    1.765832   1.085644   0.000000
     4  H    1.765343   1.086518   1.756765   0.000000
     5  C    2.123794   1.520877   2.158554   2.162968   0.000000
     6  O    2.485234   2.376124   3.085201   3.087116   1.198141
     7  N    3.303115   2.408443   2.704229   2.703318   1.356662
     8  H    3.481542   2.435817   2.489914   2.480024   1.993759
     9  C    4.671283   3.852127   4.113050   4.126300   2.574591
    10  H    5.280862   4.379428   4.385733   4.667004   3.289241
    11  C    5.074091   4.506670   4.834158   5.022189   3.021960
    12  H    4.853899   4.457293   4.995588   4.951296   2.941014
    13  H    6.148891   5.549028   5.839822   6.005819   4.076493
    14  H    4.925530   4.438441   4.599141   5.146694   3.056040
    15  C    5.563279   4.749131   5.184971   4.718654   3.568435
    16  O    6.735063   5.917989   6.289798   5.908764   4.693449
    17  N    5.279192   4.529402   5.152311   4.243861   3.580592
    18  H    4.393419   3.686197   4.401338   3.332099   2.904197
    19  C    6.475436   5.785323   6.462159   5.345536   4.945169
    20  H    7.315802   6.581848   7.183342   6.225931   5.611878
    21  H    6.582017   6.043880   6.850524   5.615838   5.198618
    22  H    6.701118   5.970127   6.598505   5.356938   5.373928
                    6          7          8          9         10
     6  O    0.000000
     7  N    2.268349   0.000000
     8  H    3.102887   0.995147   0.000000
     9  C    3.018454   1.468257   2.077080   0.000000
    10  H    3.865129   2.060512   2.290865   1.080947   0.000000
    11  C    2.861914   2.510026   3.371422   1.537255   2.130827
    12  H    2.435737   2.814978   3.777996   2.181294   3.042738
    13  H    3.918909   3.407740   4.160760   2.126234   2.413349
    14  H    2.837019   2.767188   3.591068   2.172635   2.471476
    15  C    3.949491   2.526563   2.905493   1.536335   2.119578
    16  O    4.982374   3.612401   3.947360   2.359862   2.572454
    17  N    3.997792   2.810010   3.069880   2.477322   3.215513
    18  H    3.401056   2.391474   2.632695   2.600360   3.435791
    19  C    5.279725   4.248614   4.419318   3.846521   4.487295
    20  H    5.905166   4.768675   4.962791   4.050673   4.541624
    21  H    5.335201   4.753736   5.056873   4.439807   5.229342
    22  H    5.875864   4.656245   4.606839   4.466133   4.995407
                   11         12         13         14         15
    11  C    0.000000
    12  H    1.077448   0.000000
    13  H    1.081208   1.761948   0.000000
    14  H    1.082222   1.747792   1.764434   0.000000
    15  C    2.476451   2.763547   2.620614   3.434592   0.000000
    16  O    2.935915   3.333706   2.600698   3.908357   1.204843
    17  N    3.431205   3.371768   3.767668   4.368320   1.342825
    18  H    3.580223   3.411826   4.165034   4.378046   2.015927
[...]
    13  H    6.127697   5.453806   5.572109   5.958857   4.066613
    14  H    4.847376   4.199477   4.110696   4.887830   3.012674
    15  C    5.536798   4.823887   5.346920   4.890262   3.524221
    16  O    6.708598   5.971945   6.415795   6.042575   4.653397
    17  N    5.244890   4.680284   5.429891   4.598799   3.523727
    18  H    4.349037   3.878993   4.729780   3.806153   2.822726
    19  C    6.445625   5.983871   6.803868   5.825998   4.880984
    20  H    7.241555   6.669746   7.411683   6.436133   5.587853
    21  H    6.873027   6.507019   7.330474   6.496519   5.281376
    22  H    6.394581   6.033673   6.947305   5.753287   5.128068
                    6          7          8          9         10
     6  O    0.000000
     7  N    2.258877   0.000000
     8  H    3.102318   0.994776   0.000000
     9  C    2.943335   1.461638   2.079278   0.000000
    10  H    3.867425   2.038945   2.190064   1.083413   0.000000
    11  C    2.901974   2.532363   3.313856   1.531936   2.118358
    12  H    2.462936   2.890911   3.826057   2.180694   3.035579
    13  H    3.953732   3.420943   4.094251   2.129554   2.373795
    14  H    2.970427   2.750328   3.408576   2.159816   2.477473
    15  C    3.765653   2.512175   3.029111   1.531496   2.074297
    16  O    4.823610   3.598252   4.032351   2.363199   2.533245
    17  N    3.739151   2.773924   3.253770   2.461069   3.149376
    18  H    3.054681   2.368971   2.897521   2.571865   3.395997
    19  C    4.963802   4.215374   4.639096   3.816786   4.415322
    20  H    5.790305   4.714626   5.000272   4.143613   4.505522
    21  H    5.120404   4.764549   5.346639   4.217997   4.920374
    22  H    5.252964   4.612009   4.947688   4.524541   5.148024
                   11         12         13         14         15
    11  C    0.000000
    12  H    1.078685   0.000000
    13  H    1.081585   1.763027   0.000000
    14  H    1.083783   1.752984   1.761914   0.000000
    15  C    2.509713   2.795556   2.694019   3.454135   0.000000
    16  O    2.971441   3.345097   2.685611   3.951046   1.202986
    17  N    3.493551   3.470776   3.880021   4.394931   1.343991
    18  H    3.582639   3.438772   4.211560   4.342374   2.011089
    19  C    4.692777   4.549849   4.887873   5.679968   2.431400
    20  H    5.098661   5.135225   5.117201   6.094480   2.659821
    21  H    4.765230   4.436917   4.870256   5.804781   2.847636
    22  H    5.493510   5.291087   5.818276   6.417278   3.298015
                   16         17         18         19         20
    16  O    0.000000
    17  N    2.242793   0.000000
    18  H    3.101983   0.992626   0.000000
    19  C    2.766376   1.446849   2.113198   0.000000
    20  H    2.607910   2.075864   2.920419   1.079939   0.000000
    21  H    2.997833   2.107629   2.693411   1.084838   1.755650
    22  H    3.791191   2.067186   2.327871   1.082135   1.761043
                   21         22
    21  H    0.000000
    22  H    1.764085   0.000000
 Stoichiometry    C6H12N2O2
 Framework group  C1[X(C6H12N2O2)]
 Deg. of freedom    60
 Full point group                 C1      NOp   1
 Largest Abelian subgroup         C1      NOp   1
 Largest concise Abelian subgroup C1      NOp   1
                         Standard orientation:                         
 ---------------------------------------------------------------------
 Center     Atomic      Atomic             Coordinates (Angstroms)
 Number     Number       Type             X           Y           Z
 ---------------------------------------------------------------------
      1          1           0       -3.737288   -1.480684    0.258171
      2          6           0       -3.171131   -0.967864   -0.505153
      3          1           0       -3.802346   -0.208949   -0.957563
      4          1           0       -2.883320   -1.670973   -1.279406
      5          6           0       -1.970093   -0.303800    0.138274
      6          8           0       -1.907492   -0.117903    1.320262
      7          7           0       -0.979550    0.035944   -0.733462
      8          1           0       -1.161480   -0.164686   -1.690660
      9          6           0        0.119050    0.974607   -0.513523
     10          1           0        0.250167    1.493153   -1.455703
     11          6           0       -0.130769    2.044783    0.553782
     12          1           0       -0.181902    1.624911    1.546079
     13          1           0        0.681659    2.757220    0.506655
     14          1           0       -1.062598    2.560842    0.353871
     15          6           0        1.476132    0.305283   -0.277280
     16          8           0        2.477978    0.964475   -0.371873
     17          7           0        1.480372   -1.007290    0.011591
     18          1           0        0.611338   -1.443386    0.211357
     19          6           0        2.703925   -1.690633    0.371219
     20          1           0        3.479563   -1.443199   -0.338310
     21          1           0        3.046072   -1.413642    1.362725
     22          1           0        2.527820   -2.758017    0.344851
 ---------------------------------------------------------------------
 Rotational constants (GHZ):      2.1116119      0.8237910      0.6946203

 **********************************************************************

            Population analysis using the SCF density.

 **********************************************************************

 Orbital symmetries:
       Occupied  (A) (A) (A) (A) (A) (A) (A) (A) (A) (A) (A) (A)
                 (A) (A) (A) (A) (A) (A) (A) (A) (A) (A) (A) (A)
                 (A) (A) (A) (A) (A) (A) (A) (A) (A) (A) (A) (A)
                 (A) (A) (A)
       Virtual   (A) (A) (A) (A) (A) (A) (A) (A) (A) (A) (A) (A)
                 (A) (A) (A) (A) (A) (A) (A) (A) (A) (A) (A) (A)
                 (A) (A) (A) (A) (A) (A) (A) (A) (A) (A) (A) (A)
                 (A) (A) (A) (A) (A) (A) (A) (A) (A) (A) (A) (A)
                 (A) (A) (A) (A) (A) (A) (A) (A) (A) (A) (A) (A)
                 (A) (A) (A) (A) (A) (A) (A) (A) (A) (A) (A) (A)
                 (A) (A) (A) (A) (A) (A) (A) (A) (A) (A) (A) (A)
                 (A) (A) (A) (A) (A) (A) (A) (A) (A) (A) (A) (A)
                 (A) (A) (A) (A) (A) (A) (A) (A) (A) (A) (A) (A)
                 (A) (A) (A) (A) (A) (A) (A) (A) (A) (A) (A) (A)
                 (A) (A) (A) (A) (A) (A) (A) (A) (A) (A) (A) (A)
                 (A) (A) (A)
 The electronic state is 1-A.
 Alpha  occ. eigenvalues --  -20.53477 -20.51595 -15.59808 -15.58128 -11.36109
 Alpha  occ. eigenvalues --  -11.33894 -11.28514 -11.25427 -11.24305 -11.21538
 Alpha  occ. eigenvalues --   -1.40348  -1.38572  -1.25221  -1.22457  -1.05822
 Alpha  occ. eigenvalues --   -0.99821  -0.95777  -0.88540  -0.79862  -0.77682
 Alpha  occ. eigenvalues --   -0.72612  -0.70232  -0.66301  -0.62936  -0.62564
 Alpha  occ. eigenvalues --   -0.62207  -0.60318  -0.59378  -0.57416  -0.55701
 Alpha  occ. eigenvalues --   -0.54972  -0.54479  -0.52455  -0.52104  -0.49513
 Alpha  occ. eigenvalues --   -0.44035  -0.42404  -0.39175  -0.38020
 Alpha virt. eigenvalues --    0.18948   0.19464   0.20843   0.24407   0.26001
 Alpha virt. eigenvalues --    0.27839   0.28772   0.29738   0.31178   0.32031
 Alpha virt. eigenvalues --    0.32850   0.33892   0.34376   0.35168   0.36564
 Alpha virt. eigenvalues --    0.38515   0.40611   0.43393   0.48373   0.48920
 Alpha virt. eigenvalues --    0.53875   0.59348   0.64856   0.71155   0.73337
 Alpha virt. eigenvalues --    0.74407   0.74694   0.75959   0.76589   0.77657
 Alpha virt. eigenvalues --    0.80245   0.81660   0.83370   0.87459   0.88677
 Alpha virt. eigenvalues --    0.93067   0.94306   0.97254   0.99115   0.99798
 Alpha virt. eigenvalues --    1.01626   1.03514   1.04411   1.05588   1.09262
 Alpha virt. eigenvalues --    1.10917   1.11481   1.13347   1.14387   1.15489
 Alpha virt. eigenvalues --    1.16000   1.17763   1.18457   1.20273   1.20789
 Alpha virt. eigenvalues --    1.21395   1.22770   1.23590   1.26559   1.29147
 Alpha virt. eigenvalues --    1.29670   1.34088   1.35825   1.37016   1.42254
 Alpha virt. eigenvalues --    1.43930   1.47546   1.54257   1.56566   1.59855
 Alpha virt. eigenvalues --    1.63219   1.67159   1.71829   1.73593   1.76319
 Alpha virt. eigenvalues --    1.80781   1.82897   1.84610   1.94879   1.97408
 Alpha virt. eigenvalues --    1.99572   2.05798   2.05943   2.09915   2.12251
 Alpha virt. eigenvalues --    2.14151   2.15116   2.18055   2.19193   2.21349
 Alpha virt. eigenvalues --    2.24263   2.26501   2.30183   2.33575   2.36190
 Alpha virt. eigenvalues --    2.37643   2.39141   2.40076   2.43764   2.49342
 Alpha virt. eigenvalues --    2.52420   2.54194   2.56873   2.61926   2.64126
 Alpha virt. eigenvalues --    2.67412   2.69579   2.70839   2.75230   2.77559
 Alpha virt. eigenvalues --    2.80482   2.82076   2.88536   2.89577   2.97273
 Alpha virt. eigenvalues --    3.02319   3.05121   3.08766   3.12356   3.23232
 Alpha virt. eigenvalues --    3.34785   3.37506   3.41916   3.52946   3.58529
 Alpha virt. eigenvalues --    4.36551   4.45687   4.51451   4.57281   4.63666
 Alpha virt. eigenvalues --    4.64963   4.71265   4.79560   4.91635   5.11185
          Condensed to atoms (all electrons):
              1          2          3          4          5          6
     1  H    0.459522   0.383880  -0.016933  -0.020627  -0.032316   0.003617
     2  C    0.383880   5.281523   0.375174   0.374841   0.372510  -0.073116
     3  H   -0.016933   0.375174   0.493191  -0.024823  -0.027572   0.000443
     4  H   -0.020627   0.374841  -0.024823   0.521049  -0.035022   0.001906
     5  C   -0.032316   0.372510  -0.027572  -0.035022   4.157196   0.616240
     6  O    0.003617  -0.073116   0.000443   0.001906   0.616240   8.140436
     7  N    0.004394  -0.126204   0.000932   0.004609   0.246722  -0.103634
     8  H    0.000049   0.000057   0.000063   0.000458  -0.021312   0.002692
     9  C   -0.000056   0.003109  -0.000181   0.000087  -0.019948   0.007255
    10  H    0.000000  -0.000035   0.000015  -0.000009   0.002321   0.000043
    11  C   -0.000002  -0.000173   0.000008   0.000001  -0.003438  -0.006064
    12  H    0.000000   0.000101  -0.000002  -0.000003   0.000331   0.003634
    13  H    0.000000   0.000010  -0.000001   0.000000   0.000286   0.000377
    14  H    0.000004  -0.000177   0.000016   0.000000  -0.000152  -0.000720
    15  C    0.000003  -0.000179   0.000003  -0.000005  -0.002844  -0.000475
    16  O    0.000000   0.000000   0.000000   0.000000  -0.000004   0.000001
    17  N    0.000001   0.000001  -0.000001   0.000011   0.001531  -0.000523
    18  H   -0.000006   0.000153   0.000002  -0.000046   0.003333   0.001414
    19  C    0.000000   0.000000   0.000000   0.000000  -0.000043   0.000000
    20  H    0.000000   0.000000   0.000000   0.000000   0.000000   0.000000
    21  H    0.000000   0.000000   0.000000   0.000000  -0.000004   0.000002
    22  H    0.000000   0.000000   0.000000   0.000000   0.000002  -0.000001
              7          8          9         10         11         12
     1  H    0.004394   0.000049  -0.000056   0.000000  -0.000002   0.000000
     2  C   -0.126204   0.000057   0.003109  -0.000035  -0.000173   0.000101
     3  H    0.000932   0.000063  -0.000181   0.000015   0.000008  -0.000002
     4  H    0.004609   0.000458   0.000087  -0.000009   0.000001  -0.000003
     5  C    0.246722  -0.021312  -0.019948   0.002321  -0.003438   0.000331
     6  O   -0.103634   0.002692   0.007255   0.000043  -0.006064   0.003634
     7  N    7.499408   0.328629   0.122998  -0.047064  -0.041360  -0.001940
     8  H    0.328629   0.327800  -0.024305  -0.004678   0.002655  -0.000097
     9  C    0.122998  -0.024305   5.076561   0.421848   0.344036  -0.031890
    10  H   -0.047064  -0.004678   0.421848   0.499237  -0.032496   0.003709
    11  C   -0.041360   0.002655   0.344036  -0.032496   5.110962   0.392618
    12  H   -0.001940  -0.000097  -0.031890   0.003709   0.392618   0.467908
    13  H    0.003559  -0.000092  -0.035095  -0.002822   0.384706  -0.021399
    14  H   -0.000740   0.000007  -0.039769  -0.003561   0.393013  -0.023154
    15  C   -0.051244   0.001011   0.377477  -0.053245  -0.045584  -0.005482
    16  O    0.002544  -0.000037  -0.077252   0.004121  -0.001028   0.000146
    17  N   -0.002115   0.000570  -0.107839   0.003154  -0.000832   0.001080
    18  H    0.001199  -0.000017  -0.001119   0.000197  -0.000034   0.000076
    19  C   -0.000160  -0.000001   0.004289  -0.000136  -0.000129  -0.000053
    20  H   -0.000036  -0.000001   0.000192   0.000018  -0.000015   0.000001
    21  H   -0.000002   0.000001  -0.000283  -0.000010   0.000055  -0.000011
    22  H   -0.000008  -0.000001   0.000045   0.000003  -0.000001   0.000000
             13         14         15         16         17         18
     1  H    0.000000   0.000004   0.000003   0.000000   0.000001  -0.000006
     2  C    0.000010  -0.000177  -0.000179   0.000000   0.000001   0.000153
     3  H   -0.000001   0.000016   0.000003   0.000000  -0.000001   0.000002
     4  H    0.000000   0.000000  -0.000005   0.000000   0.000011  -0.000046
     5  C    0.000286  -0.000152  -0.002844  -0.000004   0.001531   0.003333
     6  O    0.000377  -0.000720  -0.000475   0.000001  -0.000523   0.001414
     7  N    0.003559  -0.000740  -0.051244   0.002544  -0.002115   0.001199
     8  H   -0.000092   0.000007   0.001011  -0.000037   0.000570  -0.000017
     9  C   -0.035095  -0.039769   0.377477  -0.077252  -0.107839  -0.001119
    10  H   -0.002822  -0.003561  -0.053245   0.004121   0.003154   0.000197
    11  C    0.384706   0.393013  -0.045584  -0.001028  -0.000832  -0.000034
    12  H   -0.021399  -0.023154  -0.005482   0.000146   0.001080   0.000076
    13  H    0.494343  -0.024939  -0.004159   0.005461   0.000355  -0.000034
    14  H   -0.024939   0.525780   0.005386  -0.000013  -0.000085  -0.000006
    15  C   -0.004159   0.005386   4.176806   0.588994   0.304586  -0.018878
    16  O    0.005461  -0.000013   0.588994   8.189659  -0.102364   0.002401
    17  N    0.000355  -0.000085   0.304586  -0.102364   7.291952   0.322288
    18  H   -0.000034  -0.000006  -0.018878   0.002401   0.322288   0.308367
    19  C   -0.000008   0.000003  -0.031453   0.006638   0.202650  -0.023039
    20  H   -0.000001   0.000000  -0.003565   0.004227  -0.038878   0.002614
    21  H    0.000002   0.000000  -0.002511   0.001353  -0.047176   0.000829
    22  H    0.000000   0.000000   0.004193   0.000347  -0.038962  -0.003847
             19         20         21         22
     1  H    0.000000   0.000000   0.000000   0.000000
     2  C    0.000000   0.000000   0.000000   0.000000
     3  H    0.000000   0.000000   0.000000   0.000000
     4  H    0.000000   0.000000   0.000000   0.000000
     5  C   -0.000043   0.000000  -0.000004   0.000002
     6  O    0.000000   0.000000   0.000002  -0.000001
     7  N   -0.000160  -0.000036  -0.000002  -0.000008
     8  H   -0.000001  -0.000001   0.000001  -0.000001
     9  C    0.004289   0.000192  -0.000283   0.000045
    10  H   -0.000136   0.000018  -0.000010   0.000003
    11  C   -0.000129  -0.000015   0.000055  -0.000001
    12  H   -0.000053   0.000001  -0.000011   0.000000
    13  H   -0.000008  -0.000001   0.000002   0.000000
    14  H    0.000003   0.000000   0.000000   0.000000
    15  C   -0.031453  -0.003565  -0.002511   0.004193
    16  O    0.006638   0.004227   0.001353   0.000347
    17  N    0.202650  -0.038878  -0.047176  -0.038962
    18  H   -0.023039   0.002614   0.000829  -0.003847
    19  C    4.908133   0.403109   0.405616   0.398531
    20  H    0.403109   0.486398  -0.032261  -0.024860
    21  H    0.405616  -0.032261   0.527704  -0.032497
    22  H    0.398531  -0.024860  -0.032497   0.530351
 Mulliken atomic charges:
              1
     1  H    0.218472
     2  C   -0.591473
     3  H    0.199665
     4  H    0.177573
     5  C    0.742184
     6  O   -0.593528
     7  N   -0.840488
     8  H    0.386551
     9  C   -0.020159
    10  H    0.209389
    11  C   -0.496897
    12  H    0.214427
    13  H    0.199452
    14  H    0.169107
    15  C    0.761164
    16  O   -0.625195
    17  N   -0.789404
    18  H    0.404152
    19  C   -0.273947
    20  H    0.203058
    21  H    0.179194
    22  H    0.166704
 Sum of Mulliken atomic charges =   0.00000
 Mulliken charges with hydrogens summed into heavy atoms:
              1
     2  C    0.004236
     5  C    0.742184
     6  O   -0.593528
     7  N   -0.453937
     9  C    0.189231
    11  C    0.086089
    15  C    0.761164
    16  O   -0.625195
    17  N   -0.385252
    19  C    0.275009
 Sum of Mulliken charges with hydrogens summed into heavy atoms =   0.00000
 Electronic spatial extent (au):  <R**2>=           1757.4701
 Charge=              0.0000 electrons
 Dipole moment (field-independent basis, Debye):
    X=             -2.8070    Y=             -2.5407    Z=             -2.9358  Tot=              4.7910
 Quadrupole moment (field-independent basis, Debye-Ang):
   XX=            -65.4505   YY=            -57.0693   ZZ=            -61.4663
   XY=             -5.6879   XZ=              9.6367   YZ=              0.0259
 Traceless Quadrupole moment (field-independent basis, Debye-Ang):
   XX=             -4.1218   YY=              4.2594   ZZ=             -0.1376
   XY=             -5.6879   XZ=              9.6367   YZ=              0.0259
 Octapole moment (field-independent basis, Debye-Ang**2):
  XXX=            -31.5843  YYY=             -6.5187  ZZZ=            -11.2992  XYY=             -2.7730
  XXY=            -26.5192  XXZ=             -6.5637  XZZ=              5.9706  YZZ=              1.1045
  YYZ=              3.1926  XYZ=             -0.0594
 Hexadecapole moment (field-independent basis, Debye-Ang**3):
 XXXX=          -1480.0236 YYYY=           -543.6370 ZZZZ=           -211.0963 XXXY=            -45.0392
 XXXZ=             32.9278 YYYX=             -6.7257 YYYZ=             -4.6596 ZZZX=             13.0100
 ZZZY=             -0.6492 XXYY=           -336.0912 XXZZ=           -296.3069 YYZZ=           -130.4569
 XXYZ=              0.7753 YYXZ=              2.1309 ZZXY=              2.1965
 N-N= 5.611192246377D+02 E-N=-2.277586004143D+03  KE= 4.921199049654D+02
 1\1\GINC-RODAN\FOpt\RHF\6-31G(d)\C6H12N2O2\STEBOSS\09-Feb-2017\0\\# HF
 /6-31G* Opt=(ModRedundant) geom=nocrowd\\Phi Psi fixed scan\\0,1\H,1.0
 552095616,2.3360510725,-1.6729012489\C,1.6865255713,2.4847699339,-0.80
 94756517\H,2.1034907852,1.5271379211,-0.5125920232\H,1.0922982411,2.86
 29282315,0.0154824265\C,2.812327369,3.4287917841,-1.1821236432\O,3.099
 1626381,3.652082561,-2.3238061123\N,3.4409079752,4.0039580237,-0.11882
 98618\H,3.1117116156,3.7254125971,0.7776198962\C,4.7462639636,4.661364
 0344,-0.1030790069\H,5.2001713015,4.3817753925,0.8400980646\C,5.715110
 9097,4.2317338903,-1.2092346874\H,5.3867477862,4.5541343316,-2.1848355
 02\H,6.6809330383,4.6679335928,-0.9930303399\H,5.81202899,3.1523679945
 ,-1.2219539432\C,4.6763854542,6.189601026,-0.0317521428\O,5.6631044893
 ,6.806830858,0.2725326097\N,3.495001989,6.7714081239,-0.3003512076\H,2
 .7728691757,6.2063013879,-0.6804628542\C,3.3700308768,8.2107358435,-0.
 3783911253\H,3.8430634477,8.6629892862,0.4806640648\H,3.8341790429,8.6
 095527455,-1.2741503124\H,2.319375778,8.4698393678,-0.3809273991\\Vers
 ion=EM64L-G09RevA.02\State=1-A\HF=-492.850998\RMSD=8.187e-09\RMSF=9.23
 6e-04\Dipole=-1.4362055,-0.8289342,0.8961748\Quadrupole=-0.3695723,3.6
 400679,-3.2704957,-3.9783714,-3.7176858,-6.1024343\PG=C01 [X(C6H12N2O2
 )]\\@


 MOST BUREAUCRACIES FUNCTION LIKE A SEPTIC TANK.
 THE LARGE CHUNKS RISE TO THE TOP.
 Job cpu time:  0 days  0 hours 27 minutes 15.4 seconds.
 File lengths (MBytes):  RWF=     25 Int=      0 D2E=      0 Chk=      3 Scr=      1
 Normal termination of Gaussian 09 at Thu Feb  9 23:09:53 2017.
