 Entering Gaussian System, Link 0=g09
 Initial command:
 /home/steboss/Software/g09/l1.exe /tmp/Gau-23772.inp -scrdir=/tmp/
 Entering Link 1 = /home/steboss/Software/g09/l1.exe PID=     23774.
  
 Copyright (c) 1988,1990,1992,1993,1995,1998,2003,2009, Gaussian, Inc.
                  All Rights Reserved.
  
 This is part of the Gaussian(R) 09 program.  It is based on
 the Gaussian(R) 03 system (copyright 2003, Gaussian, Inc.),
 the Gaussian(R) 98 system (copyright 1998, Gaussian, Inc.),
 the Gaussian(R) 94 system (copyright 1995, Gaussian, Inc.),
 the Gaussian 92(TM) system (copyright 1992, Gaussian, Inc.),
 the Gaussian 90(TM) system (copyright 1990, Gaussian, Inc.),
 the Gaussian 88(TM) system (copyright 1988, Gaussian, Inc.),
 the Gaussian 86(TM) system (copyright 1986, Carnegie Mellon
 University), and the Gaussian 82(TM) system (copyright 1983,
 Carnegie Mellon University). Gaussian is a federally registered
 trademark of Gaussian, Inc.
  
 This software contains proprietary and confidential information,
 including trade secrets, belonging to Gaussian, Inc.
  
 This software is provided under written license and may be
 used, copied, transmitted, or stored only in accord with that
 written license.
  
 The following legend is applicable only to US Government
 contracts under FAR:
  
                    RESTRICTED RIGHTS LEGEND
  
 Use, reproduction and disclosure by the US Government is
 subject to restrictions as set forth in subparagraphs (a)
 and (c) of the Commercial Computer Software - Restricted
 Rights clause in FAR 52.227-19.
  
 Gaussian, Inc.
 340 Quinnipiac St., Bldg. 40, Wallingford CT 06492
  
  
 ---------------------------------------------------------------
 Warning -- This program may not be used in any manner that
 competes with the business of Gaussian, Inc. or will provide
 assistance to any competitor of Gaussian, Inc.  The licensee
 of this program is prohibited from giving any competitor of
 Gaussian, Inc. access to this program.  By using this program,
 the user acknowledges that Gaussian, Inc. is engaged in the
 business of creating and licensing software in the field of
 computational chemistry and represents and warrants to the
 licensee that it is not a competitor of Gaussian, Inc. and that
 it will not use this program in any manner prohibited above.
 ---------------------------------------------------------------
  

 Cite this work as:
 Gaussian 09, Revision A.02,
 M. J. Frisch, G. W. Trucks, H. B. Schlegel, G. E. Scuseria, 
 M. A. Robb, J. R. Cheeseman, G. Scalmani, V. Barone, B. Mennucci, 
 G. A. Petersson, H. Nakatsuji, M. Caricato, X. Li, H. P. Hratchian, 
 A. F. Izmaylov, J. Bloino, G. Zheng, J. L. Sonnenberg, M. Hada, 
 M. Ehara, K. Toyota, R. Fukuda, J. Hasegawa, M. Ishida, T. Nakajima, 
 Y. Honda, O. Kitao, H. Nakai, T. Vreven, J. A. Montgomery, Jr., 
 J. E. Peralta, F. Ogliaro, M. Bearpark, J. J. Heyd, E. Brothers, 
 K. N. Kudin, V. N. Staroverov, R. Kobayashi, J. Normand, 
 K. Raghavachari, A. Rendell, J. C. Burant, S. S. Iyengar, J. Tomasi, 
 M. Cossi, N. Rega, J. M. Millam, M. Klene, J. E. Knox, J. B. Cross, 
 V. Bakken, C. Adamo, J. Jaramillo, R. Gomperts, R. E. Stratmann, 
 O. Yazyev, A. J. Austin, R. Cammi, C. Pomelli, J. W. Ochterski, 
 R. L. Martin, K. Morokuma, V. G. Zakrzewski, G. A. Voth, 
 P. Salvador, J. J. Dannenberg, S. Dapprich, A. D. Daniels, 
 O. Farkas, J. B. Foresman, J. V. Ortiz, J. Cioslowski, 
 and D. J. Fox, Gaussian, Inc., Wallingford CT, 2009.
 
 ******************************************
 Gaussian 09:  EM64L-G09RevA.02 11-Jun-2009
                 9-Feb-2017 
 ******************************************
 %chk=structure_165.chk
 %NProcShared=8
 Will use up to    8 processors via shared memory.
 -------------------------------------------
 # HF/6-31G* Opt=(ModRedundant) geom=nocrowd
 -------------------------------------------
 1/18=120,19=15,38=1/1,3;
 2/9=110,12=1,17=6,18=5,40=1/2;
 3/5=1,6=6,7=1,11=9,16=1,25=1,30=1,71=1/1,2,3;
 4//1;
 5/5=2,38=5/2;
 6/7=2,8=2,9=2,10=2,28=1/1;
 7//1,2,3,16;
 1/18=20,19=15/3(2);
 2/9=110,12=1/2;
 99//99;
 2/9=110,12=1/2;
 3/5=1,6=6,7=1,11=9,16=1,25=1,30=1,71=1/1,2,3;
 4/5=5,16=3/1;
 5/5=2,38=5/2;
 7//1,2,3,16;
 1/18=20,19=15/3(-5);
 2/9=110,12=1/2;
 6/7=2,8=2,9=2,10=2,19=2,28=1/1;
 99/9=1/99;
 ------------------
 Phi Psi fixed scan
 ------------------
 Symbolic Z-matrix:
 Charge =  0 Multiplicity = 1
 H                     1.3513    2.3068   -1.9013 
 C                     1.6731    2.7486   -0.9582 
 H                     1.7242    1.9746   -0.1925 
 H                     0.9598    3.5143   -0.6531 
 C                     3.0539    3.3932   -1.0948 
 O                     3.6506    3.3681   -2.1689 
 N                     3.5554    3.9697    0. 
 H                     3.0267    3.9647    0.8606 
 C                     4.8533    4.6139    0. 
 H                     5.4076    4.3155    0.8898 
 C                     5.6613    4.2208   -1.2322 
 H                     5.1233    4.5214   -2.1312 
 H                     6.6305    4.7189   -1.2058 
 H                     5.8085    3.1409   -1.2414 
 C                     4.7127    6.1294    0. 
 O                     3.6366    6.656    -0.2741 
 N                     5.8056    6.8311    0.309 
 H                     6.6679    6.3528    0.5272 
 C                     5.801     8.2797    0.3436 
 H                     4.8071    8.6467    0.0875 
 H                     6.0669    8.6206    1.3442 
 H                     6.5256    8.6631   -0.3748 
 
 The following ModRedundant input section has been read:
 D    5    7    9   15 F                                                       
 D    7    9   15   17 F                                                       

 GradGradGradGradGradGradGradGradGradGradGradGradGradGradGradGradGradGrad
 Berny optimization.
 Initialization pass.
                           ----------------------------
                           !    Initial Parameters    !
                           ! (Angstroms and Degrees)  !
 --------------------------                            --------------------------
 ! Name  Definition              Value          Derivative Info.                !
 --------------------------------------------------------------------------------
 ! R1    R(1,2)                  1.09           estimate D2E/DX2                !
 ! R2    R(2,3)                  1.0899         estimate D2E/DX2                !
 ! R3    R(2,4)                  1.09           estimate D2E/DX2                !
 ! R4    R(2,5)                  1.53           estimate D2E/DX2                !
 ! R5    R(5,6)                  1.229          estimate D2E/DX2                !
 ! R6    R(5,7)                  1.3351         estimate D2E/DX2                !
 ! R7    R(7,8)                  1.01           estimate D2E/DX2                !
 ! R8    R(7,9)                  1.449          estimate D2E/DX2                !
 ! R9    R(9,10)                 1.09           estimate D2E/DX2                !
 ! R10   R(9,11)                 1.525          estimate D2E/DX2                !
 ! R11   R(9,15)                 1.522          estimate D2E/DX2                !
 ! R12   R(11,12)                1.09           estimate D2E/DX2                !
 ! R13   R(11,13)                1.09           estimate D2E/DX2                !
 ! R14   R(11,14)                1.0899         estimate D2E/DX2                !
 ! R15   R(15,16)                1.229          estimate D2E/DX2                !
 ! R16   R(15,17)                1.335          estimate D2E/DX2                !
 ! R17   R(17,18)                1.0099         estimate D2E/DX2                !
 ! R18   R(17,19)                1.449          estimate D2E/DX2                !
 ! R19   R(19,20)                1.09           estimate D2E/DX2                !
 ! R20   R(19,21)                1.09           estimate D2E/DX2                !
 ! R21   R(19,22)                1.09           estimate D2E/DX2                !
 ! A1    A(1,2,3)              109.5017         estimate D2E/DX2                !
 ! A2    A(1,2,4)              109.493          estimate D2E/DX2                !
 ! A3    A(1,2,5)              111.0973         estimate D2E/DX2                !
 ! A4    A(3,2,4)              109.4436         estimate D2E/DX2                !
 ! A5    A(3,2,5)              108.6387         estimate D2E/DX2                !
 ! A6    A(4,2,5)              108.6398         estimate D2E/DX2                !
 ! A7    A(2,5,6)              120.5054         estimate D2E/DX2                !
 ! A8    A(2,5,7)              116.5979         estimate D2E/DX2                !
 ! A9    A(6,5,7)              122.8967         estimate D2E/DX2                !
 ! A10   A(5,7,8)              119.9959         estimate D2E/DX2                !
 ! A11   A(5,7,9)              121.9004         estimate D2E/DX2                !
 ! A12   A(8,7,9)              118.1037         estimate D2E/DX2                !
 ! A13   A(7,9,10)             109.5            estimate D2E/DX2                !
 ! A14   A(7,9,11)             111.0992         estimate D2E/DX2                !
 ! A15   A(7,9,15)             111.0966         estimate D2E/DX2                !
 ! A16   A(10,9,11)            108.6382         estimate D2E/DX2                !
 ! A17   A(10,9,15)            108.6373         estimate D2E/DX2                !
 ! A18   A(11,9,15)            107.7947         estimate D2E/DX2                !
 ! A19   A(9,11,12)            109.5007         estimate D2E/DX2                !
 ! A20   A(9,11,13)            109.4959         estimate D2E/DX2                !
 ! A21   A(9,11,14)            109.4978         estimate D2E/DX2                !
 ! A22   A(12,11,13)           109.441          estimate D2E/DX2                !
 ! A23   A(12,11,14)           109.4482         estimate D2E/DX2                !
 ! A24   A(13,11,14)           109.4436         estimate D2E/DX2                !
 ! A25   A(9,15,16)            120.4997         estimate D2E/DX2                !
 ! A26   A(9,15,17)            116.5985         estimate D2E/DX2                !
 ! A27   A(16,15,17)           122.9018         estimate D2E/DX2                !
 ! A28   A(15,17,18)           120.0035         estimate D2E/DX2                !
 ! A29   A(15,17,19)           121.8963         estimate D2E/DX2                !
 ! A30   A(18,17,19)           118.1002         estimate D2E/DX2                !
 ! A31   A(17,19,20)           109.5046         estimate D2E/DX2                !
 ! A32   A(17,19,21)           109.4999         estimate D2E/DX2                !
 ! A33   A(17,19,22)           109.4988         estimate D2E/DX2                !
 ! A34   A(20,19,21)           109.4397         estimate D2E/DX2                !
 ! A35   A(20,19,22)           109.443          estimate D2E/DX2                !
 ! A36   A(21,19,22)           109.4414         estimate D2E/DX2                !
 ! D1    D(1,2,5,6)             -0.0038         estimate D2E/DX2                !
 ! D2    D(1,2,5,7)            179.9948         estimate D2E/DX2                !
 ! D3    D(3,2,5,6)            120.5106         estimate D2E/DX2                !
 ! D4    D(3,2,5,7)            -59.4908         estimate D2E/DX2                !
 ! D5    D(4,2,5,6)           -120.5082         estimate D2E/DX2                !
 ! D6    D(4,2,5,7)             59.4904         estimate D2E/DX2                !
 ! D7    D(2,5,7,8)              0.0007         estimate D2E/DX2                !
 ! D8    D(2,5,7,9)            179.9954         estimate D2E/DX2                !
 ! D9    D(6,5,7,8)            179.9993         estimate D2E/DX2                !
 ! D10   D(6,5,7,9)             -0.006          estimate D2E/DX2                !
 ! D11   D(5,7,9,10)          -134.9963         estimate D2E/DX2                !
 ! D12   D(5,7,9,11)           -14.9937         estimate D2E/DX2                !
 ! D13   D(5,7,9,15)           105.0038         Frozen                          !
 ! D14   D(8,7,9,10)            44.9985         estimate D2E/DX2                !
 ! D15   D(8,7,9,11)           165.0011         estimate D2E/DX2                !
 ! D16   D(8,7,9,15)           -75.0013         estimate D2E/DX2                !
 ! D17   D(7,9,11,12)           60.0024         estimate D2E/DX2                !
 ! D18   D(7,9,11,13)          179.9986         estimate D2E/DX2                !
 ! D19   D(7,9,11,14)          -60.0038         estimate D2E/DX2                !
 ! D20   D(10,9,11,12)        -179.4843         estimate D2E/DX2                !
 ! D21   D(10,9,11,13)         -59.4881         estimate D2E/DX2                !
 ! D22   D(10,9,11,14)          60.5095         estimate D2E/DX2                !
 ! D23   D(15,9,11,12)         -61.938          estimate D2E/DX2                !
 ! D24   D(15,9,11,13)          58.0582         estimate D2E/DX2                !
 ! D25   D(15,9,11,14)         178.0558         estimate D2E/DX2                !
 ! D26   D(7,9,15,16)          -15.0014         estimate D2E/DX2                !
 ! D27   D(7,9,15,17)          164.9981         Frozen                          !
 ! D28   D(10,9,15,16)        -135.5125         estimate D2E/DX2                !
 ! D29   D(10,9,15,17)          44.487          estimate D2E/DX2                !
 ! D30   D(11,9,15,16)         106.9406         estimate D2E/DX2                !
 ! D31   D(11,9,15,17)         -73.0599         estimate D2E/DX2                !
 ! D32   D(9,15,17,18)           0.0035         estimate D2E/DX2                !
 ! D33   D(9,15,17,19)         179.9985         estimate D2E/DX2                !
 ! D34   D(16,15,17,18)       -179.997          estimate D2E/DX2                !
 ! D35   D(16,15,17,19)         -0.002          estimate D2E/DX2                !
 ! D36   D(15,17,19,20)          0.0027         estimate D2E/DX2                !
 ! D37   D(15,17,19,21)        120.002          estimate D2E/DX2                !
 ! D38   D(15,17,19,22)       -120.0001         estimate D2E/DX2                !
 ! D39   D(18,17,19,20)        179.9978         estimate D2E/DX2                !
 ! D40   D(18,17,19,21)        -60.0029         estimate D2E/DX2                !
 ! D41   D(18,17,19,22)         59.995          estimate D2E/DX2                !
 --------------------------------------------------------------------------------
 Trust Radius=3.00D-01 FncErr=1.00D-07 GrdErr=1.00D-07
 Number of steps in this run= 108 maximum allowed number of steps= 132.
 GradGradGradGradGradGradGradGradGradGradGradGradGradGradGradGradGradGrad

                          Input orientation:                          
 ---------------------------------------------------------------------
 Center     Atomic      Atomic             Coordinates (Angstroms)
 Number     Number       Type             X           Y           Z
 ---------------------------------------------------------------------
      1          1           0        1.351300    2.306800   -1.901300
      2          6           0        1.673100    2.748600   -0.958200
      3          1           0        1.724200    1.974600   -0.192500
      4          1           0        0.959800    3.514300   -0.653100
      5          6           0        3.053900    3.393200   -1.094800
      6          8           0        3.650600    3.368100   -2.168900
      7          7           0        3.555400    3.969700    0.000000
      8          1           0        3.026700    3.964700    0.860600
      9          6           0        4.853300    4.613900    0.000000
     10          1           0        5.407600    4.315500    0.889800
     11          6           0        5.661300    4.220800   -1.232200
     12          1           0        5.123300    4.521400   -2.131200
     13          1           0        6.630500    4.718900   -1.205800
     14          1           0        5.808500    3.140900   -1.241400
     15          6           0        4.712700    6.129400    0.000000
     16          8           0        3.636600    6.656000   -0.274100
     17          7           0        5.805600    6.831100    0.309000
     18          1           0        6.667900    6.352800    0.527200
     19          6           0        5.801000    8.279700    0.343600
     20          1           0        4.807100    8.646700    0.087500
     21          1           0        6.066900    8.620600    1.344200
     22          1           0        6.525600    8.663100   -0.374800
 ---------------------------------------------------------------------
                    Distance matrix (angstroms):
                    1          2          3          4          5
     1  H    0.000000
     2  C    1.090037   0.000000
     3  H    1.780283   1.089947   0.000000
     4  H    1.780262   1.090036   1.779645   0.000000
     5  C    2.174754   1.529960   2.143519   2.143600   0.000000
     6  O    2.546517   2.400017   3.091766   3.091833   1.228972
     7  N    3.352348   2.439731   2.714917   2.714971   1.335081
     8  H    3.630935   2.572774   2.601158   2.601197   2.037386
     9  C    4.604526   3.809352   4.098076   4.098171   2.434448
    10  H    5.317771   4.451603   4.496512   4.775499   3.213904
    11  C    4.763107   4.260069   4.650500   4.789426   2.739039
    12  H    4.380102   4.052484   4.668900   4.531419   2.574758
    13  H    5.845674   5.340337   5.712245   5.823519   3.816002
    14  H    4.582338   4.163608   4.375152   4.898512   2.770012
    15  C    5.433804   4.646195   5.121577   4.620557   3.381863
    16  O    5.175511   4.426183   5.057612   4.144777   3.414521
    17  N    6.722760   5.945600   6.363562   5.950511   4.621868
    18  H    7.108724   6.335984   6.642799   6.483255   4.944807
    19  C    7.779135   7.023340   7.527416   6.865833   5.787351
    20  H    7.489473   6.760401   7.355242   6.456914   5.663109
    21  H    8.522571   7.686801   8.086396   7.493062   6.507888
    22  H    8.337034   7.672576   8.235454   7.587208   6.351610
                    6          7          8          9         10
     6  O    0.000000
     7  N    2.252801   0.000000
     8  H    3.150088   1.010040   0.000000
     9  C    2.775362   1.448978   2.120981   0.000000
    10  H    3.652432   2.083739   2.406782   1.089970   0.000000
    11  C    2.376430   2.452791   3.374391   1.525027   2.139209
    12  H    1.870927   2.702720   3.695472   2.150225   3.041326
    13  H    3.410576   3.386959   4.222109   2.150214   2.459625
    14  H    2.359748   2.702673   3.582661   2.150165   2.466256
    15  C    3.668373   2.450234   2.875614   1.522008   2.136554
    16  O    3.794832   2.701468   2.983725   2.392836   3.157379
    17  N    4.772461   3.653285   4.030235   2.432762   2.612274
    18  H    5.028070   3.955346   4.367209   2.567973   2.422896
    19  C    5.921207   4.872051   5.155895   3.801879   4.020943
    20  H    5.855976   4.842390   5.068395   4.034014   4.445625
    21  H    6.765289   5.453932   5.581585   4.396970   4.378932
    22  H    6.286608   5.566917   5.986942   4.396940   4.663771
                   11         12         13         14         15
    11  C    0.000000
    12  H    1.089957   0.000000
    13  H    1.090023   1.779613   0.000000
    14  H    1.089925   1.779613   1.779617   0.000000
    15  C    2.461892   2.701161   2.668599   3.416575   0.000000
    16  O    3.308710   3.196187   3.685629   4.243671   1.228995
    17  N    3.034763   3.428531   2.726989   4.002665   1.335026
    18  H    2.941795   3.578674   2.382082   3.766008   2.037315
    19  C    4.356298   4.550685   3.970895   5.377690   2.434389
    20  H    4.696792   4.694754   4.519405   5.751749   2.520589
    21  H    5.114742   5.456393   4.695041   6.064587   3.137963
    22  H    4.606102   4.712225   4.032156   5.635594   3.137948
                   16         17         18         19         20
    16  O    0.000000
    17  N    2.252826   0.000000
    18  H    3.150046   1.009922   0.000000
    19  C    2.775353   1.449020   2.120889   0.000000
    20  H    2.337458   2.083859   2.986284   1.090006   0.000000
    21  H    3.519220   2.083801   2.484272   1.090007   1.779627
    22  H    3.519220   2.083796   2.484218   1.090018   1.779672
                   21         22
    21  H    0.000000
    22  H    1.779655   0.000000
 Stoichiometry    C6H12N2O2
 Framework group  C1[X(C6H12N2O2)]
 Deg. of freedom    60
 Full point group                 C1      NOp   1
 Largest Abelian subgroup         C1      NOp   1
 Largest concise Abelian subgroup C1      NOp   1
                         Standard orientation:                         
 ---------------------------------------------------------------------
 Center     Atomic      Atomic             Coordinates (Angstroms)
 Number     Number       Type             X           Y           Z
 ---------------------------------------------------------------------
      1          1           0        4.112661   -0.733607   -0.660304
      2          6           0        3.340328   -0.993153    0.063794
      3          1           0        3.737859   -0.888102    1.073208
      4          1           0        3.023534   -2.023829   -0.095979
      5          6           0        2.121711   -0.079232   -0.079384
      6          8           0        2.103596    0.807736   -0.929873
      7          7           0        1.105796   -0.302036    0.757703
      8          1           0        1.167471   -1.043774    1.440493
      9          6           0       -0.103890    0.494825    0.722920
     10          1           0       -0.389600    0.767041    1.738943
     11          6           0        0.103203    1.772237   -0.083951
     12          1           0        0.380858    1.515846   -1.106289
     13          1           0       -0.820722    2.350535   -0.093115
     14          1           0        0.897491    2.364577    0.370114
     15          6           0       -1.250320   -0.277189    0.085580
     16          8           0       -1.030880   -1.299273   -0.560655
     17          7           0       -2.477572    0.215132    0.269336
     18          1           0       -2.607651    1.059023    0.808661
     19          6           0       -3.651445   -0.427544   -0.286228
     20          1           0       -3.351808   -1.318877   -0.837460
     21          1           0       -4.327670   -0.710200    0.520581
     22          1           0       -4.159235    0.262327   -0.960295
 ---------------------------------------------------------------------
 Rotational constants (GHZ):      3.0616767      0.7198806      0.6521833
 Standard basis: 6-31G(d) (6D, 7F)
 There are   174 symmetry adapted basis functions of A   symmetry.
 Integral buffers will be    131072 words long.
 Raffenetti 1 integral format.
 Two-electron integral symmetry is turned on.
   174 basis functions,   328 primitive gaussians,   174 cartesian basis functions
    39 alpha electrons       39 beta electrons
       nuclear repulsion energy       563.5313908063 Hartrees.
 NAtoms=   22 NActive=   22 NUniq=   22 SFac= 7.50D-01 NAtFMM=   80 NAOKFM=F Big=F
 One-electron integrals computed using PRISM.
 NBasis=   174 RedAO= T  NBF=   174
 NBsUse=   174 1.00D-06 NBFU=   174
 Harris functional with IExCor=  205 diagonalized for initial guess.
 ExpMin= 1.61D-01 ExpMax= 5.48D+03 ExpMxC= 8.25D+02 IAcc=1 IRadAn=         1 AccDes= 0.00D+00
 HarFok:  IExCor=  205 AccDes= 0.00D+00 IRadAn=         1 IDoV= 1
 ScaDFX=  1.000000  1.000000  1.000000  1.000000
 FoFCou: FMM=F IPFlag=           0 FMFlag=      100000 FMFlg1=           0
         NFxFlg=           0 DoJE=T BraDBF=F KetDBF=T FulRan=T
         Omega=  0.000000  0.000000  1.000000  0.000000  0.000000 ICntrl=     500 IOpCl=  0
         NMat0=    1 NMatS0=    1 NMatT0=    0 NMatD0=    1 NMtDS0=    0 NMtDT0=    0
         I1Cent=           4 NGrid=           0.
 Petite list used in FoFCou.
 Initial guess orbital symmetries:
       Occupied  (A) (A) (A) (A) (A) (A) (A) (A) (A) (A) (A) (A)
                 (A) (A) (A) (A) (A) (A) (A) (A) (A) (A) (A) (A)
                 (A) (A) (A) (A) (A) (A) (A) (A) (A) (A) (A) (A)
                 (A) (A) (A)
       Virtual   (A) (A) (A) (A) (A) (A) (A) (A) (A) (A) (A) (A)
                 (A) (A) (A) (A) (A) (A) (A) (A) (A) (A) (A) (A)
                 (A) (A) (A) (A) (A) (A) (A) (A) (A) (A) (A) (A)
                 (A) (A) (A) (A) (A) (A) (A) (A) (A) (A) (A) (A)
                 (A) (A) (A) (A) (A) (A) (A) (A) (A) (A) (A) (A)
                 (A) (A) (A) (A) (A) (A) (A) (A) (A) (A) (A) (A)
                 (A) (A) (A) (A) (A) (A) (A) (A) (A) (A) (A) (A)
                 (A) (A) (A) (A) (A) (A) (A) (A) (A) (A) (A) (A)
                 (A) (A) (A) (A) (A) (A) (A) (A) (A) (A) (A) (A)
                 (A) (A) (A) (A) (A) (A) (A) (A) (A) (A) (A) (A)
                 (A) (A) (A) (A) (A) (A) (A) (A) (A) (A) (A) (A)
                 (A) (A) (A)
 The electronic state of the initial guess is 1-A.
 Requested convergence on RMS density matrix=1.00D-08 within 128 cycles.
 Requested convergence on MAX density matrix=1.00D-06.
 Requested convergence on             energy=1.00D-06.
 No special actions if energy rises.
 Integral accuracy reduced to 1.0D-05 until final iterations.
 Initial convergence to 1.0D-05 achieved.  Increase integral accuracy.
 SCF Done:  E(RHF) =  -492.821202937     A.U. after   15 cycles
             Convg  =    0.3691D-08             -V/T =  2.0017

 **********************************************************************

            Population analysis using the SCF density.

 **********************************************************************

 Orbital symmetries:
       Occupied  (A) (A) (A) (A) (A) (A) (A) (A) (A) (A) (A) (A)
                 (A) (A) (A) (A) (A) (A) (A) (A) (A) (A) (A) (A)
                 (A) (A) (A) (A) (A) (A) (A) (A) (A) (A) (A) (A)
                 (A) (A) (A)
       Virtual   (A) (A) (A) (A) (A) (A) (A) (A) (A) (A) (A) (A)
                 (A) (A) (A) (A) (A) (A) (A) (A) (A) (A) (A) (A)
                 (A) (A) (A) (A) (A) (A) (A) (A) (A) (A) (A) (A)
                 (A) (A) (A) (A) (A) (A) (A) (A) (A) (A) (A) (A)
                 (A) (A) (A) (A) (A) (A) (A) (A) (A) (A) (A) (A)
                 (A) (A) (A) (A) (A) (A) (A) (A) (A) (A) (A) (A)
                 (A) (A) (A) (A) (A) (A) (A) (A) (A) (A) (A) (A)
                 (A) (A) (A) (A) (A) (A) (A) (A) (A) (A) (A) (A)
                 (A) (A) (A) (A) (A) (A) (A) (A) (A) (A) (A) (A)
                 (A) (A) (A) (A) (A) (A) (A) (A) (A) (A) (A) (A)
                 (A) (A) (A) (A) (A) (A) (A) (A) (A) (A) (A) (A)
                 (A) (A) (A)
 The electronic state is 1-A.
 Alpha  occ. eigenvalues --  -20.51424 -20.50446 -15.59312 -15.59085 -11.34705
 Alpha  occ. eigenvalues --  -11.34231 -11.28321 -11.26064 -11.23099 -11.20629
 Alpha  occ. eigenvalues --   -1.37769  -1.36644  -1.23606  -1.23422  -1.05798
 Alpha  occ. eigenvalues --   -0.98492  -0.95249  -0.87981  -0.80052  -0.77576
 Alpha  occ. eigenvalues --   -0.72385  -0.70303  -0.65069  -0.62970  -0.62020
 Alpha  occ. eigenvalues --   -0.61371  -0.58956  -0.57033  -0.55768  -0.55361
 Alpha  occ. eigenvalues --   -0.54995  -0.53455  -0.52408  -0.50675  -0.49489
 Alpha  occ. eigenvalues --   -0.41654  -0.39229  -0.38294  -0.38096
 Alpha virt. eigenvalues --    0.19640   0.20241   0.21276   0.22682   0.26670
 Alpha virt. eigenvalues --    0.27340   0.29731   0.30905   0.31252   0.32117
 Alpha virt. eigenvalues --    0.32381   0.33562   0.34423   0.35781   0.36648
 Alpha virt. eigenvalues --    0.37977   0.41649   0.42873   0.49252   0.51824
 Alpha virt. eigenvalues --    0.54617   0.59135   0.61269   0.71914   0.72864
 Alpha virt. eigenvalues --    0.73530   0.75430   0.76965   0.77825   0.79731
 Alpha virt. eigenvalues --    0.82024   0.82411   0.84255   0.86944   0.90245
 Alpha virt. eigenvalues --    0.94432   0.95244   0.95675   0.97690   0.99273
 Alpha virt. eigenvalues --    1.01221   1.02168   1.04728   1.05679   1.08338
 Alpha virt. eigenvalues --    1.12348   1.13836   1.14530   1.15126   1.16400
 Alpha virt. eigenvalues --    1.16627   1.17618   1.18496   1.20048   1.21075
 Alpha virt. eigenvalues --    1.22001   1.22325   1.22814   1.24441   1.27896
 Alpha virt. eigenvalues --    1.32097   1.34819   1.38000   1.39479   1.43549
 Alpha virt. eigenvalues --    1.51583   1.55568   1.59779   1.61332   1.61578
 Alpha virt. eigenvalues --    1.65117   1.67269   1.70428   1.74052   1.78244
 Alpha virt. eigenvalues --    1.80103   1.81939   1.89742   1.93459   1.96245
 Alpha virt. eigenvalues --    2.02492   2.07629   2.09345   2.10564   2.13473
 Alpha virt. eigenvalues --    2.14803   2.17184   2.17877   2.19608   2.22829
 Alpha virt. eigenvalues --    2.26213   2.28416   2.29092   2.32041   2.35486
 Alpha virt. eigenvalues --    2.39150   2.42723   2.45685   2.46227   2.51433
 Alpha virt. eigenvalues --    2.52638   2.56864   2.59417   2.62907   2.64015
 Alpha virt. eigenvalues --    2.66108   2.67958   2.70890   2.73466   2.75228
 Alpha virt. eigenvalues --    2.79122   2.80895   2.89044   2.95119   2.99198
 Alpha virt. eigenvalues --    3.00357   3.03299   3.06601   3.15934   3.26410
 Alpha virt. eigenvalues --    3.30787   3.36515   3.41179   3.54255   3.57858
 Alpha virt. eigenvalues --    4.35546   4.44618   4.49367   4.56471   4.65645
 Alpha virt. eigenvalues --    4.67291   4.76525   4.84752   4.93119   5.06659
          Condensed to atoms (all electrons):
              1          2          3          4          5          6
     1  H    0.456060   0.385110  -0.019000  -0.017768  -0.029929   0.003739
     2  C    0.385110   5.250836   0.372560   0.375603   0.376614  -0.064391
     3  H   -0.019000   0.372560   0.524565  -0.023978  -0.036439   0.001207
     4  H   -0.017768   0.375603  -0.023978   0.501150  -0.034765   0.001015
     5  C   -0.029929   0.376614  -0.036439  -0.034765   4.177485   0.574878
     6  O    0.003739  -0.064391   0.001207   0.001015   0.574878   8.305881
     7  N    0.003777  -0.119846   0.004115   0.003648   0.256788  -0.099037
     8  H   -0.000018  -0.000377   0.000419   0.000464  -0.016954   0.002387
     9  C   -0.000054   0.002683  -0.000025  -0.000178  -0.032193   0.002603
    10  H    0.000001  -0.000063   0.000008   0.000001   0.001804  -0.000123
    11  C    0.000003  -0.000277  -0.000002   0.000018  -0.003381  -0.063678
    12  H    0.000010  -0.000011   0.000007  -0.000011  -0.000918  -0.017645
    13  H    0.000000   0.000023  -0.000001   0.000000   0.000363   0.003822
    14  H    0.000005  -0.000195   0.000008   0.000001  -0.000284  -0.007048
    15  C    0.000000  -0.000184   0.000005   0.000028   0.000792  -0.000766
    16  O    0.000000  -0.000021   0.000000   0.000071   0.005008  -0.000244
    17  N    0.000000   0.000001   0.000000   0.000000   0.000148  -0.000003
    18  H    0.000000   0.000000   0.000000   0.000000  -0.000009   0.000001
    19  C    0.000000   0.000000   0.000000   0.000000   0.000000   0.000000
    20  H    0.000000   0.000000   0.000000   0.000000  -0.000001   0.000000
    21  H    0.000000   0.000000   0.000000   0.000000   0.000000   0.000000
    22  H    0.000000   0.000000   0.000000   0.000000   0.000000   0.000000
              7          8          9         10         11         12
     1  H    0.003777  -0.000018  -0.000054   0.000001   0.000003   0.000010
     2  C   -0.119846  -0.000377   0.002683  -0.000063  -0.000277  -0.000011
     3  H    0.004115   0.000419  -0.000025   0.000008  -0.000002   0.000007
     4  H    0.003648   0.000464  -0.000178   0.000001   0.000018  -0.000011
     5  C    0.256788  -0.016954  -0.032193   0.001804  -0.003381  -0.000918
     6  O   -0.099037   0.002387   0.002603  -0.000123  -0.063678  -0.017645
     7  N    7.334985   0.325514   0.218441  -0.045274  -0.042358  -0.001523
     8  H    0.325514   0.317901  -0.023394  -0.001661   0.002831  -0.000162
     9  C    0.218441  -0.023394   5.069527   0.416471   0.337359  -0.033525
    10  H   -0.045274  -0.001661   0.416471   0.534711  -0.034544   0.003709
    11  C   -0.042358   0.002831   0.337359  -0.034544   5.181269   0.404343
    12  H   -0.001523  -0.000162  -0.033525   0.003709   0.404343   0.429495
    13  H    0.004218  -0.000068  -0.036496  -0.003079   0.364815  -0.027201
    14  H   -0.001312  -0.000139  -0.037934  -0.003899   0.400785  -0.015795
    15  C   -0.066707   0.000274   0.349859  -0.058678  -0.058447  -0.002517
    16  O   -0.003571   0.001316  -0.079122   0.001744  -0.001512   0.001402
    17  N    0.002510   0.000017  -0.117880   0.006294   0.000999   0.000234
    18  H    0.000060  -0.000004   0.001329   0.001187   0.000567  -0.000023
    19  C   -0.000095   0.000001   0.003685  -0.000251  -0.000206  -0.000001
    20  H   -0.000010   0.000000   0.000599  -0.000025  -0.000036  -0.000002
    21  H    0.000002   0.000000  -0.000075   0.000001  -0.000004   0.000000
    22  H    0.000000   0.000000  -0.000033  -0.000001   0.000030   0.000000
             13         14         15         16         17         18
     1  H    0.000000   0.000005   0.000000   0.000000   0.000000   0.000000
     2  C    0.000023  -0.000195  -0.000184  -0.000021   0.000001   0.000000
     3  H   -0.000001   0.000008   0.000005   0.000000   0.000000   0.000000
     4  H    0.000000   0.000001   0.000028   0.000071   0.000000   0.000000
     5  C    0.000363  -0.000284   0.000792   0.005008   0.000148  -0.000009
     6  O    0.003822  -0.007048  -0.000766  -0.000244  -0.000003   0.000001
     7  N    0.004218  -0.001312  -0.066707  -0.003571   0.002510   0.000060
     8  H   -0.000068  -0.000139   0.000274   0.001316   0.000017  -0.000004
     9  C   -0.036496  -0.037934   0.349859  -0.079122  -0.117880   0.001329
    10  H   -0.003079  -0.003899  -0.058678   0.001744   0.006294   0.001187
    11  C    0.364815   0.400785  -0.058447  -0.001512   0.000999   0.000567
    12  H   -0.027201  -0.015795  -0.002517   0.001402   0.000234  -0.000023
    13  H    0.588560  -0.026669  -0.006483   0.000037   0.001784   0.001453
    14  H   -0.026669   0.502830   0.005269  -0.000073  -0.000049  -0.000060
    15  C   -0.006483   0.005269   4.232012   0.610054   0.264112  -0.021440
    16  O    0.000037  -0.000073   0.610054   8.196151  -0.100615   0.002406
    17  N    0.001784  -0.000049   0.264112  -0.100615   7.348731   0.324314
    18  H    0.001453  -0.000060  -0.021440   0.002406   0.324314   0.326339
    19  C   -0.000017   0.000005  -0.025536  -0.005248   0.188315  -0.022672
    20  H   -0.000005   0.000000  -0.001870   0.011042  -0.031857   0.002318
    21  H    0.000003   0.000000   0.000461   0.000384  -0.048008  -0.001239
    22  H   -0.000007  -0.000001   0.001365   0.000374  -0.048336  -0.000835
             19         20         21         22
     1  H    0.000000   0.000000   0.000000   0.000000
     2  C    0.000000   0.000000   0.000000   0.000000
     3  H    0.000000   0.000000   0.000000   0.000000
     4  H    0.000000   0.000000   0.000000   0.000000
     5  C    0.000000  -0.000001   0.000000   0.000000
     6  O    0.000000   0.000000   0.000000   0.000000
     7  N   -0.000095  -0.000010   0.000002   0.000000
     8  H    0.000001   0.000000   0.000000   0.000000
     9  C    0.003685   0.000599  -0.000075  -0.000033
    10  H   -0.000251  -0.000025   0.000001  -0.000001
    11  C   -0.000206  -0.000036  -0.000004   0.000030
    12  H   -0.000001  -0.000002   0.000000   0.000000
    13  H   -0.000017  -0.000005   0.000003  -0.000007
    14  H    0.000005   0.000000   0.000000  -0.000001
    15  C   -0.025536  -0.001870   0.000461   0.001365
    16  O   -0.005248   0.011042   0.000384   0.000374
    17  N    0.188315  -0.031857  -0.048008  -0.048336
    18  H   -0.022672   0.002318  -0.001239  -0.000835
    19  C    4.950193   0.396264   0.402482   0.402774
    20  H    0.396264   0.429980  -0.022538  -0.022244
    21  H    0.402482  -0.022538   0.538405  -0.037023
    22  H    0.402774  -0.022244  -0.037023   0.532248
 Mulliken atomic charges:
              1
     1  H    0.218064
     2  C   -0.578065
     3  H    0.176550
     4  H    0.194702
     5  C    0.760993
     6  O   -0.642597
     7  N   -0.774325
     8  H    0.391654
     9  C   -0.041649
    10  H    0.181667
    11  C   -0.488572
    12  H    0.260135
    13  H    0.134948
    14  H    0.184555
    15  C    0.778399
    16  O   -0.639583
    17  N   -0.790711
    18  H    0.386307
    19  C   -0.289692
    20  H    0.238384
    21  H    0.167148
    22  H    0.171688
 Sum of Mulliken atomic charges =   0.00000
 Mulliken charges with hydrogens summed into heavy atoms:
              1
     2  C    0.011250
     5  C    0.760993
     6  O   -0.642597
     7  N   -0.382672
     9  C    0.140018
    11  C    0.091067
    15  C    0.778399
    16  O   -0.639583
    17  N   -0.404405
    19  C    0.287529
 Sum of Mulliken charges with hydrogens summed into heavy atoms =   0.00000
 Electronic spatial extent (au):  <R**2>=           1828.7780
 Charge=              0.0000 electrons
 Dipole moment (field-independent basis, Debye):
    X=             -1.9589    Y=              0.3881    Z=              4.5300  Tot=              4.9506
 Quadrupole moment (field-independent basis, Debye-Ang):
   XX=            -50.2692   YY=            -63.1179   ZZ=            -60.3722
   XY=             -9.4356   XZ=              3.1401   YZ=             -0.0431
 Traceless Quadrupole moment (field-independent basis, Debye-Ang):
   XX=              7.6505   YY=             -5.1981   ZZ=             -2.4524
   XY=             -9.4356   XZ=              3.1401   YZ=             -0.0431
 Octapole moment (field-independent basis, Debye-Ang**2):
  XXX=            -24.7619  YYY=             -0.1193  ZZZ=              4.3855  XYY=             -0.5431
  XXY=            -12.1106  XXZ=              9.6790  XZZ=             -3.7226  YZZ=             -3.2207
  YYZ=              6.3026  XYZ=              1.2013
 Hexadecapole moment (field-independent basis, Debye-Ang**3):
 XXXX=          -1653.7027 YYYY=           -394.1318 ZZZZ=           -173.0083 XXXY=            -26.7795
 XXXZ=             11.5811 YYYX=             -5.9024 YYYZ=             -1.0232 ZZZX=              3.2118
 ZZZY=             -3.9602 XXYY=           -361.4148 XXZZ=           -332.1439 YYZZ=            -91.4987
 XXYZ=             18.6153 YYXZ=             -0.3993 ZZXY=             -8.7069
 N-N= 5.635313908063D+02 E-N=-2.282810506007D+03  KE= 4.919740419683D+02
 Calling FoFJK, ICntrl=      2127 FMM=F ISym2X=0 I1Cent= 0 IOpClX= 0 NMat=1 NMatS=1 NMatT=0.
 ***** Axes restored to original set *****
 -------------------------------------------------------------------
 Center     Atomic                   Forces (Hartrees/Bohr)
 Number     Number              X              Y              Z
 -------------------------------------------------------------------
      1        1           0.006268329    0.004676514    0.005682129
      2        6           0.007009724    0.004632651    0.004946688
      3        1          -0.004326416    0.002110347   -0.001417161
      4        1           0.000109972   -0.004819333    0.000419422
      5        6          -0.002985387   -0.011674914   -0.055513565
      6        8          -0.055431767   -0.016400679    0.029559504
      7        7           0.009201963   -0.001595579    0.021765012
      8        1           0.005750715    0.002565589   -0.015190125
      9        6           0.002541499    0.002476294   -0.000341257
     10        1          -0.004084735   -0.000368460   -0.000102380
     11        6           0.021764564    0.007617551   -0.007888940
     12        1           0.021272008   -0.000601331    0.012300011
     13        1           0.000273832   -0.003442149    0.004626361
     14        1           0.002258484    0.008392024   -0.004186556
     15        6          -0.055699312    0.015491084   -0.007140581
     16        8           0.037821494   -0.016450532    0.009661582
     17        7           0.014559078   -0.000224065    0.005417659
     18        1          -0.013719620    0.006530629   -0.003578077
     19        6           0.002830887    0.003583455   -0.000267283
     20        1           0.008764476   -0.005471439    0.002112396
     21        1          -0.000881989    0.001458237   -0.004572771
     22        1          -0.003297797    0.001514105    0.003707934
 -------------------------------------------------------------------
 Cartesian Forces:  Max     0.055699312 RMS     0.015433432

 GradGradGradGradGradGradGradGradGradGradGradGradGradGradGradGradGradGrad
 Berny optimization.
 Internal  Forces:  Max     0.132706239 RMS     0.023689980
 Search for a local minimum.
 Step number   1 out of a maximum of  108
 All quantities printed in internal units (Hartrees-Bohrs-Radians)
 Mixed Optimization -- RFO/linear search
 Second derivative matrix not updated -- first step.
     Eigenvalues ---    0.00370   0.00435   0.00999   0.01043   0.01269
     Eigenvalues ---    0.01422   0.01660   0.02551   0.02551   0.03503
     Eigenvalues ---    0.05232   0.05841   0.05844   0.05844   0.07166
     Eigenvalues ---    0.07464   0.07685   0.07685   0.15421   0.16000
     Eigenvalues ---    0.16000   0.16000   0.16000   0.16000   0.16000
     Eigenvalues ---    0.16000   0.16000   0.16000   0.16000   0.16000
     Eigenvalues ---    0.16180   0.22000   0.22000   0.25000   0.25000
     Eigenvalues ---    0.25000   0.25000   0.29427   0.29887   0.30174
     Eigenvalues ---    0.34808   0.34808   0.34810   0.34811   0.34812
     Eigenvalues ---    0.34812   0.34816   0.34818   0.34819   0.34821
     Eigenvalues ---    0.38374   0.38379   0.45966   0.45986   0.58322
     Eigenvalues ---    0.58334   0.91506   0.915161000.000001000.00000
     Eigenvalues --- 1000.000001000.000001000.000001000.000001000.00000
     Eigenvalues --- 1000.000001000.000001000.000001000.000001000.00000
     Eigenvalues --- 1000.000001000.000001000.000001000.000001000.00000
     Eigenvalues --- 1000.000001000.000001000.000001000.000001000.00000
     Eigenvalues --- 1000.000001000.000001000.000001000.000001000.00000
     Eigenvalues --- 1000.000001000.000001000.000001000.000001000.00000
     Eigenvalues --- 1000.000001000.000001000.000001000.000001000.00000
     Eigenvalues --- 1000.000001000.000001000.00000
 RFO step:  Lambda=-1.40642682D-01 EMin= 3.69635118D-03
 Linear search not attempted -- first point.
 Maximum step size (   0.300) exceeded in Quadratic search.
    -- Step size scaled by   0.464
 Iteration  1 RMS(Cart)=  0.17430493 RMS(Int)=  0.00825191
 Iteration  2 RMS(Cart)=  0.01607309 RMS(Int)=  0.00016600
 Iteration  3 RMS(Cart)=  0.00016077 RMS(Int)=  0.00015476
 Iteration  4 RMS(Cart)=  0.00000002 RMS(Int)=  0.00015476
 Iteration  1 RMS(Cart)=  0.00006585 RMS(Int)=  0.00002525
 Iteration  2 RMS(Cart)=  0.00003512 RMS(Int)=  0.00002812
 Iteration  3 RMS(Cart)=  0.00001907 RMS(Int)=  0.00003186
 Iteration  4 RMS(Cart)=  0.00001066 RMS(Int)=  0.00003451
 Iteration  5 RMS(Cart)=  0.00000619 RMS(Int)=  0.00003621
 Iteration  6 RMS(Cart)=  0.00000375 RMS(Int)=  0.00003727
 Iteration  7 RMS(Cart)=  0.00000237 RMS(Int)=  0.00003794
 Iteration  8 RMS(Cart)=  0.00000154 RMS(Int)=  0.00003837
 Iteration  9 RMS(Cart)=  0.00000102 RMS(Int)=  0.00003864
 Iteration 10 RMS(Cart)=  0.00000069 RMS(Int)=  0.00003881
 Variable       Old X    -DE/DX   Delta X   Delta X   Delta X     New X
                                 (Linear)    (Quad)   (Total)
    R1        2.05987  -0.00866   0.00000  -0.00823  -0.00823   2.05164
    R2        2.05970  -0.00270   0.00000  -0.00256  -0.00256   2.05714
    R3        2.05987  -0.00334   0.00000  -0.00317  -0.00317   2.05670
    R4        2.89121  -0.01010   0.00000  -0.01078  -0.01078   2.88042
    R5        2.32242  -0.05241   0.00000  -0.02305  -0.02305   2.29937
    R6        2.52294   0.04120   0.00000   0.02643   0.02643   2.54937
    R7        1.90870  -0.01597   0.00000  -0.01235  -0.01235   1.89635
    R8        2.73817   0.03993   0.00000   0.03536   0.03536   2.77353
    R9        2.05975  -0.00206   0.00000  -0.00196  -0.00196   2.05779
   R10        2.88188   0.01714   0.00000   0.01811   0.01811   2.89999
   R11        2.87618   0.00729   0.00000   0.00766   0.00766   2.88383
   R12        2.05972  -0.02081   0.00000  -0.01977  -0.01977   2.03995
   R13        2.05984  -0.00122   0.00000  -0.00116  -0.00116   2.05869
   R14        2.05966  -0.00797   0.00000  -0.00758  -0.00758   2.05208
   R15        2.32246  -0.04232   0.00000  -0.01862  -0.01862   2.30385
   R16        2.52283   0.01130   0.00000   0.00725   0.00725   2.53008
   R17        1.90848  -0.01558   0.00000  -0.01205  -0.01205   1.89643
   R18        2.73825   0.00108   0.00000   0.00096   0.00096   2.73921
   R19        2.05981  -0.01033   0.00000  -0.00981  -0.00981   2.05000
   R20        2.05982  -0.00396   0.00000  -0.00376  -0.00376   2.05606
   R21        2.05984  -0.00410   0.00000  -0.00390  -0.00390   2.05594
    A1        1.91116   0.00043   0.00000   0.00048   0.00051   1.91168
    A2        1.91101   0.00084   0.00000   0.00097   0.00099   1.91201
    A3        1.93901  -0.00820   0.00000  -0.01292  -0.01290   1.92612
    A4        1.91015  -0.00432   0.00000  -0.00614  -0.00619   1.90396
    A5        1.89610   0.00632   0.00000   0.00992   0.00991   1.90601
    A6        1.89612   0.00498   0.00000   0.00777   0.00776   1.90388
    A7        2.10322  -0.02414   0.00000  -0.02869  -0.02869   2.07452
    A8        2.03502  -0.04060   0.00000  -0.04826  -0.04826   1.98676
    A9        2.14495   0.06474   0.00000   0.07695   0.07695   2.22191
   A10        2.09432  -0.06768   0.00000  -0.08749  -0.08751   2.00681
   A11        2.12756   0.13271   0.00000   0.17088   0.17086   2.29842
   A12        2.06130  -0.06502   0.00000  -0.08339  -0.08341   1.97789
   A13        1.91114  -0.02201   0.00000  -0.02402  -0.02377   1.88736
   A14        1.93905   0.07292   0.00000   0.09865   0.09907   2.03812
   A15        1.93900  -0.02688   0.00000  -0.03127  -0.03155   1.90745
   A16        1.89609  -0.02039   0.00000  -0.03499  -0.03489   1.86121
   A17        1.89608   0.01387   0.00000   0.01173   0.01064   1.90672
   A18        1.88137  -0.01831   0.00000  -0.02171  -0.02153   1.85984
   A19        1.91115   0.01379   0.00000   0.02250   0.02239   1.93354
   A20        1.91106  -0.00880   0.00000  -0.01542  -0.01535   1.89572
   A21        1.91110   0.00724   0.00000   0.01182   0.01169   1.92278
   A22        1.91011  -0.00454   0.00000  -0.00831  -0.00820   1.90190
   A23        1.91023  -0.00472   0.00000  -0.00362  -0.00392   1.90632
   A24        1.91015  -0.00299   0.00000  -0.00699  -0.00695   1.90320
   A25        2.10312   0.00542   0.00000   0.00645   0.00629   2.10941
   A26        2.03503  -0.00652   0.00000  -0.00775  -0.00791   2.02712
   A27        2.14504   0.00110   0.00000   0.00131   0.00115   2.14619
   A28        2.09446  -0.00460   0.00000  -0.00616  -0.00616   2.08829
   A29        2.12749   0.00736   0.00000   0.00948   0.00948   2.13697
   A30        2.06124  -0.00276   0.00000  -0.00332  -0.00332   2.05792
   A31        1.91122  -0.00481   0.00000  -0.00773  -0.00772   1.90349
   A32        1.91113   0.00412   0.00000   0.00652   0.00650   1.91764
   A33        1.91111   0.00468   0.00000   0.00738   0.00737   1.91849
   A34        1.91008  -0.00032   0.00000  -0.00081  -0.00080   1.90929
   A35        1.91014  -0.00056   0.00000  -0.00117  -0.00115   1.90899
   A36        1.91011  -0.00311   0.00000  -0.00419  -0.00423   1.90588
    D1       -0.00007   0.00025   0.00000   0.00087   0.00085   0.00078
    D2        3.14150  -0.00036   0.00000  -0.00098  -0.00094   3.14056
    D3        2.10331  -0.00021   0.00000  -0.00012  -0.00017   2.10313
    D4       -1.03831  -0.00082   0.00000  -0.00196  -0.00197  -1.04028
    D5       -2.10327   0.00107   0.00000   0.00264   0.00264  -2.10063
    D6        1.03830   0.00046   0.00000   0.00079   0.00085   1.03915
    D7        0.00001  -0.00279   0.00000  -0.00827  -0.00814  -0.00812
    D8        3.14151   0.00129   0.00000   0.00421   0.00415  -3.13752
    D9        3.14158  -0.00342   0.00000  -0.01017  -0.01011   3.13147
   D10       -0.00011   0.00066   0.00000   0.00231   0.00218   0.00207
   D11       -2.35613  -0.01085   0.00000  -0.02076  -0.02049  -2.37662
   D12       -0.26169  -0.00446   0.00000  -0.01760  -0.01729  -0.27898
   D13        1.83266   0.00318   0.00000   0.00000   0.00000   1.83266
   D14        0.78537  -0.00685   0.00000  -0.00851  -0.00836   0.77701
   D15        2.87981  -0.00046   0.00000  -0.00534  -0.00516   2.87465
   D16       -1.30902   0.00718   0.00000   0.01226   0.01212  -1.29690
   D17        1.04724   0.00461   0.00000   0.01694   0.01729   1.06453
   D18        3.14157   0.00210   0.00000   0.01110   0.01133  -3.13029
   D19       -1.04726  -0.00251   0.00000   0.00033   0.00049  -1.04678
   D20       -3.13259   0.00931   0.00000   0.02564   0.02544  -3.10715
   D21       -1.03826   0.00681   0.00000   0.01979   0.01947  -1.01879
   D22        1.05609   0.00219   0.00000   0.00902   0.00863   1.06472
   D23       -1.08102   0.00474   0.00000   0.00882   0.00898  -1.07204
   D24        1.01331   0.00224   0.00000   0.00298   0.00301   1.01632
   D25        3.10766  -0.00238   0.00000  -0.00780  -0.00783   3.09983
   D26       -0.26182  -0.03241   0.00000  -0.03165  -0.03167  -0.29350
   D27        2.87976  -0.03217   0.00000   0.00000   0.00000   2.87976
   D28       -2.36514   0.00250   0.00000   0.00985   0.00981  -2.35533
   D29        0.77644   0.00274   0.00000   0.04149   0.04148   0.81792
   D30        1.86647   0.02922   0.00000   0.05688   0.05687   1.92333
   D31       -1.27514   0.02946   0.00000   0.08852   0.08854  -1.18660
   D32        0.00006  -0.00036   0.00000  -0.01686  -0.01682  -0.01676
   D33        3.14157  -0.00077   0.00000  -0.01807  -0.01803   3.12353
   D34       -3.14154  -0.00011   0.00000   0.01562   0.01558  -3.12596
   D35       -0.00004  -0.00052   0.00000   0.01441   0.01437   0.01434
   D36        0.00005   0.00022   0.00000   0.00063   0.00063   0.00067
   D37        2.09443  -0.00060   0.00000  -0.00111  -0.00113   2.09330
   D38       -2.09440   0.00099   0.00000   0.00227   0.00229  -2.09211
   D39        3.14155  -0.00019   0.00000  -0.00056  -0.00057   3.14099
   D40       -1.04725  -0.00100   0.00000  -0.00230  -0.00232  -1.04957
   D41        1.04711   0.00058   0.00000   0.00108   0.00110   1.04821
         Item               Value     Threshold  Converged?
 Maximum Force            0.132706     0.000450     NO 
 RMS     Force            0.023361     0.000300     NO 
 Maximum Displacement     0.695450     0.001800     NO 
 RMS     Displacement     0.181228     0.001200     NO 
 Predicted change in Energy=-5.647055D-02
 GradGradGradGradGradGradGradGradGradGradGradGradGradGradGradGradGradGrad

                          Input orientation:                          
 ---------------------------------------------------------------------
 Center     Atomic      Atomic             Coordinates (Angstroms)
 Number     Number       Type             X           Y           Z
 ---------------------------------------------------------------------
      1          1           0        1.104337    2.315238   -1.698680
      2          6           0        1.565388    2.787849   -0.836836
      3          1           0        1.667149    2.060059   -0.033720
      4          1           0        0.940204    3.610399   -0.494670
      5          6           0        2.943314    3.327615   -1.201969
      6          8           0        3.348689    3.181559   -2.339894
      7          7           0        3.580588    3.932591   -0.178314
      8          1           0        3.068632    3.957156    0.684425
      9          6           0        4.894315    4.581422   -0.093153
     10          1           0        5.371776    4.260155    0.831292
     11          6           0        5.886314    4.285400   -1.225998
     12          1           0        5.491317    4.611888   -2.176099
     13          1           0        6.813536    4.820855   -1.025095
     14          1           0        6.094864    3.220705   -1.272326
     15          6           0        4.707662    6.095724   -0.063054
     16          8           0        3.653933    6.602900   -0.407644
     17          7           0        5.770014    6.813559    0.322518
     18          1           0        6.617931    6.344481    0.583495
     19          6           0        5.750672    8.261841    0.379410
     20          1           0        4.773036    8.615549    0.069672
     21          1           0        5.949966    8.594740    1.395895
     22          1           0        6.509263    8.669113   -0.285657
 ---------------------------------------------------------------------
                    Distance matrix (angstroms):
                    1          2          3          4          5
     1  H    0.000000
     2  C    1.085681   0.000000
     3  H    1.775940   1.088591   0.000000
     4  H    1.775956   1.088357   1.773268   0.000000
     5  C    2.157190   1.524254   2.144785   2.143056   0.000000
     6  O    2.489736   2.365238   3.066558   3.064238   1.216773
     7  N    3.325532   2.409381   2.681144   2.678715   1.349067
     8  H    3.497648   2.437469   2.465536   2.457786   1.992613
     9  C    4.698643   3.853793   4.095779   4.091344   2.570585
    10  H    5.328649   4.408959   4.394648   4.671101   3.301697
    11  C    5.193483   4.589608   4.916810   5.045242   3.095024
    12  H    4.974748   4.531407   5.072068   4.954070   3.015062
    13  H    6.271107   5.631306   5.923691   6.020181   4.152067
    14  H    5.089893   4.570904   4.741930   5.227536   3.154147
    15  C    5.472778   4.627597   5.052937   4.533969   3.474547
    16  O    5.152791   4.370450   4.972377   4.040663   3.444332
    17  N    6.788864   5.935429   6.289370   5.852785   4.739841
    18  H    7.200198   6.339966   6.576282   6.393296   5.078599
    19  C    7.827450   6.997174   7.436931   6.748372   5.893098
    20  H    7.502023   6.713632   7.254770   6.329345   5.738223
    21  H    8.514027   7.611149   7.942819   7.315436   6.597837
    22  H    8.460591   7.702919   8.196899   7.526533   6.487466
                    6          7          8          9         10
     6  O    0.000000
     7  N    2.300056   0.000000
     8  H    3.134723   1.003504   0.000000
     9  C    3.065359   1.467690   2.080254   0.000000
    10  H    3.913141   2.082056   2.327628   1.088935   0.000000
    11  C    2.983081   2.557047   3.420057   1.534610   2.120808
    12  H    2.581381   2.846660   3.805348   2.167026   3.030248
    13  H    4.052303   3.458034   4.206274   2.146917   2.416449
    14  H    2.946644   2.832883   3.678222   2.164097   2.455304
    15  C    3.939945   2.441869   2.796179   1.526059   2.147141
    16  O    3.941109   2.681141   2.921498   2.392452   3.158227
    17  N    5.112992   3.652998   3.948099   2.433530   2.633878
    18  H    5.407239   3.952597   4.278672   2.556772   2.441049
    19  C    6.242868   4.874702   5.081012   3.808168   4.044904
    20  H    6.112531   4.838752   4.998354   4.039233   4.461840
    21  H    7.072856   5.461476   5.505948   4.408898   4.409275
    22  H    6.657505   5.569856   5.914520   4.399356   4.688322
                   11         12         13         14         15
    11  C    0.000000
    12  H    1.079495   0.000000
    13  H    1.089410   1.765429   0.000000
    14  H    1.085916   1.765351   1.771466   0.000000
    15  C    2.453352   2.698304   2.643013   3.413562   0.000000
    16  O    3.320246   3.235357   3.679676   4.259702   1.219144
    17  N    2.966988   3.341872   2.622187   3.944319   1.338860
    18  H    2.837137   3.447680   2.224243   3.670919   2.032003
    19  C    4.290433   4.463188   3.865579   5.315990   2.444526
    20  H    4.654927   4.646366   4.445431   5.714239   2.524165
    21  H    5.044679   5.369600   4.566087   6.001721   3.149116
    22  H    4.526505   4.590322   3.930450   5.552512   3.149230
                   16         17         18         19         20
    16  O    0.000000
    17  N    2.248403   0.000000
    18  H    3.135988   1.003547   0.000000
    19  C    2.787087   1.449528   2.114252   0.000000
    20  H    2.351804   2.074865   2.970758   1.084812   0.000000
    21  H    3.534395   2.087373   2.483915   1.088018   1.773264
    22  H    3.526617   2.087929   2.484179   1.087955   1.773024
                   21         22
    21  H    0.000000
    22  H    1.773687   0.000000
 Stoichiometry    C6H12N2O2
 Framework group  C1[X(C6H12N2O2)]
 Deg. of freedom    60
 Full point group                 C1      NOp   1
 Largest Abelian subgroup         C1      NOp   1
 Largest concise Abelian subgroup C1      NOp   1
                         Standard orientation:                         
 ---------------------------------------------------------------------
 Center     Atomic      Atomic             Coordinates (Angstroms)
 Number     Number       Type             X           Y           Z
 ---------------------------------------------------------------------
      1          1           0        4.163072   -0.937997   -0.412736
      2          6           0        3.306917   -1.071469    0.241396
      3          1           0        3.613658   -0.928578    1.276056
      4          1           0        2.911763   -2.078639    0.123155
      5          6           0        2.215378   -0.064391   -0.101658
      6          8           0        2.407626    0.724111   -1.008212
      7          7           0        1.114448   -0.169422    0.670938
      8          1           0        1.149869   -0.895485    1.362747
      9          6           0       -0.146856    0.581005    0.680151
     10          1           0       -0.401120    0.803934    1.715250
     11          6           0       -0.161568    1.917657   -0.073622
     12          1           0        0.049783    1.768727   -1.121696
     13          1           0       -1.150278    2.363593    0.028403
     14          1           0        0.577006    2.593155    0.347596
     15          6           0       -1.248623   -0.277335    0.065156
     16          8           0       -0.976154   -1.256399   -0.608273
     17          7           0       -2.504977    0.132577    0.279848
     18          1           0       -2.671731    0.953967    0.831769
     19          6           0       -3.654095   -0.567420   -0.259286
     20          1           0       -3.311581   -1.425567   -0.827692
     21          1           0       -4.296053   -0.904296    0.552002
     22          1           0       -4.219391    0.095125   -0.911298
 ---------------------------------------------------------------------
 Rotational constants (GHZ):      2.8854053      0.6947047      0.6255109
 Standard basis: 6-31G(d) (6D, 7F)
 There are   174 symmetry adapted basis functions of A   symmetry.
 Integral buffers will be    131072 words long.
 Raffenetti 1 integral format.
 Two-electron integral symmetry is turned on.
   174 basis functions,   328 primitive gaussians,   174 cartesian basis functions
    39 alpha electrons       39 beta electrons
       nuclear repulsion energy       555.4012770440 Hartrees.
 NAtoms=   22 NActive=   22 NUniq=   22 SFac= 7.50D-01 NAtFMM=   80 NAOKFM=F Big=F
 One-electron integrals computed using PRISM.
 NBasis=   174 RedAO= T  NBF=   174
 NBsUse=   174 1.00D-06 NBFU=   174
 Initial guess read from the read-write file.
 B after Tr=     0.000000    0.000000    0.000000
         Rot=    1.000000    0.000000    0.000000    0.000000 Ang=   0.00 deg.
 Initial guess orbital symmetries:
       Occupied  (A) (A) (A) (A) (A) (A) (A) (A) (A) (A) (A) (A)
                 (A) (A) (A) (A) (A) (A) (A) (A) (A) (A) (A) (A)
                 (A) (A) (A) (A) (A) (A) (A) (A) (A) (A) (A) (A)
                 (A) (A) (A)
       Virtual   (A) (A) (A) (A) (A) (A) (A) (A) (A) (A) (A) (A)
                 (A) (A) (A) (A) (A) (A) (A) (A) (A) (A) (A) (A)
                 (A) (A) (A) (A) (A) (A) (A) (A) (A) (A) (A) (A)
                 (A) (A) (A) (A) (A) (A) (A) (A) (A) (A) (A) (A)
                 (A) (A) (A) (A) (A) (A) (A) (A) (A) (A) (A) (A)
                 (A) (A) (A) (A) (A) (A) (A) (A) (A) (A) (A) (A)
                 (A) (A) (A) (A) (A) (A) (A) (A) (A) (A) (A) (A)
                 (A) (A) (A) (A) (A) (A) (A) (A) (A) (A) (A) (A)
                 (A) (A) (A) (A) (A) (A) (A) (A) (A) (A) (A) (A)
                 (A) (A) (A) (A) (A) (A) (A) (A) (A) (A) (A) (A)
                 (A) (A) (A) (A) (A) (A) (A) (A) (A) (A) (A) (A)
                 (A) (A) (A)
 Harris functional with IExCor=  205 diagonalized for initial guess.
 ExpMin= 1.61D-01 ExpMax= 5.48D+03 ExpMxC= 8.25D+02 IAcc=1 IRadAn=         1 AccDes= 0.00D+00
 HarFok:  IExCor=  205 AccDes= 0.00D+00 IRadAn=         1 IDoV= 1
 ScaDFX=  1.000000  1.000000  1.000000  1.000000
 FoFCou: FMM=F IPFlag=           0 FMFlag=      100000 FMFlg1=           0
         NFxFlg=           0 DoJE=T BraDBF=F KetDBF=T FulRan=T
         Omega=  0.000000  0.000000  1.000000  0.000000  0.000000 ICntrl=     500 IOpCl=  0
         NMat0=    1 NMatS0=    1 NMatT0=    0 NMatD0=    1 NMtDS0=    0 NMtDT0=    0
         I1Cent=           4 NGrid=           0.
 Petite list used in FoFCou.
 Requested convergence on RMS density matrix=1.00D-08 within 128 cycles.
 Requested convergence on MAX density matrix=1.00D-06.
 Requested convergence on             energy=1.00D-06.
 No special actions if energy rises.
 Integral accuracy reduced to 1.0D-05 until final iterations.
 Initial convergence to 1.0D-05 achieved.  Increase integral accuracy.
 SCF Done:  E(RHF) =  -492.840023436     A.U. after   15 cycles
             Convg  =    0.7633D-08             -V/T =  2.0020
 Calling FoFJK, ICntrl=      2127 FMM=F ISym2X=0 I1Cent= 0 IOpClX= 0 NMat=1 NMatS=1 NMatT=0.
 ***** Axes restored to original set *****
 -------------------------------------------------------------------
 Center     Atomic                   Forces (Hartrees/Bohr)
 Number     Number              X              Y              Z
 -------------------------------------------------------------------
      1        1           0.004838855    0.002992043    0.002761050
      2        6           0.003645595    0.003388775    0.005569048
      3        1          -0.003691128    0.001279344   -0.000576375
      4        1          -0.000905728   -0.003544244    0.000620511
      5        6          -0.005674602   -0.009047065   -0.040069641
      6        8           0.002991870    0.008987839    0.030486563
      7        7           0.017767458   -0.003709717    0.016817952
      8        1           0.003604291    0.002513836   -0.008422896
      9        6          -0.005310834    0.000593164   -0.007933566
     10        1          -0.005298248    0.000542811    0.000493435
     11        6          -0.002293522   -0.008414634   -0.000996784
     12        1           0.000814132   -0.001741560   -0.000607183
     13        1          -0.003001127   -0.004682629   -0.001336935
     14        1           0.000053072    0.002958974   -0.002380460
     15        6          -0.040936443    0.012286714   -0.010822890
     16        8           0.026805774   -0.011026602    0.010809188
     17        7           0.010718997    0.001984640    0.006469133
     18        1          -0.008754937    0.004471235   -0.001798589
     19        6           0.002284679    0.001437965    0.000259901
     20        1           0.005266772   -0.003295505    0.001507412
     21        1          -0.000527787    0.001078049   -0.003032538
     22        1          -0.002397137    0.000946568    0.002183662
 -------------------------------------------------------------------
 Cartesian Forces:  Max     0.040936443 RMS     0.010332760

 GradGradGradGradGradGradGradGradGradGradGradGradGradGradGradGradGradGrad
 Berny optimization.
 Using GEDIIS/GDIIS optimizer.
 Internal  Forces:  Max     0.030811091 RMS     0.006786159
 Search for a local minimum.
 Step number   2 out of a maximum of  108
 All quantities printed in internal units (Hartrees-Bohrs-Radians)
 Mixed Optimization -- RFO/linear search
 Update second derivatives using D2CorX and points    1    2
 DE= -1.88D-02 DEPred=-5.65D-02 R= 3.33D-01
 Trust test= 3.33D-01 RLast= 3.00D-01 DXMaxT set to 3.00D-01
 Use linear search instead of GDIIS.
     Eigenvalues ---    0.00370   0.00437   0.00999   0.01043   0.01345
     Eigenvalues ---    0.01418   0.01659   0.02551   0.02551   0.03569
     Eigenvalues ---    0.05013   0.05690   0.05890   0.06065   0.07215
     Eigenvalues ---    0.07383   0.07618   0.07706   0.15842   0.15978
     Eigenvalues ---    0.15999   0.16000   0.16000   0.16000   0.16000
     Eigenvalues ---    0.16000   0.16000   0.16000   0.16000   0.16529
     Eigenvalues ---    0.17195   0.21981   0.24280   0.24892   0.24988
     Eigenvalues ---    0.25000   0.29402   0.29830   0.30118   0.34592
     Eigenvalues ---    0.34712   0.34808   0.34809   0.34811   0.34811
     Eigenvalues ---    0.34812   0.34816   0.34819   0.34821   0.36943
     Eigenvalues ---    0.38373   0.45710   0.45975   0.56636   0.58190
     Eigenvalues ---    0.88229   0.89185   0.932441000.000001000.00000
     Eigenvalues --- 1000.000001000.000001000.000001000.000001000.00000
     Eigenvalues --- 1000.000001000.000001000.000001000.000001000.00000
     Eigenvalues --- 1000.000001000.000001000.000001000.000001000.00000
     Eigenvalues --- 1000.000001000.000001000.000001000.000001000.00000
     Eigenvalues --- 1000.000001000.000001000.000001000.000001000.00000
     Eigenvalues --- 1000.000001000.000001000.000001000.000001000.00000
     Eigenvalues --- 1000.000001000.000001000.000001000.000001000.00000
     Eigenvalues --- 1000.000001000.000001000.00000
 RFO step:  Lambda=-7.19657407D-03 EMin= 3.69635175D-03
 Quartic linear search produced a step of -0.24048.
 Iteration  1 RMS(Cart)=  0.05701936 RMS(Int)=  0.00113932
 Iteration  2 RMS(Cart)=  0.00186706 RMS(Int)=  0.00029023
 Iteration  3 RMS(Cart)=  0.00000109 RMS(Int)=  0.00029023
 Iteration  4 RMS(Cart)=  0.00000000 RMS(Int)=  0.00029023
 Iteration  1 RMS(Cart)=  0.00008035 RMS(Int)=  0.00003588
 Iteration  2 RMS(Cart)=  0.00004471 RMS(Int)=  0.00003986
 Iteration  3 RMS(Cart)=  0.00002582 RMS(Int)=  0.00004538
 Iteration  4 RMS(Cart)=  0.00001556 RMS(Int)=  0.00004956
 Iteration  5 RMS(Cart)=  0.00000977 RMS(Int)=  0.00005240
 Iteration  6 RMS(Cart)=  0.00000633 RMS(Int)=  0.00005428
 Iteration  7 RMS(Cart)=  0.00000419 RMS(Int)=  0.00005552
 Iteration  8 RMS(Cart)=  0.00000281 RMS(Int)=  0.00005633
 Iteration  9 RMS(Cart)=  0.00000190 RMS(Int)=  0.00005687
 Iteration 10 RMS(Cart)=  0.00000128 RMS(Int)=  0.00005722
 Iteration 11 RMS(Cart)=  0.00000087 RMS(Int)=  0.00005746
 Variable       Old X    -DE/DX   Delta X   Delta X   Delta X     New X
                                 (Linear)    (Quad)   (Total)
    R1        2.05164  -0.00555   0.00198  -0.01641  -0.01443   2.03721
    R2        2.05714  -0.00163   0.00062  -0.00489  -0.00427   2.05287
    R3        2.05670  -0.00196   0.00076  -0.00595  -0.00519   2.05151
    R4        2.88042  -0.00297   0.00259  -0.01317  -0.01057   2.86985
    R5        2.29937  -0.02859   0.00554  -0.03822  -0.03267   2.26669
    R6        2.54937  -0.00147  -0.00636   0.01416   0.00780   2.55717
    R7        1.89635  -0.00902   0.00297  -0.02190  -0.01893   1.87742
    R8        2.77353  -0.02189  -0.00850  -0.02252  -0.03102   2.74251
    R9        2.05779  -0.00206   0.00047  -0.00549  -0.00502   2.05277
   R10        2.89999   0.00336  -0.00435   0.01794   0.01359   2.91358
   R11        2.88383   0.00885  -0.00184   0.02584   0.02399   2.90783
   R12        2.03995  -0.00029   0.00475  -0.01155  -0.00680   2.03315
   R13        2.05869  -0.00510   0.00028  -0.01154  -0.01126   2.04742
   R14        2.05208  -0.00279   0.00182  -0.01015  -0.00832   2.04376
   R15        2.30385  -0.03081   0.00448  -0.03722  -0.03274   2.27111
   R16        2.53008   0.01039  -0.00174   0.01776   0.01601   2.54609
   R17        1.89643  -0.00995   0.00290  -0.02324  -0.02034   1.87609
   R18        2.73921   0.00014  -0.00023   0.00082   0.00059   2.73980
   R19        2.05000  -0.00625   0.00236  -0.01878  -0.01642   2.03357
   R20        2.05606  -0.00260   0.00090  -0.00763  -0.00673   2.04933
   R21        2.05594  -0.00265   0.00094  -0.00782  -0.00688   2.04905
    A1        1.91168  -0.00008  -0.00012  -0.00173  -0.00167   1.91001
    A2        1.91201   0.00016  -0.00024  -0.00094  -0.00103   1.91097
    A3        1.92612  -0.00618   0.00310  -0.03503  -0.03176   1.89435
    A4        1.90396  -0.00369   0.00149  -0.01547  -0.01438   1.88959
    A5        1.90601   0.00531  -0.00238   0.02909   0.02659   1.93260
    A6        1.90388   0.00452  -0.00187   0.02438   0.02238   1.92627
    A7        2.07452   0.01613   0.00690   0.03326   0.04009   2.11461
    A8        1.98676   0.00025   0.01161  -0.02341  -0.01187   1.97489
    A9        2.22191  -0.01638  -0.01851  -0.00982  -0.02839   2.19352
   A10        2.00681   0.00780   0.02104  -0.01527   0.00539   2.01220
   A11        2.29842  -0.01505  -0.04109   0.03089  -0.01058   2.28784
   A12        1.97789   0.00723   0.02006  -0.01615   0.00353   1.98142
   A13        1.88736   0.00142   0.00572  -0.01408  -0.00831   1.87905
   A14        2.03812  -0.01428  -0.02383  -0.04010  -0.06381   1.97431
   A15        1.90745   0.00059   0.00759  -0.01474  -0.00617   1.90129
   A16        1.86121   0.00360   0.00839   0.01613   0.02313   1.88434
   A17        1.90672  -0.00492  -0.00256   0.01515   0.01186   1.91858
   A18        1.85984   0.01375   0.00518   0.04176   0.04599   1.90583
   A19        1.93354   0.00135  -0.00539   0.01390   0.00848   1.94202
   A20        1.89572   0.00194   0.00369   0.00742   0.01099   1.90671
   A21        1.92278   0.00227  -0.00281   0.01132   0.00853   1.93131
   A22        1.90190  -0.00070   0.00197   0.00070   0.00252   1.90442
   A23        1.90632  -0.00265   0.00094  -0.02275  -0.02173   1.88459
   A24        1.90320  -0.00226   0.00167  -0.01087  -0.00925   1.89394
   A25        2.10941   0.00405  -0.00151   0.01566   0.01408   2.12349
   A26        2.02712  -0.00336   0.00190  -0.01366  -0.01183   2.01529
   A27        2.14619  -0.00064  -0.00028  -0.00146  -0.00181   2.14439
   A28        2.08829  -0.00221   0.00148  -0.01038  -0.00890   2.07939
   A29        2.13697   0.00410  -0.00228   0.01822   0.01594   2.15291
   A30        2.05792  -0.00189   0.00080  -0.00783  -0.00704   2.05088
   A31        1.90349  -0.00312   0.00186  -0.01875  -0.01684   1.88665
   A32        1.91764   0.00286  -0.00156   0.01639   0.01477   1.93240
   A33        1.91849   0.00304  -0.00177   0.01744   0.01560   1.93409
   A34        1.90929  -0.00030   0.00019  -0.00305  -0.00280   1.90648
   A35        1.90899  -0.00046   0.00028  -0.00416  -0.00383   1.90516
   A36        1.90588  -0.00203   0.00102  -0.00799  -0.00714   1.89874
    D1        0.00078  -0.00023  -0.00020  -0.00734  -0.00771  -0.00693
    D2        3.14056   0.00021   0.00023   0.01247   0.01290  -3.12972
    D3        2.10313  -0.00080   0.00004  -0.01279  -0.01317   2.08996
    D4       -1.04028  -0.00036   0.00047   0.00702   0.00745  -1.03283
    D5       -2.10063   0.00054  -0.00063   0.00006  -0.00055  -2.10118
    D6        1.03915   0.00098  -0.00020   0.01987   0.02007   1.05922
    D7       -0.00812  -0.00071   0.00196  -0.02208  -0.01999  -0.02811
    D8       -3.13752   0.00153  -0.00100   0.03639   0.03579  -3.10173
    D9        3.13147  -0.00018   0.00243  -0.00021   0.00182   3.13329
   D10        0.00207   0.00206  -0.00052   0.05825   0.05760   0.05967
   D11       -2.37662  -0.00107   0.00493   0.00168   0.00597  -2.37065
   D12       -0.27898  -0.00487   0.00416  -0.01512  -0.01120  -0.29018
   D13        1.83266   0.00368   0.00000   0.00000   0.00001   1.83267
   D14        0.77701   0.00114   0.00201   0.05940   0.06096   0.83798
   D15        2.87465  -0.00267   0.00124   0.04260   0.04379   2.91844
   D16       -1.29690   0.00588  -0.00292   0.05771   0.05500  -1.24190
   D17        1.06453   0.00191  -0.00416  -0.01060  -0.01508   1.04946
   D18       -3.13029   0.00308  -0.00272   0.00332   0.00036  -3.12992
   D19       -1.04678   0.00285  -0.00012   0.00132   0.00098  -1.04579
   D20       -3.10715  -0.00279  -0.00612  -0.04259  -0.04916   3.12687
   D21       -1.01879  -0.00162  -0.00468  -0.02867  -0.03372  -1.05251
   D22        1.06472  -0.00185  -0.00208  -0.03067  -0.03310   1.03162
   D23       -1.07204  -0.00006  -0.00216   0.00279   0.00121  -1.07083
   D24        1.01632   0.00111  -0.00072   0.01670   0.01665   1.03297
   D25        3.09983   0.00088   0.00188   0.01470   0.01727   3.11710
   D26       -0.29350   0.00257   0.00762   0.01831   0.02608  -0.26741
   D27        2.87976   0.00089   0.00000   0.00000   0.00000   2.87976
   D28       -2.35533   0.00338  -0.00236   0.03510   0.03287  -2.32246
   D29        0.81792   0.00169  -0.00997   0.01678   0.00679   0.82471
   D30        1.92333  -0.00559  -0.01368  -0.01296  -0.02677   1.89656
   D31       -1.18660  -0.00728  -0.02129  -0.03128  -0.05285  -1.23945
   D32       -0.01676   0.00022   0.00405  -0.00649  -0.00251  -0.01927
   D33        3.12353   0.00025   0.00434  -0.00381   0.00045   3.12399
   D34       -3.12596  -0.00160  -0.00375  -0.02557  -0.02925   3.12798
   D35        0.01434  -0.00157  -0.00346  -0.02290  -0.02629  -0.01195
   D36        0.00067  -0.00004  -0.00015  -0.00160  -0.00175  -0.00108
   D37        2.09330  -0.00061   0.00027  -0.00693  -0.00675   2.08655
   D38       -2.09211   0.00060  -0.00055   0.00449   0.00402  -2.08808
   D39        3.14099  -0.00001   0.00014   0.00103   0.00117  -3.14103
   D40       -1.04957  -0.00057   0.00056  -0.00430  -0.00383  -1.05340
   D41        1.04821   0.00063  -0.00026   0.00712   0.00694   1.05515
         Item               Value     Threshold  Converged?
 Maximum Force            0.030811     0.000450     NO 
 RMS     Force            0.006826     0.000300     NO 
 Maximum Displacement     0.197474     0.001800     NO 
 RMS     Displacement     0.057329     0.001200     NO 
 Predicted change in Energy=-3.756157D-03
 GradGradGradGradGradGradGradGradGradGradGradGradGradGradGradGradGradGrad

                          Input orientation:                          
 ---------------------------------------------------------------------
 Center     Atomic      Atomic             Coordinates (Angstroms)
 Number     Number       Type             X           Y           Z
 ---------------------------------------------------------------------
      1          1           0        1.179042    2.330884   -1.710904
      2          6           0        1.601013    2.811596   -0.843126
      3          1           0        1.651379    2.099640   -0.024167
      4          1           0        0.962652    3.635365   -0.539062
      5          6           0        2.986917    3.320414   -1.199072
      6          8           0        3.446447    3.154725   -2.294581
      7          7           0        3.611185    3.931151   -0.165425
      8          1           0        3.082990    3.990924    0.673895
      9          6           0        4.903241    4.587108   -0.084772
     10          1           0        5.381148    4.261843    0.834905
     11          6           0        5.837598    4.230343   -1.258162
     12          1           0        5.406911    4.517656   -2.201305
     13          1           0        6.783824    4.742191   -1.129593
     14          1           0        6.024310    3.165461   -1.287005
     15          6           0        4.688768    6.110533   -0.053957
     16          8           0        3.638241    6.606154   -0.362373
     17          7           0        5.754795    6.837977    0.332984
     18          1           0        6.592788    6.370189    0.587072
     19          6           0        5.748687    8.286118    0.402858
     20          1           0        4.775894    8.631360    0.098687
     21          1           0        5.946775    8.622237    1.414703
     22          1           0        6.498296    8.706933   -0.257999
 ---------------------------------------------------------------------
                    Distance matrix (angstroms):
                    1          2          3          4          5
     1  H    0.000000
     2  C    1.078046   0.000000
     3  H    1.766821   1.086330   0.000000
     4  H    1.766835   1.085612   1.760089   0.000000
     5  C    2.123571   1.518658   2.157395   2.152314   0.000000
     6  O    2.482039   2.372780   3.080625   3.079301   1.199483
     7  N    3.296161   2.398639   2.686117   2.691062   1.353195
     8  H    3.473905   2.426607   2.472602   2.468506   1.991688
     9  C    4.648065   3.825212   4.094604   4.079269   2.553131
    10  H    5.278962   4.382741   4.395942   4.669407   3.279587
    11  C    5.051244   4.487064   4.856652   4.963487   2.992966
    12  H    4.785116   4.386359   4.968979   4.826274   2.879970
    13  H    6.129103   5.538121   5.877673   5.954816   4.054970
    14  H    4.934859   4.459574   4.674748   5.138152   3.042614
    15  C    5.417508   4.586938   5.031291   4.499525   3.462997
    16  O    5.113132   4.333599   4.936666   4.001947   3.452590
    17  N    6.740095   5.903293   6.278329   5.829392   4.730919
    18  H    7.134797   6.294987   6.559629   6.359707   5.049133
    19  C    7.798362   6.980405   7.432550   6.739647   5.903539
    20  H    7.477162   6.696008   7.241620   6.317239   5.752457
    21  H    8.490101   7.599143   7.941351   7.316254   6.610742
    22  H    8.429673   7.686400   8.197781   7.512866   6.498461
                    6          7          8          9         10
     6  O    0.000000
     7  N    2.272286   0.000000
     8  H    3.105347   0.993489   0.000000
     9  C    3.009523   1.451273   2.060176   0.000000
    10  H    3.842195   2.059802   2.319666   1.086277   0.000000
    11  C    2.819348   2.498101   3.373134   1.541801   2.142491
    12  H    2.389498   2.777306   3.734277   2.176745   3.047076
    13  H    3.874962   3.413656   4.184871   2.156918   2.461197
    14  H    2.767798   2.769007   3.630135   2.173302   2.473502
    15  C    3.911593   2.433787   2.756997   1.538757   2.164976
    16  O    3.960123   2.682379   2.867329   2.398715   3.157054
    17  N    5.079263   3.645972   3.919243   2.442555   2.651038
    18  H    5.342527   3.924935   4.241123   2.546630   2.444303
    19  C    6.237602   4.884424   5.062419   3.825602   4.064054
    20  H    6.122801   4.849563   4.972970   4.050413   4.472250
    21  H    7.064285   5.473397   5.495372   4.429408   4.434990
    22  H    6.654958   5.581404   5.896904   4.421217   4.711823
                   11         12         13         14         15
    11  C    0.000000
    12  H    1.075899   0.000000
    13  H    1.083449   1.759225   0.000000
    14  H    1.081511   1.745152   1.757190   0.000000
    15  C    2.510983   2.768409   2.723713   3.460857   0.000000
    16  O    3.359180   3.297224   3.735997   4.287964   1.201818
    17  N    3.055873   3.453626   2.755059   4.022981   1.347335
    18  H    2.924747   3.551511   2.373565   3.755744   2.025743
    19  C    4.383629   4.593450   3.997415   5.399327   2.462778
    20  H    4.726225   4.755072   4.545997   5.775356   2.526946
    21  H    5.142457   5.496777   4.714748   6.089470   3.169890
    22  H    4.634297   4.745272   4.069444   5.656096   3.171327
                   16         17         18         19         20
    16  O    0.000000
    17  N    2.239880   0.000000
[...]
    14  H    4.880961   4.460185   4.828957   5.082614   2.984941
    15  C    5.385256   4.480795   4.817169   4.379325   3.442163
    16  O    5.090188   4.169929   4.577445   3.788283   3.458478
    17  N    6.709554   5.814492   6.104812   5.725792   4.707571
    18  H    7.103553   6.253532   6.507467   6.316710   5.013579
    19  C    7.727483   6.821550   7.152637   6.539461   5.852056
    20  H    7.713168   6.750810   7.002429   6.350847   5.989304
    21  H    8.680143   7.766917   8.043126   7.545890   6.736046
    22  H    7.808012   6.985592   7.463641   6.634398   6.006295
                    6          7          8          9         10
     6  O    0.000000
     7  N    2.272123   0.000000
     8  H    3.093274   0.995531   0.000000
     9  C    2.960531   1.448399   2.048347   0.000000
    10  H    3.789628   2.044527   2.398834   1.087802   0.000000
    11  C    2.793085   2.522765   3.391140   1.533590   2.125880
    12  H    2.513352   2.886402   3.760561   2.181829   3.041302
    13  H    3.866345   3.422976   4.181412   2.148784   2.387038
    14  H    2.613874   2.741731   3.687930   2.161627   2.500752
    15  C    3.936821   2.430317   2.565658   1.537630   2.117391
    16  O    4.081989   2.680643   2.539177   2.401705   3.089592
    17  N    5.079088   3.644528   3.784006   2.443166   2.612000
    18  H    5.263438   3.940861   4.228225   2.554671   2.482185
    19  C    6.234829   4.862514   4.854479   3.811812   4.020134
    20  H    6.543296   4.967741   4.743599   4.155943   4.332709
    21  H    7.083552   5.678406   5.693505   4.502994   4.515879
    22  H    6.245953   5.215033   5.299838   4.220200   4.650940
                   11         12         13         14         15
    11  C    0.000000
    12  H    1.078887   0.000000
    13  H    1.085210   1.761416   0.000000
    14  H    1.079841   1.746662   1.753819   0.000000
    15  C    2.544105   2.788660   2.804663   3.479836   0.000000
    16  O    3.450366   3.429874   3.881649   4.335956   1.200718
    17  N    3.054742   3.391938   2.801706   4.044567   1.349922
    18  H    2.827314   3.348532   2.264478   3.727527   2.029647
    19  C    4.380718   4.514296   4.069976   5.416504   2.441057
    20  H    5.014723   5.165040   4.862701   6.019346   2.693630
    21  H    4.948074   5.186479   4.424576   5.939745   3.308809
    22  H    4.554654   4.433729   4.284972   5.631371   2.834223
                   16         17         18         19         20
    16  O    0.000000
    17  N    2.236446   0.000000
    18  H    3.109999   0.992902   0.000000
    19  C    2.760090   1.448200   2.109377   0.000000
    20  H    2.646727   2.081555   2.895439   1.080494   0.000000
    21  H    3.792829   2.066305   2.295365   1.081817   1.760457
    22  H    2.947154   2.106365   2.733787   1.084150   1.755795
                   21         22
    21  H    0.000000
    22  H    1.763488   0.000000
 Stoichiometry    C6H12N2O2
 Framework group  C1[X(C6H12N2O2)]
 Deg. of freedom    60
 Full point group                 C1      NOp   1
 Largest Abelian subgroup         C1      NOp   1
 Largest concise Abelian subgroup C1      NOp   1
                         Standard orientation:                         
 ---------------------------------------------------------------------
 Center     Atomic      Atomic             Coordinates (Angstroms)
 Number     Number       Type             X           Y           Z
 ---------------------------------------------------------------------
      1          1           0        4.083773   -0.995542   -0.396455
      2          6           0        3.143815   -1.240450    0.075350
      3          1           0        3.311964   -1.489887    1.117443
      4          1           0        2.715888   -2.108937   -0.416109
      5          6           0        2.199257   -0.064585   -0.074648
      6          8           0        2.432320    0.837716   -0.827634
      7          7           0        1.102971   -0.143324    0.732152
      8          1           0        0.969884   -1.036260    1.151720
      9          6           0       -0.125220    0.619729    0.647565
     10          1           0       -0.418242    0.850396    1.669448
     11          6           0       -0.025237    1.951682   -0.105962
     12          1           0        0.138455    1.808711   -1.162731
     13          1           0       -0.945258    2.509414    0.036088
     14          1           0        0.790982    2.543059    0.281488
     15          6           0       -1.232876   -0.280188    0.075242
     16          8           0       -0.994370   -1.344124   -0.427629
     17          7           0       -2.492053    0.181391    0.229211
     18          1           0       -2.633283    1.100410    0.577511
     19          6           0       -3.629247   -0.529696   -0.317072
     20          1           0       -3.598629   -1.565304   -0.010403
     21          1           0       -4.535387   -0.076542    0.062256
     22          1           0       -3.643129   -0.493684   -1.400535
 ---------------------------------------------------------------------
 Rotational constants (GHZ):      2.7838645      0.7240104      0.6291497

 **********************************************************************

            Population analysis using the SCF density.

 **********************************************************************

 Orbital symmetries:
       Occupied  (A) (A) (A) (A) (A) (A) (A) (A) (A) (A) (A) (A)
                 (A) (A) (A) (A) (A) (A) (A) (A) (A) (A) (A) (A)
                 (A) (A) (A) (A) (A) (A) (A) (A) (A) (A) (A) (A)
                 (A) (A) (A)
       Virtual   (A) (A) (A) (A) (A) (A) (A) (A) (A) (A) (A) (A)
                 (A) (A) (A) (A) (A) (A) (A) (A) (A) (A) (A) (A)
                 (A) (A) (A) (A) (A) (A) (A) (A) (A) (A) (A) (A)
                 (A) (A) (A) (A) (A) (A) (A) (A) (A) (A) (A) (A)
                 (A) (A) (A) (A) (A) (A) (A) (A) (A) (A) (A) (A)
                 (A) (A) (A) (A) (A) (A) (A) (A) (A) (A) (A) (A)
                 (A) (A) (A) (A) (A) (A) (A) (A) (A) (A) (A) (A)
                 (A) (A) (A) (A) (A) (A) (A) (A) (A) (A) (A) (A)
                 (A) (A) (A) (A) (A) (A) (A) (A) (A) (A) (A) (A)
                 (A) (A) (A) (A) (A) (A) (A) (A) (A) (A) (A) (A)
                 (A) (A) (A) (A) (A) (A) (A) (A) (A) (A) (A) (A)
                 (A) (A) (A)
 The electronic state is 1-A.
 Alpha  occ. eigenvalues --  -20.53011 -20.51673 -15.59148 -15.57897 -11.34794
 Alpha  occ. eigenvalues --  -11.34386 -11.28650 -11.26277 -11.22467 -11.22362
 Alpha  occ. eigenvalues --   -1.39968  -1.38389  -1.23916  -1.23384  -1.05727
 Alpha  occ. eigenvalues --   -0.98713  -0.95927  -0.88888  -0.80178  -0.76187
 Alpha  occ. eigenvalues --   -0.72735  -0.69451  -0.65900  -0.63625  -0.62691
 Alpha  occ. eigenvalues --   -0.61953  -0.59660  -0.58530  -0.56478  -0.56072
 Alpha  occ. eigenvalues --   -0.55529  -0.53923  -0.53259  -0.51548  -0.50292
 Alpha  occ. eigenvalues --   -0.42874  -0.40765  -0.39629  -0.38393
 Alpha virt. eigenvalues --    0.19157   0.20310   0.21532   0.23642   0.25934
 Alpha virt. eigenvalues --    0.28069   0.29498   0.30172   0.31690   0.31896
 Alpha virt. eigenvalues --    0.32824   0.33188   0.33854   0.34777   0.37226
 Alpha virt. eigenvalues --    0.38879   0.41839   0.43476   0.48138   0.51268
 Alpha virt. eigenvalues --    0.53616   0.59064   0.60709   0.70834   0.72021
 Alpha virt. eigenvalues --    0.73849   0.74966   0.75666   0.77730   0.78461
 Alpha virt. eigenvalues --    0.80905   0.83112   0.83824   0.86969   0.89589
 Alpha virt. eigenvalues --    0.93557   0.95560   0.96532   0.97892   0.99617
 Alpha virt. eigenvalues --    1.00881   1.02166   1.04044   1.06817   1.09218
 Alpha virt. eigenvalues --    1.12023   1.13558   1.13984   1.14589   1.15505
 Alpha virt. eigenvalues --    1.16627   1.17031   1.19134   1.20550   1.21374
 Alpha virt. eigenvalues --    1.21713   1.22470   1.23046   1.25510   1.26675
 Alpha virt. eigenvalues --    1.30692   1.31890   1.36545   1.36868   1.40037
 Alpha virt. eigenvalues --    1.45185   1.51547   1.53387   1.60095   1.63872
 Alpha virt. eigenvalues --    1.64667   1.68434   1.69951   1.74733   1.75934
 Alpha virt. eigenvalues --    1.77013   1.82013   1.91616   1.93780   1.96814
 Alpha virt. eigenvalues --    2.00604   2.04186   2.07696   2.08759   2.11344
 Alpha virt. eigenvalues --    2.12935   2.16273   2.17659   2.18941   2.22780
 Alpha virt. eigenvalues --    2.23093   2.28362   2.30092   2.30557   2.35223
 Alpha virt. eigenvalues --    2.38175   2.40840   2.41760   2.45479   2.49159
 Alpha virt. eigenvalues --    2.51393   2.56471   2.58538   2.60450   2.64836
 Alpha virt. eigenvalues --    2.66255   2.69223   2.71322   2.74920   2.76734
 Alpha virt. eigenvalues --    2.79494   2.83594   2.89508   2.93018   2.95416
 Alpha virt. eigenvalues --    3.01532   3.03685   3.07209   3.15234   3.27555
 Alpha virt. eigenvalues --    3.32772   3.37558   3.42092   3.53380   3.59173
 Alpha virt. eigenvalues --    4.35381   4.40378   4.47942   4.53939   4.65187
 Alpha virt. eigenvalues --    4.69221   4.73863   4.84925   4.93086   5.05810
          Condensed to atoms (all electrons):
              1          2          3          4          5          6
     1  H    0.465893   0.384058  -0.020235  -0.016976  -0.032924   0.003907
     2  C    0.384058   5.280385   0.375461   0.374047   0.378096  -0.071168
     3  H   -0.020235   0.375461   0.519346  -0.024640  -0.035839   0.001707
     4  H   -0.016976   0.374047  -0.024640   0.488552  -0.027183   0.000623
     5  C   -0.032924   0.378096  -0.035839  -0.027183   4.132599   0.615668
     6  O    0.003907  -0.071168   0.001707   0.000623   0.615668   8.149164
     7  N    0.004513  -0.126293   0.005095   0.000889   0.253664  -0.096787
     8  H    0.000099  -0.001074  -0.000146   0.000246  -0.019362   0.002518
     9  C   -0.000083   0.002858   0.000224  -0.000319  -0.021063   0.001618
    10  H    0.000003  -0.000093  -0.000003   0.000001   0.001291  -0.000132
    11  C    0.000002   0.000083  -0.000011  -0.000002  -0.001819  -0.005506
    12  H    0.000001   0.000002   0.000000  -0.000004   0.001253   0.000285
    13  H    0.000000   0.000011   0.000000   0.000000   0.000166   0.000804
    14  H    0.000000  -0.000025  -0.000003   0.000001   0.000081   0.000075
    15  C   -0.000001  -0.000172  -0.000003   0.000073   0.000004  -0.000289
    16  O    0.000000  -0.000308   0.000001   0.000291   0.003543  -0.000060
    17  N    0.000000   0.000000   0.000000   0.000000   0.000075  -0.000002
    18  H    0.000000   0.000000   0.000000   0.000000  -0.000006   0.000000
    19  C    0.000000   0.000000   0.000000   0.000000  -0.000001   0.000000
    20  H    0.000000   0.000000   0.000000   0.000000   0.000000   0.000000
    21  H    0.000000   0.000000   0.000000   0.000000   0.000000   0.000000
    22  H    0.000000   0.000000   0.000000   0.000000   0.000000   0.000000
              7          8          9         10         11         12
     1  H    0.004513   0.000099  -0.000083   0.000003   0.000002   0.000001
     2  C   -0.126293  -0.001074   0.002858  -0.000093   0.000083   0.000002
     3  H    0.005095  -0.000146   0.000224  -0.000003  -0.000011   0.000000
     4  H    0.000889   0.000246  -0.000319   0.000001  -0.000002  -0.000004
     5  C    0.253664  -0.019362  -0.021063   0.001291  -0.001819   0.001253
     6  O   -0.096787   0.002518   0.001618  -0.000132  -0.005506   0.000285
     7  N    7.351024   0.327188   0.221194  -0.051124  -0.036893  -0.001654
     8  H    0.327188   0.329197  -0.035048  -0.001502   0.003298  -0.000129
     9  C    0.221194  -0.035048   5.032148   0.424115   0.334087  -0.032938
    10  H   -0.051124  -0.001502   0.424115   0.531984  -0.037747   0.003850
    11  C   -0.036893   0.003298   0.334087  -0.037747   5.096067   0.395719
    12  H   -0.001654  -0.000129  -0.032938   0.003850   0.395719   0.470128
    13  H    0.003798  -0.000081  -0.037358  -0.003819   0.374504  -0.027528
    14  H   -0.002769  -0.000062  -0.031259  -0.003327   0.396401  -0.019912
    15  C   -0.058982   0.000652   0.368740  -0.063754  -0.044855  -0.003744
    16  O   -0.009552   0.007052  -0.073925   0.001151  -0.000394   0.000591
    17  N    0.003696   0.000285  -0.121568   0.006708   0.002947   0.000513
    18  H    0.000092  -0.000014   0.000534   0.000577   0.000548  -0.000045
    19  C   -0.000103  -0.000010   0.004139  -0.000207  -0.000194  -0.000027
    20  H    0.000001   0.000002  -0.000035  -0.000016  -0.000002   0.000000
    21  H    0.000001   0.000000   0.000015  -0.000008  -0.000004   0.000000
    22  H   -0.000001  -0.000001   0.000031   0.000002  -0.000010   0.000004
             13         14         15         16         17         18
     1  H    0.000000   0.000000  -0.000001   0.000000   0.000000   0.000000
     2  C    0.000011  -0.000025  -0.000172  -0.000308   0.000000   0.000000
     3  H    0.000000  -0.000003  -0.000003   0.000001   0.000000   0.000000
     4  H    0.000000   0.000001   0.000073   0.000291   0.000000   0.000000
     5  C    0.000166   0.000081   0.000004   0.003543   0.000075  -0.000006
     6  O    0.000804   0.000075  -0.000289  -0.000060  -0.000002   0.000000
     7  N    0.003798  -0.002769  -0.058982  -0.009552   0.003696   0.000092
     8  H   -0.000081  -0.000062   0.000652   0.007052   0.000285  -0.000014
     9  C   -0.037358  -0.031259   0.368740  -0.073925  -0.121568   0.000534
    10  H   -0.003819  -0.003327  -0.063754   0.001151   0.006708   0.000577
    11  C    0.374504   0.396401  -0.044855  -0.000394   0.002947   0.000548
    12  H   -0.027528  -0.019912  -0.003744   0.000591   0.000513  -0.000045
    13  H    0.579286  -0.026702  -0.006093  -0.000010   0.001402   0.002257
    14  H   -0.026702   0.476560   0.004148  -0.000054  -0.000066  -0.000031
    15  C   -0.006093   0.004148   4.223849   0.623908   0.257334  -0.022534
    16  O   -0.000010  -0.000054   0.623908   8.153956  -0.109814   0.002603
    17  N    0.001402  -0.000066   0.257334  -0.109814   7.355343   0.327789
    18  H    0.002257  -0.000031  -0.022534   0.002603   0.327789   0.323990
    19  C    0.000021   0.000004  -0.027452   0.008259   0.197542  -0.023094
    20  H    0.000000   0.000000  -0.003774   0.003510  -0.040216   0.002489
    21  H   -0.000003   0.000000   0.004335   0.000377  -0.037576  -0.004546
    22  H    0.000002  -0.000001  -0.002832   0.001223  -0.047191   0.001483
             19         20         21         22
     1  H    0.000000   0.000000   0.000000   0.000000
     2  C    0.000000   0.000000   0.000000   0.000000
     3  H    0.000000   0.000000   0.000000   0.000000
     4  H    0.000000   0.000000   0.000000   0.000000
     5  C   -0.000001   0.000000   0.000000   0.000000
     6  O    0.000000   0.000000   0.000000   0.000000
     7  N   -0.000103   0.000001   0.000001  -0.000001
     8  H   -0.000010   0.000002   0.000000  -0.000001
     9  C    0.004139  -0.000035   0.000015   0.000031
    10  H   -0.000207  -0.000016  -0.000008   0.000002
    11  C   -0.000194  -0.000002  -0.000004  -0.000010
    12  H   -0.000027   0.000000   0.000000   0.000004
    13  H    0.000021   0.000000  -0.000003   0.000002
    14  H    0.000004   0.000000   0.000000  -0.000001
    15  C   -0.027452  -0.003774   0.004335  -0.002832
    16  O    0.008259   0.003510   0.000377   0.001223
    17  N    0.197542  -0.040216  -0.037576  -0.047191
    18  H   -0.023094   0.002489  -0.004546   0.001483
    19  C    4.902829   0.404327   0.397253   0.406759
    20  H    0.404327   0.491193  -0.025124  -0.033353
    21  H    0.397253  -0.025124   0.528351  -0.031432
    22  H    0.406759  -0.033353  -0.031432   0.522620
 Mulliken atomic charges:
              1
     1  H    0.211742
     2  C   -0.595870
     3  H    0.179047
     4  H    0.204401
     5  C    0.751758
     6  O   -0.602425
     7  N   -0.786997
     8  H    0.386890
     9  C   -0.036105
    10  H    0.192049
    11  C   -0.476219
    12  H    0.213632
    13  H    0.139344
    14  H    0.206941
    15  C    0.751440
    16  O   -0.612347
    17  N   -0.797202
    18  H    0.387907
    19  C   -0.270044
    20  H    0.200998
    21  H    0.168363
    22  H    0.182697
 Sum of Mulliken atomic charges =   0.00000
 Mulliken charges with hydrogens summed into heavy atoms:
              1
     2  C   -0.000680
     5  C    0.751758
     6  O   -0.602425
     7  N   -0.400107
     9  C    0.155944
    11  C    0.083699
    15  C    0.751440
    16  O   -0.612347
    17  N   -0.409295
    19  C    0.282014
 Sum of Mulliken charges with hydrogens summed into heavy atoms =   0.00000
 Electronic spatial extent (au):  <R**2>=           1864.9003
 Charge=              0.0000 electrons
 Dipole moment (field-independent basis, Debye):
    X=             -3.1319    Y=              0.4851    Z=              3.1157  Tot=              4.4443
 Quadrupole moment (field-independent basis, Debye-Ang):
   XX=            -53.8568   YY=            -61.5368   ZZ=            -61.5445
   XY=            -10.6459   XZ=              3.2009   YZ=              0.1632
 Traceless Quadrupole moment (field-independent basis, Debye-Ang):
   XX=              5.1225   YY=             -2.5574   ZZ=             -2.5651
   XY=            -10.6459   XZ=              3.2009   YZ=              0.1632
 Octapole moment (field-independent basis, Debye-Ang**2):
  XXX=            -39.5989  YYY=              3.1037  ZZZ=             -0.8601  XYY=             -1.2633
  XXY=            -14.9841  XXZ=              9.2890  XZZ=             -4.0253  YZZ=             -2.8870
  YYZ=              6.2297  XYZ=              2.2558
 Hexadecapole moment (field-independent basis, Debye-Ang**3):
 XXXX=          -1655.0105 YYYY=           -456.7110 ZZZZ=           -157.8492 XXXY=            -41.6440
 XXXZ=             21.5175 YYYX=             -4.1459 YYYZ=             -1.0485 ZZZX=              2.3807
 ZZZY=             -2.8802 XXYY=           -369.4881 XXZZ=           -339.5723 YYZZ=           -101.0651
 XXYZ=             19.9810 YYXZ=             -2.9050 ZZXY=             -6.4300
 N-N= 5.582313285070D+02 E-N=-2.271966664106D+03  KE= 4.921133757887D+02
 1\1\GINC-RODAN\FOpt\RHF\6-31G(d)\C6H12N2O2\STEBOSS\09-Feb-2017\0\\# HF
 /6-31G* Opt=(ModRedundant) geom=nocrowd\\Phi Psi fixed scan\\0,1\H,1.2
 516089706,2.2601267587,-1.7111047911\C,1.5940462617,2.9319759445,-0.93
 81525031\H,1.4364327214,2.4800132265,0.0351609871\H,1.0150373948,3.849
 3742692,-0.9834587933\C,3.0562309068,3.2507304401,-1.1784838672\O,3.59
 71734727,2.9815208564,-2.2130654426\N,3.6650252944,3.8413856682,-0.111
 0259591\H,3.0354567287,4.1613327603,0.5906574056\C,4.9336994929,4.5394
 860514,-0.0797148642\H,5.4176551223,4.2619305712,0.8541285441\C,5.9065
 727589,4.1936015747,-1.2136373796\H,5.5589234516,4.5520690181,-2.17000
 49134\H,6.8728330751,4.6390515548,-1.0001067726\H,6.0365784339,3.12399
 15445,-1.284980913\C,4.6686917363,6.0516762168,0.0060675665\O,3.578357
 1523,6.5197989589,-0.1776616736\N,5.7306334749,6.8071863357,0.35788087
 73\H,6.6273778421,6.3855096439,0.4202788898\C,5.6440240263,8.251645633
 4,0.4154853049\H,4.7940210175,8.5465486668,1.0138121895\H,6.5466245206
 ,8.6343719558,0.8728256551\H,5.5358961442,8.6874723499,-0.5712995474\\
 Version=EM64L-G09RevA.02\State=1-A\HF=-492.847819\RMSD=4.941e-09\RMSF=
 4.500e-04\Dipole=0.9633281,0.4144788,1.3991192\Quadrupole=6.240256,-2.
 0609718,-4.1792843,6.2187233,0.3341505,-3.1767465\PG=C01 [X(C6H12N2O2)
 ]\\@


 CHINESE FORTUNE COOKIE OF JAN 1 1967 SAY....
 ALL THINGS ARE DIFFICULT BEFORE THEY ARE EASY.
 WE LEARN SO LITTLE AND FORGET SO MUCH.
 YOU WILL OVERCOME OBSTACLES TO ACHIEVE SUCCESS.
 AH SO.
 Job cpu time:  0 days  0 hours 41 minutes 55.9 seconds.
 File lengths (MBytes):  RWF=     25 Int=      0 D2E=      0 Chk=      3 Scr=      1
 Normal termination of Gaussian 09 at Thu Feb  9 22:29:36 2017.
