 Entering Gaussian System, Link 0=g09
 Initial command:
 /home/steboss/Software/g09/l1.exe /tmp/Gau-32217.inp -scrdir=/tmp/
 Entering Link 1 = /home/steboss/Software/g09/l1.exe PID=     32219.
  
 Copyright (c) 1988,1990,1992,1993,1995,1998,2003,2009, Gaussian, Inc.
                  All Rights Reserved.
  
 This is part of the Gaussian(R) 09 program.  It is based on
 the Gaussian(R) 03 system (copyright 2003, Gaussian, Inc.),
 the Gaussian(R) 98 system (copyright 1998, Gaussian, Inc.),
 the Gaussian(R) 94 system (copyright 1995, Gaussian, Inc.),
 the Gaussian 92(TM) system (copyright 1992, Gaussian, Inc.),
 the Gaussian 90(TM) system (copyright 1990, Gaussian, Inc.),
 the Gaussian 88(TM) system (copyright 1988, Gaussian, Inc.),
 the Gaussian 86(TM) system (copyright 1986, Carnegie Mellon
 University), and the Gaussian 82(TM) system (copyright 1983,
 Carnegie Mellon University). Gaussian is a federally registered
 trademark of Gaussian, Inc.
  
 This software contains proprietary and confidential information,
 including trade secrets, belonging to Gaussian, Inc.
  
 This software is provided under written license and may be
 used, copied, transmitted, or stored only in accord with that
 written license.
  
 The following legend is applicable only to US Government
 contracts under FAR:
  
                    RESTRICTED RIGHTS LEGEND
  
 Use, reproduction and disclosure by the US Government is
 subject to restrictions as set forth in subparagraphs (a)
 and (c) of the Commercial Computer Software - Restricted
 Rights clause in FAR 52.227-19.
  
 Gaussian, Inc.
 340 Quinnipiac St., Bldg. 40, Wallingford CT 06492
  
  
 ---------------------------------------------------------------
 Warning -- This program may not be used in any manner that
 competes with the business of Gaussian, Inc. or will provide
 assistance to any competitor of Gaussian, Inc.  The licensee
 of this program is prohibited from giving any competitor of
 Gaussian, Inc. access to this program.  By using this program,
 the user acknowledges that Gaussian, Inc. is engaged in the
 business of creating and licensing software in the field of
 computational chemistry and represents and warrants to the
 licensee that it is not a competitor of Gaussian, Inc. and that
 it will not use this program in any manner prohibited above.
 ---------------------------------------------------------------
  

 Cite this work as:
 Gaussian 09, Revision A.02,
 M. J. Frisch, G. W. Trucks, H. B. Schlegel, G. E. Scuseria, 
 M. A. Robb, J. R. Cheeseman, G. Scalmani, V. Barone, B. Mennucci, 
 G. A. Petersson, H. Nakatsuji, M. Caricato, X. Li, H. P. Hratchian, 
 A. F. Izmaylov, J. Bloino, G. Zheng, J. L. Sonnenberg, M. Hada, 
 M. Ehara, K. Toyota, R. Fukuda, J. Hasegawa, M. Ishida, T. Nakajima, 
 Y. Honda, O. Kitao, H. Nakai, T. Vreven, J. A. Montgomery, Jr., 
 J. E. Peralta, F. Ogliaro, M. Bearpark, J. J. Heyd, E. Brothers, 
 K. N. Kudin, V. N. Staroverov, R. Kobayashi, J. Normand, 
 K. Raghavachari, A. Rendell, J. C. Burant, S. S. Iyengar, J. Tomasi, 
 M. Cossi, N. Rega, J. M. Millam, M. Klene, J. E. Knox, J. B. Cross, 
 V. Bakken, C. Adamo, J. Jaramillo, R. Gomperts, R. E. Stratmann, 
 O. Yazyev, A. J. Austin, R. Cammi, C. Pomelli, J. W. Ochterski, 
 R. L. Martin, K. Morokuma, V. G. Zakrzewski, G. A. Voth, 
 P. Salvador, J. J. Dannenberg, S. Dapprich, A. D. Daniels, 
 O. Farkas, J. B. Foresman, J. V. Ortiz, J. Cioslowski, 
 and D. J. Fox, Gaussian, Inc., Wallingford CT, 2009.
 
 ******************************************
 Gaussian 09:  EM64L-G09RevA.02 11-Jun-2009
                 9-Feb-2017 
 ******************************************
 %chk=structure_210.chk
 %NProcShared=8
 Will use up to    8 processors via shared memory.
 -------------------------------------------
 # HF/6-31G* Opt=(ModRedundant) geom=nocrowd
 -------------------------------------------
 1/18=120,19=15,38=1/1,3;
 2/9=110,12=1,17=6,18=5,40=1/2;
 3/5=1,6=6,7=1,11=9,16=1,25=1,30=1,71=1/1,2,3;
 4//1;
 5/5=2,38=5/2;
 6/7=2,8=2,9=2,10=2,28=1/1;
 7//1,2,3,16;
 1/18=20,19=15/3(2);
 2/9=110,12=1/2;
 99//99;
 2/9=110,12=1/2;
 3/5=1,6=6,7=1,11=9,16=1,25=1,30=1,71=1/1,2,3;
 4/5=5,16=3/1;
 5/5=2,38=5/2;
 7//1,2,3,16;
 1/18=20,19=15/3(-5);
 2/9=110,12=1/2;
 6/7=2,8=2,9=2,10=2,19=2,28=1/1;
 99/9=1/99;
 ------------------
 Phi Psi fixed scan
 ------------------
 Symbolic Z-matrix:
 Charge =  0 Multiplicity = 1
 H                     1.3513    2.3068   -1.9013 
 C                     1.6731    2.7486   -0.9582 
 H                     1.7242    1.9746   -0.1925 
 H                     0.9598    3.5143   -0.6531 
 C                     3.0539    3.3932   -1.0948 
 O                     3.6506    3.3681   -2.1689 
 N                     3.5554    3.9697    0. 
 H                     3.0267    3.9647    0.8606 
 C                     4.8533    4.6139    0. 
 H                     5.4076    4.3155    0.8898 
 C                     5.6613    4.2208   -1.2322 
 H                     5.1233    4.5214   -2.1312 
 H                     6.6305    4.7189   -1.2058 
 H                     5.8085    3.1409   -1.2414 
 C                     4.7127    6.1294    0. 
 O                     3.7419    6.6658    0.5295 
 N                     5.6868    6.8201   -0.5968 
 H                     6.4653    6.334    -1.0185 
 C                     5.669     8.2675   -0.6638 
 H                     4.7735    8.6435   -0.169 
 H                     6.553     8.6657   -0.1657 
 H                     5.667     8.5835   -1.7069 
 
 The following ModRedundant input section has been read:
 D    5    7    9   15 F                                                       
 D    7    9   15   17 F                                                       

 GradGradGradGradGradGradGradGradGradGradGradGradGradGradGradGradGradGrad
 Berny optimization.
 Initialization pass.
                           ----------------------------
                           !    Initial Parameters    !
                           ! (Angstroms and Degrees)  !
 --------------------------                            --------------------------
 ! Name  Definition              Value          Derivative Info.                !
 --------------------------------------------------------------------------------
 ! R1    R(1,2)                  1.09           estimate D2E/DX2                !
 ! R2    R(2,3)                  1.0899         estimate D2E/DX2                !
 ! R3    R(2,4)                  1.09           estimate D2E/DX2                !
 ! R4    R(2,5)                  1.53           estimate D2E/DX2                !
 ! R5    R(5,6)                  1.229          estimate D2E/DX2                !
 ! R6    R(5,7)                  1.3351         estimate D2E/DX2                !
 ! R7    R(7,8)                  1.01           estimate D2E/DX2                !
 ! R8    R(7,9)                  1.449          estimate D2E/DX2                !
 ! R9    R(9,10)                 1.09           estimate D2E/DX2                !
 ! R10   R(9,11)                 1.525          estimate D2E/DX2                !
 ! R11   R(9,15)                 1.522          estimate D2E/DX2                !
 ! R12   R(11,12)                1.09           estimate D2E/DX2                !
 ! R13   R(11,13)                1.09           estimate D2E/DX2                !
 ! R14   R(11,14)                1.0899         estimate D2E/DX2                !
 ! R15   R(15,16)                1.229          estimate D2E/DX2                !
 ! R16   R(15,17)                1.335          estimate D2E/DX2                !
 ! R17   R(17,18)                1.01           estimate D2E/DX2                !
 ! R18   R(17,19)                1.4491         estimate D2E/DX2                !
 ! R19   R(19,20)                1.09           estimate D2E/DX2                !
 ! R20   R(19,21)                1.09           estimate D2E/DX2                !
 ! R21   R(19,22)                1.0899         estimate D2E/DX2                !
 ! A1    A(1,2,3)              109.5017         estimate D2E/DX2                !
 ! A2    A(1,2,4)              109.493          estimate D2E/DX2                !
 ! A3    A(1,2,5)              111.0973         estimate D2E/DX2                !
 ! A4    A(3,2,4)              109.4436         estimate D2E/DX2                !
 ! A5    A(3,2,5)              108.6387         estimate D2E/DX2                !
 ! A6    A(4,2,5)              108.6398         estimate D2E/DX2                !
 ! A7    A(2,5,6)              120.5054         estimate D2E/DX2                !
 ! A8    A(2,5,7)              116.5979         estimate D2E/DX2                !
 ! A9    A(6,5,7)              122.8967         estimate D2E/DX2                !
 ! A10   A(5,7,8)              119.9959         estimate D2E/DX2                !
 ! A11   A(5,7,9)              121.9004         estimate D2E/DX2                !
 ! A12   A(8,7,9)              118.1037         estimate D2E/DX2                !
 ! A13   A(7,9,10)             109.5            estimate D2E/DX2                !
 ! A14   A(7,9,11)             111.0992         estimate D2E/DX2                !
 ! A15   A(7,9,15)             111.0966         estimate D2E/DX2                !
 ! A16   A(10,9,11)            108.6382         estimate D2E/DX2                !
 ! A17   A(10,9,15)            108.6373         estimate D2E/DX2                !
 ! A18   A(11,9,15)            107.7947         estimate D2E/DX2                !
 ! A19   A(9,11,12)            109.5007         estimate D2E/DX2                !
 ! A20   A(9,11,13)            109.4959         estimate D2E/DX2                !
 ! A21   A(9,11,14)            109.4978         estimate D2E/DX2                !
 ! A22   A(12,11,13)           109.441          estimate D2E/DX2                !
 ! A23   A(12,11,14)           109.4482         estimate D2E/DX2                !
 ! A24   A(13,11,14)           109.4436         estimate D2E/DX2                !
 ! A25   A(9,15,16)            120.5            estimate D2E/DX2                !
 ! A26   A(9,15,17)            116.6011         estimate D2E/DX2                !
 ! A27   A(16,15,17)           122.8989         estimate D2E/DX2                !
 ! A28   A(15,17,18)           120.0038         estimate D2E/DX2                !
 ! A29   A(15,17,19)           121.9048         estimate D2E/DX2                !
 ! A30   A(18,17,19)           118.0914         estimate D2E/DX2                !
 ! A31   A(17,19,20)           109.491          estimate D2E/DX2                !
 ! A32   A(17,19,21)           109.5001         estimate D2E/DX2                !
 ! A33   A(17,19,22)           109.504          estimate D2E/DX2                !
 ! A34   A(20,19,21)           109.4404         estimate D2E/DX2                !
 ! A35   A(20,19,22)           109.4463         estimate D2E/DX2                !
 ! A36   A(21,19,22)           109.4456         estimate D2E/DX2                !
 ! D1    D(1,2,5,6)             -0.0038         estimate D2E/DX2                !
 ! D2    D(1,2,5,7)            179.9948         estimate D2E/DX2                !
 ! D3    D(3,2,5,6)            120.5106         estimate D2E/DX2                !
 ! D4    D(3,2,5,7)            -59.4908         estimate D2E/DX2                !
 ! D5    D(4,2,5,6)           -120.5082         estimate D2E/DX2                !
 ! D6    D(4,2,5,7)             59.4904         estimate D2E/DX2                !
 ! D7    D(2,5,7,8)              0.0007         estimate D2E/DX2                !
 ! D8    D(2,5,7,9)            179.9954         estimate D2E/DX2                !
 ! D9    D(6,5,7,8)            179.9993         estimate D2E/DX2                !
 ! D10   D(6,5,7,9)             -0.006          estimate D2E/DX2                !
 ! D11   D(5,7,9,10)          -134.9963         estimate D2E/DX2                !
 ! D12   D(5,7,9,11)           -14.9937         estimate D2E/DX2                !
 ! D13   D(5,7,9,15)           105.0038         Frozen                          !
 ! D14   D(8,7,9,10)            44.9985         estimate D2E/DX2                !
 ! D15   D(8,7,9,11)           165.0011         estimate D2E/DX2                !
 ! D16   D(8,7,9,15)           -75.0013         estimate D2E/DX2                !
 ! D17   D(7,9,11,12)           60.0024         estimate D2E/DX2                !
 ! D18   D(7,9,11,13)          179.9986         estimate D2E/DX2                !
 ! D19   D(7,9,11,14)          -60.0038         estimate D2E/DX2                !
 ! D20   D(10,9,11,12)        -179.4843         estimate D2E/DX2                !
 ! D21   D(10,9,11,13)         -59.4881         estimate D2E/DX2                !
 ! D22   D(10,9,11,14)          60.5095         estimate D2E/DX2                !
 ! D23   D(15,9,11,12)         -61.938          estimate D2E/DX2                !
 ! D24   D(15,9,11,13)          58.0582         estimate D2E/DX2                !
 ! D25   D(15,9,11,14)         178.0558         estimate D2E/DX2                !
 ! D26   D(7,9,15,16)           30.0006         estimate D2E/DX2                !
 ! D27   D(7,9,15,17)         -150.0013         Frozen                          !
 ! D28   D(10,9,15,16)         -90.5105         estimate D2E/DX2                !
 ! D29   D(10,9,15,17)          89.4877         estimate D2E/DX2                !
 ! D30   D(11,9,15,16)         151.9427         estimate D2E/DX2                !
 ! D31   D(11,9,15,17)         -28.0592         estimate D2E/DX2                !
 ! D32   D(9,15,17,18)           0.0058         estimate D2E/DX2                !
 ! D33   D(9,15,17,19)         179.9984         estimate D2E/DX2                !
 ! D34   D(16,15,17,18)       -179.9962         estimate D2E/DX2                !
 ! D35   D(16,15,17,19)         -0.0036         estimate D2E/DX2                !
 ! D36   D(15,17,19,20)          0.0048         estimate D2E/DX2                !
 ! D37   D(15,17,19,21)        119.9969         estimate D2E/DX2                !
 ! D38   D(15,17,19,22)       -119.9968         estimate D2E/DX2                !
 ! D39   D(18,17,19,20)        179.9976         estimate D2E/DX2                !
 ! D40   D(18,17,19,21)        -60.0103         estimate D2E/DX2                !
 ! D41   D(18,17,19,22)         59.996          estimate D2E/DX2                !
 --------------------------------------------------------------------------------
 Trust Radius=3.00D-01 FncErr=1.00D-07 GrdErr=1.00D-07
 Number of steps in this run= 108 maximum allowed number of steps= 132.
 GradGradGradGradGradGradGradGradGradGradGradGradGradGradGradGradGradGrad

                          Input orientation:                          
 ---------------------------------------------------------------------
 Center     Atomic      Atomic             Coordinates (Angstroms)
 Number     Number       Type             X           Y           Z
 ---------------------------------------------------------------------
      1          1           0        1.351300    2.306800   -1.901300
      2          6           0        1.673100    2.748600   -0.958200
      3          1           0        1.724200    1.974600   -0.192500
      4          1           0        0.959800    3.514300   -0.653100
      5          6           0        3.053900    3.393200   -1.094800
      6          8           0        3.650600    3.368100   -2.168900
      7          7           0        3.555400    3.969700    0.000000
      8          1           0        3.026700    3.964700    0.860600
      9          6           0        4.853300    4.613900    0.000000
     10          1           0        5.407600    4.315500    0.889800
     11          6           0        5.661300    4.220800   -1.232200
     12          1           0        5.123300    4.521400   -2.131200
     13          1           0        6.630500    4.718900   -1.205800
     14          1           0        5.808500    3.140900   -1.241400
     15          6           0        4.712700    6.129400    0.000000
     16          8           0        3.741900    6.665800    0.529500
     17          7           0        5.686800    6.820100   -0.596800
     18          1           0        6.465300    6.334000   -1.018500
     19          6           0        5.669000    8.267500   -0.663800
     20          1           0        4.773500    8.643500   -0.169000
     21          1           0        6.553000    8.665700   -0.165700
     22          1           0        5.667000    8.583500   -1.706900
 ---------------------------------------------------------------------
                    Distance matrix (angstroms):
                    1          2          3          4          5
     1  H    0.000000
     2  C    1.090037   0.000000
     3  H    1.780283   1.089947   0.000000
     4  H    1.780262   1.090036   1.779645   0.000000
     5  C    2.174754   1.529960   2.143519   2.143600   0.000000
     6  O    2.546517   2.400017   3.091766   3.091833   1.228972
     7  N    3.352348   2.439731   2.714917   2.714971   1.335081
     8  H    3.630935   2.572774   2.601158   2.601197   2.037386
     9  C    4.604526   3.809352   4.098076   4.098171   2.434448
    10  H    5.317771   4.451603   4.496512   4.775499   3.213904
    11  C    4.763107   4.260069   4.650500   4.789426   2.739039
    12  H    4.380102   4.052484   4.668900   4.531419   2.574758
    13  H    5.845674   5.340337   5.712245   5.823519   3.816002
    14  H    4.582338   4.163608   4.375152   4.898512   2.770012
    15  C    5.433804   4.646195   5.121577   4.620557   3.381863
    16  O    5.533953   4.673076   5.157495   4.366987   3.717742
    17  N    6.392821   5.728657   6.272522   5.768536   4.350151
    18  H    6.568917   5.985308   6.493433   6.196350   4.504639
    19  C    7.463503   6.819981   7.442054   6.691008   5.548271
    20  H    7.407164   6.707098   7.333008   6.409942   5.601766
    21  H    8.396761   7.710613   8.251597   7.619604   6.395794
    22  H    7.619713   7.110404   7.843254   6.997501   5.843130
                    6          7          8          9         10
     6  O    0.000000
     7  N    2.252801   0.000000
     8  H    3.150088   1.010040   0.000000
     9  C    2.775362   1.448978   2.120981   0.000000
    10  H    3.652432   2.083739   2.406782   1.089970   0.000000
    11  C    2.376430   2.452791   3.374391   1.525027   2.139209
    12  H    1.870927   2.702720   3.695472   2.150225   3.041326
    13  H    3.410576   3.386959   4.222109   2.150214   2.459625
    14  H    2.359748   2.702673   3.582661   2.150165   2.466256
    15  C    3.668373   2.450234   2.875614   1.522008   2.136554
    16  O    4.261986   2.753926   2.813731   2.392880   2.903150
    17  N    4.305103   3.608852   4.165748   2.432737   2.925911
    18  H    4.247649   3.885199   4.579145   2.568001   2.972319
    19  C    5.508483   4.835186   5.274432   3.801946   4.254446
    20  H    5.752421   4.832881   5.099270   4.033932   4.500525
    21  H    6.364063   5.573641   5.965525   4.396990   4.620634
    22  H    5.610678   5.353458   5.907331   4.396969   5.002596
                   11         12         13         14         15
    11  C    0.000000
    12  H    1.089957   0.000000
    13  H    1.090023   1.779613   0.000000
    14  H    1.089925   1.779613   1.779617   0.000000
    15  C    2.461892   2.701161   2.668599   3.416575   0.000000
    16  O    3.572913   3.685925   3.891747   4.453296   1.229043
    17  N    2.675957   2.820627   2.382539   3.737223   1.334956
    18  H    2.271057   2.514873   1.634295   3.267562   2.037354
    19  C    4.086431   4.060088   3.716290   5.160921   2.434463
    20  H    4.634529   4.578679   4.463842   5.700866   2.520507
    21  H    4.657219   4.804420   4.082284   5.677572   3.137990
    22  H    4.388453   4.120230   4.014295   5.464303   3.137962
                   16         17         18         19         20
    16  O    0.000000
    17  N    2.252775   0.000000
    18  H    3.150127   1.010043   0.000000
    19  C    2.775450   1.449059   2.120926   0.000000
    20  H    2.337391   2.083727   2.986240   1.090011   0.000000
    21  H    3.519259   2.083840   2.484308   1.090010   1.779642
    22  H    3.519243   2.083817   2.484236   1.089916   1.779629
                   21         22
    21  H    0.000000
    22  H    1.779621   0.000000
 Stoichiometry    C6H12N2O2
 Framework group  C1[X(C6H12N2O2)]
 Deg. of freedom    60
 Full point group                 C1      NOp   1
 Largest Abelian subgroup         C1      NOp   1
 Largest concise Abelian subgroup C1      NOp   1
                         Standard orientation:                         
 ---------------------------------------------------------------------
 Center     Atomic      Atomic             Coordinates (Angstroms)
 Number     Number       Type             X           Y           Z
 ---------------------------------------------------------------------
      1          1           0        3.993698   -0.405581   -1.139868
      2          6           0        3.324243   -0.853181   -0.405250
      3          1           0        3.838225   -0.936496    0.552281
      4          1           0        3.024026   -1.844991   -0.743425
      5          6           0        2.068186   -0.000938   -0.213465
      6          8           0        1.917697    1.040203   -0.848879
      7          7           0        1.169672   -0.450008    0.665995
      8          1           0        1.338209   -1.312122    1.164530
      9          6           0       -0.060505    0.266000    0.937167
     10          1           0       -0.228936    0.305346    2.013326
     11          6           0        0.005033    1.692399    0.401631
     12          1           0        0.164189    1.669351   -0.676396
     13          1           0       -0.931435    2.206051    0.619206
     14          1           0        0.829059    2.222652    0.878863
     15          6           0       -1.250355   -0.422063    0.283458
     16          8           0       -1.252498   -1.639737    0.116683
     17          7           0       -2.264930    0.362359   -0.087253
     18          1           0       -2.216911    1.358783    0.070928
     19          6           0       -3.454298   -0.171568   -0.719785
     20          1           0       -3.357999   -1.252533   -0.821582
     21          1           0       -4.326457    0.058938   -0.107962
     22          1           0       -3.574273    0.276518   -1.706063
 ---------------------------------------------------------------------
 Rotational constants (GHZ):      2.7075849      0.7590616      0.6769437
 Standard basis: 6-31G(d) (6D, 7F)
 There are   174 symmetry adapted basis functions of A   symmetry.
 Integral buffers will be    131072 words long.
 Raffenetti 1 integral format.
 Two-electron integral symmetry is turned on.
   174 basis functions,   328 primitive gaussians,   174 cartesian basis functions
    39 alpha electrons       39 beta electrons
       nuclear repulsion energy       565.3608861826 Hartrees.
 NAtoms=   22 NActive=   22 NUniq=   22 SFac= 7.50D-01 NAtFMM=   80 NAOKFM=F Big=F
 One-electron integrals computed using PRISM.
 NBasis=   174 RedAO= T  NBF=   174
 NBsUse=   174 1.00D-06 NBFU=   174
 Harris functional with IExCor=  205 diagonalized for initial guess.
 ExpMin= 1.61D-01 ExpMax= 5.48D+03 ExpMxC= 8.25D+02 IAcc=1 IRadAn=         1 AccDes= 0.00D+00
 HarFok:  IExCor=  205 AccDes= 0.00D+00 IRadAn=         1 IDoV= 1
 ScaDFX=  1.000000  1.000000  1.000000  1.000000
 FoFCou: FMM=F IPFlag=           0 FMFlag=      100000 FMFlg1=           0
         NFxFlg=           0 DoJE=T BraDBF=F KetDBF=T FulRan=T
         Omega=  0.000000  0.000000  1.000000  0.000000  0.000000 ICntrl=     500 IOpCl=  0
         NMat0=    1 NMatS0=    1 NMatT0=    0 NMatD0=    1 NMtDS0=    0 NMtDT0=    0
         I1Cent=           4 NGrid=           0.
 Petite list used in FoFCou.
 Initial guess orbital symmetries:
       Occupied  (A) (A) (A) (A) (A) (A) (A) (A) (A) (A) (A) (A)
                 (A) (A) (A) (A) (A) (A) (A) (A) (A) (A) (A) (A)
                 (A) (A) (A) (A) (A) (A) (A) (A) (A) (A) (A) (A)
                 (A) (A) (A)
       Virtual   (A) (A) (A) (A) (A) (A) (A) (A) (A) (A) (A) (A)
                 (A) (A) (A) (A) (A) (A) (A) (A) (A) (A) (A) (A)
                 (A) (A) (A) (A) (A) (A) (A) (A) (A) (A) (A) (A)
                 (A) (A) (A) (A) (A) (A) (A) (A) (A) (A) (A) (A)
                 (A) (A) (A) (A) (A) (A) (A) (A) (A) (A) (A) (A)
                 (A) (A) (A) (A) (A) (A) (A) (A) (A) (A) (A) (A)
                 (A) (A) (A) (A) (A) (A) (A) (A) (A) (A) (A) (A)
                 (A) (A) (A) (A) (A) (A) (A) (A) (A) (A) (A) (A)
                 (A) (A) (A) (A) (A) (A) (A) (A) (A) (A) (A) (A)
                 (A) (A) (A) (A) (A) (A) (A) (A) (A) (A) (A) (A)
                 (A) (A) (A) (A) (A) (A) (A) (A) (A) (A) (A) (A)
                 (A) (A) (A)
 The electronic state of the initial guess is 1-A.
 Requested convergence on RMS density matrix=1.00D-08 within 128 cycles.
 Requested convergence on MAX density matrix=1.00D-06.
 Requested convergence on             energy=1.00D-06.
 No special actions if energy rises.
 Integral accuracy reduced to 1.0D-05 until final iterations.
 Initial convergence to 1.0D-05 achieved.  Increase integral accuracy.
 SCF Done:  E(RHF) =  -492.815050465     A.U. after   15 cycles
             Convg  =    0.4502D-08             -V/T =  2.0016

 **********************************************************************

            Population analysis using the SCF density.

 **********************************************************************

 Orbital symmetries:
       Occupied  (A) (A) (A) (A) (A) (A) (A) (A) (A) (A) (A) (A)
                 (A) (A) (A) (A) (A) (A) (A) (A) (A) (A) (A) (A)
                 (A) (A) (A) (A) (A) (A) (A) (A) (A) (A) (A) (A)
                 (A) (A) (A)
       Virtual   (A) (A) (A) (A) (A) (A) (A) (A) (A) (A) (A) (A)
                 (A) (A) (A) (A) (A) (A) (A) (A) (A) (A) (A) (A)
                 (A) (A) (A) (A) (A) (A) (A) (A) (A) (A) (A) (A)
                 (A) (A) (A) (A) (A) (A) (A) (A) (A) (A) (A) (A)
                 (A) (A) (A) (A) (A) (A) (A) (A) (A) (A) (A) (A)
                 (A) (A) (A) (A) (A) (A) (A) (A) (A) (A) (A) (A)
                 (A) (A) (A) (A) (A) (A) (A) (A) (A) (A) (A) (A)
                 (A) (A) (A) (A) (A) (A) (A) (A) (A) (A) (A) (A)
                 (A) (A) (A) (A) (A) (A) (A) (A) (A) (A) (A) (A)
                 (A) (A) (A) (A) (A) (A) (A) (A) (A) (A) (A) (A)
                 (A) (A) (A) (A) (A) (A) (A) (A) (A) (A) (A) (A)
                 (A) (A) (A)
 The electronic state is 1-A.
 Alpha  occ. eigenvalues --  -20.51320 -20.51012 -15.59438 -15.58939 -11.35199
 Alpha  occ. eigenvalues --  -11.34235 -11.28468 -11.25786 -11.23472 -11.21191
 Alpha  occ. eigenvalues --   -1.38090  -1.36893  -1.24004  -1.23366  -1.06211
 Alpha  occ. eigenvalues --   -0.98904  -0.94718  -0.88936  -0.80402  -0.77217
 Alpha  occ. eigenvalues --   -0.73076  -0.70645  -0.64911  -0.63713  -0.61933
 Alpha  occ. eigenvalues --   -0.61623  -0.59288  -0.57283  -0.56075  -0.55782
 Alpha  occ. eigenvalues --   -0.54522  -0.53373  -0.52880  -0.51038  -0.50239
 Alpha  occ. eigenvalues --   -0.42052  -0.39421  -0.38465  -0.38166
 Alpha virt. eigenvalues --    0.19274   0.20250   0.22106   0.23567   0.26663
 Alpha virt. eigenvalues --    0.27348   0.28192   0.31306   0.31418   0.32262
 Alpha virt. eigenvalues --    0.32362   0.33174   0.34514   0.35757   0.37005
 Alpha virt. eigenvalues --    0.40295   0.42306   0.43296   0.49131   0.51219
 Alpha virt. eigenvalues --    0.54341   0.59111   0.62954   0.70465   0.71991
 Alpha virt. eigenvalues --    0.73677   0.75031   0.76044   0.77697   0.80485
 Alpha virt. eigenvalues --    0.81451   0.82369   0.84610   0.90123   0.90813
 Alpha virt. eigenvalues --    0.94082   0.94870   0.95714   0.96271   0.97945
 Alpha virt. eigenvalues --    1.00203   1.01181   1.05764   1.06790   1.09967
 Alpha virt. eigenvalues --    1.11864   1.13668   1.13990   1.14244   1.15903
 Alpha virt. eigenvalues --    1.16605   1.17234   1.18404   1.20868   1.21188
 Alpha virt. eigenvalues --    1.22187   1.22747   1.23714   1.24864   1.28522
 Alpha virt. eigenvalues --    1.30644   1.34712   1.35316   1.39609   1.45332
 Alpha virt. eigenvalues --    1.49254   1.55556   1.57868   1.60380   1.62278
 Alpha virt. eigenvalues --    1.65738   1.66665   1.70852   1.75549   1.76294
 Alpha virt. eigenvalues --    1.79018   1.83620   1.87317   1.94210   1.97648
 Alpha virt. eigenvalues --    2.01023   2.07437   2.09948   2.11361   2.14528
 Alpha virt. eigenvalues --    2.15104   2.16738   2.17655   2.20191   2.22070
 Alpha virt. eigenvalues --    2.25089   2.26918   2.31602   2.32393   2.35306
 Alpha virt. eigenvalues --    2.39696   2.41101   2.44902   2.47478   2.50376
 Alpha virt. eigenvalues --    2.51957   2.58032   2.60517   2.62776   2.63227
 Alpha virt. eigenvalues --    2.65126   2.66893   2.70336   2.74298   2.76384
 Alpha virt. eigenvalues --    2.78653   2.81590   2.88790   2.93184   2.96697
 Alpha virt. eigenvalues --    3.00647   3.03712   3.06580   3.10942   3.25614
 Alpha virt. eigenvalues --    3.30649   3.35937   3.41410   3.53510   3.58795
 Alpha virt. eigenvalues --    4.37647   4.45845   4.49534   4.57337   4.66076
 Alpha virt. eigenvalues --    4.68340   4.70227   4.79586   4.93853   5.10054
          Condensed to atoms (all electrons):
              1          2          3          4          5          6
     1  H    0.456598   0.385226  -0.018826  -0.018056  -0.030339   0.003620
     2  C    0.385226   5.246915   0.373819   0.375361   0.376477  -0.064248
     3  H   -0.018826   0.373819   0.518412  -0.023411  -0.036246   0.001197
     4  H   -0.018056   0.375361  -0.023411   0.500873  -0.034387   0.001102
     5  C   -0.030339   0.376477  -0.036246  -0.034387   4.188959   0.573503
     6  O    0.003620  -0.064248   0.001197   0.001102   0.573503   8.309153
     7  N    0.003800  -0.118940   0.003893   0.003641   0.260218  -0.100335
     8  H   -0.000016  -0.000325   0.000381   0.000472  -0.017389   0.002279
     9  C   -0.000054   0.002542  -0.000003  -0.000180  -0.032356   0.002116
    10  H    0.000001  -0.000077   0.000011  -0.000001   0.001823  -0.000083
    11  C    0.000002  -0.000186  -0.000007   0.000019  -0.002546  -0.063301
    12  H    0.000011  -0.000042   0.000008  -0.000013  -0.001223  -0.017786
    13  H    0.000000   0.000024  -0.000001   0.000000   0.000302   0.004170
    14  H    0.000005  -0.000168   0.000007   0.000002   0.000039  -0.006560
    15  C    0.000000  -0.000138   0.000003   0.000029  -0.000064  -0.000475
    16  O    0.000000  -0.000038   0.000000   0.000018   0.001166  -0.000016
    17  N    0.000000   0.000001   0.000000   0.000000   0.000172  -0.000020
    18  H    0.000000   0.000000   0.000000   0.000000  -0.000013  -0.000009
    19  C    0.000000   0.000000   0.000000   0.000000  -0.000003   0.000002
    20  H    0.000000   0.000000   0.000000   0.000000  -0.000001   0.000000
    21  H    0.000000   0.000000   0.000000   0.000000   0.000000   0.000000
    22  H    0.000000   0.000000   0.000000   0.000000   0.000000   0.000000
              7          8          9         10         11         12
     1  H    0.003800  -0.000016  -0.000054   0.000001   0.000002   0.000011
     2  C   -0.118940  -0.000325   0.002542  -0.000077  -0.000186  -0.000042
     3  H    0.003893   0.000381  -0.000003   0.000011  -0.000007   0.000008
     4  H    0.003641   0.000472  -0.000180  -0.000001   0.000019  -0.000013
     5  C    0.260218  -0.017389  -0.032356   0.001823  -0.002546  -0.001223
     6  O   -0.100335   0.002279   0.002116  -0.000083  -0.063301  -0.017786
     7  N    7.339836   0.324197   0.209550  -0.041246  -0.046490  -0.001370
     8  H    0.324197   0.306411  -0.022628  -0.001582   0.003030  -0.000147
     9  C    0.209550  -0.022628   5.065867   0.410318   0.333532  -0.036072
    10  H   -0.041246  -0.001582   0.410318   0.501332  -0.034250   0.003439
    11  C   -0.046490   0.003030   0.333532  -0.034250   5.230875   0.406036
    12  H   -0.001370  -0.000147  -0.036072   0.003439   0.406036   0.438308
    13  H    0.004543  -0.000062  -0.034614  -0.003668   0.358853  -0.033392
    14  H   -0.001665  -0.000170  -0.035041  -0.002755   0.400231  -0.014121
    15  C   -0.067894  -0.000059   0.362988  -0.040362  -0.067694  -0.000080
    16  O    0.001053   0.003692  -0.079964   0.000039   0.001870   0.000057
    17  N    0.002369   0.000092  -0.108050   0.001038  -0.008319  -0.000319
    18  H    0.000065  -0.000009  -0.000268   0.000096  -0.001798  -0.000258
    19  C   -0.000101   0.000000   0.003964  -0.000232   0.000137  -0.000201
    20  H   -0.000014  -0.000001   0.000569  -0.000014  -0.000066  -0.000003
    21  H   -0.000001   0.000000  -0.000153   0.000019   0.000028   0.000003
    22  H    0.000005   0.000000   0.000011  -0.000001  -0.000065   0.000012
             13         14         15         16         17         18
     1  H    0.000000   0.000005   0.000000   0.000000   0.000000   0.000000
     2  C    0.000024  -0.000168  -0.000138  -0.000038   0.000001   0.000000
     3  H   -0.000001   0.000007   0.000003   0.000000   0.000000   0.000000
     4  H    0.000000   0.000002   0.000029   0.000018   0.000000   0.000000
     5  C    0.000302   0.000039  -0.000064   0.001166   0.000172  -0.000013
     6  O    0.004170  -0.006560  -0.000475  -0.000016  -0.000020  -0.000009
     7  N    0.004543  -0.001665  -0.067894   0.001053   0.002369   0.000065
     8  H   -0.000062  -0.000170  -0.000059   0.003692   0.000092  -0.000009
     9  C   -0.034614  -0.035041   0.362988  -0.079964  -0.108050  -0.000268
    10  H   -0.003668  -0.002755  -0.040362   0.000039   0.001038   0.000096
    11  C    0.358853   0.400231  -0.067694   0.001870  -0.008319  -0.001798
    12  H   -0.033392  -0.014121  -0.000080   0.000057  -0.000319  -0.000258
    13  H    0.623470  -0.026004  -0.009541  -0.000050  -0.008679   0.005446
    14  H   -0.026004   0.491769   0.004541  -0.000058   0.000352   0.000070
    15  C   -0.009541   0.004541   4.168464   0.603139   0.293264  -0.016899
    16  O   -0.000050  -0.000058   0.603139   8.217027  -0.099986   0.002480
    17  N   -0.008679   0.000352   0.293264  -0.099986   7.355802   0.316451
    18  H    0.005446   0.000070  -0.016899   0.002480   0.316451   0.308807
    19  C    0.000696   0.000002  -0.027702  -0.004958   0.187886  -0.021430
    20  H   -0.000022   0.000001  -0.001963   0.010933  -0.032387   0.002270
    21  H   -0.000035   0.000001   0.001174   0.000372  -0.047613  -0.001296
    22  H    0.000034  -0.000001   0.000783   0.000384  -0.047856  -0.000792
             19         20         21         22
     1  H    0.000000   0.000000   0.000000   0.000000
     2  C    0.000000   0.000000   0.000000   0.000000
     3  H    0.000000   0.000000   0.000000   0.000000
     4  H    0.000000   0.000000   0.000000   0.000000
     5  C   -0.000003  -0.000001   0.000000   0.000000
     6  O    0.000002   0.000000   0.000000   0.000000
     7  N   -0.000101  -0.000014  -0.000001   0.000005
     8  H    0.000000  -0.000001   0.000000   0.000000
     9  C    0.003964   0.000569  -0.000153   0.000011
    10  H   -0.000232  -0.000014   0.000019  -0.000001
    11  C    0.000137  -0.000066   0.000028  -0.000065
    12  H   -0.000201  -0.000003   0.000003   0.000012
    13  H    0.000696  -0.000022  -0.000035   0.000034
    14  H    0.000002   0.000001   0.000001  -0.000001
    15  C   -0.027702  -0.001963   0.001174   0.000783
    16  O   -0.004958   0.010933   0.000372   0.000384
    17  N    0.187886  -0.032387  -0.047613  -0.047856
    18  H   -0.021430   0.002270  -0.001296  -0.000792
    19  C    4.949739   0.396782   0.401729   0.403391
    20  H    0.396782   0.433858  -0.022599  -0.022567
    21  H    0.401729  -0.022599   0.538120  -0.036742
    22  H    0.403391  -0.022567  -0.036742   0.530972
 Mulliken atomic charges:
              1
     1  H    0.218030
     2  C   -0.576202
     3  H    0.180764
     4  H    0.194530
     5  C    0.751910
     6  O   -0.644309
     7  N   -0.775114
     8  H    0.401833
     9  C   -0.042073
    10  H    0.206155
    11  C   -0.509892
    12  H    0.257156
    13  H    0.118531
    14  H    0.189525
    15  C    0.798485
    16  O   -0.657162
    17  N   -0.804199
    18  H    0.407086
    19  C   -0.289702
    20  H    0.235226
    21  H    0.166993
    22  H    0.172431
 Sum of Mulliken atomic charges =   0.00000
 Mulliken charges with hydrogens summed into heavy atoms:
              1
     2  C    0.017121
     5  C    0.751910
     6  O   -0.644309
     7  N   -0.373281
     9  C    0.164082
    11  C    0.055319
    15  C    0.798485
    16  O   -0.657162
    17  N   -0.397113
    19  C    0.284947
 Sum of Mulliken charges with hydrogens summed into heavy atoms =   0.00000
 Electronic spatial extent (au):  <R**2>=           1782.3701
 Charge=              0.0000 electrons
 Dipole moment (field-independent basis, Debye):
    X=             -0.6585    Y=              0.6790    Z=              2.2707  Tot=              2.4598
 Quadrupole moment (field-independent basis, Debye-Ang):
   XX=            -51.3197   YY=            -65.9961   ZZ=            -59.3592
   XY=            -12.2438   XZ=              4.7734   YZ=              1.7258
 Traceless Quadrupole moment (field-independent basis, Debye-Ang):
   XX=              7.5720   YY=             -7.1044   ZZ=             -0.4675
   XY=            -12.2438   XZ=              4.7734   YZ=              1.7258
 Octapole moment (field-independent basis, Debye-Ang**2):
  XXX=            -10.6008  YYY=              4.8576  ZZZ=              3.2566  XYY=              1.5838
  XXY=             -8.4123  XXZ=             -1.7818  XZZ=             -2.2116  YZZ=             -5.4745
  YYZ=              2.9032  XYZ=              1.9995
 Hexadecapole moment (field-independent basis, Debye-Ang**3):
 XXXX=          -1560.6523 YYYY=           -426.7371 ZZZZ=           -197.9414 XXXY=            -26.0806
 XXXZ=             17.6615 YYYX=            -21.7761 YYYZ=             -2.9375 ZZZX=              3.4096
 ZZZY=             -7.2416 XXYY=           -355.2986 XXZZ=           -312.8196 YYZZ=           -100.6591
 XXYZ=             11.4654 YYXZ=             10.5026 ZZXY=             -4.9508
 N-N= 5.653608861826D+02 E-N=-2.286326474600D+03  KE= 4.920203065463D+02
 Calling FoFJK, ICntrl=      2127 FMM=F ISym2X=0 I1Cent= 0 IOpClX= 0 NMat=1 NMatS=1 NMatT=0.
 ***** Axes restored to original set *****
 -------------------------------------------------------------------
 Center     Atomic                   Forces (Hartrees/Bohr)
 Number     Number              X              Y              Z
 -------------------------------------------------------------------
      1        1           0.006277162    0.004644844    0.005649103
      2        6           0.006945977    0.004558871    0.004881452
      3        1          -0.004329936    0.002304723   -0.001502574
      4        1           0.000028245   -0.004956590    0.000593657
      5        6          -0.002695002   -0.013471676   -0.052105062
      6        8          -0.054334685   -0.014991339    0.027421982
      7        7           0.004675960   -0.000797268    0.020800292
      8        1           0.006419827    0.004005182   -0.014702890
      9        6           0.009696708    0.003829980   -0.010803538
     10        1          -0.004741515    0.002740137   -0.000008958
     11        6           0.018491940   -0.003610287   -0.006583323
     12        1           0.022126627   -0.001364746    0.011742984
     13        1           0.000766794   -0.014577037    0.004560698
     14        1           0.003285932    0.008728043   -0.005001345
     15        6          -0.044615141    0.018495164    0.027145487
     16        8           0.030164958   -0.017458711   -0.015346416
     17        7           0.014404900    0.005355972   -0.003447840
     18        1          -0.017677277    0.015789208    0.008598442
     19        6           0.000794158    0.003075167    0.000504834
     20        1           0.007874320   -0.004901428   -0.004316597
     21        1          -0.003879588    0.001378531   -0.002751800
     22        1           0.000319635    0.001223261    0.004671412
 -------------------------------------------------------------------
 Cartesian Forces:  Max     0.054334685 RMS     0.015072355

 GradGradGradGradGradGradGradGradGradGradGradGradGradGradGradGradGradGrad
 Berny optimization.
 Internal  Forces:  Max     0.132095384 RMS     0.024157479
 Search for a local minimum.
 Step number   1 out of a maximum of  108
 All quantities printed in internal units (Hartrees-Bohrs-Radians)
 Mixed Optimization -- RFO/linear search
 Second derivative matrix not updated -- first step.
     Eigenvalues ---    0.00370   0.00435   0.00999   0.01043   0.01269
     Eigenvalues ---    0.01422   0.01660   0.02551   0.02552   0.03503
     Eigenvalues ---    0.05232   0.05841   0.05844   0.05844   0.07166
     Eigenvalues ---    0.07464   0.07685   0.07686   0.15421   0.16000
     Eigenvalues ---    0.16000   0.16000   0.16000   0.16000   0.16000
     Eigenvalues ---    0.16000   0.16000   0.16000   0.16000   0.16000
     Eigenvalues ---    0.16180   0.22000   0.22000   0.25000   0.25000
     Eigenvalues ---    0.25000   0.25000   0.29427   0.29887   0.30174
     Eigenvalues ---    0.34808   0.34808   0.34810   0.34811   0.34811
     Eigenvalues ---    0.34816   0.34818   0.34819   0.34821   0.34822
     Eigenvalues ---    0.38368   0.38379   0.45965   0.45966   0.58322
     Eigenvalues ---    0.58350   0.91486   0.915161000.000001000.00000
     Eigenvalues --- 1000.000001000.000001000.000001000.000001000.00000
     Eigenvalues --- 1000.000001000.000001000.000001000.000001000.00000
     Eigenvalues --- 1000.000001000.000001000.000001000.000001000.00000
     Eigenvalues --- 1000.000001000.000001000.000001000.000001000.00000
     Eigenvalues --- 1000.000001000.000001000.000001000.000001000.00000
     Eigenvalues --- 1000.000001000.000001000.000001000.000001000.00000
     Eigenvalues --- 1000.000001000.000001000.000001000.000001000.00000
     Eigenvalues --- 1000.000001000.000001000.00000
 RFO step:  Lambda=-1.44185461D-01 EMin= 3.69635118D-03
 Linear search not attempted -- first point.
 Maximum step size (   0.300) exceeded in Quadratic search.
    -- Step size scaled by   0.457
 Iteration  1 RMS(Cart)=  0.18402820 RMS(Int)=  0.00830560
 Iteration  2 RMS(Cart)=  0.01833071 RMS(Int)=  0.00035630
 Iteration  3 RMS(Cart)=  0.00015827 RMS(Int)=  0.00035032
 Iteration  4 RMS(Cart)=  0.00000008 RMS(Int)=  0.00035032
 Iteration  1 RMS(Cart)=  0.00022429 RMS(Int)=  0.00007710
 Iteration  2 RMS(Cart)=  0.00011961 RMS(Int)=  0.00008605
 Iteration  3 RMS(Cart)=  0.00006411 RMS(Int)=  0.00009715
 Iteration  4 RMS(Cart)=  0.00003464 RMS(Int)=  0.00010455
 Iteration  5 RMS(Cart)=  0.00001896 RMS(Int)=  0.00010900
 Iteration  6 RMS(Cart)=  0.00001058 RMS(Int)=  0.00011159
 Iteration  7 RMS(Cart)=  0.00000606 RMS(Int)=  0.00011311
 Iteration  8 RMS(Cart)=  0.00000358 RMS(Int)=  0.00011399
 Iteration  9 RMS(Cart)=  0.00000218 RMS(Int)=  0.00011451
 Iteration 10 RMS(Cart)=  0.00000137 RMS(Int)=  0.00011483
 Iteration 11 RMS(Cart)=  0.00000088 RMS(Int)=  0.00011502
 Variable       Old X    -DE/DX   Delta X   Delta X   Delta X     New X
                                 (Linear)    (Quad)   (Total)
    R1        2.05987  -0.00862   0.00000  -0.00801  -0.00801   2.05186
    R2        2.05970  -0.00290   0.00000  -0.00269  -0.00269   2.05701
    R3        2.05987  -0.00333   0.00000  -0.00310  -0.00310   2.05677
    R4        2.89121  -0.00995   0.00000  -0.01038  -0.01038   2.88083
    R5        2.32242  -0.05004   0.00000  -0.02159  -0.02159   2.30083
    R6        2.52294   0.03988   0.00000   0.02506   0.02506   2.54800
    R7        1.90870  -0.01591   0.00000  -0.01204  -0.01204   1.89666
    R8        2.73817   0.04147   0.00000   0.03590   0.03590   2.77407
    R9        2.05975  -0.00317   0.00000  -0.00294  -0.00294   2.05680
   R10        2.88188   0.02265   0.00000   0.02336   0.02336   2.90524
   R11        2.87618   0.02402   0.00000   0.02462   0.02462   2.90080
   R12        2.05972  -0.02098   0.00000  -0.01948  -0.01948   2.04024
   R13        2.05984  -0.00587   0.00000  -0.00545  -0.00545   2.05440
   R14        2.05966  -0.00816   0.00000  -0.00758  -0.00758   2.05208
   R15        2.32256  -0.03806   0.00000  -0.01642  -0.01642   2.30613
   R16        2.52270   0.01122   0.00000   0.00705   0.00705   2.52975
   R17        1.90870  -0.02481   0.00000  -0.01878  -0.01878   1.88992
   R18        2.73833   0.00080   0.00000   0.00069   0.00069   2.73902
   R19        2.05982  -0.01012   0.00000  -0.00939  -0.00939   2.05043
   R20        2.05982  -0.00390   0.00000  -0.00362  -0.00362   2.05620
   R21        2.05964  -0.00412   0.00000  -0.00382  -0.00382   2.05582
    A1        1.91116   0.00046   0.00000   0.00050   0.00053   1.91169
    A2        1.91101   0.00084   0.00000   0.00100   0.00102   1.91204
    A3        1.93901  -0.00821   0.00000  -0.01256  -0.01254   1.92647
    A4        1.91015  -0.00448   0.00000  -0.00626  -0.00630   1.90385
    A5        1.89610   0.00621   0.00000   0.00945   0.00945   1.90555
    A6        1.89612   0.00522   0.00000   0.00793   0.00792   1.90405
    A7        2.10322  -0.02365   0.00000  -0.02742  -0.02742   2.07579
    A8        2.03502  -0.04004   0.00000  -0.04642  -0.04643   1.98859
    A9        2.14495   0.06369   0.00000   0.07384   0.07384   2.21880
   A10        2.09432  -0.06601   0.00000  -0.08283  -0.08289   2.01144
   A11        2.12756   0.13210   0.00000   0.16578   0.16572   2.29328
   A12        2.06130  -0.06609   0.00000  -0.08295  -0.08302   1.97828
   A13        1.91114  -0.01414   0.00000  -0.01446  -0.01445   1.89668
   A14        1.93905   0.05908   0.00000   0.07400   0.07483   2.01388
   A15        1.93900  -0.04456   0.00000  -0.05360  -0.05546   1.88354
   A16        1.89609  -0.02632   0.00000  -0.04153  -0.04114   1.85496
   A17        1.89608   0.00617   0.00000   0.00735   0.00661   1.90269
   A18        1.88137   0.01945   0.00000   0.02755   0.02854   1.90991
   A19        1.91115   0.01537   0.00000   0.02505   0.02491   1.93606
   A20        1.91106  -0.00173   0.00000  -0.00410  -0.00410   1.90697
   A21        1.91110   0.00632   0.00000   0.00903   0.00890   1.92000
   A22        1.91011  -0.00529   0.00000  -0.00702  -0.00704   1.90307
   A23        1.91023  -0.00588   0.00000  -0.00584  -0.00609   1.90414
   A24        1.91015  -0.00881   0.00000  -0.01715  -0.01714   1.89301
   A25        2.10312  -0.01789   0.00000  -0.02074  -0.02086   2.08227
   A26        2.03507   0.03348   0.00000   0.03882   0.03871   2.07378
   A27        2.14499  -0.01559   0.00000  -0.01807  -0.01818   2.12681
   A28        2.09446   0.00353   0.00000   0.00548   0.00548   2.09994
   A29        2.12764   0.00139   0.00000   0.00174   0.00174   2.12938
   A30        2.06108  -0.00492   0.00000  -0.00722  -0.00722   2.05386
   A31        1.91098  -0.00370   0.00000  -0.00579  -0.00578   1.90520
   A32        1.91114   0.00441   0.00000   0.00677   0.00676   1.91790
   A33        1.91120   0.00346   0.00000   0.00527   0.00527   1.91647
   A34        1.91010  -0.00070   0.00000  -0.00121  -0.00120   1.90889
   A35        1.91020  -0.00051   0.00000  -0.00106  -0.00105   1.90914
   A36        1.91019  -0.00295   0.00000  -0.00399  -0.00401   1.90617
    D1       -0.00007   0.00052   0.00000   0.00157   0.00153   0.00146
    D2        3.14150  -0.00056   0.00000  -0.00158  -0.00153   3.13997
    D3        2.10331   0.00002   0.00000   0.00053   0.00045   2.10376
    D4       -1.03831  -0.00106   0.00000  -0.00262  -0.00261  -1.04092
    D5       -2.10327   0.00119   0.00000   0.00297   0.00295  -2.10031
    D6        1.03830   0.00011   0.00000  -0.00018  -0.00011   1.03819
    D7        0.00001  -0.00314   0.00000  -0.01480  -0.01449  -0.01448
    D8        3.14151   0.00068   0.00000   0.00840   0.00822  -3.13345
    D9        3.14158  -0.00426   0.00000  -0.01803  -0.01786   3.12372
   D10       -0.00011  -0.00043   0.00000   0.00516   0.00486   0.00476
   D11       -2.35613  -0.01208   0.00000  -0.03411  -0.03347  -2.38960
   D12       -0.26169  -0.01669   0.00000  -0.04843  -0.04740  -0.30909
   D13        1.83266   0.01757   0.00000   0.00000   0.00000   1.83266
   D14        0.78537  -0.00833   0.00000  -0.01133  -0.01109   0.77428
   D15        2.87981  -0.01293   0.00000  -0.02566  -0.02502   2.85479
   D16       -1.30902   0.02133   0.00000   0.02277   0.02238  -1.28664
   D17        1.04724   0.00351   0.00000   0.01657   0.01760   1.06484
   D18        3.14157   0.00539   0.00000   0.02082   0.02180  -3.11982
   D19       -1.04726  -0.00259   0.00000   0.00282   0.00372  -1.04354
   D20       -3.13259   0.00556   0.00000   0.01762   0.01765  -3.11495
   D21       -1.03826   0.00744   0.00000   0.02187   0.02184  -1.01642
   D22        1.05609  -0.00053   0.00000   0.00387   0.00376   1.05985
   D23       -1.08102   0.00937   0.00000   0.01908   0.01821  -1.06281
   D24        1.01331   0.01125   0.00000   0.02333   0.02240   1.03571
   D25        3.10766   0.00327   0.00000   0.00533   0.00433   3.11199
   D26        0.52361  -0.03307   0.00000  -0.02698  -0.02681   0.49680
   D27       -2.61802  -0.03585   0.00000   0.00000   0.00000  -2.61802
   D28       -1.57971   0.00801   0.00000   0.01933   0.01943  -1.56027
   D29        1.56185   0.00523   0.00000   0.04631   0.04624   1.60810
   D30        2.65190   0.02521   0.00000   0.04948   0.04906   2.70096
   D31       -0.48973   0.02243   0.00000   0.07646   0.07587  -0.41386
   D32        0.00010   0.00199   0.00000  -0.01232  -0.01224  -0.01214
   D33        3.14156   0.00207   0.00000  -0.01212  -0.01204   3.12953
   D34       -3.14153  -0.00086   0.00000   0.01537   0.01529  -3.12624
   D35       -0.00006  -0.00079   0.00000   0.01557   0.01549   0.01543
   D36        0.00008  -0.00015   0.00000  -0.00035  -0.00035  -0.00026
   D37        2.09434  -0.00058   0.00000  -0.00123  -0.00124   2.09310
   D38       -2.09434   0.00063   0.00000   0.00127   0.00128  -2.09306
   D39        3.14155  -0.00008   0.00000  -0.00015  -0.00015   3.14140
   D40       -1.04738  -0.00051   0.00000  -0.00103  -0.00104  -1.04842
   D41        1.04713   0.00070   0.00000   0.00147   0.00148   1.04861
         Item               Value     Threshold  Converged?
 Maximum Force            0.132096     0.000450     NO 
 RMS     Force            0.023651     0.000300     NO 
 Maximum Displacement     0.742986     0.001800     NO 
 RMS     Displacement     0.191235     0.001200     NO 
 Predicted change in Energy=-5.733281D-02
 GradGradGradGradGradGradGradGradGradGradGradGradGradGradGradGradGradGrad

                          Input orientation:                          
 ---------------------------------------------------------------------
 Center     Atomic      Atomic             Coordinates (Angstroms)
 Number     Number       Type             X           Y           Z
 ---------------------------------------------------------------------
      1          1           0        1.097146    2.368993   -1.716976
      2          6           0        1.560619    2.833239   -0.851742
      3          1           0        1.638267    2.105374   -0.046094
      4          1           0        0.950924    3.670518   -0.517305
      5          6           0        2.954253    3.340658   -1.204330
      6          8           0        3.368807    3.183835   -2.338337
      7          7           0        3.596257    3.934237   -0.177918
      8          1           0        3.078952    3.981118    0.680888
      9          6           0        4.923618    4.555293   -0.092166
     10          1           0        5.394704    4.243630    0.838204
     11          6           0        5.901275    4.179105   -1.217438
     12          1           0        5.516472    4.481579   -2.179767
     13          1           0        6.853922    4.673698   -1.045066
     14          1           0        6.066922    3.105909   -1.222365
     15          6           0        4.731985    6.078163   -0.070119
     16          8           0        3.702951    6.544072    0.391700
     17          7           0        5.689691    6.856648   -0.588619
     18          1           0        6.518350    6.449399   -0.972912
     19          6           0        5.573729    8.301141   -0.617338
     20          1           0        4.629200    8.591557   -0.169195
     21          1           0        6.391880    8.749360   -0.057267
     22          1           0        5.608775    8.653373   -1.646036
 ---------------------------------------------------------------------
                    Distance matrix (angstroms):
                    1          2          3          4          5
     1  H    0.000000
     2  C    1.085800   0.000000
     3  H    1.775993   1.088525   0.000000
     4  H    1.776108   1.088398   1.773177   0.000000
     5  C    2.157727   1.524470   2.144587   2.143394   0.000000
     6  O    2.492088   2.366945   3.067935   3.065807   1.217547
     7  N    3.326296   2.410406   2.682507   2.680022   1.348342
     8  H    3.503749   2.443751   2.474367   2.461837   1.994940
     9  C    4.696999   3.853854   4.098506   4.092171   2.567225
    10  H    5.339683   4.421010   4.411909   4.681137   3.308036
    11  C    5.158071   4.559208   4.883200   5.025417   3.064001
    12  H    4.920126   4.486585   5.023881   4.926035   2.969536
    13  H    6.237275   5.607470   5.898923   6.010847   4.124292
    14  H    5.048402   4.529733   4.690167   5.195125   3.121561
    15  C    5.448132   4.604132   5.035347   4.504792   3.455532
    16  O    5.354253   4.461616   4.914939   4.081330   3.656464
    17  N    6.519487   5.771160   6.267613   5.710728   4.497100
    18  H    6.825892   6.137621   6.598845   6.239070   4.735042
    19  C    7.512615   6.786601   7.362181   6.543929   5.640267
    20  H    7.320611   6.560509   7.143627   6.153659   5.607932
    21  H    8.455644   7.679372   8.169425   7.457229   6.510537
    22  H    7.736489   7.133893   7.823109   6.913642   5.955379
                    6          7          8          9         10
     6  O    0.000000
     7  N    2.298314   0.000000
     8  H    3.136143   1.003668   0.000000
     9  C    3.056733   1.467975   2.080885   0.000000
    10  H    3.913800   2.088693   2.335887   1.088414   0.000000
    11  C    2.942851   2.540407   3.407102   1.537389   2.118122
    12  H    2.514308   2.827403   3.791479   2.171402   3.029785
    13  H    4.004781   3.451250   4.208204   2.155948   2.420946
    14  H    2.920838   2.807344   3.649154   2.164533   2.447903
    15  C    3.921760   2.428562   2.773828   1.535038   2.151687
    16  O    4.342343   2.673404   2.653627   2.383149   2.890230
    17  N    4.683755   3.618235   4.086107   2.475797   2.991773
    18  H    4.737923   3.936583   4.544989   2.628027   3.067269
    19  C    5.831839   4.813869   5.154794   3.837947   4.314401
    20  H    5.961310   4.770500   4.937819   4.047721   4.528280
    21  H    6.731813   5.569153   5.852904   4.443783   4.700833
    22  H    5.950847   5.336276   5.800391   4.436013   5.065877
                   11         12         13         14         15
    11  C    0.000000
    12  H    1.079649   0.000000
    13  H    1.087139   1.764435   0.000000
    14  H    1.085916   1.764110   1.763169   0.000000
    15  C    2.507987   2.759550   2.725007   3.456012   0.000000
    16  O    3.607634   3.762337   3.935888   4.473760   1.220352
    17  N    2.758517   2.864037   2.515760   3.822562   1.338687
    18  H    2.365335   2.516461   1.808572   3.383038   2.035670
    19  C    4.178348   4.127169   3.870425   5.253545   2.439184
    20  H    4.710278   4.660641   4.589789   5.767889   2.517446
    21  H    4.740666   4.846163   4.219034   5.771619   3.144949
    22  H    4.504257   4.206811   4.213001   5.582451   3.143880
                   16         17         18         19         20
    16  O    0.000000
    17  N    2.237379   0.000000
    18  H    3.130112   1.000104   0.000000
    19  C    2.757763   1.449425   2.108955   0.000000
    20  H    2.316189   2.076167   2.967101   1.085039   0.000000
    21  H    3.506451   2.087526   2.478753   1.088094   1.773265
    22  H    3.497668   2.086360   2.477483   1.087894   1.773259
                   21         22
    21  H    0.000000
    22  H    1.773881   0.000000
 Stoichiometry    C6H12N2O2
 Framework group  C1[X(C6H12N2O2)]
 Deg. of freedom    60
 Full point group                 C1      NOp   1
 Largest Abelian subgroup         C1      NOp   1
 Largest concise Abelian subgroup C1      NOp   1
                         Standard orientation:                         
 ---------------------------------------------------------------------
 Center     Atomic      Atomic             Coordinates (Angstroms)
 Number     Number       Type             X           Y           Z
 ---------------------------------------------------------------------
      1          1           0       -4.034493   -0.810244    0.906862
      2          6           0       -3.272241   -1.034997    0.166984
      3          1           0       -3.710960   -1.003288   -0.828710
      4          1           0       -2.871538   -2.030678    0.347724
      5          6           0       -2.138500   -0.019034    0.247332
      6          8           0       -2.203298    0.871722    1.074844
      7          7           0       -1.148243   -0.232812   -0.642453
      8          1           0       -1.270283   -1.034043   -1.234472
      9          6           0        0.105891    0.488532   -0.890971
     10          1           0        0.244067    0.587028   -1.966076
     11          6           0        0.172293    1.912656   -0.315622
     12          1           0        0.069470    1.899604    0.759040
     13          1           0        1.128600    2.359977   -0.574950
     14          1           0       -0.619204    2.522475   -0.740908
     15          6           0        1.255132   -0.349523   -0.313690
     16          8           0        1.138044   -1.562757   -0.253574
     17          7           0        2.347457    0.278199    0.138937
     18          1           0        2.413598    1.274921    0.090153
     19          6           0        3.466616   -0.443603    0.711056
     20          1           0        3.249867   -1.506667    0.696053
     21          1           0        4.366881   -0.250602    0.131210
     22          1           0        3.626377   -0.122102    1.738006
 ---------------------------------------------------------------------
 Rotational constants (GHZ):      2.5310618      0.7337819      0.6516642
 Standard basis: 6-31G(d) (6D, 7F)
 There are   174 symmetry adapted basis functions of A   symmetry.
 Integral buffers will be    131072 words long.
 Raffenetti 1 integral format.
 Two-electron integral symmetry is turned on.
   174 basis functions,   328 primitive gaussians,   174 cartesian basis functions
    39 alpha electrons       39 beta electrons
       nuclear repulsion energy       556.8389506839 Hartrees.
 NAtoms=   22 NActive=   22 NUniq=   22 SFac= 7.50D-01 NAtFMM=   80 NAOKFM=F Big=F
 One-electron integrals computed using PRISM.
 NBasis=   174 RedAO= T  NBF=   174
 NBsUse=   174 1.00D-06 NBFU=   174
 Initial guess read from the read-write file.
 B after Tr=     0.000000    0.000000    0.000000
         Rot=    1.000000    0.000000    0.000000    0.000000 Ang=   0.00 deg.
 Initial guess orbital symmetries:
       Occupied  (A) (A) (A) (A) (A) (A) (A) (A) (A) (A) (A) (A)
                 (A) (A) (A) (A) (A) (A) (A) (A) (A) (A) (A) (A)
                 (A) (A) (A) (A) (A) (A) (A) (A) (A) (A) (A) (A)
                 (A) (A) (A)
       Virtual   (A) (A) (A) (A) (A) (A) (A) (A) (A) (A) (A) (A)
                 (A) (A) (A) (A) (A) (A) (A) (A) (A) (A) (A) (A)
                 (A) (A) (A) (A) (A) (A) (A) (A) (A) (A) (A) (A)
                 (A) (A) (A) (A) (A) (A) (A) (A) (A) (A) (A) (A)
                 (A) (A) (A) (A) (A) (A) (A) (A) (A) (A) (A) (A)
                 (A) (A) (A) (A) (A) (A) (A) (A) (A) (A) (A) (A)
                 (A) (A) (A) (A) (A) (A) (A) (A) (A) (A) (A) (A)
                 (A) (A) (A) (A) (A) (A) (A) (A) (A) (A) (A) (A)
                 (A) (A) (A) (A) (A) (A) (A) (A) (A) (A) (A) (A)
                 (A) (A) (A) (A) (A) (A) (A) (A) (A) (A) (A) (A)
                 (A) (A) (A) (A) (A) (A) (A) (A) (A) (A) (A) (A)
                 (A) (A) (A)
 Harris functional with IExCor=  205 diagonalized for initial guess.
 ExpMin= 1.61D-01 ExpMax= 5.48D+03 ExpMxC= 8.25D+02 IAcc=1 IRadAn=         1 AccDes= 0.00D+00
 HarFok:  IExCor=  205 AccDes= 0.00D+00 IRadAn=         1 IDoV= 1
 ScaDFX=  1.000000  1.000000  1.000000  1.000000
 FoFCou: FMM=F IPFlag=           0 FMFlag=      100000 FMFlg1=           0
         NFxFlg=           0 DoJE=T BraDBF=F KetDBF=T FulRan=T
         Omega=  0.000000  0.000000  1.000000  0.000000  0.000000 ICntrl=     500 IOpCl=  0
         NMat0=    1 NMatS0=    1 NMatT0=    0 NMatD0=    1 NMtDS0=    0 NMtDT0=    0
         I1Cent=           4 NGrid=           0.
 Petite list used in FoFCou.
 Requested convergence on RMS density matrix=1.00D-08 within 128 cycles.
 Requested convergence on MAX density matrix=1.00D-06.
 Requested convergence on             energy=1.00D-06.
 No special actions if energy rises.
 Integral accuracy reduced to 1.0D-05 until final iterations.
 Initial convergence to 1.0D-05 achieved.  Increase integral accuracy.
 SCF Done:  E(RHF) =  -492.838572898     A.U. after   16 cycles
             Convg  =    0.8254D-08             -V/T =  2.0019
 Calling FoFJK, ICntrl=      2127 FMM=F ISym2X=0 I1Cent= 0 IOpClX= 0 NMat=1 NMatS=1 NMatT=0.
 ***** Axes restored to original set *****
 -------------------------------------------------------------------
 Center     Atomic                   Forces (Hartrees/Bohr)
 Number     Number              X              Y              Z
 -------------------------------------------------------------------
      1        1           0.004973820    0.002877233    0.002780287
      2        6           0.003818033    0.003302733    0.005514641
      3        1          -0.003657142    0.001531788   -0.000673613
      4        1          -0.000899617   -0.003623349    0.000801484
      5        6          -0.004550219   -0.010308324   -0.037660920
      6        8           0.001899663    0.009333071    0.028575954
      7        7           0.013607846   -0.005012184    0.018415061
      8        1           0.004022389    0.004067863   -0.008853036
      9        6           0.003716238    0.003373890   -0.020612193
     10        1          -0.006947699    0.003344808    0.001248534
     11        6          -0.005960009   -0.011263635    0.000903790
     12        1           0.001446028   -0.002600951   -0.000423806
     13        1          -0.000833608   -0.007690235    0.001454979
     14        1           0.000384375    0.003208564   -0.002581253
     15        6          -0.039004966    0.011823902    0.015625692
     16        8           0.022850943   -0.010817402   -0.005951378
     17        7           0.010885439    0.001288642   -0.000643983
     18        1          -0.009576970    0.006407960    0.003394981
     19        6           0.000818171    0.002199987    0.000202943
     20        1           0.005580568   -0.002787372   -0.002712109
     21        1          -0.002476097    0.000677267   -0.001918152
     22        1          -0.000097186    0.000665743    0.003112097
 -------------------------------------------------------------------
 Cartesian Forces:  Max     0.039004966 RMS     0.010239519

 GradGradGradGradGradGradGradGradGradGradGradGradGradGradGradGradGradGrad
 Berny optimization.
 Using GEDIIS/GDIIS optimizer.
 Internal  Forces:  Max     0.027232605 RMS     0.007129596
 Search for a local minimum.
 Step number   2 out of a maximum of  108
 All quantities printed in internal units (Hartrees-Bohrs-Radians)
 Mixed Optimization -- RFO/linear search
 Update second derivatives using D2CorX and points    1    2
 DE= -2.35D-02 DEPred=-5.73D-02 R= 4.10D-01
 Trust test= 4.10D-01 RLast= 3.00D-01 DXMaxT set to 3.00D-01
 Use linear search instead of GDIIS.
     Eigenvalues ---    0.00370   0.00440   0.01001   0.01043   0.01341
     Eigenvalues ---    0.01420   0.01665   0.02552   0.02552   0.03657
     Eigenvalues ---    0.05066   0.05655   0.05847   0.05940   0.07213
     Eigenvalues ---    0.07385   0.07626   0.07698   0.15249   0.15985
     Eigenvalues ---    0.15998   0.16000   0.16000   0.16000   0.16000
     Eigenvalues ---    0.16000   0.16000   0.16000   0.16000   0.16077
     Eigenvalues ---    0.17409   0.21994   0.24249   0.24787   0.24992
     Eigenvalues ---    0.25000   0.29398   0.29773   0.30058   0.34594
     Eigenvalues ---    0.34730   0.34808   0.34809   0.34810   0.34811
     Eigenvalues ---    0.34816   0.34819   0.34820   0.34822   0.36963
     Eigenvalues ---    0.38368   0.45589   0.45963   0.56623   0.58267
     Eigenvalues ---    0.88730   0.89788   0.926041000.000001000.00000
     Eigenvalues --- 1000.000001000.000001000.000001000.000001000.00000
     Eigenvalues --- 1000.000001000.000001000.000001000.000001000.00000
     Eigenvalues --- 1000.000001000.000001000.000001000.000001000.00000
     Eigenvalues --- 1000.000001000.000001000.000001000.000001000.00000
     Eigenvalues --- 1000.000001000.000001000.000001000.000001000.00000
     Eigenvalues --- 1000.000001000.000001000.000001000.000001000.00000
     Eigenvalues --- 1000.000001000.000001000.000001000.000001000.00000
     Eigenvalues --- 1000.000001000.000001000.00000
 RFO step:  Lambda=-1.63550469D-02 EMin= 3.69635166D-03
 Quartic linear search produced a step of -0.06812.
 Maximum step size (   0.300) exceeded in Quadratic search.
    -- Step size scaled by   0.747
 Iteration  1 RMS(Cart)=  0.09707089 RMS(Int)=  0.00241027
 Iteration  2 RMS(Cart)=  0.00361933 RMS(Int)=  0.00037686
 Iteration  3 RMS(Cart)=  0.00000594 RMS(Int)=  0.00037683
 Iteration  4 RMS(Cart)=  0.00000000 RMS(Int)=  0.00037683
 Iteration  1 RMS(Cart)=  0.00000661 RMS(Int)=  0.00000381
 Iteration  2 RMS(Cart)=  0.00000444 RMS(Int)=  0.00000421
 Iteration  3 RMS(Cart)=  0.00000298 RMS(Int)=  0.00000484
 Iteration  4 RMS(Cart)=  0.00000200 RMS(Int)=  0.00000537
 Iteration  5 RMS(Cart)=  0.00000134 RMS(Int)=  0.00000577
 Iteration  6 RMS(Cart)=  0.00000090 RMS(Int)=  0.00000604
 Variable       Old X    -DE/DX   Delta X   Delta X   Delta X     New X
                                 (Linear)    (Quad)   (Total)
    R1        2.05186  -0.00557   0.00055  -0.01229  -0.01175   2.04012
    R2        2.05701  -0.00178   0.00018  -0.00396  -0.00378   2.05323
    R3        2.05677  -0.00204   0.00021  -0.00453  -0.00432   2.05245
    R4        2.88083  -0.00328   0.00071  -0.00952  -0.00881   2.87202
    R5        2.30083  -0.02717   0.00147  -0.02522  -0.02375   2.27708
    R6        2.54800  -0.00162  -0.00171   0.00393   0.00222   2.55022
    R7        1.89666  -0.00946   0.00082  -0.01642  -0.01560   1.88106
    R8        2.77407  -0.01881  -0.00245  -0.02440  -0.02685   2.74722
    R9        2.05680  -0.00290   0.00020  -0.00613  -0.00593   2.05088
   R10        2.90524   0.00181  -0.00159   0.00899   0.00740   2.91264
   R11        2.90080   0.01092  -0.00168   0.02898   0.02730   2.92810
   R12        2.04024  -0.00087   0.00133  -0.00593  -0.00460   2.03564
   R13        2.05440  -0.00400   0.00037  -0.00876  -0.00839   2.04601
   R14        2.05208  -0.00310   0.00052  -0.00753  -0.00701   2.04507
   R15        2.30613  -0.02565   0.00112  -0.02288  -0.02176   2.28437
   R16        2.52975   0.00803  -0.00048   0.01086   0.01038   2.54013
   R17        1.88992  -0.01185   0.00128  -0.02141  -0.02013   1.86979
   R18        2.73902   0.00047  -0.00005   0.00097   0.00092   2.73994
   R19        2.05043  -0.00672   0.00064  -0.01478  -0.01414   2.03628
   R20        2.05620  -0.00257   0.00025  -0.00566  -0.00541   2.05079
   R21        2.05582  -0.00273   0.00026  -0.00600  -0.00574   2.05008
    A1        1.91169  -0.00001  -0.00004  -0.00128  -0.00118   1.91051
    A2        1.91204   0.00028  -0.00007  -0.00018  -0.00014   1.91189
    A3        1.92647  -0.00626   0.00085  -0.02827  -0.02729   1.89918
    A4        1.90385  -0.00379   0.00043  -0.01310  -0.01295   1.89089
    A5        1.90555   0.00526  -0.00064   0.02307   0.02235   1.92790
    A6        1.90405   0.00457  -0.00054   0.02001   0.01938   1.92342
    A7        2.07579   0.01533   0.00187   0.03392   0.03578   2.11158
    A8        1.98859  -0.00075   0.00316  -0.01169  -0.00852   1.98007
    A9        2.21880  -0.01458  -0.00503  -0.02222  -0.02726   2.19154
   A10        2.01144   0.00718   0.00565   0.00448   0.00939   2.02082
   A11        2.29328  -0.01219  -0.01129  -0.00184  -0.01385   2.27943
   A12        1.97828   0.00497   0.00566  -0.00396   0.00098   1.97925
   A13        1.89668   0.00284   0.00098  -0.02444  -0.02439   1.87230
   A14        2.01388  -0.01475  -0.00510  -0.03917  -0.04435   1.96954
   A15        1.88354  -0.00726   0.00378  -0.02743  -0.02286   1.86069
   A16        1.85496   0.00034   0.00280   0.00326   0.00469   1.85964
   A17        1.90269  -0.00854  -0.00045  -0.02157  -0.02391   1.87878
   A18        1.90991   0.02723  -0.00194   0.10866   0.10654   2.01645
   A19        1.93606   0.00315  -0.00170   0.02072   0.01886   1.95492
   A20        1.90697   0.00175   0.00028   0.00817   0.00827   1.91523
   A21        1.92000   0.00172  -0.00061   0.00261   0.00202   1.92202
   A22        1.90307   0.00019   0.00048   0.01072   0.01085   1.91392
   A23        1.90414  -0.00327   0.00042  -0.01790  -0.01746   1.88668
   A24        1.89301  -0.00370   0.00117  -0.02530  -0.02412   1.86889
   A25        2.08227  -0.00497   0.00142  -0.01687  -0.01575   2.06652
   A26        2.07378   0.00701  -0.00264   0.02655   0.02362   2.09740
   A27        2.12681  -0.00195   0.00124  -0.00863  -0.00770   2.11911
   A28        2.09994   0.00038  -0.00037   0.00380   0.00343   2.10337
   A29        2.12938   0.00262  -0.00012   0.00800   0.00788   2.13726
   A30        2.05386  -0.00300   0.00049  -0.01180  -0.01131   2.04255
   A31        1.90520  -0.00245   0.00039  -0.01160  -0.01118   1.89402
   A32        1.91790   0.00278  -0.00046   0.01279   0.01230   1.93020
   A33        1.91647   0.00223  -0.00036   0.01002   0.00962   1.92609
   A34        1.90889  -0.00036   0.00008  -0.00221  -0.00209   1.90680
   A35        1.90914  -0.00035   0.00007  -0.00285  -0.00276   1.90639
   A36        1.90617  -0.00186   0.00027  -0.00622  -0.00603   1.90014
    D1        0.00146  -0.00001  -0.00010  -0.00015  -0.00026   0.00120
    D2        3.13997   0.00003   0.00010   0.00167   0.00180  -3.14142
    D3        2.10376  -0.00058  -0.00003  -0.00466  -0.00487   2.09889
    D4       -1.04092  -0.00054   0.00018  -0.00283  -0.00281  -1.04373
    D5       -2.10031   0.00062  -0.00020   0.00490   0.00484  -2.09547
    D6        1.03819   0.00066   0.00001   0.00673   0.00691   1.04510
    D7       -0.01448  -0.00127   0.00099  -0.03995  -0.03903  -0.05351
    D8       -3.13345   0.00119  -0.00056   0.03819   0.03775  -3.09570
    D9        3.12372  -0.00116   0.00122  -0.03782  -0.03672   3.08700
   D10        0.00476   0.00130  -0.00033   0.04032   0.04006   0.04482
   D11       -2.38960  -0.00241   0.00228  -0.05425  -0.05222  -2.44182
   D12       -0.30909  -0.00952   0.00323  -0.09352  -0.08988  -0.39897
   D13        1.83266   0.01022   0.00000   0.00000   0.00001   1.83267
   D14        0.77428  -0.00001   0.00076   0.02265   0.02301   0.79730
   D15        2.85479  -0.00712   0.00170  -0.01662  -0.01465   2.84015
   D16       -1.28664   0.01262  -0.00152   0.07689   0.07524  -1.21140
   D17        1.06484   0.00200  -0.00120   0.05004   0.04842   1.11326
   D18       -3.11982   0.00533  -0.00148   0.08162   0.07991  -3.03991
   D19       -1.04354   0.00291  -0.00025   0.05724   0.05666  -0.98688
   D20       -3.11495  -0.00329  -0.00120  -0.00284  -0.00466  -3.11960
   D21       -1.01642   0.00005  -0.00149   0.02874   0.02683  -0.98960
   D22        1.05985  -0.00238  -0.00026   0.00436   0.00358   1.06344
   D23       -1.06281   0.00083  -0.00124   0.02936   0.02887  -1.03394
   D24        1.03571   0.00417  -0.00153   0.06094   0.06036   1.09607
   D25        3.11199   0.00174  -0.00029   0.03656   0.03711  -3.13408
   D26        0.49680   0.00177   0.00183   0.04348   0.04526   0.54205
   D27       -2.61802  -0.00169   0.00000   0.00000   0.00001  -2.61801
   D28       -1.56027   0.00714  -0.00132   0.09980   0.09801  -1.46227
   D29        1.60810   0.00368  -0.00315   0.05631   0.05275   1.66085
   D30        2.70096  -0.00358  -0.00334   0.04778   0.04483   2.74579
   D31       -0.41386  -0.00704  -0.00517   0.00429  -0.00042  -0.41428
   D32       -0.01214   0.00235   0.00083   0.03234   0.03324   0.02110
   D33        3.12953   0.00223   0.00082   0.02983   0.03071  -3.12295
   D34       -3.12624  -0.00116  -0.00104  -0.01219  -0.01329  -3.13953
   D35        0.01543  -0.00128  -0.00106  -0.01470  -0.01582  -0.00039
   D36       -0.00026  -0.00006   0.00002   0.00022   0.00024  -0.00002
   D37        2.09310  -0.00032   0.00008  -0.00186  -0.00182   2.09128
   D38       -2.09306   0.00053  -0.00009   0.00476   0.00472  -2.08834
   D39        3.14140  -0.00017   0.00001  -0.00222  -0.00221   3.13920
   D40       -1.04842  -0.00043   0.00007  -0.00430  -0.00427  -1.05269
   D41        1.04861   0.00041  -0.00010   0.00232   0.00227   1.05087
         Item               Value     Threshold  Converged?
 Maximum Force            0.027171     0.000450     NO 
 RMS     Force            0.007011     0.000300     NO 
 Maximum Displacement     0.429078     0.001800     NO 
 RMS     Displacement     0.096137     0.001200     NO 
 Predicted change in Energy=-9.179354D-03
 GradGradGradGradGradGradGradGradGradGradGradGradGradGradGradGradGradGrad

                          Input orientation:                          
 ---------------------------------------------------------------------
 Center     Atomic      Atomic             Coordinates (Angstroms)
 Number     Number       Type             X           Y           Z
 ---------------------------------------------------------------------
      1          1           0        1.139369    2.441936   -1.726374
      2          6           0        1.588141    2.894803   -0.855159
      3          1           0        1.618924    2.170483   -0.045870
      4          1           0        0.986436    3.740220   -0.534446
      5          6           0        2.992503    3.354697   -1.210227
      6          8           0        3.436844    3.192215   -2.318439
      7          7           0        3.642728    3.938025   -0.181570
      8          1           0        3.119591    4.040473    0.659071
      9          6           0        4.960416    4.549021   -0.119764
     10          1           0        5.405161    4.260876    0.827338
     11          6           0        5.908558    4.039688   -1.223044
     12          1           0        5.558468    4.299909   -2.207987
     13          1           0        6.900060    4.446639   -1.069571
     14          1           0        5.995639    2.962251   -1.170962
     15          6           0        4.736729    6.081916   -0.086585
     16          8           0        3.733986    6.505439    0.439175
     17          7           0        5.654488    6.910158   -0.614360
     18          1           0        6.469737    6.548902   -1.043166
     19          6           0        5.506543    8.352301   -0.590185
     20          1           0        4.578546    8.592952   -0.098216
     21          1           0        6.327818    8.811233   -0.049244
     22          1           0        5.488014    8.746761   -1.600615
 ---------------------------------------------------------------------
                    Distance matrix (angstroms):
                    1          2          3          4          5
     1  H    0.000000
     2  C    1.079583   0.000000
     3  H    1.768545   1.086524   0.000000
     4  H    1.769074   1.086111   1.761483   0.000000
     5  C    2.129236   1.519805   2.155181   2.151654   0.000000
     6  O    2.488343   2.376415   3.084370   3.080169   1.204979
     7  N    3.300228   2.400700   2.690427   2.686920   1.349518
     8  H    3.488115   2.439424   2.499161   2.462719   1.995173
     9  C    4.649882   3.827464   4.102251   4.076597   2.547195
    10  H    5.294050   4.389373   4.412235   4.653028   3.285384
    11  C    5.054831   4.484652   4.825000   4.979070   2.995456
    12  H    4.817930   4.423570   4.972848   4.900763   2.910864
    13  H    6.134801   5.538109   5.841168   5.979661   4.059695
    14  H    4.915543   4.419312   4.587849   5.109061   3.028924
    15  C    5.373952   4.545547   5.002166   4.443964   3.426750
    16  O    5.285234   4.395070   4.847741   4.017886   3.632837
    17  N    6.448867   5.719811   6.250878   5.643191   4.481354
    18  H    6.763635   6.100637   6.610260   6.181754   4.724618
    19  C    7.436098   6.723717   7.322891   6.458001   5.628579
    20  H    7.232830   6.479536   7.071789   6.053310   5.584928
    21  H    8.384552   7.623528   8.140838   7.381121   6.499692
    22  H    7.660114   7.071784   7.786817   6.816625   5.954355
                    6          7          8          9         10
     6  O    0.000000
     7  N    2.272626   0.000000
     8  H    3.112195   0.995412   0.000000
     9  C    2.999394   1.453767   2.062484   0.000000
    10  H    3.861635   2.056283   2.302329   1.085278   0.000000
    11  C    2.833280   2.495794   3.364624   1.541305   2.122828
    12  H    2.395929   2.812008   3.772990   2.186413   3.039445
    13  H    3.889360   3.414300   4.176735   2.162136   2.422291
    14  H    2.813720   2.732622   3.575365   2.166689   2.455259
    15  C    3.875725   2.408761   2.708990   1.549485   2.144352
    16  O    4.320901   2.642966   2.549881   2.375735   2.825166
    17  N    4.652412   3.614978   4.035148   2.510245   3.026443
    18  H    4.700225   3.943476   4.518108   2.670252   3.141205
    19  C    5.822114   4.809013   5.084294   3.870981   4.331214
    20  H    5.949860   4.748795   4.840155   4.061979   4.506310
    21  H    6.714189   5.565553   5.792631   4.476741   4.724981
    22  H    5.964525   5.342538   5.732779   4.482444   5.101470
                   11         12         13         14         15
    11  C    0.000000
    12  H    1.077215   0.000000
    13  H    1.082700   1.765613   0.000000
    14  H    1.082205   1.748104   1.741168   0.000000
    15  C    2.614463   2.889836   2.884509   3.534549   0.000000
    16  O    3.683974   3.898790   4.066816   4.501311   1.208838
    17  N    2.945275   3.059783   2.797783   4.001520   1.344178
    18  H    2.577485   2.691689   2.146016   3.620106   2.033824
    19  C    4.377300   4.363699   4.174434   5.443268   2.449669
    20  H    4.875078   4.882786   4.850244   5.904552   2.516041
    21  H    4.931655   5.060051   4.518651   5.964829   3.159451
    22  H    4.740881   4.488692   4.557075   5.822615   3.155649
                   16         17         18         19         20
    16  O    0.000000
    17  N    2.227568   0.000000
    18  H    3.111841   0.989450   0.000000
    19  C    2.759065   1.449913   2.094083   0.000000
[...]
    18  H    6.601330   5.911362   6.414632   5.967048   4.558163
    19  C    7.466050   6.648799   7.120626   6.371918   5.601825
    20  H    7.843904   6.936083   7.274245   6.611330   6.011475
    21  H    8.328148   7.559321   8.059555   7.338791   6.413554
    22  H    7.250737   6.490165   7.068331   6.074270   5.573749
                    6          7          8          9         10
     6  O    0.000000
     7  N    2.268058   0.000000
     8  H    3.102894   0.995732   0.000000
     9  C    2.944065   1.452843   2.051465   0.000000
    10  H    3.817443   2.035998   2.333713   1.087474   0.000000
    11  C    2.812018   2.518715   3.387281   1.528331   2.113916
    12  H    2.492772   2.914308   3.824294   2.188095   3.038315
    13  H    3.887260   3.414277   4.165933   2.142781   2.355237
    14  H    2.690853   2.705789   3.624209   2.151350   2.492632
    15  C    3.877543   2.420593   2.580543   1.538147   2.077256
    16  O    4.415924   2.694985   2.403710   2.373889   2.719483
    17  N    4.612284   3.608501   3.905733   2.473434   2.957986
    18  H    4.483603   3.865423   4.372890   2.613896   3.149366
    19  C    5.804790   4.803661   4.920193   3.830951   4.246689
    20  H    6.398263   5.054158   4.975636   4.142587   4.342705
    21  H    6.476488   5.648677   5.863093   4.533535   4.901031
    22  H    5.747181   4.972678   5.060886   4.248937   4.845872
                   11         12         13         14         15
    11  C    0.000000
    12  H    1.079408   0.000000
    13  H    1.085895   1.771244   0.000000
    14  H    1.080573   1.741255   1.749350   0.000000
    15  C    2.610987   2.891041   2.895943   3.522216   0.000000
    16  O    3.698363   3.963496   4.060584   4.499510   1.204003
    17  N    2.890807   2.956152   2.794351   3.953349   1.345218
    18  H    2.460113   2.401527   2.186210   3.528464   2.024488
    19  C    4.325963   4.266814   4.170005   5.395188   2.432550
    20  H    4.900282   5.024194   4.722256   5.924931   2.680804
    21  H    4.740056   4.630493   4.379191   5.811729   3.301405
    22  H    4.770520   4.514001   4.809940   5.826058   2.825997
                   16         17         18         19         20
    16  O    0.000000
    17  N    2.235369   0.000000
    18  H    3.105255   0.991861   0.000000
    19  C    2.748007   1.448796   2.107542   0.000000
    20  H    2.635762   2.080603   2.903592   1.080179   0.000000
    21  H    3.783413   2.066684   2.301320   1.081814   1.760976
    22  H    2.924169   2.106342   2.713789   1.084133   1.755546
                   21         22
    21  H    0.000000
    22  H    1.764426   0.000000
 Stoichiometry    C6H12N2O2
 Framework group  C1[X(C6H12N2O2)]
 Deg. of freedom    60
 Full point group                 C1      NOp   1
 Largest Abelian subgroup         C1      NOp   1
 Largest concise Abelian subgroup C1      NOp   1
                         Standard orientation:                         
 ---------------------------------------------------------------------
 Center     Atomic      Atomic             Coordinates (Angstroms)
 Number     Number       Type             X           Y           Z
 ---------------------------------------------------------------------
      1          1           0       -4.010117   -0.840494    0.823690
      2          6           0       -3.146856   -1.170238    0.264768
      3          1           0       -3.446541   -1.458805   -0.736455
      4          1           0       -2.722563   -2.041741    0.754409
      5          6           0       -2.121873   -0.053303    0.244279
      6          8           0       -2.200920    0.887556    0.985019
      7          7           0       -1.140433   -0.231433   -0.678507
      8          1           0       -1.075285   -1.143209   -1.073352
      9          6           0        0.087668    0.529455   -0.832024
     10          1           0        0.275954    0.569441   -1.902327
     11          6           0        0.024292    1.976787   -0.345189
     12          1           0       -0.014691    2.057822    0.730467
     13          1           0        0.889340    2.513625   -0.722900
     14          1           0       -0.859088    2.459020   -0.738547
     15          6           0        1.248675   -0.328912   -0.301776
     16          8           0        1.212251   -1.524276   -0.441066
     17          7           0        2.311166    0.303838    0.227707
     18          1           0        2.236157    1.264558    0.462608
     19          6           0        3.444690   -0.439841    0.738662
     20          1           0        3.783995   -1.147428   -0.003618
     21          1           0        4.244566    0.255264    0.956259
     22          1           0        3.192916   -0.984816    1.641412
 ---------------------------------------------------------------------
 Rotational constants (GHZ):      2.4303344      0.7528133      0.6596292

 **********************************************************************

            Population analysis using the SCF density.

 **********************************************************************

 Orbital symmetries:
       Occupied  (A) (A) (A) (A) (A) (A) (A) (A) (A) (A) (A) (A)
                 (A) (A) (A) (A) (A) (A) (A) (A) (A) (A) (A) (A)
                 (A) (A) (A) (A) (A) (A) (A) (A) (A) (A) (A) (A)
                 (A) (A) (A)
       Virtual   (A) (A) (A) (A) (A) (A) (A) (A) (A) (A) (A) (A)
                 (A) (A) (A) (A) (A) (A) (A) (A) (A) (A) (A) (A)
                 (A) (A) (A) (A) (A) (A) (A) (A) (A) (A) (A) (A)
                 (A) (A) (A) (A) (A) (A) (A) (A) (A) (A) (A) (A)
                 (A) (A) (A) (A) (A) (A) (A) (A) (A) (A) (A) (A)
                 (A) (A) (A) (A) (A) (A) (A) (A) (A) (A) (A) (A)
                 (A) (A) (A) (A) (A) (A) (A) (A) (A) (A) (A) (A)
                 (A) (A) (A) (A) (A) (A) (A) (A) (A) (A) (A) (A)
                 (A) (A) (A) (A) (A) (A) (A) (A) (A) (A) (A) (A)
                 (A) (A) (A) (A) (A) (A) (A) (A) (A) (A) (A) (A)
                 (A) (A) (A) (A) (A) (A) (A) (A) (A) (A) (A) (A)
                 (A) (A) (A)
 The electronic state is 1-A.
 Alpha  occ. eigenvalues --  -20.52689 -20.51860 -15.59251 -15.57983 -11.34846
 Alpha  occ. eigenvalues --  -11.34610 -11.28654 -11.26169 -11.22622 -11.22617
 Alpha  occ. eigenvalues --   -1.39831  -1.38528  -1.23931  -1.23450  -1.05792
 Alpha  occ. eigenvalues --   -0.98911  -0.95801  -0.89492  -0.80396  -0.76162
 Alpha  occ. eigenvalues --   -0.72707  -0.69649  -0.65614  -0.64625  -0.62345
 Alpha  occ. eigenvalues --   -0.61761  -0.59679  -0.58710  -0.56460  -0.55943
 Alpha  occ. eigenvalues --   -0.55697  -0.54629  -0.53146  -0.51537  -0.50399
 Alpha  occ. eigenvalues --   -0.43008  -0.41077  -0.39757  -0.38156
 Alpha virt. eigenvalues --    0.19151   0.20883   0.21857   0.24179   0.25831
 Alpha virt. eigenvalues --    0.27467   0.29202   0.30472   0.31429   0.32232
 Alpha virt. eigenvalues --    0.33117   0.33247   0.33894   0.34491   0.36712
 Alpha virt. eigenvalues --    0.38866   0.41269   0.44551   0.48030   0.50312
 Alpha virt. eigenvalues --    0.51511   0.59599   0.62470   0.69041   0.72022
 Alpha virt. eigenvalues --    0.74529   0.75019   0.75864   0.77140   0.79865
 Alpha virt. eigenvalues --    0.80828   0.82638   0.84150   0.88801   0.90303
 Alpha virt. eigenvalues --    0.93837   0.95083   0.95867   0.97681   0.99555
 Alpha virt. eigenvalues --    1.00600   1.02142   1.05284   1.06707   1.08402
 Alpha virt. eigenvalues --    1.12365   1.13097   1.13630   1.14406   1.15749
 Alpha virt. eigenvalues --    1.16459   1.18777   1.19339   1.20445   1.21527
 Alpha virt. eigenvalues --    1.21830   1.22176   1.23676   1.26699   1.28637
 Alpha virt. eigenvalues --    1.29241   1.29980   1.34142   1.36568   1.42681
 Alpha virt. eigenvalues --    1.45425   1.48584   1.54098   1.57948   1.61956
 Alpha virt. eigenvalues --    1.64964   1.69711   1.70459   1.74000   1.75910
 Alpha virt. eigenvalues --    1.79761   1.80545   1.86165   1.90938   1.95712
 Alpha virt. eigenvalues --    2.00838   2.06843   2.08296   2.10534   2.12157
 Alpha virt. eigenvalues --    2.14268   2.16977   2.18618   2.20807   2.21205
 Alpha virt. eigenvalues --    2.22224   2.27279   2.29712   2.33162   2.35001
 Alpha virt. eigenvalues --    2.38988   2.40605   2.42744   2.44784   2.45692
 Alpha virt. eigenvalues --    2.51548   2.56166   2.57010   2.61851   2.65311
 Alpha virt. eigenvalues --    2.66671   2.67969   2.72677   2.74543   2.76820
 Alpha virt. eigenvalues --    2.79838   2.83458   2.87046   2.91737   2.97140
 Alpha virt. eigenvalues --    3.02240   3.04677   3.06075   3.09672   3.27054
 Alpha virt. eigenvalues --    3.32973   3.37704   3.42184   3.53010   3.59881
 Alpha virt. eigenvalues --    4.36251   4.44626   4.49264   4.55205   4.63788
 Alpha virt. eigenvalues --    4.66018   4.71532   4.76855   4.95359   5.08372
          Condensed to atoms (all electrons):
              1          2          3          4          5          6
     1  H    0.465908   0.384525  -0.020023  -0.017453  -0.033230   0.003747
     2  C    0.384525   5.276136   0.376025   0.373980   0.377663  -0.071692
     3  H   -0.020023   0.376025   0.514250  -0.024525  -0.035537   0.001771
     4  H   -0.017453   0.373980  -0.024525   0.494298  -0.026884   0.000683
     5  C   -0.033230   0.377663  -0.035537  -0.026884   4.142730   0.614260
     6  O    0.003747  -0.071692   0.001771   0.000683   0.614260   8.157301
     7  N    0.004523  -0.127188   0.005222   0.000948   0.253303  -0.099528
     8  H    0.000074  -0.001261  -0.000077   0.000290  -0.018337   0.002281
     9  C   -0.000075   0.002899   0.000162  -0.000295  -0.022131   0.003216
    10  H    0.000002  -0.000080  -0.000004  -0.000001   0.001708  -0.000069
    11  C    0.000004   0.000029  -0.000013  -0.000003  -0.002146  -0.005511
    12  H    0.000001   0.000029   0.000000  -0.000004   0.000918   0.001378
    13  H    0.000000   0.000011   0.000000   0.000000   0.000174   0.000746
    14  H    0.000001  -0.000051  -0.000002   0.000001   0.000201  -0.000245
    15  C   -0.000002  -0.000132   0.000002   0.000077  -0.000744  -0.000234
    16  O    0.000000  -0.000165   0.000000   0.000048   0.001148  -0.000004
    17  N    0.000000   0.000000   0.000000   0.000000   0.000105  -0.000010
    18  H    0.000000   0.000000   0.000000   0.000000  -0.000002  -0.000011
    19  C    0.000000   0.000000   0.000000   0.000000  -0.000004   0.000000
    20  H    0.000000   0.000000   0.000000   0.000000   0.000000   0.000000
    21  H    0.000000   0.000000   0.000000   0.000000   0.000000   0.000000
    22  H    0.000000   0.000000   0.000000   0.000000   0.000000   0.000000
              7          8          9         10         11         12
     1  H    0.004523   0.000074  -0.000075   0.000002   0.000004   0.000001
     2  C   -0.127188  -0.001261   0.002899  -0.000080   0.000029   0.000029
     3  H    0.005222  -0.000077   0.000162  -0.000004  -0.000013   0.000000
     4  H    0.000948   0.000290  -0.000295  -0.000001  -0.000003  -0.000004
     5  C    0.253303  -0.018337  -0.022131   0.001708  -0.002146   0.000918
     6  O   -0.099528   0.002281   0.003216  -0.000069  -0.005511   0.001378
     7  N    7.381466   0.321104   0.216640  -0.049270  -0.041227  -0.001517
     8  H    0.321104   0.311053  -0.030456  -0.001551   0.003382  -0.000102
     9  C    0.216640  -0.030456   5.012469   0.419244   0.327039  -0.034708
    10  H   -0.049270  -0.001551   0.419244   0.512437  -0.037558   0.003736
    11  C   -0.041227   0.003382   0.327039  -0.037558   5.143573   0.393296
    12  H   -0.001517  -0.000102  -0.034708   0.003736   0.393296   0.479265
    13  H    0.003908  -0.000076  -0.036658  -0.004845   0.374511  -0.030025
    14  H   -0.002663  -0.000088  -0.029241  -0.002745   0.396939  -0.019461
    15  C   -0.064815  -0.002119   0.385163  -0.050823  -0.042789  -0.002147
    16  O   -0.008664   0.013801  -0.076787  -0.000508   0.002211  -0.000005
    17  N    0.002597   0.000501  -0.103257   0.001810  -0.001068   0.000625
    18  H    0.000023  -0.000027  -0.002969   0.000294   0.002219   0.000945
    19  C   -0.000132  -0.000011   0.004178  -0.000237  -0.000112  -0.000098
    20  H   -0.000008  -0.000001   0.000005   0.000020   0.000006   0.000001
    21  H    0.000000   0.000000   0.000026   0.000004  -0.000016   0.000005
    22  H    0.000015   0.000000  -0.000126  -0.000007  -0.000013  -0.000011
             13         14         15         16         17         18
     1  H    0.000000   0.000001  -0.000002   0.000000   0.000000   0.000000
     2  C    0.000011  -0.000051  -0.000132  -0.000165   0.000000   0.000000
     3  H    0.000000  -0.000002   0.000002   0.000000   0.000000   0.000000
     4  H    0.000000   0.000001   0.000077   0.000048   0.000000   0.000000
     5  C    0.000174   0.000201  -0.000744   0.001148   0.000105  -0.000002
     6  O    0.000746  -0.000245  -0.000234  -0.000004  -0.000010  -0.000011
     7  N    0.003908  -0.002663  -0.064815  -0.008664   0.002597   0.000023
     8  H   -0.000076  -0.000088  -0.002119   0.013801   0.000501  -0.000027
     9  C   -0.036658  -0.029241   0.385163  -0.076787  -0.103257  -0.002969
    10  H   -0.004845  -0.002745  -0.050823  -0.000508   0.001810   0.000294
    11  C    0.374511   0.396939  -0.042789   0.002211  -0.001068   0.002219
    12  H   -0.030025  -0.019461  -0.002147  -0.000005   0.000625   0.000945
    13  H    0.568302  -0.025118  -0.003452  -0.000048   0.000603   0.000348
    14  H   -0.025118   0.471877   0.003101  -0.000044  -0.000006   0.000067
    15  C   -0.003452   0.003101   4.159681   0.600597   0.287024  -0.016169
    16  O   -0.000048  -0.000044   0.600597   8.193996  -0.107700   0.002536
    17  N    0.000603  -0.000006   0.287024  -0.107700   7.328816   0.322735
    18  H    0.000348   0.000067  -0.016169   0.002536   0.322735   0.313057
    19  C    0.000028   0.000004  -0.030207   0.008374   0.196456  -0.023092
    20  H   -0.000011   0.000000  -0.003069   0.003517  -0.039941   0.002549
    21  H   -0.000003   0.000000   0.004505   0.000394  -0.037950  -0.004070
    22  H    0.000007   0.000000  -0.003470   0.001319  -0.045962   0.001161
             19         20         21         22
     1  H    0.000000   0.000000   0.000000   0.000000
     2  C    0.000000   0.000000   0.000000   0.000000
     3  H    0.000000   0.000000   0.000000   0.000000
     4  H    0.000000   0.000000   0.000000   0.000000
     5  C   -0.000004   0.000000   0.000000   0.000000
     6  O    0.000000   0.000000   0.000000   0.000000
     7  N   -0.000132  -0.000008   0.000000   0.000015
     8  H   -0.000011  -0.000001   0.000000   0.000000
     9  C    0.004178   0.000005   0.000026  -0.000126
    10  H   -0.000237   0.000020   0.000004  -0.000007
    11  C   -0.000112   0.000006  -0.000016  -0.000013
    12  H   -0.000098   0.000001   0.000005  -0.000011
    13  H    0.000028  -0.000011  -0.000003   0.000007
    14  H    0.000004   0.000000   0.000000   0.000000
    15  C   -0.030207  -0.003069   0.004505  -0.003470
    16  O    0.008374   0.003517   0.000394   0.001319
    17  N    0.196456  -0.039941  -0.037950  -0.045962
    18  H   -0.023092   0.002549  -0.004070   0.001161
    19  C    4.910009   0.404047   0.397497   0.406189
    20  H    0.404047   0.487898  -0.024921  -0.032556
    21  H    0.397497  -0.024921   0.526554  -0.031460
    22  H    0.406189  -0.032556  -0.031460   0.521724
 Mulliken atomic charges:
              1
     1  H    0.211998
     2  C   -0.590729
     3  H    0.182750
     4  H    0.198841
     5  C    0.746805
     6  O   -0.608078
     7  N   -0.794738
     8  H    0.401622
     9  C   -0.034339
    10  H    0.208443
    11  C   -0.512752
    12  H    0.207879
    13  H    0.151600
    14  H    0.207473
    15  C    0.780021
    16  O   -0.634017
    17  N   -0.805380
    18  H    0.400404
    19  C   -0.272890
    20  H    0.202465
    21  H    0.169432
    22  H    0.183190
 Sum of Mulliken atomic charges =   0.00000
 Mulliken charges with hydrogens summed into heavy atoms:
              1
     2  C    0.002860
     5  C    0.746805
     6  O   -0.608078
     7  N   -0.393116
     9  C    0.174104
    11  C    0.054200
    15  C    0.780021
    16  O   -0.634017
    17  N   -0.404976
    19  C    0.282198
 Sum of Mulliken charges with hydrogens summed into heavy atoms =   0.00000
 Electronic spatial extent (au):  <R**2>=           1826.6650
 Charge=              0.0000 electrons
 Dipole moment (field-independent basis, Debye):
    X=              1.9648    Y=              0.7857    Z=             -1.1179  Tot=              2.3932
 Quadrupole moment (field-independent basis, Debye-Ang):
   XX=            -54.5949   YY=            -63.0789   ZZ=            -60.9923
   XY=             11.3468   XZ=              7.0114   YZ=             -2.8802
 Traceless Quadrupole moment (field-independent basis, Debye-Ang):
   XX=              4.9605   YY=             -3.5235   ZZ=             -1.4369
   XY=             11.3468   XZ=              7.0114   YZ=             -2.8802
 Octapole moment (field-independent basis, Debye-Ang**2):
  XXX=             23.2742  YYY=              7.1305  ZZZ=             -3.0242  XYY=             -1.6103
  XXY=            -12.6515  XXZ=              2.2014  XZZ=              6.4306  YZZ=             -4.3025
  YYZ=              0.5687  XYZ=              4.4376
 Hexadecapole moment (field-independent basis, Debye-Ang**3):
 XXXX=          -1558.5665 YYYY=           -479.9602 ZZZZ=           -207.6965 XXXY=             27.5607
 XXXZ=             38.1639 YYYX=             15.0913 YYYZ=              1.1176 ZZZX=              1.4055
 ZZZY=              3.9557 XXYY=           -358.0448 XXZZ=           -322.6076 YYZZ=           -111.2158
 XXYZ=             -8.7134 YYXZ=             12.2073 ZZXY=              5.8415
 N-N= 5.587502244220D+02 E-N=-2.272945421433D+03  KE= 4.921163224064D+02
 1\1\GINC-RODAN\FOpt\RHF\6-31G(d)\C6H12N2O2\STEBOSS\09-Feb-2017\0\\# HF
 /6-31G* Opt=(ModRedundant) geom=nocrowd\\Phi Psi fixed scan\\0,1\H,1.2
 583487284,2.2661020984,-1.7355133106\C,1.5917542991,2.9317350044,-0.95
 31330003\H,1.4742347831,2.4514544018,0.0117755168\H,0.973359233,3.8243
 567698,-0.9633638539\C,3.0347482026,3.313841101,-1.2183084253\O,3.5545
 359019,3.1119173119,-2.2809505523\N,3.6512219241,3.8873885906,-0.15177
 58964\H,3.0538079747,4.1865538339,0.5865190461\C,4.9475254424,4.542502
 6598,-0.1174992511\H,5.3685110841,4.3086828097,0.857539221\C,5.9546668
 46,4.0521533442,-1.1572198231\H,5.7078503816,4.3620505026,-2.161295141
 6\H,6.941699185,4.4188568371,-0.8917698873\H,5.9929976936,2.972273948,
 -1.1517499779\C,4.7116367195,6.0607064101,-0.0446360746\O,3.762309525,
 6.4833587495,0.5634477075\N,5.6325450125,6.8700536489,-0.5982576774\H,
 6.3079247932,6.4860883899,-1.2148780336\C,5.4805094319,8.3103350179,-0
 .5597123217\H,5.2853539106,8.6316976524,0.4529218422\H,6.400154375,8.7
 644177132,-0.9037803712\H,4.663004553,8.6443732047,-1.1885597351\\Vers
 ion=EM64L-G09RevA.02\State=1-A\HF=-492.849253\RMSD=3.455e-09\RMSF=5.42
 0e-04\Dipole=0.7716068,0.3635243,0.3987536\Quadrupole=5.7719503,-0.253
 3453,-5.5186051,5.3895542,-1.0553945,-7.186832\PG=C01 [X(C6H12N2O2)]\\
 @


      HUMANKIND PERIODICALLY GOES THROUGH A SPEEDUP OF ITS AFFAIRS, 
      THEREBY EXPERIENCING THE RACE BETWEEN THE RENEWABLE VITALITY
      OF THE LIVING, AND THE BECKONING VITIATION OF DECADENCE.
      IN THIS PERIODIC RACE, ANY PAUSE BECOMES A LUXURY.
      ONLY THEN CAN ONE REFLECT THAT ALL IS PERMITTED;
      ALL IS POSSIBLE.

                              -- THE APOCRYPHA OF MUAD'DIB
                                 CHILDREN OF DUNE, BY FRANK HERBERT
 Job cpu time:  0 days  0 hours 26 minutes 45.0 seconds.
 File lengths (MBytes):  RWF=     25 Int=      0 D2E=      0 Chk=      3 Scr=      1
 Normal termination of Gaussian 09 at Thu Feb  9 22:40:33 2017.
