 Entering Gaussian System, Link 0=/home/steboss/local/g09/g09
 Initial command:
 /home/steboss/local//g09/l1.exe /tmp/Gau-22300.inp -scrdir=/tmp/
 Entering Link 1 = /home/steboss/local//g09/l1.exe PID=     22302.
  
 Copyright (c) 1988,1990,1992,1993,1995,1998,2003,2009, Gaussian, Inc.
                  All Rights Reserved.
  
 This is part of the Gaussian(R) 09 program.  It is based on
 the Gaussian(R) 03 system (copyright 2003, Gaussian, Inc.),
 the Gaussian(R) 98 system (copyright 1998, Gaussian, Inc.),
 the Gaussian(R) 94 system (copyright 1995, Gaussian, Inc.),
 the Gaussian 92(TM) system (copyright 1992, Gaussian, Inc.),
 the Gaussian 90(TM) system (copyright 1990, Gaussian, Inc.),
 the Gaussian 88(TM) system (copyright 1988, Gaussian, Inc.),
 the Gaussian 86(TM) system (copyright 1986, Carnegie Mellon
 University), and the Gaussian 82(TM) system (copyright 1983,
 Carnegie Mellon University). Gaussian is a federally registered
 trademark of Gaussian, Inc.
  
 This software contains proprietary and confidential information,
 including trade secrets, belonging to Gaussian, Inc.
  
 This software is provided under written license and may be
 used, copied, transmitted, or stored only in accord with that
 written license.
  
 The following legend is applicable only to US Government
 contracts under FAR:
  
                    RESTRICTED RIGHTS LEGEND
  
 Use, reproduction and disclosure by the US Government is
 subject to restrictions as set forth in subparagraphs (a)
 and (c) of the Commercial Computer Software - Restricted
 Rights clause in FAR 52.227-19.
  
 Gaussian, Inc.
 340 Quinnipiac St., Bldg. 40, Wallingford CT 06492
  
  
 ---------------------------------------------------------------
 Warning -- This program may not be used in any manner that
 competes with the business of Gaussian, Inc. or will provide
 assistance to any competitor of Gaussian, Inc.  The licensee
 of this program is prohibited from giving any competitor of
 Gaussian, Inc. access to this program.  By using this program,
 the user acknowledges that Gaussian, Inc. is engaged in the
 business of creating and licensing software in the field of
 computational chemistry and represents and warrants to the
 licensee that it is not a competitor of Gaussian, Inc. and that
 it will not use this program in any manner prohibited above.
 ---------------------------------------------------------------
  

 Cite this work as:
 Gaussian 09, Revision A.02,
 M. J. Frisch, G. W. Trucks, H. B. Schlegel, G. E. Scuseria, 
 M. A. Robb, J. R. Cheeseman, G. Scalmani, V. Barone, B. Mennucci, 
 G. A. Petersson, H. Nakatsuji, M. Caricato, X. Li, H. P. Hratchian, 
 A. F. Izmaylov, J. Bloino, G. Zheng, J. L. Sonnenberg, M. Hada, 
 M. Ehara, K. Toyota, R. Fukuda, J. Hasegawa, M. Ishida, T. Nakajima, 
 Y. Honda, O. Kitao, H. Nakai, T. Vreven, J. A. Montgomery, Jr., 
 J. E. Peralta, F. Ogliaro, M. Bearpark, J. J. Heyd, E. Brothers, 
 K. N. Kudin, V. N. Staroverov, R. Kobayashi, J. Normand, 
 K. Raghavachari, A. Rendell, J. C. Burant, S. S. Iyengar, J. Tomasi, 
 M. Cossi, N. Rega, J. M. Millam, M. Klene, J. E. Knox, J. B. Cross, 
 V. Bakken, C. Adamo, J. Jaramillo, R. Gomperts, R. E. Stratmann, 
 O. Yazyev, A. J. Austin, R. Cammi, C. Pomelli, J. W. Ochterski, 
 R. L. Martin, K. Morokuma, V. G. Zakrzewski, G. A. Voth, 
 P. Salvador, J. J. Dannenberg, S. Dapprich, A. D. Daniels, 
 O. Farkas, J. B. Foresman, J. V. Ortiz, J. Cioslowski, 
 and D. J. Fox, Gaussian, Inc., Wallingford CT, 2009.
 
 ******************************************
 Gaussian 09:  EM64L-G09RevA.02 11-Jun-2009
                19-Mar-2017 
 ******************************************
 %nproc=8
 Will use up to    8 processors via shared memory.
 %mem=4096MB
 %chk=IPolQout.solv.chk
 ----------------------------------------------------------------------
 #MP2/cc-pvTZ density=MP2, charge, maxdisk=16GB, pop=(minimal, MK), 5d,
  punch=mo
 ----------------------------------------------------------------------
 1/18=10,28=-2,30=1,38=1,125=101/1;
 2/12=2,17=6,18=5,40=1/2;
 3/5=16,6=1,8=1,11=9,16=1,25=1,30=1,71=1/1,2,3;
 4//1;
 5/5=2,38=5/2;
 8/6=4,10=1/1;
 9/15=1,16=-3/6;
 10/5=1,13=10/2;
 6/7=2,8=2,9=2,10=2,15=8,20=1,22=2/1,2;
 99/5=1,9=1,10=32/99;
 -----------------
 Generated by mdgx
 -----------------
 Symbolic Z-matrix:
 Charge =  0 Multiplicity = 1
 H                    -2.9216   -2.12232   0.51856 
 C                    -2.97833  -1.19625  -0.05353 
 H                    -3.77722  -0.60843   0.3985 
 H                    -3.17398  -1.34824  -1.115 
 C                    -1.67298  -0.40224   0.22625 
 O                    -1.02173  -0.65628   1.21019 
 N                    -1.19135   0.43172  -0.7418 
 H                    -1.71276   0.56406  -1.59662 
 C                     0.09784   1.17524  -0.63777 
 H                     0.34902   1.55612  -1.62769 
 C                    -0.14628   2.45135   0.20959 
 H                    -0.41167   2.29834   1.25566 
 H                     0.70546   3.13114   0.23257 
 H                    -0.96975   3.01708  -0.22625 
 C                     1.21804   0.32009  -0.13421 
 O                     2.05334   0.81077   0.70667 
 N                     1.34208  -0.97038  -0.57333 
 H                     0.77603  -1.18605  -1.38153 
 C                     2.44583  -1.81698  -0.08045 
 H                     2.31251  -2.89054  -0.21378 
 H                     3.35343  -1.4309   -0.54446 
 H                     2.37791  -1.63286   0.99174 
 
 Background charge distribution read from input stream:
 Point Charges:
 XYZ=    2.8041   -0.8844    3.6975 Q=    0.0099 A=    0.0000 R=    0.0000 C=    0.0000
 XYZ=    1.7314    0.8677    2.8864 Q=    0.0099 A=    0.0000 R=    0.0000 C=    0.0000
 XYZ=   -3.6421    3.9074    0.0713 Q=    0.0099 A=    0.0000 R=    0.0000 C=    0.0000
 XYZ=   -1.5483    2.9798   -2.9491 Q=   -0.0198 A=    0.0000 R=    0.0000 C=    0.0000
 XYZ=   -2.7789    3.2708    2.4589 Q=    0.0099 A=    0.0000 R=    0.0000 C=    0.0000
 XYZ=   -5.7722    1.3452   -0.0421 Q=   -0.0198 A=    0.0000 R=    0.0000 C=    0.0000
 XYZ=   -5.2594    1.5111    0.7490 Q=    0.0099 A=    0.0000 R=    0.0000 C=    0.0000
 XYZ=   -2.7550    4.0821   -2.2836 Q=    0.0099 A=    0.0000 R=    0.0000 C=    0.0000
 XYZ=    0.2939    5.8448   -0.5593 Q=    0.0099 A=    0.0000 R=    0.0000 C=    0.0000
 XYZ=    1.3030    5.4201   -1.6045 Q=    0.0099 A=    0.0000 R=    0.0000 C=    0.0000
 XYZ=    0.9273    4.0076   -2.9814 Q=   -0.0198 A=    0.0000 R=    0.0000 C=    0.0000
 XYZ=    1.8301    3.6980   -3.0547 Q=    0.0099 A=    0.0000 R=    0.0000 C=    0.0000
 XYZ=    3.3497    3.6106    0.0487 Q=    0.0099 A=    0.0000 R=    0.0000 C=    0.0000
 XYZ=   -0.6698    3.3185   -2.7766 Q=    0.0099 A=    0.0000 R=    0.0000 C=    0.0000
 XYZ=    3.9050    1.6110    1.3800 Q=    0.0099 A=    0.0000 R=    0.0000 C=    0.0000
 XYZ=    3.3124   -1.6542    3.4420 Q=   -0.0198 A=    0.0000 R=    0.0000 C=    0.0000
 XYZ=    4.6550   -1.4929    2.3846 Q=    0.0099 A=    0.0000 R=    0.0000 C=    0.0000
 XYZ=   -4.0718   -0.7214   -3.6215 Q=    0.0099 A=    0.0000 R=    0.0000 C=    0.0000
 XYZ=   -0.5990   -3.0958    1.9661 Q=   -0.0198 A=    0.0000 R=    0.0000 C=    0.0000
 XYZ=   -0.8091   -2.1674    1.8654 Q=    0.0099 A=    0.0000 R=    0.0000 C=    0.0000
 XYZ=   -0.4430   -3.4042    1.0734 Q=    0.0099 A=    0.0000 R=    0.0000 C=    0.0000
 XYZ=   -1.9232   -4.6198   -0.0063 Q=   -0.0198 A=    0.0000 R=    0.0000 C=    0.0000
 XYZ=   -2.1520   -4.0841   -0.7658 Q=    0.0099 A=    0.0000 R=    0.0000 C=    0.0000
 XYZ=   -4.7004    0.5093   -2.4813 Q=   -0.0198 A=    0.0000 R=    0.0000 C=    0.0000
 XYZ=   -4.9007    0.5465   -1.5461 Q=    0.0099 A=    0.0000 R=    0.0000 C=    0.0000
 XYZ=   -2.7884   -3.6283   -2.5811 Q=   -0.0198 A=    0.0000 R=    0.0000 C=    0.0000
 XYZ=   -3.0789   -2.8468   -3.0513 Q=    0.0099 A=    0.0000 R=    0.0000 C=    0.0000
 XYZ=    0.4349   -3.2677   -2.7794 Q=   -0.0198 A=    0.0000 R=    0.0000 C=    0.0000
 XYZ=    0.8569   -3.8581   -2.1553 Q=    0.0099 A=    0.0000 R=    0.0000 C=    0.0000
 XYZ=   -0.1480    0.5929   -3.9276 Q=   -0.0198 A=    0.0000 R=    0.0000 C=    0.0000
 XYZ=    0.7039    0.9805   -4.1284 Q=    0.0099 A=    0.0000 R=    0.0000 C=    0.0000
 XYZ=    0.0426   -0.3299   -3.7589 Q=    0.0099 A=    0.0000 R=    0.0000 C=    0.0000
 XYZ=   -1.4022    2.1852   -3.4624 Q=    0.0099 A=    0.0000 R=    0.0000 C=    0.0000
 XYZ=   -4.5968   -1.2513    3.0524 Q=   -0.0198 A=    0.0000 R=    0.0000 C=    0.0000
 XYZ=   -4.7692   -2.0208    2.5099 Q=    0.0099 A=    0.0000 R=    0.0000 C=    0.0000
 XYZ=    2.6846   -2.3762    3.4708 Q=    0.0099 A=    0.0000 R=    0.0000 C=    0.0000
 XYZ=    3.9140    2.2210    2.0243 Q=   -0.0198 A=    0.0000 R=    0.0000 C=    0.0000
 XYZ=   -5.0708    0.7663    2.3420 Q=    0.0099 A=    0.0000 R=    0.0000 C=    0.0000
 XYZ=   -3.1453    4.2047    1.3647 Q=   -0.0198 A=    0.0000 R=    0.0000 C=    0.0000
 XYZ=   -3.0585    4.0225    0.4290 Q=    0.0099 A=    0.0000 R=    0.0000 C=    0.0000
 XYZ=   -0.9516    3.2058   -3.2485 Q=   -0.0198 A=    0.0000 R=    0.0000 C=    0.0000
 XYZ=   -5.5486    1.6205    0.0267 Q=    0.0099 A=    0.0000 R=    0.0000 C=    0.0000
 XYZ=   -3.0779    4.0124   -1.4257 Q=   -0.0198 A=    0.0000 R=    0.0000 C=    0.0000
 XYZ=   -2.3606    3.5695   -1.8789 Q=    0.0099 A=    0.0000 R=    0.0000 C=    0.0000
 XYZ=    1.5432    5.7044   -0.6440 Q=   -0.0198 A=    0.0000 R=    0.0000 C=    0.0000
 XYZ=    0.5868    5.7413   -0.6316 Q=    0.0099 A=    0.0000 R=    0.0000 C=    0.0000
 XYZ=    1.7543    5.2307   -1.4486 Q=    0.0099 A=    0.0000 R=    0.0000 C=    0.0000
 XYZ=    2.6638    4.7021    1.7197 Q=   -0.0198 A=    0.0000 R=    0.0000 C=    0.0000
 XYZ=    2.2045    5.1577    1.0142 Q=    0.0099 A=    0.0000 R=    0.0000 C=    0.0000
 XYZ=    1.9974    4.5716    2.3943 Q=    0.0099 A=    0.0000 R=    0.0000 C=    0.0000
 XYZ=    2.0857    1.0185    3.1422 Q=    0.0099 A=    0.0000 R=    0.0000 C=    0.0000
 XYZ=    3.3698    3.9293   -0.2488 Q=    0.0099 A=    0.0000 R=    0.0000 C=    0.0000
 XYZ=   -0.0206    3.3743   -3.1033 Q=    0.0099 A=    0.0000 R=    0.0000 C=    0.0000
 XYZ=    3.2562    1.6490    1.6289 Q=    0.0099 A=    0.0000 R=    0.0000 C=    0.0000
 XYZ=    2.9859   -1.6037    3.5174 Q=   -0.0198 A=    0.0000 R=    0.0000 C=    0.0000
 XYZ=    2.3346   -2.2080    3.8737 Q=    0.0099 A=    0.0000 R=    0.0000 C=    0.0000
 XYZ=    4.2698   -1.9919    2.3081 Q=    0.0099 A=    0.0000 R=    0.0000 C=    0.0000
 XYZ=    5.0376   -2.1157    1.7502 Q=   -0.0198 A=    0.0000 R=    0.0000 C=    0.0000
 XYZ=    5.2731   -1.2320    1.4675 Q=    0.0099 A=    0.0000 R=    0.0000 C=    0.0000
 XYZ=   -3.9653   -1.0799   -3.7111 Q=    0.0099 A=    0.0000 R=    0.0000 C=    0.0000
 XYZ=    2.9373   -4.1925   -2.4465 Q=    0.0099 A=    0.0000 R=    0.0000 C=    0.0000
 XYZ=    1.7653   -5.2236   -1.4254 Q=   -0.0198 A=    0.0000 R=    0.0000 C=    0.0000
 XYZ=    2.4044   -5.6492   -0.8538 Q=    0.0099 A=    0.0000 R=    0.0000 C=    0.0000
 XYZ=   -0.4790   -3.4596    1.8521 Q=   -0.0198 A=    0.0000 R=    0.0000 C=    0.0000
 XYZ=   -0.5150   -2.5358    1.6037 Q=    0.0099 A=    0.0000 R=    0.0000 C=    0.0000
 XYZ=   -1.6959   -4.2996   -0.6192 Q=   -0.0198 A=    0.0000 R=    0.0000 C=    0.0000
 XYZ=   -2.1576   -4.1500   -1.4442 Q=    0.0099 A=    0.0000 R=    0.0000 C=    0.0000
 XYZ=   -2.3538   -4.6900   -0.0439 Q=    0.0099 A=    0.0000 R=    0.0000 C=    0.0000
 XYZ=   -3.9528    0.5294   -2.8833 Q=   -0.0198 A=    0.0000 R=    0.0000 C=    0.0000
 XYZ=   -3.9593    1.4228   -3.2268 Q=    0.0099 A=    0.0000 R=    0.0000 C=    0.0000
 XYZ=   -4.6271    0.5291   -2.2040 Q=    0.0099 A=    0.0000 R=    0.0000 C=    0.0000
 XYZ=    0.1894   -2.8178   -2.4881 Q=   -0.0198 A=    0.0000 R=    0.0000 C=    0.0000
 XYZ=    0.0733   -3.3915   -1.7307 Q=    0.0099 A=    0.0000 R=    0.0000 C=    0.0000
 XYZ=    0.8838   -3.2335   -2.9992 Q=    0.0099 A=    0.0000 R=    0.0000 C=    0.0000
 XYZ=   -0.5814    0.1220   -3.6471 Q=   -0.0198 A=    0.0000 R=    0.0000 C=    0.0000
 XYZ=    0.2358    0.1312   -4.1454 Q=    0.0099 A=    0.0000 R=    0.0000 C=    0.0000
 XYZ=   -0.8059   -0.8055   -3.5722 Q=    0.0099 A=    0.0000 R=    0.0000 C=    0.0000
 XYZ=   -0.9989    2.2684   -3.4363 Q=    0.0099 A=    0.0000 R=    0.0000 C=    0.0000
 XYZ=   -5.2177   -1.0524    2.5370 Q=   -0.0198 A=    0.0000 R=    0.0000 C=    0.0000
 XYZ=   -4.4831   -1.3983    3.0440 Q=    0.0099 A=    0.0000 R=    0.0000 C=    0.0000
 XYZ=   -5.5416   -1.8043    2.0411 Q=    0.0099 A=    0.0000 R=    0.0000 C=    0.0000
 XYZ=    5.1960   -0.6729   -2.1986 Q=    0.0099 A=    0.0000 R=    0.0000 C=    0.0000
 XYZ=    3.8737    2.1481    2.0701 Q=   -0.0198 A=    0.0000 R=    0.0000 C=    0.0000
 XYZ=    3.3479    2.9395    2.1858 Q=    0.0099 A=    0.0000 R=    0.0000 C=    0.0000
 XYZ=   -5.0921    1.7995    1.5235 Q=   -0.0198 A=    0.0000 R=    0.0000 C=    0.0000
 XYZ=   -5.0686    0.9187    1.8977 Q=    0.0099 A=    0.0000 R=    0.0000 C=    0.0000
 XYZ=    1.7712    0.3706    3.6007 Q=   -0.0198 A=    0.0000 R=    0.0000 C=    0.0000
 XYZ=    1.8017    0.6616    2.6893 Q=    0.0099 A=    0.0000 R=    0.0000 C=    0.0000
 XYZ=   -3.0807    4.3164    1.1383 Q=   -0.0198 A=    0.0000 R=    0.0000 C=    0.0000
 XYZ=   -3.1656    4.1559    0.1985 Q=    0.0099 A=    0.0000 R=    0.0000 C=    0.0000
 XYZ=   -0.8913    2.8020   -3.2240 Q=   -0.0198 A=    0.0000 R=    0.0000 C=    0.0000
 XYZ=   -2.9046    3.9340   -1.5101 Q=   -0.0198 A=    0.0000 R=    0.0000 C=    0.0000
 XYZ=   -1.9511    3.9264   -1.5944 Q=    0.0099 A=    0.0000 R=    0.0000 C=    0.0000
 XYZ=    1.5459    5.3214   -1.2933 Q=    0.0099 A=    0.0000 R=    0.0000 C=    0.0000
 XYZ=    2.1724    4.4382    1.8696 Q=   -0.0198 A=    0.0000 R=    0.0000 C=    0.0000
 XYZ=    2.0305    5.1305    1.2239 Q=    0.0099 A=    0.0000 R=    0.0000 C=    0.0000
 XYZ=    3.3497    3.8585    0.0636 Q=    0.0099 A=    0.0000 R=    0.0000 C=    0.0000
 XYZ=    0.0376    3.0328   -3.2258 Q=    0.0099 A=    0.0000 R=    0.0000 C=    0.0000
 XYZ=    3.3377    1.5838    1.5129 Q=    0.0099 A=    0.0000 R=    0.0000 C=    0.0000
 XYZ=    2.6943   -1.3560    3.8454 Q=    0.0099 A=    0.0000 R=    0.0000 C=    0.0000
 XYZ=   -4.1317   -1.3524   -3.5821 Q=    0.0099 A=    0.0000 R=    0.0000 C=    0.0000
 XYZ=    3.5516   -3.8260   -2.6125 Q=   -0.0198 A=    0.0000 R=    0.0000 C=    0.0000
 XYZ=    2.8910   -4.0864   -1.9707 Q=    0.0099 A=    0.0000 R=    0.0000 C=    0.0000
 XYZ=    1.5623   -4.9963   -0.9421 Q=   -0.0198 A=    0.0000 R=    0.0000 C=    0.0000
 XYZ=    2.2954   -5.5721   -0.7244 Q=    0.0099 A=    0.0000 R=    0.0000 C=    0.0000
 XYZ=   -0.0606   -3.1498    1.2548 Q=   -0.0198 A=    0.0000 R=    0.0000 C=    0.0000
 XYZ=   -0.3952   -2.2537    1.2196 Q=    0.0099 A=    0.0000 R=    0.0000 C=    0.0000
 XYZ=   -0.2112   -3.4964    0.3754 Q=    0.0099 A=    0.0000 R=    0.0000 C=    0.0000
 XYZ=   -2.1320   -2.9935    2.7642 Q=    0.0099 A=    0.0000 R=    0.0000 C=    0.0000
 XYZ=   -4.4006    0.0515   -2.6710 Q=   -0.0198 A=    0.0000 R=    0.0000 C=    0.0000
 XYZ=   -4.1420    0.8142   -3.1883 Q=    0.0099 A=    0.0000 R=    0.0000 C=    0.0000
 XYZ=   -5.1635    0.3467   -2.1739 Q=    0.0099 A=    0.0000 R=    0.0000 C=    0.0000
 XYZ=   -3.3299   -3.3785   -3.0946 Q=    0.0099 A=    0.0000 R=    0.0000 C=    0.0000
 XYZ=    0.0283   -2.5747   -2.9729 Q=   -0.0198 A=    0.0000 R=    0.0000 C=    0.0000
 XYZ=   -0.3988   -3.2598   -2.4587 Q=    0.0099 A=    0.0000 R=    0.0000 C=    0.0000
 XYZ=   -0.8192    0.1555   -3.8645 Q=   -0.0198 A=    0.0000 R=    0.0000 C=    0.0000
 XYZ=   -0.0579    0.4312   -4.3751 Q=    0.0099 A=    0.0000 R=    0.0000 C=    0.0000
 XYZ=   -0.6516   -0.7650   -3.6625 Q=    0.0099 A=    0.0000 R=    0.0000 C=    0.0000
 XYZ=   -0.9066    1.8683   -3.4343 Q=    0.0099 A=    0.0000 R=    0.0000 C=    0.0000
 XYZ=    4.3485    2.0033    1.9815 Q=   -0.0198 A=    0.0000 R=    0.0000 C=    0.0000
 XYZ=   -5.0870    1.1639    2.1389 Q=    0.0099 A=    0.0000 R=    0.0000 C=    0.0000
 XYZ=    1.3438   -0.0496    3.3140 Q=   -0.0198 A=    0.0000 R=    0.0000 C=    0.0000
 XYZ=    1.5127    0.2620    2.4249 Q=    0.0099 A=    0.0000 R=    0.0000 C=    0.0000
 XYZ=   -2.7097    4.5707    0.4868 Q=   -0.0198 A=    0.0000 R=    0.0000 C=    0.0000
 XYZ=   -2.9587    4.1882   -0.3546 Q=    0.0099 A=    0.0000 R=    0.0000 C=    0.0000
 XYZ=   -1.1292    3.2191   -3.4565 Q=   -0.0198 A=    0.0000 R=    0.0000 C=    0.0000
 XYZ=   -0.7011    1.7894    4.0311 Q=   -0.0198 A=    0.0000 R=    0.0000 C=    0.0000
 XYZ=   -0.2059    2.6028    3.9342 Q=    0.0099 A=    0.0000 R=    0.0000 C=    0.0000
 XYZ=   -1.6162    2.0530    3.9343 Q=    0.0099 A=    0.0000 R=    0.0000 C=    0.0000
 XYZ=   -2.4405    3.7437    2.1684 Q=    0.0099 A=    0.0000 R=    0.0000 C=    0.0000
 XYZ=    1.7536    5.2125   -0.5462 Q=   -0.0198 A=    0.0000 R=    0.0000 C=    0.0000
 XYZ=    1.0028    5.7786   -0.3671 Q=    0.0099 A=    0.0000 R=    0.0000 C=    0.0000
 XYZ=    1.5984    4.8817   -1.4309 Q=    0.0099 A=    0.0000 R=    0.0000 C=    0.0000
 XYZ=    2.0157    4.7860    1.6172 Q=    0.0099 A=    0.0000 R=    0.0000 C=    0.0000
 XYZ=    2.9266    3.7684   -0.5822 Q=    0.0099 A=    0.0000 R=    0.0000 C=    0.0000
 XYZ=   -0.2203    3.4258   -3.2388 Q=    0.0099 A=    0.0000 R=    0.0000 C=    0.0000
 XYZ=    3.4280    1.7893    1.8294 Q=    0.0099 A=    0.0000 R=    0.0000 C=    0.0000
 XYZ=    2.5233   -2.6075    3.7382 Q=    0.0099 A=    0.0000 R=    0.0000 C=    0.0000
 XYZ=    3.9648   -4.2690   -2.2251 Q=   -0.0198 A=    0.0000 R=    0.0000 C=    0.0000
 XYZ=    3.0910   -4.2595   -1.8344 Q=    0.0099 A=    0.0000 R=    0.0000 C=    0.0000
 XYZ=    1.2098   -4.9612   -1.3394 Q=   -0.0198 A=    0.0000 R=    0.0000 C=    0.0000
 XYZ=    0.5655   -4.3072   -1.0688 Q=    0.0099 A=    0.0000 R=    0.0000 C=    0.0000
 XYZ=    1.4965   -5.3677   -0.5216 Q=    0.0099 A=    0.0000 R=    0.0000 C=    0.0000
 XYZ=   -0.4174   -2.8713    1.7916 Q=    0.0099 A=    0.0000 R=    0.0000 C=    0.0000
 XYZ=   -1.0314   -3.9763    0.9592 Q=    0.0099 A=    0.0000 R=    0.0000 C=    0.0000
 XYZ=   -1.7104   -4.5013   -0.6150 Q=   -0.0198 A=    0.0000 R=    0.0000 C=    0.0000
 XYZ=   -2.4480   -4.3511   -1.2063 Q=    0.0099 A=    0.0000 R=    0.0000 C=    0.0000
 XYZ=   -0.2787   -2.0738   -2.9629 Q=   -0.0198 A=    0.0000 R=    0.0000 C=    0.0000
 XYZ=   -0.7939   -2.6925   -2.4452 Q=    0.0099 A=    0.0000 R=    0.0000 C=    0.0000
 XYZ=   -0.0079   -2.5733   -3.7332 Q=    0.0099 A=    0.0000 R=    0.0000 C=    0.0000
 XYZ=   -0.4784    0.5964   -3.7125 Q=   -0.0198 A=    0.0000 R=    0.0000 C=    0.0000
 XYZ=    0.4331    0.6823   -3.9920 Q=    0.0099 A=    0.0000 R=    0.0000 C=    0.0000
 XYZ=   -0.5536   -0.3107   -3.4162 Q=    0.0099 A=    0.0000 R=    0.0000 C=    0.0000
 XYZ=   -1.1465    2.2650   -3.5311 Q=    0.0099 A=    0.0000 R=    0.0000 C=    0.0000
 XYZ=    4.2545    1.9530    1.7435 Q=   -0.0198 A=    0.0000 R=    0.0000 C=    0.0000
 XYZ=   -4.9250    1.7907    1.3641 Q=   -0.0198 A=    0.0000 R=    0.0000 C=    0.0000
 XYZ=   -4.5460    1.1669    1.9833 Q=    0.0099 A=    0.0000 R=    0.0000 C=    0.0000
 XYZ=    1.4807    0.2236    3.3079 Q=   -0.0198 A=    0.0000 R=    0.0000 C=    0.0000
 XYZ=    1.6915    0.4527    2.4028 Q=    0.0099 A=    0.0000 R=    0.0000 C=    0.0000
 XYZ=    0.5827    0.5318    3.4300 Q=    0.0099 A=    0.0000 R=    0.0000 C=    0.0000
 XYZ=   -2.6784    5.2897    0.1387 Q=   -0.0198 A=    0.0000 R=    0.0000 C=    0.0000
 XYZ=   -2.7001    4.6824   -0.6009 Q=    0.0099 A=    0.0000 R=    0.0000 C=    0.0000
 XYZ=   -4.4670   -0.4544    2.9239 Q=   -0.0198 A=    0.0000 R=    0.0000 C=    0.0000
 XYZ=   -1.0496    1.6445    3.9192 Q=   -0.0198 A=    0.0000 R=    0.0000 C=    0.0000
 XYZ=   -0.4046    2.3046    4.1734 Q=    0.0099 A=    0.0000 R=    0.0000 C=    0.0000
 XYZ=   -1.6453    2.1064    3.3293 Q=    0.0099 A=    0.0000 R=    0.0000 C=    0.0000
 XYZ=   -2.6133    3.6353    2.5411 Q=   -0.0198 A=    0.0000 R=    0.0000 C=    0.0000
 XYZ=   -2.7167    3.9544    1.6446 Q=    0.0099 A=    0.0000 R=    0.0000 C=    0.0000
 XYZ=   -3.1039    3.5599   -2.1826 Q=   -0.0198 A=    0.0000 R=    0.0000 C=    0.0000
 XYZ=   -2.2161    3.7601   -2.4793 Q=    0.0099 A=    0.0000 R=    0.0000 C=    0.0000
 XYZ=    1.9927    5.0993   -0.8004 Q=   -0.0198 A=    0.0000 R=    0.0000 C=    0.0000
 XYZ=    1.2002    5.5266   -0.4754 Q=    0.0099 A=    0.0000 R=    0.0000 C=    0.0000
 XYZ=    1.7990    4.9001   -1.7164 Q=    0.0099 A=    0.0000 R=    0.0000 C=    0.0000
 XYZ=   -0.2524    3.4647   -3.8059 Q=    0.0099 A=    0.0000 R=    0.0000 C=    0.0000
 XYZ=    3.4026    1.9063    1.3095 Q=    0.0099 A=    0.0000 R=    0.0000 C=    0.0000
 XYZ=    2.1783   -1.3136    3.7755 Q=    0.0099 A=    0.0000 R=    0.0000 C=    0.0000
 XYZ=    4.0889   -4.6479   -1.7479 Q=    0.0099 A=    0.0000 R=    0.0000 C=    0.0000
 XYZ=    3.8005   -2.1033   -3.1239 Q=    0.0099 A=    0.0000 R=    0.0000 C=    0.0000
 XYZ=    1.1623   -4.7396   -0.9870 Q=   -0.0198 A=    0.0000 R=    0.0000 C=    0.0000
 XYZ=    0.5981   -4.1651   -0.4695 Q=    0.0099 A=    0.0000 R=    0.0000 C=    0.0000
 XYZ=   -0.7874   -3.3482    2.1969 Q=   -0.0198 A=    0.0000 R=    0.0000 C=    0.0000
 XYZ=   -0.7263   -2.4320    1.9265 Q=    0.0099 A=    0.0000 R=    0.0000 C=    0.0000
 XYZ=   -1.2242   -3.7851    1.4657 Q=    0.0099 A=    0.0000 R=    0.0000 C=    0.0000
 XYZ=   -2.0785   -4.4794   -0.5879 Q=    0.0099 A=    0.0000 R=    0.0000 C=    0.0000
 XYZ=   -5.4550   -3.2735   -0.5891 Q=    0.0099 A=    0.0000 R=    0.0000 C=    0.0000
 XYZ=   -0.8618   -1.6517   -3.0512 Q=   -0.0198 A=    0.0000 R=    0.0000 C=    0.0000
 XYZ=   -1.1824   -2.5062   -2.7628 Q=    0.0099 A=    0.0000 R=    0.0000 C=    0.0000
 XYZ=   -0.3470   -1.8412   -3.8356 Q=    0.0099 A=    0.0000 R=    0.0000 C=    0.0000
 XYZ=   -4.2526   -1.3763    3.0667 Q=    0.0099 A=    0.0000 R=    0.0000 C=    0.0000
 XYZ=    4.3662    1.2385   -0.8470 Q=    0.0099 A=    0.0000 R=    0.0000 C=    0.0000
 XYZ=    4.3283    1.9747    1.6118 Q=   -0.0198 A=    0.0000 R=    0.0000 C=    0.0000
 XYZ=   -4.5123    1.6426    1.2031 Q=   -0.0198 A=    0.0000 R=    0.0000 C=    0.0000
 XYZ=   -4.7393    0.8089    1.6149 Q=    0.0099 A=    0.0000 R=    0.0000 C=    0.0000
 XYZ=   -3.7412    1.9447    1.6831 Q=    0.0099 A=    0.0000 R=    0.0000 C=    0.0000
 XYZ=    1.4802    0.4028    3.4370 Q=   -0.0198 A=    0.0000 R=    0.0000 C=    0.0000
 XYZ=    1.7813    0.5328    2.5377 Q=    0.0099 A=    0.0000 R=    0.0000 C=    0.0000
 XYZ=    0.5252    0.4004    3.3718 Q=    0.0099 A=    0.0000 R=    0.0000 C=    0.0000
 XYZ=   -4.7991   -0.5924    2.9143 Q=   -0.0198 A=    0.0000 R=    0.0000 C=    0.0000
 XYZ=   -1.0555    1.3275    4.0190 Q=   -0.0198 A=    0.0000 R=    0.0000 C=    0.0000
 XYZ=   -1.8539    1.6157    3.5766 Q=    0.0099 A=    0.0000 R=    0.0000 C=    0.0000
 XYZ=    1.9645   -1.2887    3.7589 Q=    0.0099 A=    0.0000 R=    0.0000 C=    0.0000
 XYZ=   -2.6358    3.6734    2.4054 Q=   -0.0198 A=    0.0000 R=    0.0000 C=    0.0000
 XYZ=   -2.5154    4.1845    1.6051 Q=    0.0099 A=    0.0000 R=    0.0000 C=    0.0000
 XYZ=   -5.5118    1.5634   -0.5324 Q=    0.0099 A=    0.0000 R=    0.0000 C=    0.0000
 XYZ=   -2.3740    4.0496   -2.2904 Q=   -0.0198 A=    0.0000 R=    0.0000 C=    0.0000
 XYZ=   -2.1499    5.7293   -0.0219 Q=   -0.0198 A=    0.0000 R=    0.0000 C=    0.0000
 XYZ=   -2.1384    5.0549   -0.7010 Q=    0.0099 A=    0.0000 R=    0.0000 C=    0.0000
 XYZ=    3.3981    1.8083    1.4594 Q=    0.0099 A=    0.0000 R=    0.0000 C=    0.0000
 XYZ=    2.5536   -2.0269    3.9149 Q=   -0.0198 A=    0.0000 R=    0.0000 C=    0.0000
 XYZ=    2.9027   -2.1811   -3.2304 Q=   -0.0198 A=    0.0000 R=    0.0000 C=    0.0000
 XYZ=    3.8030   -2.0717   -2.9241 Q=    0.0099 A=    0.0000 R=    0.0000 C=    0.0000
 XYZ=    2.6275   -3.0237   -2.8692 Q=    0.0099 A=    0.0000 R=    0.0000 C=    0.0000
 XYZ=    1.1970   -4.8640   -1.0170 Q=   -0.0198 A=    0.0000 R=    0.0000 C=    0.0000
 XYZ=    0.4577   -4.2564   -1.0378 Q=    0.0099 A=    0.0000 R=    0.0000 C=    0.0000
 XYZ=   -1.4850   -3.1999    2.2101 Q=   -0.0198 A=    0.0000 R=    0.0000 C=    0.0000
 XYZ=   -1.1543   -2.3195    2.0319 Q=    0.0099 A=    0.0000 R=    0.0000 C=    0.0000
 XYZ=   -1.3206   -3.6857    1.4018 Q=    0.0099 A=    0.0000 R=    0.0000 C=    0.0000
 XYZ=   -2.0235   -4.7471   -0.2368 Q=   -0.0198 A=    0.0000 R=    0.0000 C=    0.0000
 XYZ=   -2.4685   -4.4191   -1.0183 Q=    0.0099 A=    0.0000 R=    0.0000 C=    0.0000
 XYZ=   -0.5694   -1.3086   -3.3397 Q=   -0.0198 A=    0.0000 R=    0.0000 C=    0.0000
 XYZ=   -1.1080   -2.0991   -3.3754 Q=    0.0099 A=    0.0000 R=    0.0000 C=    0.0000
 XYZ=    0.2294   -1.5415   -3.8129 Q=    0.0099 A=    0.0000 R=    0.0000 C=    0.0000
 XYZ=   -0.5218    0.4604   -4.2914 Q=    0.0099 A=    0.0000 R=    0.0000 C=    0.0000
 XYZ=   -4.8745   -1.5081    2.6458 Q=    0.0099 A=    0.0000 R=    0.0000 C=    0.0000
 XYZ=    3.8023   -5.3668    0.4124 Q=   -0.0198 A=    0.0000 R=    0.0000 C=    0.0000
 XYZ=    2.9474   -5.1015    0.0732 Q=    0.0099 A=    0.0000 R=    0.0000 C=    0.0000
 XYZ=    2.0487   -2.7961    3.6513 Q=    0.0099 A=    0.0000 R=    0.0000 C=    0.0000
 XYZ=    4.9499    0.5164   -0.9149 Q=   -0.0198 A=    0.0000 R=    0.0000 C=    0.0000
 XYZ=    4.2687    0.5792   -0.2454 Q=    0.0099 A=    0.0000 R=    0.0000 C=    0.0000
 XYZ=    3.8403    2.2624    1.7193 Q=   -0.0198 A=    0.0000 R=    0.0000 C=    0.0000
 XYZ=    1.5397    0.0036    3.3137 Q=   -0.0198 A=    0.0000 R=    0.0000 C=    0.0000
 XYZ=    1.7146    0.3832    2.4526 Q=    0.0099 A=    0.0000 R=    0.0000 C=    0.0000
 XYZ=   -4.7702   -0.4300    2.9760 Q=   -0.0198 A=    0.0000 R=    0.0000 C=    0.0000
 XYZ=   -1.0746    2.1072    3.4892 Q=    0.0099 A=    0.0000 R=    0.0000 C=    0.0000
 XYZ=   -2.5261    3.2628    2.6154 Q=   -0.0198 A=    0.0000 R=    0.0000 C=    0.0000
 XYZ=   -2.2074    3.7657    1.8659 Q=    0.0099 A=    0.0000 R=    0.0000 C=    0.0000
 XYZ=   -5.4057    1.4943   -0.3907 Q=    0.0099 A=    0.0000 R=    0.0000 C=    0.0000
 XYZ=    3.5564    3.0882    1.3273 Q=    0.0099 A=    0.0000 R=    0.0000 C=    0.0000
 XYZ=    3.2741    1.6012    1.3213 Q=    0.0099 A=    0.0000 R=    0.0000 C=    0.0000
 XYZ=    2.5176   -1.3381    3.7649 Q=    0.0099 A=    0.0000 R=    0.0000 C=    0.0000
 XYZ=   -2.9644   -1.3156   -3.9962 Q=   -0.0198 A=    0.0000 R=    0.0000 C=    0.0000
 XYZ=   -3.6296   -0.6337   -3.9029 Q=    0.0099 A=    0.0000 R=    0.0000 C=    0.0000
 XYZ=    0.6058   -3.7365    2.1680 Q=    0.0099 A=    0.0000 R=    0.0000 C=    0.0000
 XYZ=    4.5040   -4.4271   -1.2629 Q=    0.0099 A=    0.0000 R=    0.0000 C=    0.0000
 XYZ=    3.5649   -2.7828   -3.0478 Q=    0.0099 A=    0.0000 R=    0.0000 C=    0.0000
 XYZ=    2.0574   -2.8260   -3.1763 Q=    0.0099 A=    0.0000 R=    0.0000 C=    0.0000
 XYZ=    0.8294   -5.1889   -1.0929 Q=   -0.0198 A=    0.0000 R=    0.0000 C=    0.0000
 XYZ=   -1.1640   -3.2763    2.3139 Q=   -0.0198 A=    0.0000 R=    0.0000 C=    0.0000
 XYZ=   -0.9932   -2.3641    2.0798 Q=    0.0099 A=    0.0000 R=    0.0000 C=    0.0000
 XYZ=   -1.2474   -3.7276    1.4739 Q=    0.0099 A=    0.0000 R=    0.0000 C=    0.0000
 XYZ=   -1.7690   -4.6298   -0.3704 Q=   -0.0198 A=    0.0000 R=    0.0000 C=    0.0000
 XYZ=   -2.3164   -4.2286   -1.0454 Q=    0.0099 A=    0.0000 R=    0.0000 C=    0.0000
 XYZ=   -5.0022   -2.6799   -0.2231 Q=    0.0099 A=    0.0000 R=    0.0000 C=    0.0000
 XYZ=   -0.4363   -1.7746   -3.3891 Q=   -0.0198 A=    0.0000 R=    0.0000 C=    0.0000
 XYZ=   -1.3869   -1.7279   -3.4918 Q=    0.0099 A=    0.0000 R=    0.0000 C=    0.0000
 XYZ=   -0.7873   -0.0747   -4.2410 Q=    0.0099 A=    0.0000 R=    0.0000 C=    0.0000
 XYZ=    3.9454   -5.3326    0.1414 Q=   -0.0198 A=    0.0000 R=    0.0000 C=    0.0000
 XYZ=    2.9957   -5.2501    0.0542 Q=    0.0099 A=    0.0000 R=    0.0000 C=    0.0000
 XYZ=    2.3979   -2.8034    3.4052 Q=    0.0099 A=    0.0000 R=    0.0000 C=    0.0000
 XYZ=    2.2092   -0.9175   -3.9916 Q=    0.0099 A=    0.0000 R=    0.0000 C=    0.0000
 XYZ=    5.4026    0.5822   -0.7068 Q=   -0.0198 A=    0.0000 R=    0.0000 C=    0.0000
 XYZ=    4.6228    1.0903   -0.4828 Q=    0.0099 A=    0.0000 R=    0.0000 C=    0.0000
 XYZ=    3.5864    2.5328    2.1792 Q=   -0.0198 A=    0.0000 R=    0.0000 C=    0.0000
 XYZ=    4.0366    2.9344    1.4360 Q=    0.0099 A=    0.0000 R=    0.0000 C=    0.0000
 XYZ=   -4.8057    1.1497    2.2901 Q=    0.0099 A=    0.0000 R=    0.0000 C=    0.0000
 XYZ=    1.2454   -0.2982    3.1813 Q=   -0.0198 A=    0.0000 R=    0.0000 C=    0.0000
 XYZ=    1.5605    0.3102    2.5129 Q=    0.0099 A=    0.0000 R=    0.0000 C=    0.0000
 XYZ=    0.3064   -0.1225    3.2415 Q=    0.0099 A=    0.0000 R=    0.0000 C=    0.0000
 XYZ=   -1.3896    1.6890    3.3686 Q=    0.0099 A=    0.0000 R=    0.0000 C=    0.0000
 XYZ=   -1.9532    4.2080    2.5740 Q=    0.0099 A=    0.0000 R=    0.0000 C=    0.0000
 XYZ=    1.3945    5.5808   -1.1515 Q=    0.0099 A=    0.0000 R=    0.0000 C=    0.0000
 XYZ=    1.2256    4.5827    2.3971 Q=   -0.0198 A=    0.0000 R=    0.0000 C=    0.0000
 XYZ=    2.0613    4.1180    2.3519 Q=    0.0099 A=    0.0000 R=    0.0000 C=    0.0000
 XYZ=   -0.5709    5.0727    1.6703 Q=    0.0099 A=    0.0000 R=    0.0000 C=    0.0000
 XYZ=    3.0124    1.8760    1.7851 Q=    0.0099 A=    0.0000 R=    0.0000 C=    0.0000
 XYZ=    2.9693   -2.2457    3.6324 Q=   -0.0198 A=    0.0000 R=    0.0000 C=    0.0000
 XYZ=   -3.2039   -2.9662   -3.6186 Q=    0.0099 A=    0.0000 R=    0.0000 C=    0.0000
 XYZ=    4.3520   -4.6143   -1.5781 Q=    0.0099 A=    0.0000 R=    0.0000 C=    0.0000
 XYZ=    2.8206   -1.7281   -3.2547 Q=    0.0099 A=    0.0000 R=    0.0000 C=    0.0000
 XYZ=    1.2293   -5.3590   -0.6789 Q=   -0.0198 A=    0.0000 R=    0.0000 C=    0.0000
 XYZ=    0.7099   -4.5658   -0.8100 Q=    0.0099 A=    0.0000 R=    0.0000 C=    0.0000
 XYZ=   -0.6822   -3.3817    2.2458 Q=   -0.0198 A=    0.0000 R=    0.0000 C=    0.0000
 XYZ=   -0.7906   -2.4315    2.2855 Q=    0.0099 A=    0.0000 R=    0.0000 C=    0.0000
 XYZ=   -0.9037   -3.6105    1.3431 Q=    0.0099 A=    0.0000 R=    0.0000 C=    0.0000
 XYZ=   -1.5275   -4.3049   -0.8441 Q=   -0.0198 A=    0.0000 R=    0.0000 C=    0.0000
 XYZ=   -4.7780   -3.2557   -0.5496 Q=    0.0099 A=    0.0000 R=    0.0000 C=    0.0000
 XYZ=   -0.1784   -1.8652   -2.9584 Q=   -0.0198 A=    0.0000 R=    0.0000 C=    0.0000
 XYZ=   -1.1126   -2.0724   -2.9344 Q=    0.0099 A=    0.0000 R=    0.0000 C=    0.0000
 XYZ=    0.1641   -2.3867   -3.6843 Q=    0.0099 A=    0.0000 R=    0.0000 C=    0.0000
 XYZ=    0.1972    0.6892   -4.4673 Q=    0.0099 A=    0.0000 R=    0.0000 C=    0.0000
 XYZ=   -1.1961    0.0989   -4.5033 Q=    0.0099 A=    0.0000 R=    0.0000 C=    0.0000
 XYZ=    4.0020   -5.2264    0.0781 Q=   -0.0198 A=    0.0000 R=    0.0000 C=    0.0000
 XYZ=    3.0490   -5.2151   -0.0106 Q=    0.0099 A=    0.0000 R=    0.0000 C=    0.0000
 XYZ=    2.4707   -1.4482    3.4545 Q=    0.0099 A=    0.0000 R=    0.0000 C=    0.0000
 XYZ=    2.5170   -2.9270    3.1349 Q=    0.0099 A=    0.0000 R=    0.0000 C=    0.0000
 XYZ=    4.8436    0.6356   -0.4947 Q=   -0.0198 A=    0.0000 R=    0.0000 C=    0.0000
 XYZ=    3.9666    0.9793   -0.3243 Q=    0.0099 A=    0.0000 R=    0.0000 C=    0.0000
 XYZ=    3.6003    2.2992    2.2976 Q=   -0.0198 A=    0.0000 R=    0.0000 C=    0.0000
 XYZ=    3.7781    3.0097    1.6813 Q=    0.0099 A=    0.0000 R=    0.0000 C=    0.0000
 XYZ=   -4.8407    1.5473    2.1323 Q=    0.0099 A=    0.0000 R=    0.0000 C=    0.0000
 XYZ=    1.0389   -0.4020    3.3697 Q=   -0.0198 A=    0.0000 R=    0.0000 C=    0.0000
 XYZ=    1.3048   -0.2790    2.4585 Q=    0.0099 A=    0.0000 R=    0.0000 C=    0.0000
 XYZ=    0.1517   -0.0449    3.4106 Q=    0.0099 A=    0.0000 R=    0.0000 C=    0.0000
 XYZ=   -1.1555    1.2849    3.6214 Q=   -0.0198 A=    0.0000 R=    0.0000 C=    0.0000
 XYZ=   -1.0258    1.7468    2.7931 Q=    0.0099 A=    0.0000 R=    0.0000 C=    0.0000
 XYZ=   -2.1229    4.2681    2.4499 Q=    0.0099 A=    0.0000 R=    0.0000 C=    0.0000
 XYZ=    1.3500    4.8102    2.1941 Q=   -0.0198 A=    0.0000 R=    0.0000 C=    0.0000
 XYZ=    1.8874    4.1064    2.5577 Q=    0.0099 A=    0.0000 R=    0.0000 C=    0.0000
 XYZ=   -1.1936    5.3748    1.3812 Q=   -0.0198 A=    0.0000 R=    0.0000 C=    0.0000
 XYZ=   -0.2498    5.2185    1.3482 Q=    0.0099 A=    0.0000 R=    0.0000 C=    0.0000
 XYZ=   -1.3925    5.8151    0.5548 Q=    0.0099 A=    0.0000 R=    0.0000 C=    0.0000
 XYZ=    3.1634    1.6295    1.7714 Q=    0.0099 A=    0.0000 R=    0.0000 C=    0.0000
 XYZ=    3.0657   -2.2885    3.1583 Q=   -0.0198 A=    0.0000 R=    0.0000 C=    0.0000
 XYZ=    0.6493   -5.3394   -0.6867 Q=   -0.0198 A=    0.0000 R=    0.0000 C=    0.0000
 XYZ=   -0.9460   -3.4697    1.9088 Q=   -0.0198 A=    0.0000 R=    0.0000 C=    0.0000
 XYZ=   -0.7084   -2.5456    1.8323 Q=    0.0099 A=    0.0000 R=    0.0000 C=    0.0000
 XYZ=   -0.8935   -3.8053    1.0140 Q=    0.0099 A=    0.0000 R=    0.0000 C=    0.0000
 XYZ=   -1.6984   -4.0938   -0.8532 Q=   -0.0198 A=    0.0000 R=    0.0000 C=    0.0000
 XYZ=   -2.0304   -3.6102   -1.6096 Q=    0.0099 A=    0.0000 R=    0.0000 C=    0.0000
 XYZ=   -2.4517   -4.5942   -0.5395 Q=    0.0099 A=    0.0000 R=    0.0000 C=    0.0000
 XYZ=   -3.6297    0.8969   -2.3985 Q=   -0.0198 A=    0.0000 R=    0.0000 C=    0.0000
 XYZ=   -4.4063    0.3568   -2.5446 Q=    0.0099 A=    0.0000 R=    0.0000 C=    0.0000
 XYZ=   -3.8540    1.4394   -1.6424 Q=    0.0099 A=    0.0000 R=    0.0000 C=    0.0000
 XYZ=   -2.8129   -2.9920   -2.9335 Q=   -0.0198 A=    0.0000 R=    0.0000 C=    0.0000
 XYZ=   -2.8419   -2.1937   -3.4608 Q=    0.0099 A=    0.0000 R=    0.0000 C=    0.0000
 XYZ=    0.8707   -2.1919   -3.1512 Q=   -0.0198 A=    0.0000 R=    0.0000 C=    0.0000
 XYZ=    0.6550   -2.7993   -3.8589 Q=    0.0099 A=    0.0000 R=    0.0000 C=    0.0000
 XYZ=    1.6964   -1.7911   -3.4228 Q=    0.0099 A=    0.0000 R=    0.0000 C=    0.0000
 XYZ=   -0.5684    0.8704   -3.7276 Q=   -0.0198 A=    0.0000 R=    0.0000 C=    0.0000
 XYZ=    0.1917    0.7519   -4.2973 Q=    0.0099 A=    0.0000 R=    0.0000 C=    0.0000
 XYZ=   -1.1367    0.1269   -3.9289 Q=    0.0099 A=    0.0000 R=    0.0000 C=    0.0000
 XYZ=   -0.8430    2.8141   -3.9299 Q=    0.0099 A=    0.0000 R=    0.0000 C=    0.0000
 XYZ=   -2.7493   -0.2040   -3.7470 Q=    0.0099 A=    0.0000 R=    0.0000 C=    0.0000
 XYZ=    3.6629   -5.0274   -0.1431 Q=   -0.0198 A=    0.0000 R=    0.0000 C=    0.0000
 XYZ=    2.7225   -5.0063   -0.3202 Q=    0.0099 A=    0.0000 R=    0.0000 C=    0.0000
 XYZ=    2.3300   -1.6764    3.1749 Q=    0.0099 A=    0.0000 R=    0.0000 C=    0.0000
 XYZ=    2.6803   -3.1187    2.8782 Q=    0.0099 A=    0.0000 R=    0.0000 C=    0.0000
 XYZ=   -6.3109    0.3381   -0.6957 Q=    0.0099 A=    0.0000 R=    0.0000 C=    0.0000
 XYZ=    4.8187    0.6819   -0.3126 Q=   -0.0198 A=    0.0000 R=    0.0000 C=    0.0000
 XYZ=    3.8760    0.7008   -0.1481 Q=    0.0099 A=    0.0000 R=    0.0000 C=    0.0000
 XYZ=    3.7242    2.3991    2.3999 Q=   -0.0198 A=    0.0000 R=    0.0000 C=    0.0000
 XYZ=    1.5952   -0.0804    3.3674 Q=   -0.0198 A=    0.0000 R=    0.0000 C=    0.0000
 XYZ=    1.8457    0.4411    2.6049 Q=    0.0099 A=    0.0000 R=    0.0000 C=    0.0000
 XYZ=    0.6384   -0.0963    3.3428 Q=    0.0099 A=    0.0000 R=    0.0000 C=    0.0000
 XYZ=   -3.8849    0.0335    3.0809 Q=    0.0099 A=    0.0000 R=    0.0000 C=    0.0000
 XYZ=   -1.5985    0.9004    3.6083 Q=   -0.0198 A=    0.0000 R=    0.0000 C=    0.0000
 XYZ=   -1.7655    1.8065    3.3487 Q=    0.0099 A=    0.0000 R=    0.0000 C=    0.0000
 XYZ=   -1.6049    0.4107    2.7859 Q=    0.0099 A=    0.0000 R=    0.0000 C=    0.0000
 XYZ=    1.6645    4.7806    2.4955 Q=   -0.0198 A=    0.0000 R=    0.0000 C=    0.0000
 XYZ=    1.7901    3.8366    2.3998 Q=    0.0099 A=    0.0000 R=    0.0000 C=    0.0000
 XYZ=   -1.4131    5.1647    1.3699 Q=   -0.0198 A=    0.0000 R=    0.0000 C=    0.0000
 XYZ=   -0.5098    5.3257    1.6426 Q=    0.0099 A=    0.0000 R=    0.0000 C=    0.0000
 XYZ=   -1.4711    5.5482    0.4948 Q=    0.0099 A=    0.0000 R=    0.0000 C=    0.0000
 XYZ=    3.5235    1.8278    1.6586 Q=    0.0099 A=    0.0000 R=    0.0000 C=    0.0000
 XYZ=    3.1076   -2.1363    3.6957 Q=   -0.0198 A=    0.0000 R=    0.0000 C=    0.0000
 XYZ=    2.6218   -1.3149    3.6215 Q=    0.0099 A=    0.0000 R=    0.0000 C=    0.0000
 XYZ=   -3.1420   -2.4344   -3.5318 Q=    0.0099 A=    0.0000 R=    0.0000 C=    0.0000
 XYZ=    3.8451   -4.2598   -1.9732 Q=    0.0099 A=    0.0000 R=    0.0000 C=    0.0000
 XYZ=    3.6339   -2.3748   -3.2547 Q=    0.0099 A=    0.0000 R=    0.0000 C=    0.0000
 XYZ=   -0.4474   -3.2917    1.6637 Q=   -0.0198 A=    0.0000 R=    0.0000 C=    0.0000
 XYZ=   -0.1856   -2.3711    1.6458 Q=    0.0099 A=    0.0000 R=    0.0000 C=    0.0000
 XYZ=   -0.7673   -3.4670    0.7788 Q=    0.0099 A=    0.0000 R=    0.0000 C=    0.0000
 XYZ=   -1.8557   -3.4763    2.8259 Q=    0.0099 A=    0.0000 R=    0.0000 C=    0.0000
 XYZ=   -1.3547   -3.9584   -0.9941 Q=   -0.0198 A=    0.0000 R=    0.0000 C=    0.0000
 XYZ=   -1.8569   -3.4098   -1.5966 Q=    0.0099 A=    0.0000 R=    0.0000 C=    0.0000
 XYZ=   -2.0101   -4.5162   -0.5752 Q=    0.0099 A=    0.0000 R=    0.0000 C=    0.0000
 XYZ=   -4.8274   -3.3197   -1.0948 Q=    0.0099 A=    0.0000 R=    0.0000 C=    0.0000
 XYZ=   -3.0806    1.4281   -3.0402 Q=   -0.0198 A=    0.0000 R=    0.0000 C=    0.0000
 XYZ=   -3.2621    1.9320   -2.2468 Q=    0.0099 A=    0.0000 R=    0.0000 C=    0.0000
 XYZ=   -2.1663    1.6245   -3.2447 Q=    0.0099 A=    0.0000 R=    0.0000 C=    0.0000
 XYZ=   -3.3546   -3.1090   -2.8868 Q=   -0.0198 A=    0.0000 R=    0.0000 C=    0.0000
 XYZ=    0.3589   -1.8392   -3.7439 Q=   -0.0198 A=    0.0000 R=    0.0000 C=    0.0000
 XYZ=    1.3134   -1.7711   -3.7633 Q=    0.0099 A=    0.0000 R=    0.0000 C=    0.0000
 XYZ=   -0.0797    0.8932   -4.2142 Q=   -0.0198 A=    0.0000 R=    0.0000 C=    0.0000
 XYZ=    3.4273   -5.1850   -0.3292 Q=   -0.0198 A=    0.0000 R=    0.0000 C=    0.0000
 XYZ=    2.5183   -5.3454   -0.0758 Q=    0.0099 A=    0.0000 R=    0.0000 C=    0.0000
 XYZ=    3.8874   -4.5811    1.4961 Q=    0.0099 A=    0.0000 R=    0.0000 C=    0.0000
 XYZ=    4.1581   -3.4473    2.4616 Q=    0.0099 A=    0.0000 R=    0.0000 C=    0.0000
 XYZ=    2.5112   -2.7995    3.3484 Q=    0.0099 A=    0.0000 R=    0.0000 C=    0.0000
 XYZ=   -6.1295    0.6441   -0.7558 Q=    0.0099 A=    0.0000 R=    0.0000 C=    0.0000
 XYZ=    4.2046    1.0078   -1.0738 Q=    0.0099 A=    0.0000 R=    0.0000 C=    0.0000
 XYZ=   -0.1188    2.8310   -3.9414 Q=    0.0099 A=    0.0000 R=    0.0000 C=    0.0000
 XYZ=   -4.1481    1.9104    1.4692 Q=    0.0099 A=    0.0000 R=    0.0000 C=    0.0000
 XYZ=    1.5096    0.0250    2.6750 Q=    0.0099 A=    0.0000 R=    0.0000 C=    0.0000
 XYZ=    0.1982    0.2136    3.4069 Q=    0.0099 A=    0.0000 R=    0.0000 C=    0.0000
 XYZ=   -4.4083   -0.1585    3.0567 Q=   -0.0198 A=    0.0000 R=    0.0000 C=    0.0000
 XYZ=   -1.7449    0.8358    3.6476 Q=   -0.0198 A=    0.0000 R=    0.0000 C=    0.0000
 XYZ=   -1.5851    1.7407    3.3797 Q=    0.0099 A=    0.0000 R=    0.0000 C=    0.0000
 XYZ=   -1.8524    3.5378    3.5427 Q=   -0.0198 A=    0.0000 R=    0.0000 C=    0.0000
 XYZ=   -6.3361    0.8986    0.0854 Q=    0.0099 A=    0.0000 R=    0.0000 C=    0.0000
 XYZ=    2.7172    4.7281   -0.8798 Q=   -0.0198 A=    0.0000 R=    0.0000 C=    0.0000
 XYZ=    2.1552    4.0019   -0.6094 Q=    0.0099 A=    0.0000 R=    0.0000 C=    0.0000
 XYZ=    4.1580    1.1521   -0.0370 Q=    0.0099 A=    0.0000 R=    0.0000 C=    0.0000
 XYZ=   -1.4425    5.6595    1.0530 Q=    0.0099 A=    0.0000 R=    0.0000 C=    0.0000
 XYZ=    2.8715    2.4959    2.0914 Q=    0.0099 A=    0.0000 R=    0.0000 C=    0.0000
 XYZ=    3.7734   -3.8772   -2.6409 Q=   -0.0198 A=    0.0000 R=    0.0000 C=    0.0000
 XYZ=    3.7419   -4.3427   -1.8051 Q=    0.0099 A=    0.0000 R=    0.0000 C=    0.0000
 XYZ=    3.5612   -2.3696   -3.3375 Q=    0.0099 A=    0.0000 R=    0.0000 C=    0.0000
 XYZ=   -0.1101   -3.2017    1.5299 Q=   -0.0198 A=    0.0000 R=    0.0000 C=    0.0000
 XYZ=   -0.3551   -2.2777    1.5801 Q=    0.0099 A=    0.0000 R=    0.0000 C=    0.0000
 XYZ=   -0.2801   -3.4454    0.6200 Q=    0.0099 A=    0.0000 R=    0.0000 C=    0.0000
 XYZ=   -1.1632   -4.0311   -0.8601 Q=   -0.0198 A=    0.0000 R=    0.0000 C=    0.0000
 XYZ=   -1.5756   -3.4454   -1.4950 Q=    0.0099 A=    0.0000 R=    0.0000 C=    0.0000
 XYZ=   -4.3312   -3.9053   -1.9281 Q=    0.0099 A=    0.0000 R=    0.0000 C=    0.0000
 XYZ=   -2.7100    1.6741   -3.4962 Q=   -0.0198 A=    0.0000 R=    0.0000 C=    0.0000
 XYZ=   -2.8073    2.0047   -2.6031 Q=    0.0099 A=    0.0000 R=    0.0000 C=    0.0000
 XYZ=   -2.0208    2.2171   -3.8788 Q=    0.0099 A=    0.0000 R=    0.0000 C=    0.0000
 XYZ=   -2.9546   -3.2491   -3.0916 Q=   -0.0198 A=    0.0000 R=    0.0000 C=    0.0000
 XYZ=   -2.6530   -2.4439   -3.5123 Q=    0.0099 A=    0.0000 R=    0.0000 C=    0.0000
 XYZ=    0.6270   -1.4464   -3.2412 Q=   -0.0198 A=    0.0000 R=    0.0000 C=    0.0000
 XYZ=    0.3447   -2.1824   -3.7840 Q=    0.0099 A=    0.0000 R=    0.0000 C=    0.0000
 XYZ=    1.5714   -1.3897   -3.3867 Q=    0.0099 A=    0.0000 R=    0.0000 C=    0.0000
 XYZ=    0.3216    1.1564   -3.9640 Q=   -0.0198 A=    0.0000 R=    0.0000 C=    0.0000
 XYZ=    0.2427    0.2634   -3.6283 Q=    0.0099 A=    0.0000 R=    0.0000 C=    0.0000
 XYZ=   -4.5851   -1.0433    2.7373 Q=    0.0099 A=    0.0000 R=    0.0000 C=    0.0000
 XYZ=   -2.8873   -0.0532   -3.8363 Q=    0.0099 A=    0.0000 R=    0.0000 C=    0.0000
 XYZ=    4.3131   -4.2168    1.4477 Q=   -0.0198 A=    0.0000 R=    0.0000 C=    0.0000
 XYZ=    3.9637   -4.8540    0.8247 Q=    0.0099 A=    0.0000 R=    0.0000 C=    0.0000
 XYZ=   -0.2107    3.0026   -3.9845 Q=    0.0099 A=    0.0000 R=    0.0000 C=    0.0000
 XYZ=    2.5412   -0.7457    3.5162 Q=    0.0099 A=    0.0000 R=    0.0000 C=    0.0000
 XYZ=    3.3400    2.7904    2.0583 Q=   -0.0198 A=    0.0000 R=    0.0000 C=    0.0000
 XYZ=    4.1567    2.6387    1.5826 Q=    0.0099 A=    0.0000 R=    0.0000 C=    0.0000
 XYZ=   -4.7352    1.5492    1.2338 Q=   -0.0198 A=    0.0000 R=    0.0000 C=    0.0000
 XYZ=   -4.4729    0.8688    1.8539 Q=    0.0099 A=    0.0000 R=    0.0000 C=    0.0000
 XYZ=    1.1678    0.2252    3.2245 Q=   -0.0198 A=    0.0000 R=    0.0000 C=    0.0000
 XYZ=    1.1752    0.2617    2.2680 Q=    0.0099 A=    0.0000 R=    0.0000 C=    0.0000
 XYZ=    0.2397    0.1850    3.4554 Q=    0.0099 A=    0.0000 R=    0.0000 C=    0.0000
 XYZ=   -3.1886    2.4000   -2.4364 Q=    0.0099 A=    0.0000 R=    0.0000 C=    0.0000
 XYZ=   -4.3625   -0.1483    3.2079 Q=   -0.0198 A=    0.0000 R=    0.0000 C=    0.0000
 XYZ=   -4.8776   -0.9410    3.0580 Q=    0.0099 A=    0.0000 R=    0.0000 C=    0.0000
 XYZ=   -1.5954    1.6039    3.8287 Q=    0.0099 A=    0.0000 R=    0.0000 C=    0.0000
 XYZ=   -1.8591    0.1684    3.4277 Q=    0.0099 A=    0.0000 R=    0.0000 C=    0.0000
 XYZ=   -1.3880    3.4459    3.7174 Q=   -0.0198 A=    0.0000 R=    0.0000 C=    0.0000
 XYZ=   -1.2111    4.2826    3.2874 Q=    0.0099 A=    0.0000 R=    0.0000 C=    0.0000
 XYZ=    2.8102    5.1204   -0.4892 Q=   -0.0198 A=    0.0000 R=    0.0000 C=    0.0000
 XYZ=    1.9657    5.4916   -0.7447 Q=    0.0099 A=    0.0000 R=    0.0000 C=    0.0000
 XYZ=    2.7766    5.0841    0.4667 Q=    0.0099 A=    0.0000 R=    0.0000 C=    0.0000
 XYZ=   -2.1842    5.2996   -0.8054 Q=    0.0099 A=    0.0000 R=    0.0000 C=    0.0000
 XYZ=    2.7018    2.2232    1.6254 Q=    0.0099 A=    0.0000 R=    0.0000 C=    0.0000
 XYZ=    3.2774   -1.2969    3.7817 Q=   -0.0198 A=    0.0000 R=    0.0000 C=    0.0000
 XYZ=    2.9534   -2.1923    3.6845 Q=    0.0099 A=    0.0000 R=    0.0000 C=    0.0000
 XYZ=   -3.6353   -0.6011   -3.6488 Q=   -0.0198 A=    0.0000 R=    0.0000 C=    0.0000
 XYZ=    3.2584   -3.8600   -2.4677 Q=   -0.0198 A=    0.0000 R=    0.0000 C=    0.0000
 XYZ=    3.0104   -4.0943   -1.5734 Q=    0.0099 A=    0.0000 R=    0.0000 C=    0.0000
 XYZ=    3.2233   -2.0278   -3.3834 Q=    0.0099 A=    0.0000 R=    0.0000 C=    0.0000
 XYZ=   -0.5044   -2.9861    2.2549 Q=   -0.0198 A=    0.0000 R=    0.0000 C=    0.0000
 XYZ=   -0.5474   -2.0736    1.9689 Q=    0.0099 A=    0.0000 R=    0.0000 C=    0.0000
 XYZ=   -0.6641   -3.4941    1.4595 Q=    0.0099 A=    0.0000 R=    0.0000 C=    0.0000
 XYZ=   -1.0475   -3.9352   -0.3336 Q=   -0.0198 A=    0.0000 R=    0.0000 C=    0.0000
 XYZ=   -0.7304   -3.3726   -1.0400 Q=    0.0099 A=    0.0000 R=    0.0000 C=    0.0000
 XYZ=   -1.9488   -4.1434   -0.5794 Q=    0.0099 A=    0.0000 R=    0.0000 C=    0.0000
 XYZ=   -4.6908   -3.4870   -1.7069 Q=    0.0099 A=    0.0000 R=    0.0000 C=    0.0000
 XYZ=   -2.9565    2.1126   -3.3195 Q=   -0.0198 A=    0.0000 R=    0.0000 C=    0.0000
 XYZ=   -2.2188    2.6703   -3.5667 Q=    0.0099 A=    0.0000 R=    0.0000 C=    0.0000
 XYZ=   -3.3625   -3.1337   -2.6261 Q=   -0.0198 A=    0.0000 R=    0.0000 C=    0.0000
 XYZ=   -3.2842   -2.3272   -3.1357 Q=    0.0099 A=    0.0000 R=    0.0000 C=    0.0000
 XYZ=    0.3564   -1.0550   -3.7544 Q=   -0.0198 A=    0.0000 R=    0.0000 C=    0.0000
 XYZ=    1.2921   -1.2434   -3.6820 Q=    0.0099 A=    0.0000 R=    0.0000 C=    0.0000
 XYZ=    0.9560    0.8490   -4.1977 Q=    0.0099 A=    0.0000 R=    0.0000 C=    0.0000
 XYZ=   -3.2632    0.2315   -3.3579 Q=    0.0099 A=    0.0000 R=    0.0000 C=    0.0000
 XYZ=    2.8709   -5.8342   -0.0704 Q=   -0.0198 A=    0.0000 R=    0.0000 C=    0.0000
 XYZ=   -6.2332    0.5949   -0.6229 Q=    0.0099 A=    0.0000 R=    0.0000 C=    0.0000
 XYZ=    4.8117    0.8143   -0.2979 Q=   -0.0198 A=    0.0000 R=    0.0000 C=    0.0000
 XYZ=    3.9442    0.5000   -0.0430 Q=    0.0099 A=    0.0000 R=    0.0000 C=    0.0000
 XYZ=    5.2506    0.0423   -0.6552 Q=    0.0099 A=    0.0000 R=    0.0000 C=    0.0000
 XYZ=    0.8702    1.7662   -4.4579 Q=   -0.0198 A=    0.0000 R=    0.0000 C=    0.0000
 XYZ=   -0.2663    2.9330   -4.1839 Q=    0.0099 A=    0.0000 R=    0.0000 C=    0.0000
 XYZ=    2.5770   -0.5397    3.3781 Q=    0.0099 A=    0.0000 R=    0.0000 C=    0.0000
 XYZ=    3.7168    2.7846    1.8256 Q=   -0.0198 A=    0.0000 R=    0.0000 C=    0.0000
 XYZ=    4.3190    2.2718    1.2865 Q=    0.0099 A=    0.0000 R=    0.0000 C=    0.0000
 XYZ=   -4.0940    1.6978    1.7012 Q=   -0.0198 A=    0.0000 R=    0.0000 C=    0.0000
 XYZ=   -3.7855    0.9121    2.1525 Q=    0.0099 A=    0.0000 R=    0.0000 C=    0.0000
 XYZ=    0.8137    0.0851    3.1532 Q=   -0.0198 A=    0.0000 R=    0.0000 C=    0.0000
 XYZ=    0.7186    0.2434    2.2139 Q=    0.0099 A=    0.0000 R=    0.0000 C=    0.0000
 XYZ=    0.0143    0.4437    3.5386 Q=    0.0099 A=    0.0000 R=    0.0000 C=    0.0000
 XYZ=   -2.8077    2.3605   -2.4942 Q=    0.0099 A=    0.0000 R=    0.0000 C=    0.0000
 XYZ=   -3.9461   -0.6167    3.2440 Q=   -0.0198 A=    0.0000 R=    0.0000 C=    0.0000
 XYZ=   -0.9447    3.4749    3.6150 Q=   -0.0198 A=    0.0000 R=    0.0000 C=    0.0000
 XYZ=   -3.6732    3.0940   -0.9990 Q=   -0.0198 A=    0.0000 R=    0.0000 C=    0.0000
 XYZ=   -3.6617    2.6105   -0.1730 Q=    0.0099 A=    0.0000 R=    0.0000 C=    0.0000
 XYZ=    2.6544    4.8299   -0.2723 Q=   -0.0198 A=    0.0000 R=    0.0000 C=    0.0000
 XYZ=    2.9748    4.7577    0.6268 Q=    0.0099 A=    0.0000 R=    0.0000 C=    0.0000
 XYZ=   -1.6991    5.5691   -1.1510 Q=    0.0099 A=    0.0000 R=    0.0000 C=    0.0000
 XYZ=    2.8537    2.4159    1.6375 Q=    0.0099 A=    0.0000 R=    0.0000 C=    0.0000
 XYZ=   -0.5492    4.0791    2.9867 Q=    0.0099 A=    0.0000 R=    0.0000 C=    0.0000
 XYZ=   -3.5652   -2.4033   -3.2044 Q=    0.0099 A=    0.0000 R=    0.0000 C=    0.0000
 XYZ=   -4.0131   -0.5995   -3.3208 Q=   -0.0198 A=    0.0000 R=    0.0000 C=    0.0000
 XYZ=    3.8449   -3.5651   -2.1240 Q=   -0.0198 A=    0.0000 R=    0.0000 C=    0.0000
 XYZ=    3.7864   -3.9086   -1.2325 Q=    0.0099 A=    0.0000 R=    0.0000 C=    0.0000
 XYZ=   -0.7654   -3.2673    2.0080 Q=   -0.0198 A=    0.0000 R=    0.0000 C=    0.0000
 XYZ=   -0.8691   -2.3349    1.8179 Q=    0.0099 A=    0.0000 R=    0.0000 C=    0.0000
 XYZ=   -0.6608   -3.6766    1.1491 Q=    0.0099 A=    0.0000 R=    0.0000 C=    0.0000
 XYZ=   -1.5557   -3.8363   -1.1713 Q=    0.0099 A=    0.0000 R=    0.0000 C=    0.0000
 XYZ=   -4.5742   -3.8163   -1.5710 Q=    0.0099 A=    0.0000 R=    0.0000 C=    0.0000
 XYZ=   -5.6042   -2.7482   -1.2722 Q=    0.0099 A=    0.0000 R=    0.0000 C=    0.0000
 XYZ=   -2.3347    1.8300   -3.1354 Q=   -0.0198 A=    0.0000 R=    0.0000 C=    0.0000
 XYZ=   -1.6318    2.4004   -3.4464 Q=    0.0099 A=    0.0000 R=    0.0000 C=    0.0000
 XYZ=   -3.4008   -3.2832   -2.8652 Q=   -0.0198 A=    0.0000 R=    0.0000 C=    0.0000
 XYZ=    0.0877   -1.2175   -3.2510 Q=   -0.0198 A=    0.0000 R=    0.0000 C=    0.0000
 XYZ=   -0.5102   -1.7453   -3.7803 Q=    0.0099 A=    0.0000 R=    0.0000 C=    0.0000
 XYZ=    0.9608   -1.4764   -3.5460 Q=    0.0099 A=    0.0000 R=    0.0000 C=    0.0000
 XYZ=    0.8960    0.7249   -4.1695 Q=    0.0099 A=    0.0000 R=    0.0000 C=    0.0000
 XYZ=   -3.9175   -1.5571    3.0678 Q=    0.0099 A=    0.0000 R=    0.0000 C=    0.0000
 XYZ=   -3.3821    0.0809   -3.0861 Q=    0.0099 A=    0.0000 R=    0.0000 C=    0.0000
 XYZ=    3.2108   -5.4766    0.0084 Q=   -0.0198 A=    0.0000 R=    0.0000 C=    0.0000
 XYZ=    2.4221   -5.7749   -0.4445 Q=    0.0099 A=    0.0000 R=    0.0000 C=    0.0000
 XYZ=    4.8353    1.1486   -0.2068 Q=   -0.0198 A=    0.0000 R=    0.0000 C=    0.0000
 XYZ=    3.9927    0.6951   -0.2313 Q=    0.0099 A=    0.0000 R=    0.0000 C=    0.0000
 XYZ=    0.9445    1.6302   -4.4765 Q=   -0.0198 A=    0.0000 R=    0.0000 C=    0.0000
 XYZ=    2.8829   -1.2707    3.9068 Q=   -0.0198 A=    0.0000 R=    0.0000 C=    0.0000
 XYZ=    2.2226   -0.6779    3.5480 Q=    0.0099 A=    0.0000 R=    0.0000 C=    0.0000
 XYZ=    3.7402    2.2441    2.6000 Q=   -0.0198 A=    0.0000 R=    0.0000 C=    0.0000
 XYZ=    4.4519    1.9869    2.0139 Q=    0.0099 A=    0.0000 R=    0.0000 C=    0.0000
 XYZ=   -3.3529    2.1252    1.2410 Q=   -0.0198 A=    0.0000 R=    0.0000 C=    0.0000
 XYZ=   -2.8040    1.4483    1.6368 Q=    0.0099 A=    0.0000 R=    0.0000 C=    0.0000
 XYZ=    0.9571    0.4862    2.4960 Q=    0.0099 A=    0.0000 R=    0.0000 C=    0.0000
 XYZ=   -0.0881    0.3598    3.5834 Q=    0.0099 A=    0.0000 R=    0.0000 C=    0.0000
 XYZ=   -3.6848   -0.5026    2.9477 Q=   -0.0198 A=    0.0000 R=    0.0000 C=    0.0000
 XYZ=   -4.6307   -0.5817    3.0711 Q=    0.0099 A=    0.0000 R=    0.0000 C=    0.0000
 XYZ=   -0.8991    2.9481    3.8247 Q=   -0.0198 A=    0.0000 R=    0.0000 C=    0.0000
 XYZ=    2.6615    5.0771    0.7444 Q=    0.0099 A=    0.0000 R=    0.0000 C=    0.0000
 XYZ=    4.5923    1.3529    0.1057 Q=   -0.0198 A=    0.0000 R=    0.0000 C=    0.0000
 XYZ=    3.6970    1.0452    0.2475 Q=    0.0099 A=    0.0000 R=    0.0000 C=    0.0000
 XYZ=   -1.8627    5.5221   -1.1512 Q=    0.0099 A=    0.0000 R=    0.0000 C=    0.0000
 XYZ=    2.9692    1.7966    2.2513 Q=    0.0099 A=    0.0000 R=    0.0000 C=    0.0000
 XYZ=   -0.4374    3.6285    3.3347 Q=    0.0099 A=    0.0000 R=    0.0000 C=    0.0000
 XYZ=    4.1576   -4.1321   -1.5979 Q=    0.0099 A=    0.0000 R=    0.0000 C=    0.0000
 XYZ=   -0.0520   -3.3485    1.5430 Q=   -0.0198 A=    0.0000 R=    0.0000 C=    0.0000
 XYZ=    0.3064   -2.5360    1.1858 Q=    0.0099 A=    0.0000 R=    0.0000 C=    0.0000
 XYZ=   -1.4436   -2.9815    2.6601 Q=    0.0099 A=    0.0000 R=    0.0000 C=    0.0000
 XYZ=   -1.7407   -4.4694   -0.7735 Q=   -0.0198 A=    0.0000 R=    0.0000 C=    0.0000
 XYZ=   -2.1844   -3.8303   -1.3311 Q=    0.0099 A=    0.0000 R=    0.0000 C=    0.0000
 XYZ=   -5.2668   -2.9338   -1.2369 Q=    0.0099 A=    0.0000 R=    0.0000 C=    0.0000
 XYZ=   -2.5290    1.6520   -3.1919 Q=   -0.0198 A=    0.0000 R=    0.0000 C=    0.0000
 XYZ=   -3.0104    1.7950   -2.3770 Q=    0.0099 A=    0.0000 R=    0.0000 C=    0.0000
 XYZ=   -1.7791    2.2442   -3.1342 Q=    0.0099 A=    0.0000 R=    0.0000 C=    0.0000
 XYZ=   -2.8790   -3.2210   -2.7636 Q=   -0.0198 A=    0.0000 R=    0.0000 C=    0.0000
 XYZ=   -2.9948   -2.3263   -3.0835 Q=    0.0099 A=    0.0000 R=    0.0000 C=    0.0000
 XYZ=   -0.3575   -1.4938   -2.9281 Q=   -0.0198 A=    0.0000 R=    0.0000 C=    0.0000
 XYZ=   -1.2553   -1.3629   -3.2331 Q=    0.0099 A=    0.0000 R=    0.0000 C=    0.0000
 XYZ=   -0.0243   -2.2124   -3.4656 Q=    0.0099 A=    0.0000 R=    0.0000 C=    0.0000
 XYZ=    1.3223   -0.1773   -3.5393 Q=    0.0099 A=    0.0000 R=    0.0000 C=    0.0000
 XYZ=   -3.3738   -1.4062    2.8941 Q=    0.0099 A=    0.0000 R=    0.0000 C=    0.0000
 XYZ=   -2.8311    0.0521   -3.8199 Q=    0.0099 A=    0.0000 R=    0.0000 C=    0.0000
 XYZ=    3.1357   -5.6842    0.4228 Q=   -0.0198 A=    0.0000 R=    0.0000 C=    0.0000
 XYZ=    2.2565   -5.7791    0.0563 Q=    0.0099 A=    0.0000 R=    0.0000 C=    0.0000
 XYZ=    5.8719   -0.6531   -1.3615 Q=   -0.0198 A=    0.0000 R=    0.0000 C=    0.0000
 XYZ=    6.2346   -1.4132   -0.9068 Q=    0.0099 A=    0.0000 R=    0.0000 C=    0.0000
 XYZ=    5.0255    0.6289   -0.3463 Q=    0.0099 A=    0.0000 R=    0.0000 C=    0.0000
 XYZ=    1.4709    0.5834   -4.1010 Q=   -0.0198 A=    0.0000 R=    0.0000 C=    0.0000
 XYZ=    0.2799    2.6547   -4.2725 Q=    0.0099 A=    0.0000 R=    0.0000 C=    0.0000
 XYZ=    3.6740    1.7491    2.7963 Q=   -0.0198 A=    0.0000 R=    0.0000 C=    0.0000
 XYZ=   -3.7181    1.4292    2.0627 Q=    0.0099 A=    0.0000 R=    0.0000 C=    0.0000
 XYZ=    0.1600    0.5617    3.3479 Q=   -0.0198 A=    0.0000 R=    0.0000 C=    0.0000
 XYZ=   -0.3356    0.3077    2.5693 Q=    0.0099 A=    0.0000 R=    0.0000 C=    0.0000
 XYZ=   -0.2921    1.3387    3.6767 Q=    0.0099 A=    0.0000 R=    0.0000 C=    0.0000
 XYZ=   -4.6023   -0.2515    3.1625 Q=   -0.0198 A=    0.0000 R=    0.0000 C=    0.0000
 XYZ=   -4.1453   -1.0245    2.8309 Q=    0.0099 A=    0.0000 R=    0.0000 C=    0.0000
 XYZ=   -3.9743    2.4450   -1.0984 Q=   -0.0198 A=    0.0000 R=    0.0000 C=    0.0000
 XYZ=   -3.8520    2.5394   -0.1538 Q=    0.0099 A=    0.0000 R=    0.0000 C=    0.0000
 XYZ=   -5.9368    0.8171    0.7601 Q=    0.0099 A=    0.0000 R=    0.0000 C=    0.0000
 XYZ=    2.5975    4.9850   -0.4892 Q=   -0.0198 A=    0.0000 R=    0.0000 C=    0.0000
 XYZ=    1.8040    5.5201   -0.4754 Q=    0.0099 A=    0.0000 R=    0.0000 C=    0.0000
 XYZ=    2.5713    4.4966    0.3336 Q=    0.0099 A=    0.0000 R=    0.0000 C=    0.0000
 XYZ=    3.8974    1.1439   -0.1999 Q=    0.0099 A=    0.0000 R=    0.0000 C=    0.0000
 XYZ=   -0.4333    3.0754   -3.3244 Q=   -0.0198 A=    0.0000 R=    0.0000 C=    0.0000
 XYZ=    3.0095    1.4265    2.1876 Q=    0.0099 A=    0.0000 R=    0.0000 C=    0.0000
 XYZ=    2.7045   -1.4117    3.9544 Q=   -0.0198 A=    0.0000 R=    0.0000 C=    0.0000
 XYZ=   -3.7750   -2.9860   -3.2072 Q=   -0.0198 A=    0.0000 R=    0.0000 C=    0.0000
 XYZ=   -3.4726   -2.3622   -3.8672 Q=    0.0099 A=    0.0000 R=    0.0000 C=    0.0000
 XYZ=    3.7836   -4.5223   -2.0822 Q=    0.0099 A=    0.0000 R=    0.0000 C=    0.0000
 XYZ=   -0.5059   -3.3612    1.1685 Q=   -0.0198 A=    0.0000 R=    0.0000 C=    0.0000
 XYZ=   -0.3040   -2.4356    1.0319 Q=    0.0099 A=    0.0000 R=    0.0000 C=    0.0000
 XYZ=   -0.9525   -3.6299    0.3656 Q=    0.0099 A=    0.0000 R=    0.0000 C=    0.0000
 XYZ=   -2.6433   -2.2257    3.3201 Q=   -0.0198 A=    0.0000 R=    0.0000 C=    0.0000
 XYZ=   -2.0703   -1.8865    2.6325 Q=    0.0099 A=    0.0000 R=    0.0000 C=    0.0000
 XYZ=   -1.9230   -3.6321   -1.7311 Q=    0.0099 A=    0.0000 R=    0.0000 C=    0.0000
 XYZ=   -4.8902   -4.2925   -0.0822 Q=   -0.0198 A=    0.0000 R=    0.0000 C=    0.0000
 XYZ=   -3.9915   -4.0348   -0.2877 Q=    0.0099 A=    0.0000 R=    0.0000 C=    0.0000
 XYZ=   -2.5807    1.4050   -3.0071 Q=   -0.0198 A=    0.0000 R=    0.0000 C=    0.0000
 XYZ=   -3.1454    1.6795   -2.2846 Q=    0.0099 A=    0.0000 R=    0.0000 C=    0.0000
 XYZ=   -2.0290    2.1672   -3.1828 Q=    0.0099 A=    0.0000 R=    0.0000 C=    0.0000
 XYZ=   -0.3193   -1.8972   -2.9481 Q=   -0.0198 A=    0.0000 R=    0.0000 C=    0.0000
 XYZ=   -1.0164   -1.5784   -3.5215 Q=    0.0099 A=    0.0000 R=    0.0000 C=    0.0000
 XYZ=   -0.0383   -2.7204   -3.3476 Q=    0.0099 A=    0.0000 R=    0.0000 C=    0.0000
 XYZ=   -2.6453   -0.1682   -4.0529 Q=    0.0099 A=    0.0000 R=    0.0000 C=    0.0000
 XYZ=    3.2052   -5.5852   -0.1875 Q=   -0.0198 A=    0.0000 R=    0.0000 C=    0.0000
 XYZ=    2.2901   -5.3980   -0.3968 Q=    0.0099 A=    0.0000 R=    0.0000 C=    0.0000
 XYZ=    2.7441   -4.9491    1.7727 Q=    0.0099 A=    0.0000 R=    0.0000 C=    0.0000
 XYZ=    2.1873   -2.1587    3.6532 Q=    0.0099 A=    0.0000 R=    0.0000 C=    0.0000
 XYZ=    6.2153   -1.3477   -0.8486 Q=   -0.0198 A=    0.0000 R=    0.0000 C=    0.0000
 XYZ=    4.8486    1.0541   -0.1420 Q=   -0.0198 A=    0.0000 R=    0.0000 C=    0.0000
 XYZ=    5.0210    0.1523   -0.4128 Q=    0.0099 A=    0.0000 R=    0.0000 C=    0.0000
 XYZ=    1.7434    0.9119   -3.9273 Q=   -0.0198 A=    0.0000 R=    0.0000 C=    0.0000
 XYZ=    0.1500    2.3467   -3.5365 Q=    0.0099 A=    0.0000 R=    0.0000 C=    0.0000
 XYZ=    2.5567    3.0150    2.5086 Q=    0.0099 A=    0.0000 R=    0.0000 C=    0.0000
 XYZ=    3.4495    1.6273    3.0764 Q=   -0.0198 A=    0.0000 R=    0.0000 C=    0.0000
 XYZ=    3.0836    0.8943    2.5813 Q=    0.0099 A=    0.0000 R=    0.0000 C=    0.0000
 XYZ=   -4.2317    1.6028    1.5117 Q=   -0.0198 A=    0.0000 R=    0.0000 C=    0.0000
 XYZ=   -4.2237    0.7899    2.0169 Q=    0.0099 A=    0.0000 R=    0.0000 C=    0.0000
 XYZ=    0.1211    0.2529    3.6630 Q=   -0.0198 A=    0.0000 R=    0.0000 C=    0.0000
 XYZ=   -0.1962    0.0068    2.7941 Q=    0.0099 A=    0.0000 R=    0.0000 C=    0.0000
 XYZ=   -3.1558    2.0747   -2.1981 Q=    0.0099 A=    0.0000 R=    0.0000 C=    0.0000
 XYZ=   -4.7872   -0.5957    3.0179 Q=   -0.0198 A=    0.0000 R=    0.0000 C=    0.0000
 XYZ=   -1.7097    3.4898    3.6351 Q=    0.0099 A=    0.0000 R=    0.0000 C=    0.0000
 XYZ=   -3.7759    2.7047   -0.9090 Q=   -0.0198 A=    0.0000 R=    0.0000 C=    0.0000
 XYZ=   -3.6868    2.4611    0.0124 Q=    0.0099 A=    0.0000 R=    0.0000 C=    0.0000
 XYZ=   -5.4394    0.7633    0.1924 Q=    0.0099 A=    0.0000 R=    0.0000 C=    0.0000
 XYZ=    2.5472    4.5561   -0.3840 Q=   -0.0198 A=    0.0000 R=    0.0000 C=    0.0000
 XYZ=    1.9349    5.2852   -0.4825 Q=    0.0099 A=    0.0000 R=    0.0000 C=    0.0000
 XYZ=    2.1284    3.9758    0.2517 Q=    0.0099 A=    0.0000 R=    0.0000 C=    0.0000
 XYZ=    2.1998    3.8203    2.1339 Q=   -0.0198 A=    0.0000 R=    0.0000 C=    0.0000
 XYZ=   -4.3239   -2.9026   -2.9688 Q=   -0.0198 A=    0.0000 R=    0.0000 C=    0.0000
 XYZ=   -3.7504   -2.3214   -3.4685 Q=    0.0099 A=    0.0000 R=    0.0000 C=    0.0000
 XYZ=    3.2963   -4.7702   -2.0330 Q=    0.0099 A=    0.0000 R=    0.0000 C=    0.0000
 XYZ=   -0.6998   -3.4528    0.5693 Q=   -0.0198 A=    0.0000 R=    0.0000 C=    0.0000
 XYZ=   -0.5396   -2.5129    0.4858 Q=    0.0099 A=    0.0000 R=    0.0000 C=    0.0000
 XYZ=   -0.9775   -3.7271   -0.3047 Q=    0.0099 A=    0.0000 R=    0.0000 C=    0.0000
 XYZ=   -2.6309   -2.3524    3.1079 Q=   -0.0198 A=    0.0000 R=    0.0000 C=    0.0000
 XYZ=   -2.2315   -1.9024    2.3634 Q=    0.0099 A=    0.0000 R=    0.0000 C=    0.0000
 XYZ=   -2.9584   -3.7303   -2.2481 Q=    0.0099 A=    0.0000 R=    0.0000 C=    0.0000
 XYZ=   -4.9077   -4.1105   -0.3600 Q=   -0.0198 A=    0.0000 R=    0.0000 C=    0.0000
 XYZ=   -4.0509   -3.8142   -0.0529 Q=    0.0099 A=    0.0000 R=    0.0000 C=    0.0000
 XYZ=   -5.0709   -3.5943   -1.1494 Q=    0.0099 A=    0.0000 R=    0.0000 C=    0.0000
 XYZ=   -2.8086    1.5516   -2.9206 Q=   -0.0198 A=    0.0000 R=    0.0000 C=    0.0000
 XYZ=   -2.3708    2.1868   -3.4874 Q=    0.0099 A=    0.0000 R=    0.0000 C=    0.0000
 XYZ=   -0.0363   -1.9861   -2.9109 Q=   -0.0198 A=    0.0000 R=    0.0000 C=    0.0000
 XYZ=   -0.8830   -1.8602   -3.3393 Q=    0.0099 A=    0.0000 R=    0.0000 C=    0.0000
 XYZ=    0.2885   -2.8155   -3.2614 Q=    0.0099 A=    0.0000 R=    0.0000 C=    0.0000
 XYZ=    1.1066    0.8377   -4.1378 Q=   -0.0198 A=    0.0000 R=    0.0000 C=    0.0000
 XYZ=    0.8759   -0.0119   -3.7620 Q=    0.0099 A=    0.0000 R=    0.0000 C=    0.0000
 XYZ=   -0.2692    2.3514   -4.3638 Q=    0.0099 A=    0.0000 R=    0.0000 C=    0.0000
 XYZ=   -4.3016   -1.4099    3.1503 Q=    0.0099 A=    0.0000 R=    0.0000 C=    0.0000
 XYZ=   -2.9787   -0.2401   -3.9140 Q=    0.0099 A=    0.0000 R=    0.0000 C=    0.0000
 XYZ=    2.9789   -5.5675   -0.2646 Q=   -0.0198 A=    0.0000 R=    0.0000 C=    0.0000
 XYZ=    2.0569   -5.7556   -0.4399 Q=    0.0099 A=    0.0000 R=    0.0000 C=    0.0000
 XYZ=    3.4209   -4.1202    1.9338 Q=   -0.0198 A=    0.0000 R=    0.0000 C=    0.0000
 XYZ=    3.2794   -4.6208    1.1303 Q=    0.0099 A=    0.0000 R=    0.0000 C=    0.0000
 XYZ=    2.6154   -4.2412    2.4365 Q=    0.0099 A=    0.0000 R=    0.0000 C=    0.0000
 XYZ=    4.5708    1.1169   -0.1938 Q=   -0.0198 A=    0.0000 R=    0.0000 C=    0.0000
 XYZ=    3.6436    0.9779   -0.0007 Q=    0.0099 A=    0.0000 R=    0.0000 C=    0.0000
 XYZ=    4.9719    0.2560   -0.0742 Q=    0.0099 A=    0.0000 R=    0.0000 C=    0.0000
 XYZ=    2.6855    3.2629    2.4804 Q=    0.0099 A=    0.0000 R=    0.0000 C=    0.0000
 XYZ=    3.8399    1.5009    2.6194 Q=   -0.0198 A=    0.0000 R=    0.0000 C=    0.0000
 XYZ=   -4.0509    1.5715    1.4337 Q=   -0.0198 A=    0.0000 R=    0.0000 C=    0.0000
 XYZ=   -3.7032    0.7500    1.7809 Q=    0.0099 A=    0.0000 R=    0.0000 C=    0.0000
 XYZ=    0.2374    0.7105    3.6057 Q=   -0.0198 A=    0.0000 R=    0.0000 C=    0.0000
 XYZ=   -0.1518    0.4397    2.7742 Q=    0.0099 A=    0.0000 R=    0.0000 C=    0.0000
 XYZ=   -0.3917    1.3310    3.9738 Q=    0.0099 A=    0.0000 R=    0.0000 C=    0.0000
 XYZ=   -4.0920   -1.0548    2.8830 Q=   -0.0198 A=    0.0000 R=    0.0000 C=    0.0000
 XYZ=   -3.7634    2.9325   -1.0785 Q=   -0.0198 A=    0.0000 R=    0.0000 C=    0.0000
 XYZ=   -3.6306    2.4372   -0.2702 Q=    0.0099 A=    0.0000 R=    0.0000 C=    0.0000
 XYZ=   -6.2759    0.7947   -0.2735 Q=   -0.0198 A=    0.0000 R=    0.0000 C=    0.0000
 XYZ=   -5.6889    1.0205    0.4482 Q=    0.0099 A=    0.0000 R=    0.0000 C=    0.0000
 XYZ=    2.7396    5.0183    0.8478 Q=    0.0099 A=    0.0000 R=    0.0000 C=    0.0000
 XYZ=    2.3726    4.1588    2.3549 Q=   -0.0198 A=    0.0000 R=    0.0000 C=    0.0000
 XYZ=   -2.4324    5.5682   -0.6326 Q=    0.0099 A=    0.0000 R=    0.0000 C=    0.0000
 XYZ=    3.1009    1.2870    2.0498 Q=    0.0099 A=    0.0000 R=    0.0000 C=    0.0000
 XYZ=   -3.8753   -3.0846   -3.3685 Q=    0.0099 A=    0.0000 R=    0.0000 C=    0.0000
 XYZ=    3.5910   -4.1791   -2.0436 Q=    0.0099 A=    0.0000 R=    0.0000 C=    0.0000
 XYZ=   -0.1390   -3.4456    0.5615 Q=   -0.0198 A=    0.0000 R=    0.0000 C=    0.0000
 XYZ=    0.1662   -2.5654    0.3417 Q=    0.0099 A=    0.0000 R=    0.0000 C=    0.0000
 XYZ=   -0.8874   -3.5912   -0.0173 Q=    0.0099 A=    0.0000 R=    0.0000 C=    0.0000
 XYZ=   -1.9999   -2.9651    3.1641 Q=   -0.0198 A=    0.0000 R=    0.0000 C=    0.0000
 XYZ=   -1.5637   -2.4555    2.4812 Q=    0.0099 A=    0.0000 R=    0.0000 C=    0.0000
 XYZ=   -4.7823   -4.2768   -0.4117 Q=   -0.0198 A=    0.0000 R=    0.0000 C=    0.0000
 XYZ=   -4.5537   -3.7641   -1.1870 Q=    0.0099 A=    0.0000 R=    0.0000 C=    0.0000
 XYZ=   -2.7605    1.5411   -3.1668 Q=   -0.0198 A=    0.0000 R=    0.0000 C=    0.0000
 XYZ=   -3.4662    1.9342   -2.6533 Q=    0.0099 A=    0.0000 R=    0.0000 C=    0.0000
 XYZ=   -2.3326    2.2835   -3.5935 Q=    0.0099 A=    0.0000 R=    0.0000 C=    0.0000
 XYZ=   -0.1111   -1.5447   -3.0095 Q=   -0.0198 A=    0.0000 R=    0.0000 C=    0.0000
 XYZ=   -1.0139   -1.2591   -3.1493 Q=    0.0099 A=    0.0000 R=    0.0000 C=    0.0000
 XYZ=    0.0610   -2.1547   -3.7268 Q=    0.0099 A=    0.0000 R=    0.0000 C=    0.0000
 XYZ=    1.6711   -0.0705   -3.9530 Q=    0.0099 A=    0.0000 R=    0.0000 C=    0.0000
 XYZ=   -3.3835   -1.6971    2.8405 Q=    0.0099 A=    0.0000 R=    0.0000 C=    0.0000
 XYZ=   -2.6225   -1.5363   -3.9343 Q=   -0.0198 A=    0.0000 R=    0.0000 C=    0.0000
 XYZ=   -3.0050   -0.7467   -3.5515 Q=    0.0099 A=    0.0000 R=    0.0000 C=    0.0000
 XYZ=    2.8835   -5.4408   -0.2662 Q=   -0.0198 A=    0.0000 R=    0.0000 C=    0.0000
 XYZ=    2.0709   -5.3753   -0.7679 Q=    0.0099 A=    0.0000 R=    0.0000 C=    0.0000
 XYZ=    2.8923   -4.5365    1.3723 Q=    0.0099 A=    0.0000 R=    0.0000 C=    0.0000
 XYZ=    2.6492   -3.8185    2.6824 Q=    0.0099 A=    0.0000 R=    0.0000 C=    0.0000
 XYZ=    4.6560    0.9884   -0.2260 Q=   -0.0198 A=    0.0000 R=    0.0000 C=    0.0000
 XYZ=    3.7592    0.6722   -0.3354 Q=    0.0099 A=    0.0000 R=    0.0000 C=    0.0000
 XYZ=    5.2038    0.2297   -0.4273 Q=    0.0099 A=    0.0000 R=    0.0000 C=    0.0000
 XYZ=    1.3952    0.8456   -3.9233 Q=   -0.0198 A=    0.0000 R=    0.0000 C=    0.0000
 XYZ=    2.2064    1.3358   -3.7894 Q=    0.0099 A=    0.0000 R=    0.0000 C=    0.0000
 XYZ=   -0.4530    2.7984   -4.1516 Q=    0.0099 A=    0.0000 R=    0.0000 C=    0.0000
 XYZ=    3.7019    1.8451    2.5979 Q=   -0.0198 A=    0.0000 R=    0.0000 C=    0.0000
 XYZ=   -4.3359    1.5861    1.5772 Q=   -0.0198 A=    0.0000 R=    0.0000 C=    0.0000
 XYZ=   -4.3687    0.7588    2.0576 Q=    0.0099 A=    0.0000 R=    0.0000 C=    0.0000
 XYZ=    0.2718    0.2840    3.7208 Q=   -0.0198 A=    0.0000 R=    0.0000 C=    0.0000
 XYZ=    0.1572   -0.2092    2.9085 Q=    0.0099 A=    0.0000 R=    0.0000 C=    0.0000
 XYZ=   -0.3472    1.0106    3.6491 Q=    0.0099 A=    0.0000 R=    0.0000 C=    0.0000
 XYZ=   -4.2606    2.2676    0.0994 Q=    0.0099 A=    0.0000 R=    0.0000 C=    0.0000
 XYZ=   -5.8614    0.8752    0.5687 Q=    0.0099 A=    0.0000 R=    0.0000 C=    0.0000
 XYZ=    2.4111    3.7187    2.4466 Q=    0.0099 A=    0.0000 R=    0.0000 C=    0.0000
 XYZ=    3.2046    1.2661    2.0203 Q=    0.0099 A=    0.0000 R=    0.0000 C=    0.0000
 XYZ=   -3.9178   -2.5640   -3.4182 Q=    0.0099 A=    0.0000 R=    0.0000 C=    0.0000
 XYZ=   -3.2163   -0.0470   -3.8997 Q=    0.0099 A=    0.0000 R=    0.0000 C=    0.0000
 XYZ=    4.3628   -3.6888   -1.7493 Q=   -0.0198 A=    0.0000 R=    0.0000 C=    0.0000
 XYZ=    4.4815   -4.2788   -1.0050 Q=    0.0099 A=    0.0000 R=    0.0000 C=    0.0000
 XYZ=   -1.0731   -3.4894    1.6865 Q=    0.0099 A=    0.0000 R=    0.0000 C=    0.0000
 XYZ=   -0.5645   -3.8145    0.2985 Q=    0.0099 A=    0.0000 R=    0.0000 C=    0.0000
 XYZ=   -2.0663   -2.3864    3.2685 Q=   -0.0198 A=    0.0000 R=    0.0000 C=    0.0000
 XYZ=   -1.5298   -1.8349    2.6992 Q=    0.0099 A=    0.0000 R=    0.0000 C=    0.0000
 XYZ=   -2.3626   -3.6722   -1.9142 Q=    0.0099 A=    0.0000 R=    0.0000 C=    0.0000
 XYZ=   -4.8609   -3.9062   -0.2939 Q=   -0.0198 A=    0.0000 R=    0.0000 C=    0.0000
 XYZ=   -4.7366   -3.6109   -1.1959 Q=    0.0099 A=    0.0000 R=    0.0000 C=    0.0000
 XYZ=   -2.9523    1.3789   -2.8977 Q=   -0.0198 A=    0.0000 R=    0.0000 C=    0.0000
 XYZ=   -3.2707    1.6790   -2.0464 Q=    0.0099 A=    0.0000 R=    0.0000 C=    0.0000
 XYZ=   -2.6399    2.1735   -3.3303 Q=    0.0099 A=    0.0000 R=    0.0000 C=    0.0000
 XYZ=   -0.6833   -1.8716   -2.7637 Q=   -0.0198 A=    0.0000 R=    0.0000 C=    0.0000
 XYZ=   -1.4204   -1.5309   -3.2705 Q=    0.0099 A=    0.0000 R=    0.0000 C=    0.0000
 XYZ=   -0.1098   -2.2741   -3.4159 Q=    0.0099 A=    0.0000 R=    0.0000 C=    0.0000
 XYZ=   -0.8651    2.7338   -3.9271 Q=    0.0099 A=    0.0000 R=    0.0000 C=    0.0000
 XYZ=    2.2972   -5.6297   -0.1930 Q=    0.0099 A=    0.0000 R=    0.0000 C=    0.0000
 XYZ=    3.3824   -4.6919    1.7242 Q=    0.0099 A=    0.0000 R=    0.0000 C=    0.0000
 XYZ=   -6.4120    0.3524   -0.0142 Q=   -0.0198 A=    0.0000 R=    0.0000 C=    0.0000
 XYZ=   -5.9811    0.4109   -0.8669 Q=    0.0099 A=    0.0000 R=    0.0000 C=    0.0000
 XYZ=    5.8722   -1.1248   -0.1539 Q=   -0.0198 A=    0.0000 R=    0.0000 C=    0.0000
 XYZ=    5.7302   -1.7222   -0.8882 Q=    0.0099 A=    0.0000 R=    0.0000 C=    0.0000
 XYZ=    4.3767    1.1232   -0.6640 Q=   -0.0198 A=    0.0000 R=    0.0000 C=    0.0000
 XYZ=    3.5876    0.8632   -0.1886 Q=    0.0099 A=    0.0000 R=    0.0000 C=    0.0000
 XYZ=    5.0455    0.5019   -0.3759 Q=    0.0099 A=    0.0000 R=    0.0000 C=    0.0000
 XYZ=    1.3439    1.4684   -4.0492 Q=   -0.0198 A=    0.0000 R=    0.0000 C=    0.0000
 XYZ=    1.7198    0.5884   -4.0270 Q=    0.0099 A=    0.0000 R=    0.0000 C=    0.0000
 XYZ=    3.5978    2.3111    2.2531 Q=   -0.0198 A=    0.0000 R=    0.0000 C=    0.0000
 XYZ=    4.4384    1.8754    2.1122 Q=    0.0099 A=    0.0000 R=    0.0000 C=    0.0000
 XYZ=   -3.9265    1.6503    1.9268 Q=   -0.0198 A=    0.0000 R=    0.0000 C=    0.0000
 XYZ=   -4.0404    0.8600    2.4547 Q=    0.0099 A=    0.0000 R=    0.0000 C=    0.0000
 XYZ=    0.1700   -0.2233    3.8496 Q=   -0.0198 A=    0.0000 R=    0.0000 C=    0.0000
 XYZ=    0.2011   -0.1738    2.8942 Q=    0.0099 A=    0.0000 R=    0.0000 C=    0.0000
 XYZ=   -2.6209    5.2837   -0.7855 Q=    0.0099 A=    0.0000 R=    0.0000 C=    0.0000
 XYZ=   -1.6643    1.9032    3.6510 Q=   -0.0198 A=    0.0000 R=    0.0000 C=    0.0000
 XYZ=   -1.9184    1.8075    2.7331 Q=    0.0099 A=    0.0000 R=    0.0000 C=    0.0000
 XYZ=   -4.5107    1.9685    0.2229 Q=    0.0099 A=    0.0000 R=    0.0000 C=    0.0000
 XYZ=   -5.6459    0.3527    0.8309 Q=    0.0099 A=    0.0000 R=    0.0000 C=    0.0000
 XYZ=    2.2730    4.9094    2.0184 Q=   -0.0198 A=    0.0000 R=    0.0000 C=    0.0000
 XYZ=    2.4809    3.9768    1.9618 Q=    0.0099 A=    0.0000 R=    0.0000 C=    0.0000
 XYZ=   -0.4523    3.2401   -3.9101 Q=   -0.0198 A=    0.0000 R=    0.0000 C=    0.0000
 XYZ=    2.9546    1.7257    1.8533 Q=    0.0099 A=    0.0000 R=    0.0000 C=    0.0000
 XYZ=   -3.8742   -0.8981   -3.5635 Q=   -0.0198 A=    0.0000 R=    0.0000 C=    0.0000
 XYZ=   -0.7185   -2.7809    1.0926 Q=    0.0099 A=    0.0000 R=    0.0000 C=    0.0000
 XYZ=   -1.7902   -1.7525    2.9106 Q=    0.0099 A=    0.0000 R=    0.0000 C=    0.0000
 XYZ=   -4.5060   -3.6011   -0.6214 Q=    0.0099 A=    0.0000 R=    0.0000 C=    0.0000
 XYZ=   -2.5782    1.4836   -3.2121 Q=   -0.0198 A=    0.0000 R=    0.0000 C=    0.0000
 XYZ=   -2.9954    2.2690   -2.8580 Q=    0.0099 A=    0.0000 R=    0.0000 C=    0.0000
 XYZ=   -1.6482    1.7057   -3.2565 Q=    0.0099 A=    0.0000 R=    0.0000 C=    0.0000
 XYZ=   -3.0190   -3.5056   -2.6441 Q=   -0.0198 A=    0.0000 R=    0.0000 C=    0.0000
 XYZ=   -3.4538   -2.6901   -2.8935 Q=    0.0099 A=    0.0000 R=    0.0000 C=    0.0000
 XYZ=   -0.7258   -1.7710   -3.0435 Q=   -0.0198 A=    0.0000 R=    0.0000 C=    0.0000
 XYZ=   -1.5395   -2.2695   -2.9685 Q=    0.0099 A=    0.0000 R=    0.0000 C=    0.0000
 XYZ=   -0.3167   -2.0995   -3.8441 Q=    0.0099 A=    0.0000 R=    0.0000 C=    0.0000
 XYZ=    1.0733    0.8145   -4.1358 Q=   -0.0198 A=    0.0000 R=    0.0000 C=    0.0000
 XYZ=    1.2143   -0.0898   -3.8556 Q=    0.0099 A=    0.0000 R=    0.0000 C=    0.0000
 XYZ=   -3.5691   -0.0805   -3.1702 Q=    0.0099 A=    0.0000 R=    0.0000 C=    0.0000
 XYZ=   -6.3783    0.2735    0.2197 Q=   -0.0198 A=    0.0000 R=    0.0000 C=    0.0000
 XYZ=   -6.0265    0.5787   -0.6165 Q=    0.0099 A=    0.0000 R=    0.0000 C=    0.0000
 XYZ=    5.6327   -1.2611   -0.2275 Q=   -0.0198 A=    0.0000 R=    0.0000 C=    0.0000
 XYZ=    5.2522   -1.8925   -0.8380 Q=    0.0099 A=    0.0000 R=    0.0000 C=    0.0000
 XYZ=    3.8334    1.0964   -0.2830 Q=    0.0099 A=    0.0000 R=    0.0000 C=    0.0000
 XYZ=    5.1677    0.5850   -0.7821 Q=    0.0099 A=    0.0000 R=    0.0000 C=    0.0000
 XYZ=    0.0692    2.4696   -4.1352 Q=    0.0099 A=    0.0000 R=    0.0000 C=    0.0000
 XYZ=    3.6480    2.2714    2.2447 Q=   -0.0198 A=    0.0000 R=    0.0000 C=    0.0000
 XYZ=   -3.4614    1.2043    2.0967 Q=   -0.0198 A=    0.0000 R=    0.0000 C=    0.0000
 XYZ=   -3.8569    0.3372    2.1851 Q=    0.0099 A=    0.0000 R=    0.0000 C=    0.0000
 XYZ=    0.0222   -0.3828    3.7145 Q=   -0.0198 A=    0.0000 R=    0.0000 C=    0.0000
 XYZ=   -0.1982   -0.3221    2.7850 Q=    0.0099 A=    0.0000 R=    0.0000 C=    0.0000
 XYZ=   -2.5726    5.4328    0.5042 Q=    0.0099 A=    0.0000 R=    0.0000 C=    0.0000
 XYZ=   -4.9373   -1.1207    2.9378 Q=   -0.0198 A=    0.0000 R=    0.0000 C=    0.0000
 XYZ=   -1.7706    1.5266    3.3592 Q=    0.0099 A=    0.0000 R=    0.0000 C=    0.0000
 XYZ=   -4.1773    2.2696    0.2576 Q=    0.0099 A=    0.0000 R=    0.0000 C=    0.0000
 XYZ=    2.5342    4.7721    1.9510 Q=   -0.0198 A=    0.0000 R=    0.0000 C=    0.0000
 XYZ=    2.7126    3.8354    1.8665 Q=    0.0099 A=    0.0000 R=    0.0000 C=    0.0000
 XYZ=    3.0604    1.7709    1.6787 Q=    0.0099 A=    0.0000 R=    0.0000 C=    0.0000
 XYZ=   -3.2445   -3.0322   -3.3961 Q=    0.0099 A=    0.0000 R=    0.0000 C=    0.0000
 XYZ=   -3.5712   -0.8791   -3.7372 Q=   -0.0198 A=    0.0000 R=    0.0000 C=    0.0000
 XYZ=    0.3168   -2.6892    1.7022 Q=    0.0099 A=    0.0000 R=    0.0000 C=    0.0000
 XYZ=   -1.8952   -2.0306    2.9976 Q=    0.0099 A=    0.0000 R=    0.0000 C=    0.0000
 XYZ=   -1.4228   -4.4722   -0.3102 Q=   -0.0198 A=    0.0000 R=    0.0000 C=    0.0000
 XYZ=   -2.0340   -3.8379   -0.6849 Q=    0.0099 A=    0.0000 R=    0.0000 C=    0.0000
 XYZ=   -4.1486   -4.0108   -1.2715 Q=    0.0099 A=    0.0000 R=    0.0000 C=    0.0000
 XYZ=   -2.4128    1.5858   -3.3576 Q=   -0.0198 A=    0.0000 R=    0.0000 C=    0.0000
 XYZ=   -3.1551    2.1411   -3.5961 Q=    0.0099 A=    0.0000 R=    0.0000 C=    0.0000
 XYZ=   -1.6422    2.1182   -3.5550 Q=    0.0099 A=    0.0000 R=    0.0000 C=    0.0000
 XYZ=   -0.6542   -1.5622   -2.8859 Q=   -0.0198 A=    0.0000 R=    0.0000 C=    0.0000
 XYZ=   -1.4269   -2.1138   -2.7635 Q=    0.0099 A=    0.0000 R=    0.0000 C=    0.0000
 XYZ=   -0.0657   -2.0906   -3.4251 Q=    0.0099 A=    0.0000 R=    0.0000 C=    0.0000
 XYZ=    0.7132    0.4427   -4.2533 Q=   -0.0198 A=    0.0000 R=    0.0000 C=    0.0000
 XYZ=    0.1608   -0.0314   -3.6317 Q=    0.0099 A=    0.0000 R=    0.0000 C=    0.0000
 XYZ=   -4.1411   -1.6228    3.1113 Q=    0.0099 A=    0.0000 R=    0.0000 C=    0.0000
 XYZ=   -2.8847   -0.2845   -3.4348 Q=    0.0099 A=    0.0000 R=    0.0000 C=    0.0000
 XYZ=    3.0251   -3.8520    2.6373 Q=   -0.0198 A=    0.0000 R=    0.0000 C=    0.0000
 XYZ=    2.2706   -4.1853    2.1518 Q=    0.0099 A=    0.0000 R=    0.0000 C=    0.0000
 XYZ=    6.2219   -1.6856   -0.7775 Q=    0.0099 A=    0.0000 R=    0.0000 C=    0.0000
 XYZ=    4.6328    1.2811   -0.6303 Q=   -0.0198 A=    0.0000 R=    0.0000 C=    0.0000
 XYZ=    3.9014    0.9144   -0.1335 Q=    0.0099 A=    0.0000 R=    0.0000 C=    0.0000
 XYZ=    5.2820    0.5781   -0.6550 Q=    0.0099 A=    0.0000 R=    0.0000 C=    0.0000
 XYZ=    3.7550    1.7760    2.5527 Q=   -0.0198 A=    0.0000 R=    0.0000 C=    0.0000
 XYZ=    4.3617    1.0356    2.5560 Q=    0.0099 A=    0.0000 R=    0.0000 C=    0.0000
 XYZ=   -4.1234    1.4018    1.9559 Q=   -0.0198 A=    0.0000 R=    0.0000 C=    0.0000
 XYZ=   -4.2157    0.4900    2.2323 Q=    0.0099 A=    0.0000 R=    0.0000 C=    0.0000
 XYZ=    0.1805   -0.1331    3.7011 Q=   -0.0198 A=    0.0000 R=    0.0000 C=    0.0000
 XYZ=    0.3900    0.0945    2.7953 Q=    0.0099 A=    0.0000 R=    0.0000 C=    0.0000
 XYZ=   -0.5601    0.4306    3.9246 Q=    0.0099 A=    0.0000 R=    0.0000 C=    0.0000
 XYZ=   -2.7442    5.3096   -0.8251 Q=   -0.0198 A=    0.0000 R=    0.0000 C=    0.0000
 XYZ=   -3.0848    4.4256   -0.6888 Q=    0.0099 A=    0.0000 R=    0.0000 C=    0.0000
 XYZ=   -1.7500    1.8235    3.4831 Q=   -0.0198 A=    0.0000 R=    0.0000 C=    0.0000
 XYZ=   -2.5122    1.4767    3.0194 Q=    0.0099 A=    0.0000 R=    0.0000 C=    0.0000
 XYZ=    2.4526    5.2849   -0.7433 Q=   -0.0198 A=    0.0000 R=    0.0000 C=    0.0000
 XYZ=    1.5326    5.5392   -0.6714 Q=    0.0099 A=    0.0000 R=    0.0000 C=    0.0000
 XYZ=    2.6605    4.8955    0.1060 Q=    0.0099 A=    0.0000 R=    0.0000 C=    0.0000
 XYZ=    4.2843    1.5399   -0.6124 Q=    0.0099 A=    0.0000 R=    0.0000 C=    0.0000
 XYZ=    3.0512    1.5063    1.9625 Q=    0.0099 A=    0.0000 R=    0.0000 C=    0.0000
 XYZ=   -3.1325   -0.0391   -3.9874 Q=    0.0099 A=    0.0000 R=    0.0000 C=    0.0000
 XYZ=    1.8132   -5.1115   -2.0002 Q=   -0.0198 A=    0.0000 R=    0.0000 C=    0.0000
 XYZ=    1.1684   -4.4345   -1.7952 Q=    0.0099 A=    0.0000 R=    0.0000 C=    0.0000
 XYZ=   -0.0822   -2.6938    1.9746 Q=    0.0099 A=    0.0000 R=    0.0000 C=    0.0000
 XYZ=   -0.0288   -3.8797    1.0356 Q=    0.0099 A=    0.0000 R=    0.0000 C=    0.0000
 XYZ=   -2.1925   -2.7317    3.2879 Q=   -0.0198 A=    0.0000 R=    0.0000 C=    0.0000
 XYZ=   -1.7462   -1.9262    3.0266 Q=    0.0099 A=    0.0000 R=    0.0000 C=    0.0000
 XYZ=   -2.1967    1.2446   -3.4167 Q=   -0.0198 A=    0.0000 R=    0.0000 C=    0.0000
 XYZ=   -2.9183    1.7579   -3.0533 Q=    0.0099 A=    0.0000 R=    0.0000 C=    0.0000
 XYZ=   -1.6953    1.8716   -3.9379 Q=    0.0099 A=    0.0000 R=    0.0000 C=    0.0000
 XYZ=   -2.8530   -3.4689   -2.7243 Q=   -0.0198 A=    0.0000 R=    0.0000 C=    0.0000
 XYZ=   -2.9855   -2.6177   -3.1415 Q=    0.0099 A=    0.0000 R=    0.0000 C=    0.0000
 XYZ=   -0.0006   -1.7075   -3.2580 Q=   -0.0198 A=    0.0000 R=    0.0000 C=    0.0000
 XYZ=   -0.7456   -2.2277   -2.9568 Q=    0.0099 A=    0.0000 R=    0.0000 C=    0.0000
 XYZ=    0.4473   -2.2726   -3.8874 Q=    0.0099 A=    0.0000 R=    0.0000 C=    0.0000
 XYZ=    0.9426    0.8155   -4.1124 Q=   -0.0198 A=    0.0000 R=    0.0000 C=    0.0000
 XYZ=    0.4441    0.1005   -3.7169 Q=    0.0099 A=    0.0000 R=    0.0000 C=    0.0000
 XYZ=   -4.6349   -1.1901    2.9790 Q=   -0.0198 A=    0.0000 R=    0.0000 C=    0.0000
 XYZ=   -4.0002   -1.9062    3.0039 Q=    0.0099 A=    0.0000 R=    0.0000 C=    0.0000
 XYZ=    3.0807   -3.0212    3.2680 Q=   -0.0198 A=    0.0000 R=    0.0000 C=    0.0000
 XYZ=    2.4069   -3.0526    2.5889 Q=    0.0099 A=    0.0000 R=    0.0000 C=    0.0000
 XYZ=    3.6120   -5.3781    0.6726 Q=    0.0099 A=    0.0000 R=    0.0000 C=    0.0000
 XYZ=    6.1200   -1.7936   -1.0142 Q=    0.0099 A=    0.0000 R=    0.0000 C=    0.0000
 XYZ=    1.8580    0.5876   -3.9502 Q=    0.0099 A=    0.0000 R=    0.0000 C=    0.0000
 XYZ=    0.4534    2.5083   -4.2789 Q=    0.0099 A=    0.0000 R=    0.0000 C=    0.0000
 XYZ=    3.9391    1.4972    2.8348 Q=   -0.0198 A=    0.0000 R=    0.0000 C=    0.0000
 XYZ=   -3.9170    1.5224    2.1870 Q=   -0.0198 A=    0.0000 R=    0.0000 C=    0.0000
 XYZ=   -4.2400    0.6855    2.5210 Q=    0.0099 A=    0.0000 R=    0.0000 C=    0.0000
 XYZ=    0.0505    0.0633    3.7845 Q=   -0.0198 A=    0.0000 R=    0.0000 C=    0.0000
 XYZ=    0.0497   -0.1112    2.8433 Q=    0.0099 A=    0.0000 R=    0.0000 C=    0.0000
 XYZ=   -2.7136    4.9156   -1.3998 Q=   -0.0198 A=    0.0000 R=    0.0000 C=    0.0000
 XYZ=   -2.9674    4.1379   -0.9028 Q=    0.0099 A=    0.0000 R=    0.0000 C=    0.0000
[...]
 Alpha virt. eigenvalues --    0.77606   0.79641   0.79994   0.81370   0.83159
 Alpha virt. eigenvalues --    0.86000   0.87302   0.87779   0.89424   0.89984
 Alpha virt. eigenvalues --    0.91762   0.92853   0.94284   0.96613   0.98211
 Alpha virt. eigenvalues --    0.99336   1.02426   1.03195   1.04017   1.04521
 Alpha virt. eigenvalues --    1.05945   1.06824   1.08544   1.10093   1.11117
 Alpha virt. eigenvalues --    1.12184   1.13199   1.14434   1.15394   1.16365
 Alpha virt. eigenvalues --    1.18207   1.19294   1.20342   1.21602   1.23159
 Alpha virt. eigenvalues --    1.23942   1.24628   1.25683   1.27317   1.29606
 Alpha virt. eigenvalues --    1.29960   1.31140   1.32835   1.34294   1.35485
 Alpha virt. eigenvalues --    1.37091   1.38328   1.41175   1.41622   1.42869
 Alpha virt. eigenvalues --    1.44482   1.44928   1.46533   1.46749   1.49024
 Alpha virt. eigenvalues --    1.49585   1.50260   1.50844   1.51863   1.53291
 Alpha virt. eigenvalues --    1.54915   1.55673   1.56708   1.57957   1.60193
 Alpha virt. eigenvalues --    1.60738   1.61821   1.63600   1.64224   1.66890
 Alpha virt. eigenvalues --    1.68980   1.71107   1.72762   1.73304   1.74295
 Alpha virt. eigenvalues --    1.75630   1.77655   1.78354   1.80654   1.81127
 Alpha virt. eigenvalues --    1.83609   1.84918   1.88575   1.90878   1.96609
 Alpha virt. eigenvalues --    1.97245   2.01627   2.02533   2.05832   2.08188
 Alpha virt. eigenvalues --    2.12176   2.13647   2.19074   2.24322   2.30572
 Alpha virt. eigenvalues --    2.31848   2.38461   2.39207   2.43170   2.46994
 Alpha virt. eigenvalues --    2.48109   2.51008   2.52479   2.55509   2.56147
 Alpha virt. eigenvalues --    2.57455   2.60699   2.62576   2.65099   2.68010
 Alpha virt. eigenvalues --    2.70586   2.72125   2.73552   2.77778   2.78554
 Alpha virt. eigenvalues --    2.80732   2.81383   2.82688   2.85557   2.87209
 Alpha virt. eigenvalues --    2.89142   2.90330   2.91057   2.94293   2.96430
 Alpha virt. eigenvalues --    2.97247   2.98536   3.00414   3.01278   3.03083
 Alpha virt. eigenvalues --    3.04644   3.07238   3.07992   3.08639   3.09317
 Alpha virt. eigenvalues --    3.10457   3.11449   3.12272   3.13162   3.13510
 Alpha virt. eigenvalues --    3.15682   3.17576   3.18457   3.20510   3.22375
 Alpha virt. eigenvalues --    3.24304   3.24811   3.26409   3.27192   3.28316
 Alpha virt. eigenvalues --    3.29436   3.30708   3.32289   3.33294   3.33981
 Alpha virt. eigenvalues --    3.34963   3.37029   3.37415   3.38925   3.39330
 Alpha virt. eigenvalues --    3.40673   3.41828   3.42670   3.42805   3.44496
 Alpha virt. eigenvalues --    3.46386   3.48954   3.50135   3.52183   3.53112
 Alpha virt. eigenvalues --    3.53583   3.54945   3.56177   3.58164   3.58934
 Alpha virt. eigenvalues --    3.60831   3.61413   3.62154   3.63458   3.65118
 Alpha virt. eigenvalues --    3.66599   3.67671   3.68083   3.68634   3.69162
 Alpha virt. eigenvalues --    3.71294   3.72522   3.73241   3.74437   3.75666
 Alpha virt. eigenvalues --    3.76183   3.77642   3.77948   3.79201   3.81454
 Alpha virt. eigenvalues --    3.81909   3.83695   3.84925   3.86503   3.87992
 Alpha virt. eigenvalues --    3.89687   3.91604   3.92907   3.93185   3.96302
 Alpha virt. eigenvalues --    3.97631   4.00733   4.01655   4.02814   4.04311
 Alpha virt. eigenvalues --    4.04902   4.07151   4.08993   4.09863   4.11261
 Alpha virt. eigenvalues --    4.13685   4.14769   4.15577   4.16428   4.17309
 Alpha virt. eigenvalues --    4.18670   4.19855   4.21483   4.23259   4.24696
 Alpha virt. eigenvalues --    4.25582   4.27370   4.28232   4.29852   4.30247
 Alpha virt. eigenvalues --    4.32000   4.32661   4.34121   4.35117   4.35378
 Alpha virt. eigenvalues --    4.36707   4.37443   4.40119   4.40672   4.41967
 Alpha virt. eigenvalues --    4.44827   4.45490   4.45788   4.47256   4.48878
 Alpha virt. eigenvalues --    4.50771   4.52430   4.53173   4.54127   4.56050
 Alpha virt. eigenvalues --    4.57736   4.59578   4.60986   4.61800   4.63244
 Alpha virt. eigenvalues --    4.64109   4.68584   4.69406   4.73464   4.74846
 Alpha virt. eigenvalues --    4.77557   4.78032   4.81572   4.83527   4.86229
 Alpha virt. eigenvalues --    4.87901   4.93087   4.94963   4.98331   5.03442
 Alpha virt. eigenvalues --    5.04819   5.07188   5.10115   5.10497   5.12174
 Alpha virt. eigenvalues --    5.15100   5.17673   5.18025   5.18741   5.20243
 Alpha virt. eigenvalues --    5.21422   5.21718   5.25836   5.26468   5.29581
 Alpha virt. eigenvalues --    5.29913   5.33390   5.34254   5.37809   5.39131
 Alpha virt. eigenvalues --    5.41521   5.43416   5.44634   5.45719   5.46216
 Alpha virt. eigenvalues --    5.51118   5.53185   5.53368   5.54483   5.57576
 Alpha virt. eigenvalues --    5.57699   5.58024   5.58620   5.59208   5.60539
 Alpha virt. eigenvalues --    5.62095   5.63093   5.64739   5.67372   5.68915
 Alpha virt. eigenvalues --    5.70360   5.70890   5.72415   5.73453   5.74663
 Alpha virt. eigenvalues --    5.77315   5.78813   5.79217   5.82594   5.84329
 Alpha virt. eigenvalues --    5.90542   5.94558   5.98737   5.99964   6.01470
 Alpha virt. eigenvalues --    6.06805   6.10891   6.14963   6.15761   6.17519
 Alpha virt. eigenvalues --    6.19784   6.22691   6.24434   6.27838   6.28816
 Alpha virt. eigenvalues --    6.32963   6.35973   6.40203   6.44068   6.46347
 Alpha virt. eigenvalues --    6.51512   6.55568   6.66542   6.76211   6.78027
 Alpha virt. eigenvalues --    6.87295   6.91701   6.94039   6.95055   7.03324
 Alpha virt. eigenvalues --    7.05733   7.14357   7.29716   7.32118   7.33731
 Alpha virt. eigenvalues --    7.51746   7.55682   7.57225   7.59463   9.90638
 Alpha virt. eigenvalues --   10.34947  12.47332  12.71135  13.16966  13.60930
 Alpha virt. eigenvalues --   13.74721  14.02934  14.17316  14.19192
          Condensed to atoms (all electrons):
              1          2          3          4          5          6
     1  H    0.556780   0.370121  -0.022950  -0.022191  -0.034948   0.008562
     2  C    0.370121   5.082467   0.367807   0.374768   0.317096  -0.073783
     3  H   -0.022950   0.367807   0.554281  -0.021259  -0.028589   0.001407
     4  H   -0.022191   0.374768  -0.021259   0.550843  -0.039675   0.002711
     5  C   -0.034948   0.317096  -0.028589  -0.039675   4.654321   0.676427
     6  O    0.008562  -0.073783   0.001407   0.002711   0.676427   7.969423
     7  N    0.004535  -0.067856   0.000858   0.011367   0.312005  -0.162934
     8  H   -0.000088  -0.000695  -0.000102  -0.001142  -0.009946   0.004418
     9  C   -0.000504   0.003941  -0.000055   0.000367  -0.056845   0.003813
    10  H    0.000017  -0.000114   0.000007  -0.000027   0.005484   0.000154
    11  C   -0.000038  -0.000410   0.000118   0.000079  -0.006931  -0.002529
    12  H   -0.000015   0.000374  -0.000089  -0.000014   0.002602   0.006774
    13  H    0.000001   0.000012  -0.000006  -0.000003   0.000388  -0.000049
    14  H    0.000012   0.000021  -0.000016  -0.000034  -0.000531  -0.000225
    15  C    0.000182   0.000105  -0.000117  -0.000171  -0.010058   0.020019
    16  O    0.000001  -0.000001   0.000000   0.000002   0.000099  -0.002484
    17  N    0.000189  -0.000803   0.000028   0.000120   0.014537  -0.017273
    18  H   -0.000126  -0.000096   0.000028   0.000167   0.001039  -0.002178
    19  C    0.000023  -0.000031   0.000001  -0.000017   0.000198   0.001490
    20  H    0.000000  -0.000002   0.000000   0.000002  -0.000119  -0.000068
    21  H    0.000002  -0.000001   0.000000  -0.000001   0.000176   0.000054
    22  H    0.000003   0.000015  -0.000001  -0.000006  -0.000709   0.001774
              7          8          9         10         11         12
     1  H    0.004535  -0.000088  -0.000504   0.000017  -0.000038  -0.000015
     2  C   -0.067856  -0.000695   0.003941  -0.000114  -0.000410   0.000374
     3  H    0.000858  -0.000102  -0.000055   0.000007   0.000118  -0.000089
     4  H    0.011367  -0.001142   0.000367  -0.000027   0.000079  -0.000014
     5  C    0.312005  -0.009946  -0.056845   0.005484  -0.006931   0.002602
     6  O   -0.162934   0.004418   0.003813   0.000154  -0.002529   0.006774
     7  N    6.649449   0.323099   0.218309  -0.017595  -0.058474  -0.007339
     8  H    0.323099   0.467484  -0.019760  -0.006496   0.001511  -0.000072
     9  C    0.218309  -0.019760   5.351522   0.358107   0.302461  -0.031796
    10  H   -0.017595  -0.006496   0.358107   0.514435  -0.032062   0.004780
    11  C   -0.058474   0.001511   0.302461  -0.032062   5.113558   0.378129
    12  H   -0.007339  -0.000072  -0.031796   0.004780   0.378129   0.565601
    13  H    0.006989  -0.000220  -0.028678  -0.003982   0.359538  -0.031389
    14  H    0.006283   0.000281  -0.043358  -0.004064   0.371499  -0.027099
    15  C   -0.031934   0.002287   0.151905  -0.014055  -0.065056  -0.000134
    16  O    0.004036  -0.000225  -0.105467   0.000737   0.006684   0.003024
    17  N   -0.000134   0.000020  -0.083200  -0.001476   0.005227  -0.000084
    18  H    0.009682  -0.000279   0.001101  -0.000688   0.000835   0.000012
    19  C   -0.000765   0.000036   0.005373  -0.000121  -0.000605  -0.000079
    20  H   -0.000012   0.000004   0.000334  -0.000003   0.000003  -0.000001
    21  H   -0.000086   0.000005   0.000061   0.000042  -0.000159  -0.000010
    22  H   -0.000292   0.000003   0.001359  -0.000052   0.000113   0.000035
             13         14         15         16         17         18
     1  H    0.000001   0.000012   0.000182   0.000001   0.000189  -0.000126
     2  C    0.000012   0.000021   0.000105  -0.000001  -0.000803  -0.000096
     3  H   -0.000006  -0.000016  -0.000117   0.000000   0.000028   0.000028
     4  H   -0.000003  -0.000034  -0.000171   0.000002   0.000120   0.000167
     5  C    0.000388  -0.000531  -0.010058   0.000099   0.014537   0.001039
     6  O   -0.000049  -0.000225   0.020019  -0.002484  -0.017273  -0.002178
     7  N    0.006989   0.006283  -0.031934   0.004036  -0.000134   0.009682
     8  H   -0.000220   0.000281   0.002287  -0.000225   0.000020  -0.000279
     9  C   -0.028678  -0.043358   0.151905  -0.105467  -0.083200   0.001101
    10  H   -0.003982  -0.004064  -0.014055   0.000737  -0.001476  -0.000688
    11  C    0.359538   0.371499  -0.065056   0.006684   0.005227   0.000835
    12  H   -0.031389  -0.027099  -0.000134   0.003024  -0.000084   0.000012
    13  H    0.577353  -0.025094   0.000789   0.007340   0.000287  -0.000128
    14  H   -0.025094   0.577474   0.009868   0.001281  -0.000087  -0.000072
    15  C    0.000789   0.009868   4.808066   0.668424   0.358930  -0.018720
    16  O    0.007340   0.001281   0.668424   8.011972  -0.125318   0.004092
    17  N    0.000287  -0.000087   0.358930  -0.125318   6.505194   0.329267
    18  H   -0.000128  -0.000072  -0.018720   0.004092   0.329267   0.470567
    19  C    0.000014   0.000015  -0.056724  -0.003918   0.294814  -0.027891
    20  H   -0.000002  -0.000001   0.005852   0.001408  -0.018281  -0.003824
    21  H    0.000025  -0.000002  -0.007949   0.004653  -0.053681  -0.000857
    22  H   -0.000037   0.000005  -0.001595   0.014706  -0.060477   0.005723
             19         20         21         22
     1  H    0.000023   0.000000   0.000002   0.000003
     2  C   -0.000031  -0.000002  -0.000001   0.000015
     3  H    0.000001   0.000000   0.000000  -0.000001
     4  H   -0.000017   0.000002  -0.000001  -0.000006
     5  C    0.000198  -0.000119   0.000176  -0.000709
     6  O    0.001490  -0.000068   0.000054   0.001774
     7  N   -0.000765  -0.000012  -0.000086  -0.000292
     8  H    0.000036   0.000004   0.000005   0.000003
     9  C    0.005373   0.000334   0.000061   0.001359
    10  H   -0.000121  -0.000003   0.000042  -0.000052
    11  C   -0.000605   0.000003  -0.000159   0.000113
    12  H   -0.000079  -0.000001  -0.000010   0.000035
    13  H    0.000014  -0.000002   0.000025  -0.000037
    14  H    0.000015  -0.000001  -0.000002   0.000005
    15  C   -0.056724   0.005852  -0.007949  -0.001595
    16  O   -0.003918   0.001408   0.004653   0.014706
    17  N    0.294814  -0.018281  -0.053681  -0.060477
    18  H   -0.027891  -0.003824  -0.000857   0.005723
    19  C    4.910094   0.371664   0.398071   0.365256
    20  H    0.371664   0.548479  -0.029609  -0.025879
    21  H    0.398071  -0.029609   0.596451  -0.043945
    22  H    0.365256  -0.025879  -0.043945   0.618894
 Mulliken atomic charges:
              1
     1  H    0.140433
     2  C   -0.372934
     3  H    0.148650
     4  H    0.144114
     5  C    0.203979
     6  O   -0.435504
     7  N   -0.199193
     8  H    0.239876
     9  C   -0.028991
    10  H    0.196971
    11  C   -0.373490
    12  H    0.136788
    13  H    0.136852
    14  H    0.133843
    15  C    0.180088
    16  O   -0.491047
    17  N   -0.147798
    18  H    0.232344
    19  C   -0.256898
    20  H    0.150053
    21  H    0.136755
    22  H    0.125108
 Sum of Mulliken atomic charges =   0.00000
 Mulliken charges with hydrogens summed into heavy atoms:
              1
     2  C    0.060263
     5  C    0.203979
     6  O   -0.435504
     7  N    0.040684
     9  C    0.167980
    11  C    0.033993
    15  C    0.180088
    16  O   -0.491047
    17  N    0.084547
    19  C    0.155018
 Sum of Mulliken charges with hydrogens summed into heavy atoms =   0.00000
 Electronic spatial extent (au):  <R**2>=           1615.0279
 Charge=              0.0000 electrons
 Dipole moment (field-independent basis, Debye):
    X=             -4.2752    Y=             -1.3578    Z=             -8.1587  Tot=              9.3105
 Quadrupole moment (field-independent basis, Debye-Ang):
   XX=            -59.0958   YY=            -55.2104   ZZ=            -60.5237
   XY=             -8.0329   XZ=             -0.6443   YZ=             -0.0673
 Traceless Quadrupole moment (field-independent basis, Debye-Ang):
   XX=             -0.8192   YY=              3.0662   ZZ=             -2.2471
   XY=             -8.0329   XZ=             -0.6443   YZ=             -0.0673
 Octapole moment (field-independent basis, Debye-Ang**2):
  XXX=            -34.7893  YYY=             -8.5835  ZZZ=            -19.4561  XYY=              3.6532
  XXY=            -23.0602  XXZ=            -18.1003  XZZ=             -4.2453  YZZ=              2.3159
  YYZ=             -7.3563  XYZ=             -4.2654
 Hexadecapole moment (field-independent basis, Debye-Ang**3):
 XXXX=          -1158.6925 YYYY=           -678.4330 ZZZZ=           -206.9386 XXXY=            -31.8152
 XXXZ=            -20.2449 YYYX=            -22.1904 YYYZ=             -0.3478 ZZZX=             16.1098
 ZZZY=              0.8037 XXYY=           -301.4664 XXZZ=           -231.8966 YYZZ=           -152.2036
 XXYZ=             -8.0707 YYXZ=             -3.8319 ZZXY=             -9.9099
 N-N= 5.713149798260D+02 E-N=-2.295252014842D+03  KE= 4.942655981336D+02
 Merz-Kollman atomic radii used.

 **********************************************************************

          Electrostatic Properties Using The MP2 Density

 **********************************************************************

       Atomic Center    1 is at  -2.921600 -2.122316  0.518559
       Atomic Center    2 is at  -2.978331 -1.196251 -0.053530
       Atomic Center    3 is at  -3.777224 -0.608427  0.398503
       Atomic Center    4 is at  -3.173977 -1.348240 -1.115001
       Atomic Center    5 is at  -1.672985 -0.402240  0.226249
       Atomic Center    6 is at  -1.021728 -0.656278  1.210194
       Atomic Center    7 is at  -1.191347  0.431720 -0.741804
       Atomic Center    8 is at  -1.712761  0.564060 -1.596622
       Atomic Center    9 is at   0.097836  1.175243 -0.637767
       Atomic Center   10 is at   0.349020  1.556115 -1.627688
       Atomic Center   11 is at  -0.146285  2.451354  0.209593
       Atomic Center   12 is at  -0.411670  2.298343  1.255661
       Atomic Center   13 is at   0.705460  3.131135  0.232571
       Atomic Center   14 is at  -0.969746  3.017083 -0.226255
       Atomic Center   15 is at   1.218035  0.320087 -0.134213
       Atomic Center   16 is at   2.053340  0.810767  0.706674
       Atomic Center   17 is at   1.342077 -0.970379 -0.573331
       Atomic Center   18 is at   0.776031 -1.186048 -1.381526
       Atomic Center   19 is at   2.445832 -1.816976 -0.080448
       Atomic Center   20 is at   2.312508 -2.890543 -0.213785
       Atomic Center   21 is at   3.353431 -1.430900 -0.544462
       Atomic Center   22 is at   2.377905 -1.632862  0.991741
    1000 points will be used for fitting atomic charges
 Fitting point charges to electrostatic potential
 Charges from ESP fit, RMS=   0.00168 RRMS=   0.04573:
 Charge=   0.00000 Dipole=    -4.2615    -1.3578    -8.0970 Tot=     9.2501
              1
     1  H    0.169080
     2  C   -0.601645
     3  H    0.175293
     4  H    0.184421
     5  C    0.742828
     6  O   -0.656199
     7  N   -0.712327
     8  H    0.393801
     9  C    0.383725
    10  H    0.045405
    11  C   -0.269400
    12  H    0.106286
    13  H    0.060830
    14  H    0.080818
    15  C    0.326153
    16  O   -0.641911
    17  N   -0.157192
    18  H    0.254557
    19  C   -0.349453
    20  H    0.170283
    21  H    0.144931
    22  H    0.149718
 -----------------------------------------------------------------

              Electrostatic Properties (Atomic Units)

 -----------------------------------------------------------------
    Center     Electric         -------- Electric Field --------
               Potential          X             Y             Z
 -----------------------------------------------------------------
    1 Atom     -1.095282
    2 Atom    -14.743818
    3 Atom     -1.079188
    4 Atom     -1.062165
    5 Atom    -14.653092
    6 Atom    -22.424755
    7 Atom    -18.315955
    8 Atom     -0.952006
    9 Atom    -14.685476
   10 Atom     -1.048225
   11 Atom    -14.774374
   12 Atom     -1.135735
   13 Atom     -1.128347
   14 Atom     -1.102474
   15 Atom    -14.670380
   16 Atom    -22.446941
   17 Atom    -18.340825
   18 Atom     -0.974061
   19 Atom    -14.731486
   20 Atom     -1.083519
   21 Atom     -1.106263
   22 Atom     -1.131838
 -----------------------------------------------------------------

 Test job not archived.
 1\1\GINC-TACHIKOMA\SP\RMP2-FC\CC-pVTZ\C6H12N2O2\STEBOSS\19-Mar-2017\0\
 \#MP2/cc-pvTZ density=MP2, charge, maxdisk=16GB, pop=(minimal, MK), 5d
 , punch=mo\\Generated by mdgx\\0,1\H,0,-2.9215997,-2.1223159,0.518559\
 C,0,-2.978331,-1.1962507,-0.0535297\H,0,-3.7772244,-0.6084274,0.398502
 7\H,0,-3.1739775,-1.3482401,-1.1150012\C,0,-1.6729848,-0.4022397,0.226
 2487\O,0,-1.0217282,-0.6562782,1.2101944\N,0,-1.1913467,0.4317197,-0.7
 418043\H,0,-1.7127614,0.5640603,-1.5966216\C,0,0.0978356,1.1752428,-0.
 6377672\H,0,0.3490196,1.5561152,-1.6276878\C,0,-0.1462848,2.4513536,0.
 2095929\H,0,-0.4116698,2.2983427,1.255661\H,0,0.7054599,3.1311354,0.23
 25712\H,0,-0.9697455,3.0170828,-0.2262545\C,0,1.2180354,0.320087,-0.13
 42129\O,0,2.0533399,0.8107665,0.7066744\N,0,1.3420773,-0.9703787,-0.57
 33313\H,0,0.7760311,-1.1860478,-1.3815259\C,0,2.445832,-1.8169761,-0.0
 804477\H,0,2.3125077,-2.890543,-0.2137846\H,0,3.353431,-1.4308999,-0.5
 444623\H,0,2.3779052,-1.6328617,0.9917407\\Version=EM64L-G09RevA.02\St
 ate=1-A\HF=-492.2042469\MP2=-494.0875485\RMSD=8.236e-09\Dipole=-1.6820
 045,-0.5341935,-3.2098791\Quadrupole=-0.6090465,2.279679,-1.6706326,-5
 .9722277,-0.4790334,-0.0500642\PG=C01 [X(C6H12N2O2)]\\@


 THE 2ND LAW OF THERMODYNAMICS HAS THE SAME
 DEGREE OF TRUTH AS THE STATEMENT THAT IF YOU THROW
 A TUMBLERFULL OF WATER INTO THE SEA, YOU CANNOT GET
 THE SAME TUMBLERFULL OF WATER OUT AGAIN.
          - J.C. MAXWELL, LETTER TO LORD RAYLEIGH, DECEMBER 6,1870
 Job cpu time:  0 days  3 hours  3 minutes 19.5 seconds.
 File lengths (MBytes):  RWF=  13512 Int=      0 D2E=      0 Chk=     14 Scr=      1
 Normal termination of Gaussian 09 at Sun Mar 19 16:48:29 2017.
