 Entering Gaussian System, Link 0=g09
 Initial command:
 /home/steboss/Software/g09/l1.exe /home/steboss/projects/phi_psi_scan/alanine/90/4683/Gau-7127.inp -scrdir=/home/steboss/projects/phi_psi_scan/alanine/90/4683/
 Entering Link 1 = /home/steboss/Software/g09/l1.exe PID=      7136.
  
 Copyright (c) 1988,1990,1992,1993,1995,1998,2003,2009, Gaussian, Inc.
                  All Rights Reserved.
  
 This is part of the Gaussian(R) 09 program.  It is based on
 the Gaussian(R) 03 system (copyright 2003, Gaussian, Inc.),
 the Gaussian(R) 98 system (copyright 1998, Gaussian, Inc.),
 the Gaussian(R) 94 system (copyright 1995, Gaussian, Inc.),
 the Gaussian 92(TM) system (copyright 1992, Gaussian, Inc.),
 the Gaussian 90(TM) system (copyright 1990, Gaussian, Inc.),
 the Gaussian 88(TM) system (copyright 1988, Gaussian, Inc.),
 the Gaussian 86(TM) system (copyright 1986, Carnegie Mellon
 University), and the Gaussian 82(TM) system (copyright 1983,
 Carnegie Mellon University). Gaussian is a federally registered
 trademark of Gaussian, Inc.
  
 This software contains proprietary and confidential information,
 including trade secrets, belonging to Gaussian, Inc.
  
 This software is provided under written license and may be
 used, copied, transmitted, or stored only in accord with that
 written license.
  
 The following legend is applicable only to US Government
 contracts under FAR:
  
                    RESTRICTED RIGHTS LEGEND
  
 Use, reproduction and disclosure by the US Government is
 subject to restrictions as set forth in subparagraphs (a)
 and (c) of the Commercial Computer Software - Restricted
 Rights clause in FAR 52.227-19.
  
 Gaussian, Inc.
 340 Quinnipiac St., Bldg. 40, Wallingford CT 06492
  
  
 ---------------------------------------------------------------
 Warning -- This program may not be used in any manner that
 competes with the business of Gaussian, Inc. or will provide
 assistance to any competitor of Gaussian, Inc.  The licensee
 of this program is prohibited from giving any competitor of
 Gaussian, Inc. access to this program.  By using this program,
 the user acknowledges that Gaussian, Inc. is engaged in the
 business of creating and licensing software in the field of
 computational chemistry and represents and warrants to the
 licensee that it is not a competitor of Gaussian, Inc. and that
 it will not use this program in any manner prohibited above.
 ---------------------------------------------------------------
  

 Cite this work as:
 Gaussian 09, Revision A.02,
 M. J. Frisch, G. W. Trucks, H. B. Schlegel, G. E. Scuseria, 
 M. A. Robb, J. R. Cheeseman, G. Scalmani, V. Barone, B. Mennucci, 
 G. A. Petersson, H. Nakatsuji, M. Caricato, X. Li, H. P. Hratchian, 
 A. F. Izmaylov, J. Bloino, G. Zheng, J. L. Sonnenberg, M. Hada, 
 M. Ehara, K. Toyota, R. Fukuda, J. Hasegawa, M. Ishida, T. Nakajima, 
 Y. Honda, O. Kitao, H. Nakai, T. Vreven, J. A. Montgomery, Jr., 
 J. E. Peralta, F. Ogliaro, M. Bearpark, J. J. Heyd, E. Brothers, 
 K. N. Kudin, V. N. Staroverov, R. Kobayashi, J. Normand, 
 K. Raghavachari, A. Rendell, J. C. Burant, S. S. Iyengar, J. Tomasi, 
 M. Cossi, N. Rega, J. M. Millam, M. Klene, J. E. Knox, J. B. Cross, 
 V. Bakken, C. Adamo, J. Jaramillo, R. Gomperts, R. E. Stratmann, 
 O. Yazyev, A. J. Austin, R. Cammi, C. Pomelli, J. W. Ochterski, 
 R. L. Martin, K. Morokuma, V. G. Zakrzewski, G. A. Voth, 
 P. Salvador, J. J. Dannenberg, S. Dapprich, A. D. Daniels, 
 O. Farkas, J. B. Foresman, J. V. Ortiz, J. Cioslowski, 
 and D. J. Fox, Gaussian, Inc., Wallingford CT, 2009.
 
 ******************************************
 Gaussian 09:  EM64L-G09RevA.02 11-Jun-2009
                11-Feb-2017 
 ******************************************
 %chk=structure_150.chk
 %NProcShared=8
 Will use up to    8 processors via shared memory.
 ----------------------------------------------------------------------
 # b3lyp/6-31G* Opt=(ModRedundant, maxcycles=1000, calcfc) geom=nocrowd
 ----------------------------------------------------------------------
 1/6=1000,10=4,14=-1,18=120,19=15,26=3,38=1/1,3;
 2/9=110,12=1,17=6,18=5,40=1/2;
 3/5=1,6=6,7=1,11=2,16=1,25=1,30=1,71=2,74=-5/1,2,3;
 4//1;
 5/5=2,38=5/2;
 8/6=4,10=90,11=11/1;
 11/6=1,8=1,9=11,15=111,16=1/1,2,10;
 10/6=1,7=6,13=1/2;
 6/7=2,8=2,9=2,10=2,28=1/1;
 7/10=1,18=20,25=1/1,2,3,16;
 1/6=1000,10=4,14=-1,18=20,19=15/3(2);
 2/9=110,12=1/2;
 99//99;
 2/9=110,12=1/2;
 3/5=1,6=6,7=1,11=2,16=1,25=1,30=1,71=1,74=-5/1,2,3;
 4/5=5,16=3/1;
 5/5=2,38=5/2;
 7//1,2,3,16;
 1/6=1000,14=-1,18=20,19=15/3(-5);
 2/9=110,12=1/2;
 6/7=2,8=2,9=2,10=2,19=2,28=1/1;
 99/9=1/99;
 ------------------
 Phi Psi fixed scan
 ------------------
 Symbolic Z-matrix:
 Charge =  0 Multiplicity = 1
 H                     1.1248    2.7631   -1.9684 
 C                     1.5589    2.9786   -0.9921 
 H                     1.6873    2.0489   -0.4377 
 H                     0.896     3.6429   -0.4377 
 C                     2.9235    3.656    -1.1334 
 O                     3.3922    3.8887   -2.2454 
 N                     3.5554    3.9697    0. 
 H                     3.1293    3.7581    0.8909 
 C                     4.8533    4.6139    0. 
 H                     5.4076    4.3155    0.8898 
 C                     5.6613    4.2208   -1.2322 
 H                     5.1233    4.5214   -2.1312 
 H                     6.6305    4.7189   -1.2058 
 H                     5.8085    3.1409   -1.2414 
 C                     4.7127    6.1294    0. 
 O                     3.7419    6.6658   -0.5295 
 N                     5.6868    6.8201    0.5968 
 H                     6.4653    6.3339    1.0185 
 C                     5.669     8.2675    0.6638 
 H                     4.7735    8.6435    0.169 
 H                     5.667     8.5835    1.707 
 H                     6.553     8.6656    0.1657 
 
 The following ModRedundant input section has been read:
 D    5    7    9   15 F                                                       
 D    7    9   15   17 F                                                       

 GradGradGradGradGradGradGradGradGradGradGradGradGradGradGradGradGradGrad
 Berny optimization.
 Initialization pass.
                           ----------------------------
                           !    Initial Parameters    !
                           ! (Angstroms and Degrees)  !
 --------------------------                            --------------------------
 ! Name  Definition              Value          Derivative Info.                !
 --------------------------------------------------------------------------------
 ! R1    R(1,2)                  1.09           calculate D2E/DX2 analytically  !
 ! R2    R(2,3)                  1.09           calculate D2E/DX2 analytically  !
 ! R3    R(2,4)                  1.09           calculate D2E/DX2 analytically  !
 ! R4    R(2,5)                  1.53           calculate D2E/DX2 analytically  !
 ! R5    R(5,6)                  1.229          calculate D2E/DX2 analytically  !
 ! R6    R(5,7)                  1.335          calculate D2E/DX2 analytically  !
 ! R7    R(7,8)                  1.01           calculate D2E/DX2 analytically  !
 ! R8    R(7,9)                  1.449          calculate D2E/DX2 analytically  !
 ! R9    R(9,10)                 1.09           calculate D2E/DX2 analytically  !
 ! R10   R(9,11)                 1.525          calculate D2E/DX2 analytically  !
 ! R11   R(9,15)                 1.522          calculate D2E/DX2 analytically  !
 ! R12   R(11,12)                1.09           calculate D2E/DX2 analytically  !
 ! R13   R(11,13)                1.09           calculate D2E/DX2 analytically  !
 ! R14   R(11,14)                1.0899         calculate D2E/DX2 analytically  !
 ! R15   R(15,16)                1.229          calculate D2E/DX2 analytically  !
 ! R16   R(15,17)                1.335          calculate D2E/DX2 analytically  !
 ! R17   R(17,18)                1.0101         calculate D2E/DX2 analytically  !
 ! R18   R(17,19)                1.4491         calculate D2E/DX2 analytically  !
 ! R19   R(19,20)                1.09           calculate D2E/DX2 analytically  !
 ! R20   R(19,21)                1.09           calculate D2E/DX2 analytically  !
 ! R21   R(19,22)                1.09           calculate D2E/DX2 analytically  !
 ! A1    A(1,2,3)              109.5024         calculate D2E/DX2 analytically  !
 ! A2    A(1,2,4)              109.5034         calculate D2E/DX2 analytically  !
 ! A3    A(1,2,5)              111.1015         calculate D2E/DX2 analytically  !
 ! A4    A(3,2,4)              109.4359         calculate D2E/DX2 analytically  !
 ! A5    A(3,2,5)              108.6343         calculate D2E/DX2 analytically  !
 ! A6    A(4,2,5)              108.6362         calculate D2E/DX2 analytically  !
 ! A7    A(2,5,6)              120.4997         calculate D2E/DX2 analytically  !
 ! A8    A(2,5,7)              116.6012         calculate D2E/DX2 analytically  !
 ! A9    A(6,5,7)              122.8991         calculate D2E/DX2 analytically  !
 ! A10   A(5,7,8)              119.9973         calculate D2E/DX2 analytically  !
 ! A11   A(5,7,9)              121.9001         calculate D2E/DX2 analytically  !
 ! A12   A(8,7,9)              118.1026         calculate D2E/DX2 analytically  !
 ! A13   A(7,9,10)             109.5            calculate D2E/DX2 analytically  !
 ! A14   A(7,9,11)             111.0992         calculate D2E/DX2 analytically  !
 ! A15   A(7,9,15)             111.0966         calculate D2E/DX2 analytically  !
 ! A16   A(10,9,11)            108.6382         calculate D2E/DX2 analytically  !
 ! A17   A(10,9,15)            108.6373         calculate D2E/DX2 analytically  !
 ! A18   A(11,9,15)            107.7947         calculate D2E/DX2 analytically  !
 ! A19   A(9,11,12)            109.5007         calculate D2E/DX2 analytically  !
 ! A20   A(9,11,13)            109.4959         calculate D2E/DX2 analytically  !
 ! A21   A(9,11,14)            109.4978         calculate D2E/DX2 analytically  !
 ! A22   A(12,11,13)           109.441          calculate D2E/DX2 analytically  !
 ! A23   A(12,11,14)           109.4482         calculate D2E/DX2 analytically  !
 ! A24   A(13,11,14)           109.4436         calculate D2E/DX2 analytically  !
 ! A25   A(9,15,16)            120.5            calculate D2E/DX2 analytically  !
 ! A26   A(9,15,17)            116.6011         calculate D2E/DX2 analytically  !
 ! A27   A(16,15,17)           122.8989         calculate D2E/DX2 analytically  !
 ! A28   A(15,17,18)           119.9988         calculate D2E/DX2 analytically  !
 ! A29   A(15,17,19)           121.9048         calculate D2E/DX2 analytically  !
 ! A30   A(18,17,19)           118.0964         calculate D2E/DX2 analytically  !
 ! A31   A(17,19,20)           109.491          calculate D2E/DX2 analytically  !
 ! A32   A(17,19,21)           109.5024         calculate D2E/DX2 analytically  !
 ! A33   A(17,19,22)           109.4952         calculate D2E/DX2 analytically  !
 ! A34   A(20,19,21)           109.447          calculate D2E/DX2 analytically  !
 ! A35   A(20,19,22)           109.443          calculate D2E/DX2 analytically  !
 ! A36   A(21,19,22)           109.4486         calculate D2E/DX2 analytically  !
 ! D1    D(1,2,5,6)              0.002          calculate D2E/DX2 analytically  !
 ! D2    D(1,2,5,7)            179.9996         calculate D2E/DX2 analytically  !
 ! D3    D(3,2,5,6)            120.5171         calculate D2E/DX2 analytically  !
 ! D4    D(3,2,5,7)            -59.4853         calculate D2E/DX2 analytically  !
 ! D5    D(4,2,5,6)           -120.5155         calculate D2E/DX2 analytically  !
 ! D6    D(4,2,5,7)             59.482          calculate D2E/DX2 analytically  !
 ! D7    D(2,5,7,8)              0.0055         calculate D2E/DX2 analytically  !
 ! D8    D(2,5,7,9)            179.9962         calculate D2E/DX2 analytically  !
 ! D9    D(6,5,7,8)           -179.997          calculate D2E/DX2 analytically  !
 ! D10   D(6,5,7,9)             -0.0063         calculate D2E/DX2 analytically  !
 ! D11   D(5,7,9,10)          -149.9973         calculate D2E/DX2 analytically  !
 ! D12   D(5,7,9,11)           -29.9947         calculate D2E/DX2 analytically  !
 ! D13   D(5,7,9,15)            90.0028         frozen, calculate D2E/DX2 analyt!
 ! D14   D(8,7,9,10)            29.9935         calculate D2E/DX2 analytically  !
 ! D15   D(8,7,9,11)           149.9961         calculate D2E/DX2 analytically  !
 ! D16   D(8,7,9,15)           -90.0063         calculate D2E/DX2 analytically  !
 ! D17   D(7,9,11,12)           60.0024         calculate D2E/DX2 analytically  !
 ! D18   D(7,9,11,13)          179.9986         calculate D2E/DX2 analytically  !
 ! D19   D(7,9,11,14)          -60.0038         calculate D2E/DX2 analytically  !
 ! D20   D(10,9,11,12)        -179.4843         calculate D2E/DX2 analytically  !
 ! D21   D(10,9,11,13)         -59.4881         calculate D2E/DX2 analytically  !
 ! D22   D(10,9,11,14)          60.5095         calculate D2E/DX2 analytically  !
 ! D23   D(15,9,11,12)         -61.938          calculate D2E/DX2 analytically  !
 ! D24   D(15,9,11,13)          58.0582         calculate D2E/DX2 analytically  !
 ! D25   D(15,9,11,14)         178.0558         calculate D2E/DX2 analytically  !
 ! D26   D(7,9,15,16)          -30.0006         calculate D2E/DX2 analytically  !
 ! D27   D(7,9,15,17)          150.0013         frozen, calculate D2E/DX2 analyt!
 ! D28   D(10,9,15,16)        -150.5117         calculate D2E/DX2 analytically  !
 ! D29   D(10,9,15,17)          29.4902         calculate D2E/DX2 analytically  !
 ! D30   D(11,9,15,16)          91.9414         calculate D2E/DX2 analytically  !
 ! D31   D(11,9,15,17)         -88.0567         calculate D2E/DX2 analytically  !
 ! D32   D(9,15,17,18)          -0.0061         calculate D2E/DX2 analytically  !
 ! D33   D(9,15,17,19)        -179.9984         calculate D2E/DX2 analytically  !
 ! D34   D(16,15,17,18)        179.9959         calculate D2E/DX2 analytically  !
 ! D35   D(16,15,17,19)          0.0036         calculate D2E/DX2 analytically  !
 ! D36   D(15,17,19,20)         -0.0048         calculate D2E/DX2 analytically  !
 ! D37   D(15,17,19,21)        119.9968         calculate D2E/DX2 analytically  !
 ! D38   D(15,17,19,22)       -119.9971         calculate D2E/DX2 analytically  !
 ! D39   D(18,17,19,20)       -179.9973         calculate D2E/DX2 analytically  !
 ! D40   D(18,17,19,21)        -59.9957         calculate D2E/DX2 analytically  !
 ! D41   D(18,17,19,22)         60.0105         calculate D2E/DX2 analytically  !
 --------------------------------------------------------------------------------
 Trust Radius=3.00D-01 FncErr=1.00D-07 GrdErr=1.00D-06
 Number of steps in this run= 132 maximum allowed number of steps= 132.
 GradGradGradGradGradGradGradGradGradGradGradGradGradGradGradGradGradGrad

                          Input orientation:                          
 ---------------------------------------------------------------------
 Center     Atomic      Atomic             Coordinates (Angstroms)
 Number     Number       Type             X           Y           Z
 ---------------------------------------------------------------------
      1          1           0        1.124800    2.763100   -1.968400
      2          6           0        1.558900    2.978600   -0.992100
      3          1           0        1.687300    2.048900   -0.437700
      4          1           0        0.896000    3.642900   -0.437700
      5          6           0        2.923500    3.656000   -1.133400
      6          8           0        3.392200    3.888700   -2.245400
      7          7           0        3.555400    3.969700    0.000000
      8          1           0        3.129300    3.758100    0.890900
      9          6           0        4.853300    4.613900    0.000000
     10          1           0        5.407600    4.315500    0.889800
     11          6           0        5.661300    4.220800   -1.232200
     12          1           0        5.123300    4.521400   -2.131200
     13          1           0        6.630500    4.718900   -1.205800
     14          1           0        5.808500    3.140900   -1.241400
     15          6           0        4.712700    6.129400    0.000000
     16          8           0        3.741900    6.665800   -0.529500
     17          7           0        5.686800    6.820100    0.596800
     18          1           0        6.465300    6.333900    1.018500
     19          6           0        5.669000    8.267500    0.663800
     20          1           0        4.773500    8.643500    0.169000
     21          1           0        5.667000    8.583500    1.707000
     22          1           0        6.553000    8.665600    0.165700
 ---------------------------------------------------------------------
                    Distance matrix (angstroms):
                    1          2          3          4          5
     1  H    0.000000
     2  C    1.089975   0.000000
     3  H    1.780317   1.090040   0.000000
     4  H    1.780292   1.089996   1.779604   0.000000
     5  C    2.174814   1.530023   2.143586   2.143578   0.000000
     6  O    2.546528   2.400007   3.091816   3.091797   1.228972
     7  N    3.352357   2.439786   2.714931   2.714919   1.335028
     8  H    3.630928   2.572832   2.601136   2.601169   2.037294
     9  C    4.604538   3.809402   4.098093   4.098127   2.434398
    10  H    5.377883   4.487911   4.554159   4.750703   3.270937
    11  C    4.821484   4.293064   4.597940   4.865520   2.797197
    12  H    4.371055   4.047558   4.559309   4.637863   2.565861
    13  H    5.892321   5.366138   5.670459   5.884917   3.857052
    14  H    4.754819   4.259999   4.338512   5.003058   2.932613
    15  C    5.299019   4.567084   5.098540   4.576184   3.256308
    16  O    4.914337   4.309864   5.054263   4.152770   3.177006
    17  N    6.622035   5.858437   6.311144   5.840938   4.543231
    18  H    7.084711   6.274816   6.581111   6.354455   4.934184
    19  C    7.607670   6.899811   7.465804   6.736598   5.659826
    20  H    7.242969   6.616109   7.306262   6.356815   5.476669
    21  H    8.247254   7.454967   7.945989   7.195256   6.314659
    22  H    8.298147   7.656599   8.235281   7.589022   6.321157
                    6          7          8          9         10
     6  O    0.000000
     7  N    2.252780   0.000000
     8  H    3.150008   1.009970   0.000000
     9  C    2.775347   1.448978   2.120913   0.000000
    10  H    3.751463   2.083739   2.345495   1.089970   0.000000
    11  C    2.507126   2.452791   3.336565   1.525027   2.139209
    12  H    1.846634   2.702720   3.700237   2.150225   3.041326
    13  H    3.500941   3.386959   4.192575   2.150214   2.459625
    14  H    2.721346   2.702673   3.479332   2.150165   2.466256
    15  C    3.436026   2.450234   2.987293   1.522008   2.136554
    16  O    3.283122   2.753926   3.293560   2.392880   3.211367
    17  N    4.683631   3.608852   4.000393   2.432737   2.537089
    18  H    5.106465   3.885139   4.216625   2.567934   2.282374
    19  C    5.728975   4.835186   5.180380   3.801946   3.967078
    20  H    5.508670   4.832881   5.204966   4.033932   4.433195
    21  H    6.545023   5.353490   5.512751   4.397008   4.353266
    22  H    6.214727   5.573557   6.027536   4.396898   4.556274
                   11         12         13         14         15
    11  C    0.000000
    12  H    1.089957   0.000000
    13  H    1.090023   1.779613   0.000000
    14  H    1.089925   1.779613   1.779617   0.000000
    15  C    2.461892   2.701161   2.668599   3.416575   0.000000
    16  O    3.186834   3.012003   3.548494   4.147597   1.229043
    17  N    3.178404   3.611584   2.924889   4.114645   1.334956
    18  H    3.190182   3.873852   2.753730   3.966583   2.037344
    19  C    4.468854   4.705643   4.124615   5.470948   2.434463
    20  H    4.723540   4.733391   4.554230   5.773999   2.520507
    21  H    5.260426   5.614984   4.934356   6.191525   3.138016
    22  H    4.743996   4.949160   4.178930   5.749480   3.137909
                   16         17         18         19         20
    16  O    0.000000
    17  N    2.252775   0.000000
    18  H    3.150138   1.010091   0.000000
    19  C    2.775450   1.449059   2.121017   0.000000
    20  H    2.337391   2.083727   2.986317   1.090011   0.000000
    21  H    3.519306   2.083870   2.484354   1.090012   1.779715
    22  H    3.519203   2.083751   2.484308   1.089974   1.779640
                   21         22
    21  H    0.000000
    22  H    1.779703   0.000000
 Stoichiometry    C6H12N2O2
 Framework group  C1[X(C6H12N2O2)]
 Deg. of freedom    60
 Full point group                 C1      NOp   1
 Largest Abelian subgroup         C1      NOp   1
 Largest concise Abelian subgroup C1      NOp   1
                         Standard orientation:                         
 ---------------------------------------------------------------------
 Center     Atomic      Atomic             Coordinates (Angstroms)
 Number     Number       Type             X           Y           Z
 ---------------------------------------------------------------------
      1          1           0        4.000696   -0.985120   -0.557338
      2          6           0        3.287332   -0.993106    0.266733
      3          1           0        3.757748   -0.580484    1.159280
      4          1           0        2.970760   -2.017273    0.464099
      5          6           0        2.051435   -0.154934   -0.066429
      6          8           0        1.960353    0.418906   -1.149381
      7          7           0        1.103241   -0.089182    0.871070
      8          1           0        1.223718   -0.578565    1.746300
      9          6           0       -0.114315    0.671926    0.676621
     10          1           0       -0.471819    1.038516    1.638826
     11          6           0        0.125335    1.865921   -0.241340
     12          1           0        0.474967    1.514248   -1.211952
     13          1           0       -0.805268    2.418829   -0.369483
     14          1           0        0.877624    2.519231    0.200457
     15          6           0       -1.202692   -0.186715    0.048386
     16          8           0       -0.909766   -1.112180   -0.705442
     17          7           0       -2.463115    0.122574    0.361088
     18          1           0       -2.653957    0.892947    0.985898
     19          6           0       -3.588361   -0.618886   -0.171671
     20          1           0       -3.224716   -1.412690   -0.824175
     21          1           0       -4.157572   -1.055784    0.648844
     22          1           0       -4.230164    0.053356   -0.741077
 ---------------------------------------------------------------------
 Rotational constants (GHZ):      2.9142003      0.7370162      0.6853112
 Standard basis: 6-31G(d) (6D, 7F)
 There are   174 symmetry adapted basis functions of A   symmetry.
 Integral buffers will be    131072 words long.
 Raffenetti 2 integral format.
 Two-electron integral symmetry is turned on.
   174 basis functions,   328 primitive gaussians,   174 cartesian basis functions
    39 alpha electrons       39 beta electrons
       nuclear repulsion energy       565.4428261183 Hartrees.
 NAtoms=   22 NActive=   22 NUniq=   22 SFac= 7.50D-01 NAtFMM=   80 NAOKFM=F Big=F
 One-electron integrals computed using PRISM.
 NBasis=   174 RedAO= T  NBF=   174
 NBsUse=   174 1.00D-06 NBFU=   174
 Harris functional with IExCor=  402 diagonalized for initial guess.
 ExpMin= 1.61D-01 ExpMax= 5.48D+03 ExpMxC= 8.25D+02 IAcc=1 IRadAn=         1 AccDes= 0.00D+00
 HarFok:  IExCor=  402 AccDes= 0.00D+00 IRadAn=         1 IDoV= 1
 ScaDFX=  1.000000  1.000000  1.000000  1.000000
 FoFCou: FMM=F IPFlag=           0 FMFlag=      100000 FMFlg1=           0
         NFxFlg=           0 DoJE=T BraDBF=F KetDBF=T FulRan=T
         Omega=  0.000000  0.000000  1.000000  0.000000  0.000000 ICntrl=     500 IOpCl=  0
         NMat0=    1 NMatS0=    1 NMatT0=    0 NMatD0=    1 NMtDS0=    0 NMtDT0=    0
         I1Cent=           4 NGrid=           0.
 Petite list used in FoFCou.
 Initial guess orbital symmetries:
       Occupied  (A) (A) (A) (A) (A) (A) (A) (A) (A) (A) (A) (A)
                 (A) (A) (A) (A) (A) (A) (A) (A) (A) (A) (A) (A)
                 (A) (A) (A) (A) (A) (A) (A) (A) (A) (A) (A) (A)
                 (A) (A) (A)
       Virtual   (A) (A) (A) (A) (A) (A) (A) (A) (A) (A) (A) (A)
                 (A) (A) (A) (A) (A) (A) (A) (A) (A) (A) (A) (A)
                 (A) (A) (A) (A) (A) (A) (A) (A) (A) (A) (A) (A)
                 (A) (A) (A) (A) (A) (A) (A) (A) (A) (A) (A) (A)
                 (A) (A) (A) (A) (A) (A) (A) (A) (A) (A) (A) (A)
                 (A) (A) (A) (A) (A) (A) (A) (A) (A) (A) (A) (A)
                 (A) (A) (A) (A) (A) (A) (A) (A) (A) (A) (A) (A)
                 (A) (A) (A) (A) (A) (A) (A) (A) (A) (A) (A) (A)
                 (A) (A) (A) (A) (A) (A) (A) (A) (A) (A) (A) (A)
                 (A) (A) (A) (A) (A) (A) (A) (A) (A) (A) (A) (A)
                 (A) (A) (A) (A) (A) (A) (A) (A) (A) (A) (A) (A)
                 (A) (A) (A)
 The electronic state of the initial guess is 1-A.
 Requested convergence on RMS density matrix=1.00D-08 within 128 cycles.
 Requested convergence on MAX density matrix=1.00D-06.
 Requested convergence on             energy=1.00D-06.
 No special actions if energy rises.
 Integral accuracy reduced to 1.0D-05 until final iterations.
 Initial convergence to 1.0D-05 achieved.  Increase integral accuracy.
 SCF Done:  E(RB3LYP) =  -495.822297889     A.U. after   15 cycles
             Convg  =    0.7515D-08             -V/T =  2.0086
 Range of M.O.s used for correlation:     1   174
 NBasis=   174 NAE=    39 NBE=    39 NFC=     0 NFV=     0
 NROrb=    174 NOA=    39 NOB=    39 NVA=   135 NVB=   135
 Symmetrizing basis deriv contribution to polar:
 IMax=3 JMax=2 DiffMx= 0.00D+00
 G2DrvN: will do    23 centers at a time, making    1 passes doing MaxLOS=2.
 Calling FoFCou, ICntrl=  3107 FMM=F I1Cent=   0 AccDes= 0.00D+00.
 FoFDir/FoFCou used for L=0 through L=2.
 End of G2Drv Frequency-dependent properties file   721 does not exist.
 End of G2Drv Frequency-dependent properties file   722 does not exist.
          IDoAtm=1111111111111111111111
          Differentiating once with respect to nuclear coordinates.
          There are    69 degrees of freedom in the 1st order CPHF.  IDoFFX=5.
     63 vectors produced by pass  0 Test12= 7.63D-11 1.45D-07 XBig12= 1.93D-01 1.12D-01.
 AX will form    63 AO Fock derivatives at one time.
     63 vectors produced by pass  1 Test12= 7.63D-11 1.45D-07 XBig12= 4.44D-02 5.60D-02.
     63 vectors produced by pass  2 Test12= 7.63D-11 1.45D-07 XBig12= 3.29D-05 1.07D-03.
     63 vectors produced by pass  3 Test12= 7.63D-11 1.45D-07 XBig12= 8.31D-08 3.99D-05.
     31 vectors produced by pass  4 Test12= 7.63D-11 1.45D-07 XBig12= 1.16D-10 1.14D-06.
 Inverted reduced A of dimension   283 with in-core refinement.
 End of Minotr Frequency-dependent properties file   721 does not exist.
 End of Minotr Frequency-dependent properties file   722 does not exist.

 **********************************************************************

            Population analysis using the SCF density.

 **********************************************************************

 Orbital symmetries:
       Occupied  (A) (A) (A) (A) (A) (A) (A) (A) (A) (A) (A) (A)
                 (A) (A) (A) (A) (A) (A) (A) (A) (A) (A) (A) (A)
                 (A) (A) (A) (A) (A) (A) (A) (A) (A) (A) (A) (A)
                 (A) (A) (A)
       Virtual   (A) (A) (A) (A) (A) (A) (A) (A) (A) (A) (A) (A)
                 (A) (A) (A) (A) (A) (A) (A) (A) (A) (A) (A) (A)
                 (A) (A) (A) (A) (A) (A) (A) (A) (A) (A) (A) (A)
                 (A) (A) (A) (A) (A) (A) (A) (A) (A) (A) (A) (A)
                 (A) (A) (A) (A) (A) (A) (A) (A) (A) (A) (A) (A)
                 (A) (A) (A) (A) (A) (A) (A) (A) (A) (A) (A) (A)
                 (A) (A) (A) (A) (A) (A) (A) (A) (A) (A) (A) (A)
                 (A) (A) (A) (A) (A) (A) (A) (A) (A) (A) (A) (A)
                 (A) (A) (A) (A) (A) (A) (A) (A) (A) (A) (A) (A)
                 (A) (A) (A) (A) (A) (A) (A) (A) (A) (A) (A) (A)
                 (A) (A) (A) (A) (A) (A) (A) (A) (A) (A) (A) (A)
                 (A) (A) (A)
 The electronic state is 1-A.
 Alpha  occ. eigenvalues --  -19.09803 -19.08999 -14.36430 -14.35819 -10.27577
 Alpha  occ. eigenvalues --  -10.27345 -10.23337 -10.21718 -10.18173 -10.15994
 Alpha  occ. eigenvalues --   -1.02955  -1.01701  -0.92381  -0.92161  -0.78221
 Alpha  occ. eigenvalues --   -0.72451  -0.70506  -0.64309  -0.59369  -0.57649
 Alpha  occ. eigenvalues --   -0.53336  -0.50495  -0.46625  -0.45709  -0.44437
 Alpha  occ. eigenvalues --   -0.43902  -0.41436  -0.40303  -0.40228  -0.38954
 Alpha  occ. eigenvalues --   -0.38687  -0.37085  -0.36032  -0.34518  -0.34354
 Alpha  occ. eigenvalues --   -0.25888  -0.24863  -0.23271  -0.21921
 Alpha virt. eigenvalues --    0.03266   0.04545   0.06151   0.08165   0.12193
 Alpha virt. eigenvalues --    0.13104   0.14956   0.15745   0.16137   0.16806
 Alpha virt. eigenvalues --    0.17295   0.18251   0.18588   0.19242   0.20228
 Alpha virt. eigenvalues --    0.21695   0.24031   0.25371   0.30248   0.33565
 Alpha virt. eigenvalues --    0.36693   0.41286   0.41815   0.50883   0.51401
 Alpha virt. eigenvalues --    0.52163   0.54542   0.55842   0.56637   0.57073
 Alpha virt. eigenvalues --    0.58766   0.59392   0.61059   0.63024   0.65371
 Alpha virt. eigenvalues --    0.67587   0.69517   0.71701   0.73423   0.75496
 Alpha virt. eigenvalues --    0.75531   0.77741   0.79181   0.79929   0.82668
 Alpha virt. eigenvalues --    0.86084   0.86437   0.87498   0.89002   0.89629
 Alpha virt. eigenvalues --    0.90072   0.90445   0.91061   0.92276   0.94494
 Alpha virt. eigenvalues --    0.95454   0.96404   0.97513   0.99737   1.03734
 Alpha virt. eigenvalues --    1.06703   1.09579   1.11647   1.12342   1.16039
 Alpha virt. eigenvalues --    1.23081   1.29755   1.31395   1.33591   1.34312
 Alpha virt. eigenvalues --    1.39356   1.41390   1.44048   1.47527   1.49995
 Alpha virt. eigenvalues --    1.53720   1.58341   1.61922   1.66173   1.69244
 Alpha virt. eigenvalues --    1.74486   1.75782   1.80248   1.81374   1.83973
 Alpha virt. eigenvalues --    1.84642   1.85893   1.88235   1.91243   1.93507
 Alpha virt. eigenvalues --    1.95592   1.96133   1.99118   2.02883   2.05438
 Alpha virt. eigenvalues --    2.06144   2.08225   2.14229   2.14620   2.16801
 Alpha virt. eigenvalues --    2.20390   2.23029   2.25452   2.29425   2.30301
 Alpha virt. eigenvalues --    2.30593   2.32646   2.38749   2.41278   2.42295
 Alpha virt. eigenvalues --    2.46207   2.46909   2.54435   2.60716   2.65114
 Alpha virt. eigenvalues --    2.66487   2.70108   2.73648   2.79330   2.88916
 Alpha virt. eigenvalues --    2.94437   3.00197   3.03634   3.17264   3.18985
 Alpha virt. eigenvalues --    3.93518   4.02999   4.08341   4.16648   4.22927
 Alpha virt. eigenvalues --    4.25082   4.32779   4.40988   4.49977   4.64606
          Condensed to atoms (all electrons):
              1          2          3          4          5          6
     1  H    0.500231   0.360150  -0.021549  -0.020299  -0.017167   0.005275
     2  C    0.360150   5.336913   0.347344   0.351440   0.353761  -0.074357
     3  H   -0.021549   0.347344   0.565853  -0.027551  -0.027848   0.001258
     4  H   -0.020299   0.351440  -0.027551   0.545678  -0.025495   0.000983
     5  C   -0.017167   0.353761  -0.027848  -0.025495   4.324928   0.572531
     6  O    0.005275  -0.074357   0.001258   0.000983   0.572531   8.132955
     7  N    0.004521  -0.136685   0.005574   0.004585   0.246329  -0.098536
     8  H   -0.000155   0.000196   0.000734   0.000854  -0.017744   0.003932
     9  C   -0.000121   0.005057   0.000142  -0.000274  -0.036892  -0.000051
    10  H    0.000002  -0.000235   0.000012  -0.000001   0.003843   0.000060
    11  C    0.000016  -0.000512  -0.000036   0.000028  -0.003322  -0.045870
    12  H    0.000006   0.000717  -0.000011  -0.000030  -0.001240   0.020565
    13  H   -0.000001   0.000026  -0.000002   0.000000   0.001087   0.002926
    14  H    0.000003  -0.000149   0.000017  -0.000001   0.000666  -0.002451
    15  C   -0.000001  -0.000084   0.000004   0.000037  -0.000103  -0.001975
    16  O    0.000001  -0.000089   0.000000   0.000103   0.011988  -0.001691
    17  N    0.000000   0.000001   0.000000   0.000000   0.000376  -0.000008
    18  H    0.000000   0.000000   0.000000   0.000000  -0.000026   0.000001
    19  C    0.000000   0.000000   0.000000   0.000000  -0.000002   0.000000
    20  H    0.000000   0.000000   0.000000   0.000000  -0.000006   0.000001
    21  H    0.000000   0.000000   0.000000   0.000000   0.000000   0.000000
    22  H    0.000000   0.000000   0.000000   0.000000   0.000000   0.000000
              7          8          9         10         11         12
     1  H    0.004521  -0.000155  -0.000121   0.000002   0.000016   0.000006
     2  C   -0.136685   0.000196   0.005057  -0.000235  -0.000512   0.000717
     3  H    0.005574   0.000734   0.000142   0.000012  -0.000036  -0.000011
     4  H    0.004585   0.000854  -0.000274  -0.000001   0.000028  -0.000030
     5  C    0.246329  -0.017744  -0.036892   0.003843  -0.003322  -0.001240
     6  O   -0.098536   0.003932  -0.000051   0.000060  -0.045870   0.020565
     7  N    7.108653   0.306046   0.277854  -0.042472  -0.044079  -0.006521
     8  H    0.306046   0.415061  -0.034784  -0.004100   0.004975  -0.000220
     9  C    0.277854  -0.034784   5.118907   0.357071   0.364739  -0.027526
    10  H   -0.042472  -0.004100   0.357071   0.639781  -0.037256   0.004976
    11  C   -0.044079   0.004975   0.364739  -0.037256   5.192132   0.365749
    12  H   -0.006521  -0.000220  -0.027526   0.004976   0.365749   0.440799
    13  H    0.004173  -0.000115  -0.033445  -0.003287   0.334324  -0.020518
    14  H   -0.000583  -0.000073  -0.030296  -0.005885   0.371254  -0.022567
    15  C   -0.058755   0.001664   0.298813  -0.047971  -0.042128  -0.003962
    16  O   -0.004116   0.000382  -0.091008   0.003270  -0.003365   0.003192
    17  N    0.001748   0.000052  -0.120780   0.005027  -0.003155   0.000078
    18  H    0.000173  -0.000008   0.001496   0.003167   0.000393  -0.000017
    19  C   -0.000152   0.000002   0.006361  -0.000318  -0.000189   0.000000
    20  H   -0.000009   0.000000   0.001326  -0.000064  -0.000034  -0.000009
    21  H    0.000008  -0.000001  -0.000119  -0.000008  -0.000011   0.000000
    22  H    0.000000   0.000000  -0.000132  -0.000009   0.000057   0.000000
             13         14         15         16         17         18
     1  H   -0.000001   0.000003  -0.000001   0.000001   0.000000   0.000000
     2  C    0.000026  -0.000149  -0.000084  -0.000089   0.000001   0.000000
     3  H   -0.000002   0.000017   0.000004   0.000000   0.000000   0.000000
     4  H    0.000000  -0.000001   0.000037   0.000103   0.000000   0.000000
     5  C    0.001087   0.000666  -0.000103   0.011988   0.000376  -0.000026
     6  O    0.002926  -0.002451  -0.001975  -0.001691  -0.000008   0.000001
     7  N    0.004173  -0.000583  -0.058755  -0.004116   0.001748   0.000173
     8  H   -0.000115  -0.000073   0.001664   0.000382   0.000052  -0.000008
     9  C   -0.033445  -0.030296   0.298813  -0.091008  -0.120780   0.001496
    10  H   -0.003287  -0.005885  -0.047971   0.003270   0.005027   0.003167
    11  C    0.334324   0.371254  -0.042128  -0.003365  -0.003155   0.000393
    12  H   -0.020518  -0.022567  -0.003962   0.003192   0.000078  -0.000017
    13  H    0.629118  -0.030414  -0.005026  -0.000211   0.004152   0.000811
    14  H   -0.030414   0.570174   0.005026  -0.000051  -0.000035  -0.000079
    15  C   -0.005026   0.005026   4.412405   0.613964   0.252485  -0.019767
    16  O   -0.000211  -0.000051   0.613964   8.071365  -0.102635   0.003628
    17  N    0.004152  -0.000035   0.252485  -0.102635   7.107319   0.302867
    18  H    0.000811  -0.000079  -0.019767   0.003628   0.302867   0.415441
    19  C   -0.000168   0.000008  -0.025571  -0.009640   0.264665  -0.033526
    20  H   -0.000003   0.000001  -0.000273   0.022697  -0.038003   0.003890
    21  H    0.000006   0.000000   0.000888   0.000604  -0.044111  -0.000770
    22  H   -0.000018  -0.000001   0.002315   0.000582  -0.044374  -0.000769
             19         20         21         22
     1  H    0.000000   0.000000   0.000000   0.000000
     2  C    0.000000   0.000000   0.000000   0.000000
     3  H    0.000000   0.000000   0.000000   0.000000
     4  H    0.000000   0.000000   0.000000   0.000000
     5  C   -0.000002  -0.000006   0.000000   0.000000
     6  O    0.000000   0.000001   0.000000   0.000000
     7  N   -0.000152  -0.000009   0.000008   0.000000
     8  H    0.000002   0.000000  -0.000001   0.000000
     9  C    0.006361   0.001326  -0.000119  -0.000132
    10  H   -0.000318  -0.000064  -0.000008  -0.000009
    11  C   -0.000189  -0.000034  -0.000011   0.000057
    12  H    0.000000  -0.000009   0.000000   0.000000
    13  H   -0.000168  -0.000003   0.000006  -0.000018
    14  H    0.000008   0.000001   0.000000  -0.000001
    15  C   -0.025571  -0.000273   0.000888   0.002315
    16  O   -0.009640   0.022697   0.000604   0.000582
    17  N    0.264665  -0.038003  -0.044111  -0.044374
    18  H   -0.033526   0.003890  -0.000770  -0.000769
    19  C    4.969802   0.375809   0.382429   0.382403
    20  H    0.375809   0.470214  -0.024112  -0.023822
    21  H    0.382429  -0.024112   0.569153  -0.039154
    22  H    0.382403  -0.023822  -0.039154   0.563904
 Mulliken atomic charges:
              1
     1  H    0.189086
     2  C   -0.543494
     3  H    0.156058
     4  H    0.169942
     5  C    0.614338
     6  O   -0.515547
     7  N   -0.567757
     8  H    0.323302
     9  C   -0.056341
    10  H    0.124394
    11  C   -0.453708
    12  H    0.246540
    13  H    0.116585
    14  H    0.145435
    15  C    0.618012
    16  O   -0.518970
    17  N   -0.585669
    18  H    0.323096
    19  C   -0.311915
    20  H    0.212397
    21  H    0.155197
    22  H    0.159020
 Sum of Mulliken atomic charges =   0.00000
 Mulliken charges with hydrogens summed into heavy atoms:
              1
     2  C   -0.028408
     5  C    0.614338
     6  O   -0.515547
     7  N   -0.244455
     9  C    0.068053
    11  C    0.054852
    15  C    0.618012
    16  O   -0.518970
    17  N   -0.262574
    19  C    0.214699
 Sum of Mulliken charges with hydrogens summed into heavy atoms =   0.00000
 APT atomic charges:
              1
     1  H    0.640775
     2  C   -1.244878
     3  H    0.472228
     4  H    0.322303
     5  C    0.109500
     6  O   -0.299818
     7  N   -0.721037
     8  H    0.631426
     9  C   -0.458918
    10  H    0.416379
    11  C   -1.134697
    12  H    0.329907
    13  H    0.397799
    14  H    0.467412
    15  C    0.108162
    16  O   -0.355210
    17  N   -0.447447
    18  H    0.621559
    19  C   -1.361572
    20  H    0.332539
    21  H    0.597910
    22  H    0.575680
 Sum of APT charges=   0.00000
 APT Atomic charges with hydrogens summed into heavy atoms:
              1
     1  H    0.000000
     2  C    0.190427
     3  H    0.000000
     4  H    0.000000
     5  C    0.109500
     6  O   -0.299818
     7  N   -0.089612
     8  H    0.000000
     9  C   -0.042539
    10  H    0.000000
    11  C    0.060421
    12  H    0.000000
    13  H    0.000000
    14  H    0.000000
    15  C    0.108162
    16  O   -0.355210
    17  N    0.174111
    18  H    0.000000
    19  C    0.144557
    20  H    0.000000
    21  H    0.000000
    22  H    0.000000
 Sum of APT charges=   0.00000
 Electronic spatial extent (au):  <R**2>=           1785.5081
 Charge=              0.0000 electrons
 Dipole moment (field-independent basis, Debye):
    X=             -2.2409    Y=              0.8356    Z=              5.0216  Tot=              5.5620
 Quadrupole moment (field-independent basis, Debye-Ang):
   XX=            -49.0647   YY=            -60.7904   ZZ=            -59.6826
   XY=             -5.4543   XZ=              3.0796   YZ=             -0.4284
 Traceless Quadrupole moment (field-independent basis, Debye-Ang):
   XX=              7.4479   YY=             -4.2779   ZZ=             -3.1700
   XY=             -5.4543   XZ=              3.0796   YZ=             -0.4284
 Octapole moment (field-independent basis, Debye-Ang**2):
  XXX=            -26.5890  YYY=             -2.4378  ZZZ=              7.7016  XYY=             -0.3128
  XXY=             -7.8095  XXZ=             11.5493  XZZ=             -4.4634  YZZ=             -1.7459
  YYZ=              2.6994  XYZ=             -0.7695
 Hexadecapole moment (field-independent basis, Debye-Ang**3):
 XXXX=          -1576.8953 YYYY=           -383.4765 ZZZZ=           -199.8015 XXXY=            -10.1898
 XXXZ=              0.0152 YYYX=              1.5696 YYYZ=              0.9174 ZZZX=              5.2983
 ZZZY=             -1.6912 XXYY=           -338.5570 XXZZ=           -320.6574 YYZZ=            -96.7466
 XXYZ=             14.6414 YYXZ=             -4.2529 ZZXY=             -7.2013
 N-N= 5.654428261183D+02 E-N=-2.287739631424D+03  KE= 4.916124080078D+02
  Exact polarizability:   0.000   0.000   0.000   0.000   0.000   0.000
 Approx polarizability: 117.835 -10.342 102.602 -11.372   2.567 114.221
 Calling FoFJK, ICntrl=    100147 FMM=F ISym2X=0 I1Cent= 0 IOpClX= 0 NMat=1 NMatS=1 NMatT=0.
 ***** Axes restored to original set *****
 -------------------------------------------------------------------
 Center     Atomic                   Forces (Hartrees/Bohr)
 Number     Number              X              Y              Z
 -------------------------------------------------------------------
      1        1           0.003464686    0.001716733   -0.000918643
      2        6           0.008366314    0.003089884    0.006046776
      3        1          -0.004186468   -0.004354640    0.003361696
      4        1          -0.005177844   -0.000387994    0.002887138
      5        6          -0.021535518   -0.004899952   -0.037918908
      6        8          -0.024711040   -0.006733946   -0.004878555
      7        7           0.014631836   -0.000777489    0.025217700
      8        1          -0.001754917    0.001839628   -0.000771254
      9        6           0.005161398    0.001796195   -0.004061306
     10        1          -0.000693436   -0.004932358    0.005983143
     11        6           0.016851244    0.004422982   -0.004180096
     12        1           0.010460262   -0.001511329    0.004927587
     13        1           0.006513948   -0.000574030    0.003866658
     14        1           0.001963118   -0.002799167   -0.002931992
     15        6          -0.033729729   -0.000965348   -0.010353751
     16        8           0.001393771    0.000787813    0.001174965
     17        7           0.015805569    0.009170994    0.009831276
     18        1          -0.000092867   -0.000425185    0.000104307
     19        6           0.004714832    0.000183528    0.000868556
     20        1          -0.000276509   -0.003588000   -0.000492890
     21        1           0.000271384    0.004072545    0.003303393
     22        1           0.002559965    0.004869137   -0.001065801
 -------------------------------------------------------------------
 Cartesian Forces:  Max     0.037918908 RMS     0.009610414

 GradGradGradGradGradGradGradGradGradGradGradGradGradGradGradGradGradGrad
 Berny optimization.
 Internal  Forces:  Max     0.085055357 RMS     0.015870383
 Search for a local minimum.
 Step number   1 out of a maximum of  132
 All quantities printed in internal units (Hartrees-Bohrs-Radians)
 Mixed Optimization -- RFO/linear search
 Second derivative matrix not updated -- analytic derivatives used.
     Eigenvalues ---   -0.00905  -0.00053  -0.00022   0.00219   0.00344
     Eigenvalues ---    0.01038   0.01514   0.02046   0.04122   0.04243
     Eigenvalues ---    0.04506   0.04811   0.05301   0.05562   0.05829
     Eigenvalues ---    0.05989   0.06403   0.06609   0.11640   0.11974
     Eigenvalues ---    0.12476   0.12701   0.13189   0.13318   0.13383
     Eigenvalues ---    0.14275   0.14639   0.16696   0.17834   0.18549
     Eigenvalues ---    0.18761   0.21081   0.22503   0.23147   0.23542
     Eigenvalues ---    0.24206   0.29425   0.30826   0.33993   0.34203
     Eigenvalues ---    0.34564   0.34734   0.34974   0.35061   0.35111
     Eigenvalues ---    0.35436   0.35536   0.35909   0.36011   0.37488
     Eigenvalues ---    0.39439   0.46740   0.46822   0.50742   0.54197
     Eigenvalues ---    0.80747   0.82631   1.383451000.000001000.00000
     Eigenvalues --- 1000.000001000.000001000.000001000.000001000.00000
     Eigenvalues --- 1000.000001000.000001000.000001000.000001000.00000
     Eigenvalues --- 1000.000001000.000001000.000001000.000001000.00000
     Eigenvalues --- 1000.000001000.000001000.000001000.000001000.00000
     Eigenvalues --- 1000.000001000.000001000.000001000.000001000.00000
     Eigenvalues --- 1000.000001000.000001000.000001000.000001000.00000
     Eigenvalues --- 1000.000001000.000001000.000001000.000001000.00000
     Eigenvalues --- 1000.000001000.000001000.00000
 RFO step:  Lambda=-2.36810045D-02 EMin=-9.05051992D-03
 Linear search not attempted -- first point.
 Maximum step size (   0.300) exceeded in Quadratic search.
    -- Step size scaled by   0.311
 Iteration  1 RMS(Cart)=  0.08226160 RMS(Int)=  0.00403872
 Iteration  2 RMS(Cart)=  0.00520958 RMS(Int)=  0.00011496
 Iteration  3 RMS(Cart)=  0.00002004 RMS(Int)=  0.00011397
 Iteration  4 RMS(Cart)=  0.00000000 RMS(Int)=  0.00011397
 Iteration  1 RMS(Cart)=  0.00002139 RMS(Int)=  0.00001066
 Iteration  2 RMS(Cart)=  0.00001392 RMS(Int)=  0.00001179
 Iteration  3 RMS(Cart)=  0.00000925 RMS(Int)=  0.00001353
 Iteration  4 RMS(Cart)=  0.00000622 RMS(Int)=  0.00001495
 Iteration  5 RMS(Cart)=  0.00000421 RMS(Int)=  0.00001599
 Iteration  6 RMS(Cart)=  0.00000285 RMS(Int)=  0.00001672
 Iteration  7 RMS(Cart)=  0.00000194 RMS(Int)=  0.00001722
 Iteration  8 RMS(Cart)=  0.00000131 RMS(Int)=  0.00001756
 Iteration  9 RMS(Cart)=  0.00000089 RMS(Int)=  0.00001779
 Variable       Old X    -DE/DX   Delta X   Delta X   Delta X     New X
                                 (Linear)    (Quad)   (Total)
    R1        2.05975  -0.00089   0.00000   0.00005   0.00005   2.05980
    R2        2.05988   0.00493   0.00000   0.00378   0.00378   2.06365
    R3        2.05979   0.00438   0.00000   0.00320   0.00320   2.06299
    R4        2.89132  -0.00118   0.00000  -0.00149  -0.00149   2.88983
    R5        2.32242  -0.00628   0.00000  -0.00372  -0.00372   2.31870
    R6        2.52284   0.05013   0.00000   0.01947   0.01947   2.54231
    R7        1.90857  -0.00033   0.00000   0.00012   0.00012   1.90868
    R8        2.73817   0.03235   0.00000   0.00070   0.00070   2.73887
    R9        2.05975   0.00588   0.00000   0.00475   0.00475   2.06450
   R10        2.88188   0.01772   0.00000   0.00852   0.00852   2.89041
   R11        2.87618   0.01490   0.00000   0.01604   0.01604   2.89222
   R12        2.05972  -0.00965   0.00000  -0.00112  -0.00112   2.05860
   R13        2.05984   0.00562   0.00000   0.00407   0.00407   2.06391
   R14        2.05966   0.00307   0.00000   0.00124   0.00124   2.06090
   R15        2.32256  -0.00126   0.00000  -0.00308  -0.00308   2.31948
   R16        2.52270   0.02978   0.00000   0.01560   0.01560   2.53830
   R17        1.90880   0.00018   0.00000   0.00006   0.00006   1.90885
   R18        2.73833   0.00556   0.00000   0.00229   0.00229   2.74062
   R19        2.05982  -0.00079   0.00000   0.00028   0.00028   2.06011
   R20        2.05982   0.00434   0.00000   0.00317   0.00317   2.06299
   R21        2.05975   0.00434   0.00000   0.00375   0.00375   2.06351
    A1        1.91118  -0.00015   0.00000  -0.00067  -0.00063   1.91055
    A2        1.91120   0.00012   0.00000  -0.00127  -0.00127   1.90992
    A3        1.93909  -0.00799   0.00000  -0.01215  -0.01213   1.92696
    A4        1.91002  -0.00483   0.00000  -0.00605  -0.00612   1.90390
    A5        1.89603   0.00719   0.00000   0.01518   0.01518   1.91120
    A6        1.89606   0.00571   0.00000   0.00509   0.00506   1.90112
    A7        2.10312  -0.01326   0.00000   0.00733   0.00725   2.11037
    A8        2.03507  -0.03111   0.00000  -0.01930  -0.01938   2.01570
    A9        2.14499   0.04437   0.00000   0.01197   0.01190   2.15689
   A10        2.09435  -0.04351   0.00000  -0.01923  -0.01982   2.07453
   A11        2.12756   0.08506   0.00000   0.02834   0.02774   2.15530
   A12        2.06128  -0.04154   0.00000  -0.00910  -0.00972   2.05156
   A13        1.91114  -0.01510   0.00000  -0.00719  -0.00724   1.90389
   A14        1.93905   0.04425   0.00000   0.01602   0.01595   1.95499
   A15        1.93900  -0.01584   0.00000  -0.01092  -0.01089   1.92811
   A16        1.89609  -0.01562   0.00000   0.00577   0.00578   1.90187
   A17        1.89608   0.00903   0.00000   0.00607   0.00601   1.90209
   A18        1.88137  -0.00720   0.00000  -0.00951  -0.00939   1.87198
   A19        1.91115   0.00862   0.00000   0.00311   0.00311   1.91426
   A20        1.91106  -0.00499   0.00000  -0.00581  -0.00580   1.90527
   A21        1.91110   0.00387   0.00000   0.01041   0.01041   1.92151
   A22        1.91011  -0.00168   0.00000   0.00369   0.00369   1.91380
   A23        1.91023  -0.00367   0.00000  -0.00870  -0.00871   1.90152
   A24        1.91015  -0.00216   0.00000  -0.00271  -0.00269   1.90746
   A25        2.10312   0.00608   0.00000   0.00555   0.00554   2.10866
   A26        2.03507  -0.00866   0.00000  -0.00922  -0.00923   2.02584
   A27        2.14499   0.00258   0.00000   0.00367   0.00366   2.14865
   A28        2.09437  -0.00282   0.00000  -0.00593  -0.00594   2.08843
   A29        2.12764   0.00492   0.00000   0.00447   0.00445   2.13209
   A30        2.06117  -0.00209   0.00000   0.00146   0.00145   2.06262
   A31        1.91098  -0.00718   0.00000  -0.01115  -0.01114   1.89984
   A32        1.91118   0.00458   0.00000   0.00610   0.00608   1.91726
   A33        1.91105   0.00561   0.00000   0.01008   0.01007   1.92112
   A34        1.91021   0.00032   0.00000   0.00031   0.00033   1.91054
   A35        1.91014  -0.00008   0.00000  -0.00216  -0.00213   1.90801
   A36        1.91024  -0.00326   0.00000  -0.00319  -0.00324   1.90700
    D1        0.00004   0.00070   0.00000   0.05346   0.05349   0.05353
    D2        3.14159  -0.00092   0.00000   0.07563   0.07563  -3.06597
    D3        2.10342   0.00022   0.00000   0.05493   0.05491   2.15833
    D4       -1.03822  -0.00140   0.00000   0.07710   0.07704  -0.96117
    D5       -2.10339   0.00180   0.00000   0.05926   0.05931  -2.04409
    D6        1.03816   0.00018   0.00000   0.08143   0.08144   1.11960
    D7        0.00010  -0.00412   0.00000   0.04390   0.04403   0.04413
    D8        3.14153   0.00043   0.00000   0.11045   0.11027  -3.03139
    D9       -3.14154  -0.00578   0.00000   0.06664   0.06683  -3.07471
   D10       -0.00011  -0.00123   0.00000   0.13320   0.13307   0.13296
   D11       -2.61795  -0.00890   0.00000  -0.00402  -0.00397  -2.62192
   D12       -0.52351  -0.01019   0.00000   0.00861   0.00861  -0.51490
   D13        1.57085  -0.00031   0.00000   0.00000   0.00000   1.57084
   D14        0.52349  -0.00443   0.00000   0.06133   0.06146   0.58494
   D15        2.61793  -0.00572   0.00000   0.07395   0.07403   2.69196
   D16       -1.57091   0.00416   0.00000   0.06535   0.06542  -1.50548
   D17        1.04724   0.00435   0.00000   0.00194   0.00190   1.04914
   D18        3.14157   0.00452   0.00000   0.00480   0.00476  -3.13685
   D19       -1.04726   0.00119   0.00000   0.00430   0.00425  -1.04301
   D20       -3.13259   0.00295   0.00000   0.00669   0.00674  -3.12586
   D21       -1.03826   0.00312   0.00000   0.00955   0.00960  -1.02867
   D22        1.05609  -0.00022   0.00000   0.00905   0.00909   1.06518
   D23       -1.08102   0.00129   0.00000   0.01177   0.01178  -1.06924
   D24        1.01331   0.00146   0.00000   0.01464   0.01464   1.02795
   D25        3.10766  -0.00187   0.00000   0.01414   0.01413   3.12179
   D26       -0.52361  -0.02095   0.00000  -0.00915  -0.00919  -0.53279
   D27        2.61802  -0.01986   0.00000   0.00000   0.00000   2.61801
   D28       -2.62693   0.00171   0.00000   0.00259   0.00262  -2.62431
   D29        0.51470   0.00280   0.00000   0.01173   0.01180   0.52650
   D30        1.60468   0.01930   0.00000  -0.00231  -0.00227   1.60241
   D31       -1.53688   0.02039   0.00000   0.00684   0.00691  -1.52997
   D32       -0.00011  -0.00109   0.00000  -0.00471  -0.00473  -0.00484
   D33       -3.14156  -0.00164   0.00000  -0.01521  -0.01521   3.12641
   D34        3.14152   0.00003   0.00000   0.00468   0.00468  -3.13698
   D35        0.00006  -0.00052   0.00000  -0.00583  -0.00580  -0.00574
   D36       -0.00008   0.00031   0.00000   0.03703   0.03703   0.03695
   D37        2.09434  -0.00089   0.00000   0.03431   0.03430   2.12864
   D38       -2.09434   0.00137   0.00000   0.04033   0.04037  -2.05398
   D39       -3.14155  -0.00023   0.00000   0.02671   0.02670  -3.11485
   D40       -1.04712  -0.00142   0.00000   0.02400   0.02397  -1.02316
   D41        1.04738   0.00083   0.00000   0.03001   0.03004   1.07742
         Item               Value     Threshold  Converged?
 Maximum Force            0.085055     0.000450     NO 
 RMS     Force            0.015697     0.000300     NO 
 Maximum Displacement     0.348977     0.001800     NO 
 RMS     Displacement     0.082837     0.001200     NO 
 Predicted change in Energy=-6.923865D-03
 GradGradGradGradGradGradGradGradGradGradGradGradGradGradGradGradGradGrad

                          Input orientation:                          
 ---------------------------------------------------------------------
 Center     Atomic      Atomic             Coordinates (Angstroms)
 Number     Number       Type             X           Y           Z
 ---------------------------------------------------------------------
      1          1           0        1.101666    2.729511   -1.914211
      2          6           0        1.526995    3.037213   -0.958952
      3          1           0        1.566844    2.178904   -0.284959
      4          1           0        0.898808    3.811423   -0.514244
      5          6           0        2.936529    3.595880   -1.158083
      6          8           0        3.418945    3.704029   -2.281076
      7          7           0        3.594056    3.923500   -0.031033
      8          1           0        3.150486    3.751042    0.859846
      9          6           0        4.882009    4.588094   -0.021012
     10          1           0        5.432858    4.286099    0.872793
     11          6           0        5.714054    4.244512   -1.257594
     12          1           0        5.181963    4.555641   -2.155807
     13          1           0        6.672996    4.764110   -1.200194
     14          1           0        5.889240    3.169112   -1.304373
     15          6           0        4.700155    6.107653   -0.003991
     16          8           0        3.724882    6.630220   -0.535322
     17          7           0        5.666367    6.811007    0.609152
     18          1           0        6.448851    6.327106    1.026168
     19          6           0        5.636488    8.258912    0.686431
     20          1           0        4.720597    8.617936    0.216648
     21          1           0        5.657495    8.574900    1.731176
     22          1           0        6.498819    8.679894    0.165338
 ---------------------------------------------------------------------
                    Distance matrix (angstroms):
                    1          2          3          4          5
     1  H    0.000000
     2  C    1.090002   0.000000
     3  H    1.781578   1.092039   0.000000
     4  H    1.780896   1.091689   1.778753   0.000000
     5  C    2.165421   1.529232   2.155506   2.147858   0.000000
     6  O    2.540483   2.402526   3.121020   3.079662   1.227003
     7  N    3.344245   2.432957   2.686575   2.740514   1.345331
     8  H    3.596745   2.540335   2.508011   2.638527   2.035163
     9  C    4.618389   3.813277   4.106602   4.088078   2.462175
    10  H    5.380482   4.491189   4.552662   4.765166   3.291279
    11  C    4.899029   4.367862   4.734142   4.891495   2.853991
    12  H    4.476822   4.134837   4.713601   4.646935   2.637909
    13  H    5.974037   5.433387   5.796010   5.892315   3.915062
    14  H    4.846237   4.377887   4.550036   5.093258   2.986977
    15  C    5.292439   4.517577   5.033056   4.470266   3.278919
    16  O    4.898788   4.233187   4.953183   3.991585   3.196334
    17  N    6.622874   5.816776   6.249953   5.743618   4.572983
    18  H    7.083848   6.244099   6.539161   6.285261   4.956505
    19  C    7.609350   6.845535   7.380521   6.608130   5.695249
    20  H    7.232618   6.536483   7.187413   6.184080   5.503983
    21  H    8.259115   7.413757   7.855379   7.097726   6.367268
    22  H    8.298243   7.604138   8.172516   7.451440   6.347325
                    6          7          8          9         10
     6  O    0.000000
     7  N    2.267493   0.000000
     8  H    3.152725   1.010031   0.000000
     9  C    2.833729   1.449347   2.115358   0.000000
    10  H    3.787023   2.080763   2.344286   1.092485   0.000000
    11  C    2.570440   2.470200   3.361390   1.529537   2.149267
    12  H    1.961930   2.726851   3.724036   2.156010   3.050905
    13  H    3.589001   3.399033   4.204538   2.151531   2.462460
    14  H    2.709695   2.731000   3.538821   2.162184   2.489175
    15  C    3.550215   2.448410   2.949798   1.530497   2.150271
    16  O    3.421089   2.756403   3.250552   2.402861   3.224109
    17  N    4.801837   3.611372   3.969369   2.440014   2.549352
    18  H    5.196030   3.878769   4.188434   2.564321   2.285054
    19  C    5.871162   4.845831   5.150841   3.813740   3.982391
    20  H    5.663869   4.834064   5.154184   4.040070   4.438768
    21  H    6.695869   5.385042   5.505807   4.423365   4.379623
    22  H    6.342696   5.576692   5.998937   4.403592   4.576264
                   11         12         13         14         15
    11  C    0.000000
    12  H    1.089362   0.000000
    13  H    1.092175   1.783209   0.000000
    14  H    1.090579   1.774160   1.780209   0.000000
    15  C    2.463901   2.696515   2.669852   3.426360   0.000000
    16  O    3.189057   3.008810   3.551873   4.153933   1.227415
    17  N    3.173943   3.600878   2.911498   4.120030   1.343211
    18  H    3.176900   3.855913   2.729448   3.964531   2.041402
    19  C    4.461015   4.690322   4.104551   5.471128   2.445672
    20  H    4.720931   4.726906   4.546568   5.776583   2.520044
    21  H    5.261958   5.611525   4.913888   6.204096   3.164587
    22  H    4.723686   4.912361   4.150708   5.735883   3.143292
                   16         17         18         19         20
    16  O    0.000000
    17  N    2.260945   0.000000
    18  H    3.154384   1.010121   0.000000
    19  C    2.792768   1.450273   2.123024   0.000000
    20  H    2.346896   2.076905   2.981625   1.090161   0.000000
    21  H    3.557216   2.090534   2.485128   1.091688   1.781411
    22  H    3.519491   2.093485   2.505820   1.091961   1.780040
                   21         22
    21  H    0.000000
    22  H    1.780646   0.000000
 Stoichiometry    C6H12N2O2
 Framework group  C1[X(C6H12N2O2)]
 Deg. of freedom    60
 Full point group                 C1      NOp   1
 Largest Abelian subgroup         C1      NOp   1
 Largest concise Abelian subgroup C1      NOp   1
                         Standard orientation:                         
 ---------------------------------------------------------------------
 Center     Atomic      Atomic             Coordinates (Angstroms)
 Number     Number       Type             X           Y           Z
 ---------------------------------------------------------------------
      1          1           0        3.997689   -1.027364   -0.520287
      2          6           0        3.220720   -1.105908    0.240142
      3          1           0        3.644959   -0.873710    1.219250
      4          1           0        2.827602   -2.124267    0.253850
      5          6           0        2.077360   -0.136909   -0.063700
      6          8           0        2.087407    0.551302   -1.079476
      7          7           0        1.102209   -0.083657    0.861589
      8          1           0        1.194575   -0.639579    1.699791
      9          6           0       -0.122739    0.671751    0.689921
     10          1           0       -0.479135    1.001579    1.668552
     11          6           0        0.079337    1.896176   -0.204188
     12          1           0        0.419769    1.578978   -1.189175
     13          1           0       -0.867766    2.431969   -0.297830
     14          1           0        0.826904    2.559537    0.232230
     15          6           0       -1.199549   -0.196250    0.034577
     16          8           0       -0.895362   -1.091082   -0.748555
     17          7           0       -2.470048    0.092140    0.361501
     18          1           0       -2.661304    0.843156    1.009374
     19          6           0       -3.594587   -0.634214   -0.196275
     20          1           0       -3.216704   -1.421647   -0.848658
     21          1           0       -4.183875   -1.079412    0.607667
     22          1           0       -4.227452    0.041742   -0.775017
 ---------------------------------------------------------------------
 Rotational constants (GHZ):      2.8301442      0.7356934      0.6760450
 Standard basis: 6-31G(d) (6D, 7F)
 There are   174 symmetry adapted basis functions of A   symmetry.
 Integral buffers will be    131072 words long.
 Raffenetti 2 integral format.
 Two-electron integral symmetry is turned on.
   174 basis functions,   328 primitive gaussians,   174 cartesian basis functions
    39 alpha electrons       39 beta electrons
       nuclear repulsion energy       562.8198700677 Hartrees.
 NAtoms=   22 NActive=   22 NUniq=   22 SFac= 7.50D-01 NAtFMM=   80 NAOKFM=F Big=F
 One-electron integrals computed using PRISM.
 NBasis=   174 RedAO= T  NBF=   174
 NBsUse=   174 1.00D-06 NBFU=   174
 Initial guess read from the read-write file.
 B after Tr=     0.000000    0.000000    0.000000
         Rot=    1.000000    0.000000    0.000000    0.000000 Ang=   0.00 deg.
 Initial guess orbital symmetries:
       Occupied  (A) (A) (A) (A) (A) (A) (A) (A) (A) (A) (A) (A)
                 (A) (A) (A) (A) (A) (A) (A) (A) (A) (A) (A) (A)
                 (A) (A) (A) (A) (A) (A) (A) (A) (A) (A) (A) (A)
                 (A) (A) (A)
       Virtual   (A) (A) (A) (A) (A) (A) (A) (A) (A) (A) (A) (A)
                 (A) (A) (A) (A) (A) (A) (A) (A) (A) (A) (A) (A)
                 (A) (A) (A) (A) (A) (A) (A) (A) (A) (A) (A) (A)
                 (A) (A) (A) (A) (A) (A) (A) (A) (A) (A) (A) (A)
                 (A) (A) (A) (A) (A) (A) (A) (A) (A) (A) (A) (A)
                 (A) (A) (A) (A) (A) (A) (A) (A) (A) (A) (A) (A)
                 (A) (A) (A) (A) (A) (A) (A) (A) (A) (A) (A) (A)
                 (A) (A) (A) (A) (A) (A) (A) (A) (A) (A) (A) (A)
                 (A) (A) (A) (A) (A) (A) (A) (A) (A) (A) (A) (A)
                 (A) (A) (A) (A) (A) (A) (A) (A) (A) (A) (A) (A)
                 (A) (A) (A) (A) (A) (A) (A) (A) (A) (A) (A) (A)
                 (A) (A) (A)
 Harris functional with IExCor=  402 diagonalized for initial guess.
 ExpMin= 1.61D-01 ExpMax= 5.48D+03 ExpMxC= 8.25D+02 IAcc=1 IRadAn=         1 AccDes= 0.00D+00
 HarFok:  IExCor=  402 AccDes= 0.00D+00 IRadAn=         1 IDoV= 1
 ScaDFX=  1.000000  1.000000  1.000000  1.000000
 FoFCou: FMM=F IPFlag=           0 FMFlag=      100000 FMFlg1=           0
         NFxFlg=           0 DoJE=T BraDBF=F KetDBF=T FulRan=T
         Omega=  0.000000  0.000000  1.000000  0.000000  0.000000 ICntrl=     500 IOpCl=  0
         NMat0=    1 NMatS0=    1 NMatT0=    0 NMatD0=    1 NMtDS0=    0 NMtDT0=    0
         I1Cent=           4 NGrid=           0.
 Petite list used in FoFCou.
 Requested convergence on RMS density matrix=1.00D-08 within 128 cycles.
 Requested convergence on MAX density matrix=1.00D-06.
 Requested convergence on             energy=1.00D-06.
 No special actions if energy rises.
 Integral accuracy reduced to 1.0D-05 until final iterations.
 Initial convergence to 1.0D-05 achieved.  Increase integral accuracy.
 SCF Done:  E(RB3LYP) =  -495.829101702     A.U. after   14 cycles
             Convg  =    0.3808D-08             -V/T =  2.0088
 Calling FoFJK, ICntrl=      2127 FMM=F ISym2X=0 I1Cent= 0 IOpClX= 0 NMat=1 NMatS=1 NMatT=0.
 ***** Axes restored to original set *****
 -------------------------------------------------------------------
 Center     Atomic                   Forces (Hartrees/Bohr)
 Number     Number              X              Y              Z
 -------------------------------------------------------------------
      1        1           0.002571200    0.000843257   -0.000746125
      2        6           0.006330006    0.002480221    0.004208415
      3        1          -0.003433100   -0.002504713    0.002709530
      4        1          -0.003811911    0.000202788    0.001902982
      5        6          -0.015225590   -0.008456714   -0.026621558
      6        8          -0.016903367   -0.003261163   -0.002890875
      7        7           0.012018275   -0.001999743    0.017764230
      8        1          -0.001922248    0.003311017   -0.000578489
      9        6           0.003190254    0.003107918   -0.004934806
     10        1          -0.000489851   -0.003656095    0.004153733
     11        6           0.011679271    0.003277127   -0.002620341
     12        1           0.007311686   -0.000977990    0.003317683
     13        1           0.004513137   -0.000494312    0.002689503
     14        1           0.001398178   -0.001870142   -0.002172455
     15        6          -0.024268559   -0.000891191   -0.006454709
     16        8           0.000982429    0.000564336    0.001033899
     17        7           0.010842215    0.006754705    0.007490681
     18        1          -0.000111098   -0.000360539    0.000072606
     19        6           0.003691161   -0.000039440    0.000543539
     20        1          -0.000189617   -0.002549055   -0.000361134
     21        1           0.000148111    0.002958150    0.002316357
     22        1           0.001679418    0.003561579   -0.000822664
 -------------------------------------------------------------------
 Cartesian Forces:  Max     0.026621558 RMS     0.006906059

 GradGradGradGradGradGradGradGradGradGradGradGradGradGradGradGradGradGrad
 Berny optimization.
 Using GEDIIS/GDIIS optimizer.
 Internal  Forces:  Max     0.058793777 RMS     0.011018569
 Search for a local minimum.
 Step number   2 out of a maximum of  132
 All quantities printed in internal units (Hartrees-Bohrs-Radians)
 Mixed Optimization -- RFO/linear search
 Update second derivatives using D2CorX and points    1    2
 DE= -6.80D-03 DEPred=-6.92D-03 R= 9.83D-01
 SS=  1.41D+00  RLast= 3.00D-01 DXNew= 5.0454D-01 8.9998D-01
 Trust test= 9.83D-01 RLast= 3.00D-01 DXMaxT set to 5.05D-01
 Use linear search instead of GDIIS.
 Linear search step of   0.594 exceeds DXMaxT=   0.505 but not scaled.
 Quartic linear search produced a step of  1.99907.
 Iteration  1 RMS(Cart)=  0.14689903 RMS(Int)=  0.01529264
 Iteration  2 RMS(Cart)=  0.02701921 RMS(Int)=  0.00072666
 Iteration  3 RMS(Cart)=  0.00053484 RMS(Int)=  0.00064348
 Iteration  4 RMS(Cart)=  0.00000030 RMS(Int)=  0.00064348
 Iteration  1 RMS(Cart)=  0.00011174 RMS(Int)=  0.00005551
 Iteration  2 RMS(Cart)=  0.00007367 RMS(Int)=  0.00006140
 Iteration  3 RMS(Cart)=  0.00004919 RMS(Int)=  0.00007048
 Iteration  4 RMS(Cart)=  0.00003306 RMS(Int)=  0.00007798
 Iteration  5 RMS(Cart)=  0.00002229 RMS(Int)=  0.00008343
 Iteration  6 RMS(Cart)=  0.00001504 RMS(Int)=  0.00008722
 Iteration  7 RMS(Cart)=  0.00001015 RMS(Int)=  0.00008982
 Iteration  8 RMS(Cart)=  0.00000685 RMS(Int)=  0.00009158
 Iteration  9 RMS(Cart)=  0.00000462 RMS(Int)=  0.00009277
 Iteration 10 RMS(Cart)=  0.00000311 RMS(Int)=  0.00009357
 Iteration 11 RMS(Cart)=  0.00000210 RMS(Int)=  0.00009411
 Iteration 12 RMS(Cart)=  0.00000141 RMS(Int)=  0.00009447
 Iteration 13 RMS(Cart)=  0.00000095 RMS(Int)=  0.00009471
 Variable       Old X    -DE/DX   Delta X   Delta X   Delta X     New X
                                 (Linear)    (Quad)   (Total)
    R1        2.05980  -0.00058   0.00010   0.00000   0.00010   2.05991
    R2        2.06365   0.00351   0.00755   0.00000   0.00755   2.07120
    R3        2.06299   0.00311   0.00640   0.00000   0.00640   2.06939
    R4        2.88983  -0.00085  -0.00299   0.00000  -0.00299   2.88684
    R5        2.31870  -0.00429  -0.00744   0.00000  -0.00744   2.31126
    R6        2.54231   0.03547   0.03892   0.00000   0.03892   2.58123
    R7        1.90868  -0.00023   0.00023   0.00000   0.00023   1.90891
    R8        2.73887   0.02244   0.00139   0.00000   0.00139   2.74026
    R9        2.06450   0.00416   0.00950   0.00000   0.00950   2.07400
   R10        2.89041   0.01257   0.01703   0.00000   0.01703   2.90744
   R11        2.89222   0.01082   0.03207   0.00000   0.03207   2.92429
   R12        2.05860  -0.00659  -0.00225   0.00000  -0.00225   2.05635
   R13        2.06391   0.00387   0.00813   0.00000   0.00813   2.07204
   R14        2.06090   0.00216   0.00247   0.00000   0.00247   2.06337
   R15        2.31948  -0.00099  -0.00615   0.00000  -0.00615   2.31333
   R16        2.53830   0.02118   0.03119   0.00000   0.03119   2.56949
   R17        1.90885   0.00012   0.00011   0.00000   0.00011   1.90896
   R18        2.74062   0.00390   0.00458   0.00000   0.00458   2.74520
   R19        2.06011  -0.00053   0.00057   0.00000   0.00057   2.06067
   R20        2.06299   0.00308   0.00633   0.00000   0.00633   2.06933
   R21        2.06351   0.00309   0.00750   0.00000   0.00750   2.07101
    A1        1.91055  -0.00017  -0.00125   0.00000  -0.00101   1.90954
    A2        1.90992   0.00007  -0.00254   0.00000  -0.00254   1.90738
    A3        1.92696  -0.00570  -0.02425   0.00000  -0.02412   1.90283
    A4        1.90390  -0.00359  -0.01223   0.00000  -0.01259   1.89131
    A5        1.91120   0.00530   0.03034   0.00000   0.03027   1.94148
    A6        1.90112   0.00411   0.01011   0.00000   0.00992   1.91104
    A7        2.11037  -0.00861   0.01450   0.00000   0.01404   2.12441
    A8        2.01570  -0.02123  -0.03874   0.00000  -0.03920   1.97649
    A9        2.15689   0.02986   0.02379   0.00000   0.02330   2.18020
   A10        2.07453  -0.03004  -0.03962   0.00000  -0.04285   2.03168
   A11        2.15530   0.05879   0.05545   0.00000   0.05209   2.20739
   A12        2.05156  -0.02888  -0.01943   0.00000  -0.02298   2.02859
   A13        1.90389  -0.01070  -0.01448   0.00000  -0.01480   1.88910
   A14        1.95499   0.03065   0.03188   0.00000   0.03143   1.98642
   A15        1.92811  -0.01120  -0.02177   0.00000  -0.02156   1.90655
   A16        1.90187  -0.01089   0.01155   0.00000   0.01156   1.91343
   A17        1.90209   0.00567   0.01201   0.00000   0.01166   1.91375
   A18        1.87198  -0.00378  -0.01877   0.00000  -0.01809   1.85390
   A19        1.91426   0.00616   0.00621   0.00000   0.00618   1.92044
   A20        1.90527  -0.00334  -0.01159   0.00000  -0.01153   1.89374
   A21        1.92151   0.00267   0.02081   0.00000   0.02081   1.94232
   A22        1.91380  -0.00126   0.00738   0.00000   0.00742   1.92121
   A23        1.90152  -0.00270  -0.01742   0.00000  -0.01750   1.88402
   A24        1.90746  -0.00155  -0.00538   0.00000  -0.00529   1.90217
   A25        2.10866   0.00441   0.01107   0.00000   0.01099   2.11965
   A26        2.02584  -0.00624  -0.01846   0.00000  -0.01854   2.00730
   A27        2.14865   0.00182   0.00732   0.00000   0.00723   2.15588
   A28        2.08843  -0.00208  -0.01188   0.00000  -0.01197   2.07646
   A29        2.13209   0.00351   0.00890   0.00000   0.00881   2.14090
   A30        2.06262  -0.00144   0.00289   0.00000   0.00280   2.06542
   A31        1.89984  -0.00515  -0.02226   0.00000  -0.02215   1.87770
   A32        1.91726   0.00333   0.01216   0.00000   0.01203   1.92929
   A33        1.92112   0.00406   0.02012   0.00000   0.02004   1.94116
   A34        1.91054   0.00019   0.00065   0.00000   0.00072   1.91126
   A35        1.90801  -0.00008  -0.00426   0.00000  -0.00411   1.90390
   A36        1.90700  -0.00237  -0.00648   0.00000  -0.00679   1.90021
    D1        0.05353   0.00073   0.10693   0.00000   0.10714   0.16066
    D2       -3.06597  -0.00071   0.15118   0.00000   0.15117  -2.91480
    D3        2.15833   0.00033   0.10976   0.00000   0.10963   2.26795
    D4       -0.96117  -0.00112   0.15401   0.00000   0.15366  -0.80751
    D5       -2.04409   0.00155   0.11856   0.00000   0.11881  -1.92527
    D6        1.11960   0.00011   0.16281   0.00000   0.16285   1.28245
    D7        0.04413  -0.00271   0.08802   0.00000   0.08880   0.13293
    D8       -3.03139   0.00081   0.22044   0.00000   0.21938  -2.81201
    D9       -3.07471  -0.00363   0.13359   0.00000   0.13465  -2.94006
   D10        0.13296  -0.00011   0.26601   0.00000   0.26523   0.39819
   D11       -2.62192  -0.00588  -0.00793   0.00000  -0.00757  -2.62948
   D12       -0.51490  -0.00709   0.01721   0.00000   0.01726  -0.49764
   D13        1.57084   0.00071  -0.00001   0.00000   0.00000   1.57084
   D14        0.58494  -0.00231   0.12286   0.00000   0.12352   0.70846
   D15        2.69196  -0.00352   0.14800   0.00000   0.14835   2.84031
   D16       -1.50548   0.00429   0.13079   0.00000   0.13109  -1.37440
   D17        1.04914   0.00316   0.00380   0.00000   0.00358   1.05273
   D18       -3.13685   0.00332   0.00952   0.00000   0.00929  -3.12757
   D19       -1.04301   0.00097   0.00850   0.00000   0.00820  -1.03481
   D20       -3.12586   0.00203   0.01347   0.00000   0.01376  -3.11210
   D21       -1.02867   0.00219   0.01919   0.00000   0.01946  -1.00921
   D22        1.06518  -0.00017   0.01817   0.00000   0.01838   1.08355
   D23       -1.06924   0.00085   0.02355   0.00000   0.02357  -1.04567
   D24        1.02795   0.00101   0.02927   0.00000   0.02928   1.05722
   D25        3.12179  -0.00135   0.02825   0.00000   0.02819  -3.13320
   D26       -0.53279  -0.01493  -0.01836   0.00000  -0.01857  -0.55137
   D27        2.61801  -0.01417   0.00000   0.00000   0.00000   2.61801
   D28       -2.62431   0.00150   0.00523   0.00000   0.00541  -2.61890
   D29        0.52650   0.00226   0.02359   0.00000   0.02398   0.55048
   D30        1.60241   0.01347  -0.00454   0.00000  -0.00434   1.59807
   D31       -1.52997   0.01424   0.01382   0.00000   0.01423  -1.51574
   D32       -0.00484  -0.00085  -0.00946   0.00000  -0.00962  -0.01447
   D33        3.12641  -0.00132  -0.03041   0.00000  -0.03042   3.09599
   D34       -3.13698  -0.00008   0.00936   0.00000   0.00936  -3.12762
   D35       -0.00574  -0.00055  -0.01159   0.00000  -0.01143  -0.01717
   D36        0.03695   0.00026   0.07403   0.00000   0.07404   0.11099
   D37        2.12864  -0.00066   0.06856   0.00000   0.06846   2.19710
   D38       -2.05398   0.00109   0.08070   0.00000   0.08093  -1.97305
   D39       -3.11485  -0.00020   0.05337   0.00000   0.05329  -3.06156
   D40       -1.02316  -0.00112   0.04791   0.00000   0.04771  -0.97545
   D41        1.07742   0.00063   0.06004   0.00000   0.06017   1.13759
         Item               Value     Threshold  Converged?
 Maximum Force            0.058812     0.000450     NO 
 RMS     Force            0.010891     0.000300     NO 
 Maximum Displacement     0.707660     0.001800     NO 
 RMS     Displacement     0.162828     0.001200     NO 
 Predicted change in Energy=-7.654059D-03
 GradGradGradGradGradGradGradGradGradGradGradGradGradGradGradGradGradGrad

                          Input orientation:                          
 ---------------------------------------------------------------------
 Center     Atomic      Atomic             Coordinates (Angstroms)
 Number     Number       Type             X           Y           Z
 ---------------------------------------------------------------------
      1          1           0        1.051288    2.673720   -1.770921
      2          6           0        1.491311    3.166985   -0.904150
      3          1           0        1.388489    2.519788   -0.025599
      4          1           0        0.954972    4.101544   -0.708881
      5          6           0        2.958994    3.473152   -1.197216
      6          8           0        3.435152    3.329552   -2.314598
      7          7           0        3.667454    3.830879   -0.085519
      8          1           0        3.190410    3.738775    0.800119
      9          6           0        4.934751    4.535212   -0.060639
     10          1           0        5.482207    4.225546    0.838768
     11          6           0        5.805533    4.291340   -1.305390
     12          1           0        5.280482    4.623916   -2.198606
     13          1           0        6.742194    4.849483   -1.189596
     14          1           0        6.036449    3.230994   -1.426064
     15          6           0        4.670238    6.059062   -0.009951
     16          8           0        3.685137    6.554308   -0.541813
     17          7           0        5.622775    6.786816    0.631819
     18          1           0        6.414725    6.307679    1.036428
     19          6           0        5.569865    8.235297    0.728970
     20          1           0        4.614566    8.558608    0.314269
     21          1           0        5.640958    8.553101    1.774464
     22          1           0        6.383148    8.700940    0.160803
 ---------------------------------------------------------------------
                    Distance matrix (angstroms):
                    1          2          3          4          5
     1  H    0.000000
     2  C    1.090055   0.000000
     3  H    1.784250   1.096033   0.000000
     4  H    1.782101   1.095075   1.776728   0.000000
     5  C    2.146525   1.527651   2.179007   2.156259   0.000000
     6  O    2.531503   2.407137   3.175541   3.053783   1.223065
     7  N    3.320229   2.417957   2.629873   2.796319   1.365927
     8  H    3.510046   2.473543   2.326941   2.721372   2.028166
     9  C    4.633736   3.800111   4.079110   4.055482   2.514637
    10  H    5.371376   4.481693   4.518326   4.786069   3.328353
    11  C    5.043438   4.476347   4.928138   4.890787   2.963768
    12  H    4.676779   4.260995   4.929191   4.604584   2.777832
    13  H    6.120318   5.521237   5.953530   5.855121   4.025786
    14  H    5.028052   4.575453   4.906185   5.205153   3.095439
    15  C    5.259121   4.389679   4.826653   4.257180   3.320375
    16  O    4.848384   4.051928   4.671019   3.673931   3.232702
    17  N    6.602213   5.703629   6.047223   5.549465   4.628334
    18  H    7.060688   6.153845   6.382715   6.141827   4.996578
    19  C    7.589343   6.707419   7.121820   6.360234   5.762367
    20  H    7.188663   6.348927   6.854956   5.857038   5.557641
    21  H    8.258447   7.307859   7.597670   6.924005   6.467589
    22  H    8.275728   7.462497   7.949088   7.167698   6.395219
                    6          7          8          9         10
     6  O    0.000000
     7  N    2.296538   0.000000
[...]
    14  H    4.972579   4.558967   4.885461   5.239944   3.113382
    15  C    5.342214   4.435140   4.771126   4.394546   3.346494
    16  O    4.997707   4.111286   4.596968   3.792431   3.275186
    17  N    6.681495   5.753559   5.989191   5.712558   4.656669
    18  H    7.095568   6.193556   6.344405   6.308047   5.008269
    19  C    7.719494   6.783390   7.073239   6.548030   5.799339
    20  H    7.360529   6.435019   6.794471   6.038748   5.606165
    21  H    8.431226   7.438348   7.595980   7.196749   6.546851
    22  H    8.354564   7.488255   7.871975   7.282578   6.383692
                    6          7          8          9         10
     6  O    0.000000
     7  N    2.303897   0.000000
     8  H    3.143639   1.011977   0.000000
     9  C    2.963093   1.457557   2.077086   0.000000
    10  H    3.888500   2.051286   2.343992   1.100251   0.000000
    11  C    2.844757   2.526427   3.415004   1.537356   2.140599
    12  H    2.400117   2.878906   3.822330   2.185485   3.061787
    13  H    3.913560   3.438110   4.209461   2.158150   2.411566
    14  H    2.856841   2.746372   3.664642   2.173333   2.508728
    15  C    3.756522   2.459588   2.709921   1.549756   2.152140
    16  O    3.683470   2.777504   2.910769   2.433246   3.211603
    17  N    5.024086   3.629650   3.777679   2.451786   2.545227
    18  H    5.342791   3.876209   4.085198   2.541488   2.288260
    19  C    6.125318   4.891954   4.942402   3.834861   3.985115
    20  H    5.956129   4.865059   4.849442   4.057288   4.409029
    21  H    6.997761   5.511805   5.408022   4.497545   4.416181
    22  H    6.521440   5.572899   5.773887   4.388906   4.597862
                   11         12         13         14         15
    11  C    0.000000
    12  H    1.088619   0.000000
    13  H    1.096242   1.784416   0.000000
    14  H    1.093101   1.765726   1.776830   0.000000
    15  C    2.546686   2.786927   2.800836   3.497175   0.000000
    16  O    3.352258   3.241320   3.777929   4.278834   1.223079
    17  N    3.193708   3.601363   2.957712   4.158053   1.367403
    18  H    3.072747   3.712777   2.591786   3.908648   2.051317
    19  C    4.482738   4.690060   4.156845   5.507950   2.474261
    20  H    4.815058   4.842707   4.700760   5.864010   2.526055
    21  H    5.282970   5.628245   4.905518   6.241971   3.250724
    22  H    4.690981   4.791269   4.186732   5.737189   3.132395
                   16         17         18         19         20
    16  O    0.000000
    17  N    2.282890   0.000000
    18  H    3.163787   1.010423   0.000000
    19  C    2.835410   1.453049   2.126868   0.000000
    20  H    2.378772   2.059751   2.969346   1.090768   0.000000
    21  H    3.663620   2.106643   2.503470   1.095543   1.783480
    22  H    3.498767   2.120357   2.544679   1.097282   1.779986
                   21         22
    21  H    0.000000
    22  H    1.783702   0.000000
 Stoichiometry    C6H12N2O2
 Framework group  C1[X(C6H12N2O2)]
 Deg. of freedom    60
 Full point group                 C1      NOp   1
 Largest Abelian subgroup         C1      NOp   1
 Largest concise Abelian subgroup C1      NOp   1
                         Standard orientation:                         
 ---------------------------------------------------------------------
 Center     Atomic      Atomic             Coordinates (Angstroms)
 Number     Number       Type             X           Y           Z
 ---------------------------------------------------------------------
      1          1           0        4.090611   -1.009071   -0.182863
      2          6           0        3.119860   -1.243765    0.256845
      3          1           0        3.237315   -1.414597    1.332655
      4          1           0        2.748251   -2.169468   -0.198911
      5          6           0        2.151869   -0.109563   -0.061210
      6          8           0        2.317093    0.630403   -1.018273
      7          7           0        1.111697   -0.003966    0.839827
      8          1           0        1.022176   -0.792308    1.467999
      9          6           0       -0.139612    0.715228    0.636213
     10          1           0       -0.497494    0.983882    1.641349
     11          6           0       -0.016535    2.018545   -0.169814
     12          1           0        0.242710    1.822544   -1.208788
     13          1           0       -0.971447    2.555142   -0.125614
     14          1           0        0.760337    2.657111    0.258641
     15          6           0       -1.191597   -0.233819    0.008214
     16          8           0       -0.877010   -1.177053   -0.704013
     17          7           0       -2.483839    0.057709    0.347201
     18          1           0       -2.661423    0.881697    0.904393
     19          6           0       -3.620292   -0.647017   -0.221294
     20          1           0       -3.230520   -1.520255   -0.745993
     21          1           0       -4.307138   -0.974399    0.566918
     22          1           0       -4.171197   -0.020931   -0.934419
 ---------------------------------------------------------------------
 Rotational constants (GHZ):      2.6345766      0.7279836      0.6486923

 **********************************************************************

            Population analysis using the SCF density.

 **********************************************************************

 Orbital symmetries:
       Occupied  (A) (A) (A) (A) (A) (A) (A) (A) (A) (A) (A) (A)
                 (A) (A) (A) (A) (A) (A) (A) (A) (A) (A) (A) (A)
                 (A) (A) (A) (A) (A) (A) (A) (A) (A) (A) (A) (A)
                 (A) (A) (A)
       Virtual   (A) (A) (A) (A) (A) (A) (A) (A) (A) (A) (A) (A)
                 (A) (A) (A) (A) (A) (A) (A) (A) (A) (A) (A) (A)
                 (A) (A) (A) (A) (A) (A) (A) (A) (A) (A) (A) (A)
                 (A) (A) (A) (A) (A) (A) (A) (A) (A) (A) (A) (A)
                 (A) (A) (A) (A) (A) (A) (A) (A) (A) (A) (A) (A)
                 (A) (A) (A) (A) (A) (A) (A) (A) (A) (A) (A) (A)
                 (A) (A) (A) (A) (A) (A) (A) (A) (A) (A) (A) (A)
                 (A) (A) (A) (A) (A) (A) (A) (A) (A) (A) (A) (A)
                 (A) (A) (A) (A) (A) (A) (A) (A) (A) (A) (A) (A)
                 (A) (A) (A) (A) (A) (A) (A) (A) (A) (A) (A) (A)
                 (A) (A) (A) (A) (A) (A) (A) (A) (A) (A) (A) (A)
                 (A) (A) (A)
 The electronic state is 1-A.
 Alpha  occ. eigenvalues --  -19.11415 -19.10101 -14.36787 -14.35376 -10.28574
 Alpha  occ. eigenvalues --  -10.28052 -10.24101 -10.22212 -10.18250 -10.18119
 Alpha  occ. eigenvalues --   -1.03489  -1.01930  -0.92445  -0.91704  -0.77939
 Alpha  occ. eigenvalues --   -0.72329  -0.70798  -0.64608  -0.59090  -0.55991
 Alpha  occ. eigenvalues --   -0.53041  -0.50061  -0.46913  -0.45600  -0.44794
 Alpha  occ. eigenvalues --   -0.43553  -0.42137  -0.40672  -0.40267  -0.39353
 Alpha  occ. eigenvalues --   -0.38812  -0.37613  -0.37098  -0.35544  -0.34673
 Alpha  occ. eigenvalues --   -0.26429  -0.25612  -0.24318  -0.23320
 Alpha virt. eigenvalues --    0.02055   0.04002   0.05820   0.08521   0.11689
 Alpha virt. eigenvalues --    0.13378   0.14861   0.15171   0.15623   0.15904
 Alpha virt. eigenvalues --    0.16545   0.17190   0.18615   0.18898   0.19558
 Alpha virt. eigenvalues --    0.20133   0.22726   0.25253   0.28591   0.32814
 Alpha virt. eigenvalues --    0.35024   0.38835   0.40328   0.50259   0.50739
 Alpha virt. eigenvalues --    0.51692   0.53842   0.54722   0.55638   0.56192
 Alpha virt. eigenvalues --    0.57997   0.59712   0.60924   0.62907   0.65254
 Alpha virt. eigenvalues --    0.68705   0.68932   0.71286   0.72533   0.74077
 Alpha virt. eigenvalues --    0.74933   0.76839   0.78004   0.79564   0.82911
 Alpha virt. eigenvalues --    0.85398   0.86494   0.86670   0.87577   0.88452
 Alpha virt. eigenvalues --    0.89180   0.90202   0.90684   0.91510   0.93728
 Alpha virt. eigenvalues --    0.94637   0.95195   0.96268   0.98647   0.99966
 Alpha virt. eigenvalues --    1.04981   1.06538   1.08479   1.13652   1.15670
 Alpha virt. eigenvalues --    1.19942   1.23189   1.25264   1.32608   1.33993
 Alpha virt. eigenvalues --    1.37730   1.40350   1.43770   1.47604   1.49973
 Alpha virt. eigenvalues --    1.51034   1.53306   1.63847   1.66216   1.69721
 Alpha virt. eigenvalues --    1.70535   1.74940   1.77539   1.79486   1.80385
 Alpha virt. eigenvalues --    1.82405   1.84965   1.85742   1.88430   1.90765
 Alpha virt. eigenvalues --    1.93482   1.95558   1.98059   1.98575   2.02887
 Alpha virt. eigenvalues --    2.03278   2.05790   2.09978   2.13922   2.14628
 Alpha virt. eigenvalues --    2.20696   2.23417   2.23897   2.28623   2.30206
 Alpha virt. eigenvalues --    2.31501   2.32038   2.35597   2.38499   2.40496
 Alpha virt. eigenvalues --    2.41189   2.45977   2.52757   2.56632   2.61016
 Alpha virt. eigenvalues --    2.65541   2.68465   2.70781   2.77915   2.86348
 Alpha virt. eigenvalues --    2.92766   2.98079   3.01764   3.12222   3.15293
 Alpha virt. eigenvalues --    3.89750   3.98655   4.07835   4.10969   4.20876
 Alpha virt. eigenvalues --    4.23413   4.27516   4.41138   4.49698   4.61824
          Condensed to atoms (all electrons):
              1          2          3          4          5          6
     1  H    0.515441   0.356947  -0.024351  -0.020516  -0.019895   0.004451
     2  C    0.356947   5.345272   0.343844   0.357833   0.344901  -0.078009
     3  H   -0.024351   0.343844   0.574261  -0.027112  -0.026553   0.002341
     4  H   -0.020516   0.357833  -0.027112   0.520288  -0.019324  -0.000052
     5  C   -0.019895   0.344901  -0.026553  -0.019324   4.302361   0.594681
     6  O    0.004451  -0.078009   0.002341  -0.000052   0.594681   8.054528
     7  N    0.004340  -0.127732   0.006919   0.000202   0.255687  -0.087701
     8  H   -0.000022   0.001802   0.000487   0.000336  -0.017648   0.003551
     9  C   -0.000174   0.005417   0.000439  -0.000393  -0.028703  -0.001792
    10  H    0.000006  -0.000253  -0.000005  -0.000002   0.003062  -0.000057
    11  C    0.000010   0.000224  -0.000036   0.000003  -0.002793  -0.000406
    12  H    0.000002   0.000140  -0.000003  -0.000009   0.002780   0.008853
    13  H    0.000000   0.000012   0.000000   0.000000   0.000510   0.000857
    14  H   -0.000002  -0.000033   0.000000   0.000001   0.000380  -0.000345
    15  C   -0.000001  -0.000185  -0.000003   0.000109   0.000581  -0.000977
    16  O    0.000002  -0.000384   0.000003   0.000400   0.008794  -0.000581
    17  N    0.000000   0.000001   0.000000   0.000000   0.000196  -0.000007
    18  H    0.000000   0.000000   0.000000   0.000000  -0.000019   0.000000
    19  C    0.000000   0.000000   0.000000   0.000000  -0.000001   0.000000
    20  H    0.000000   0.000000   0.000000   0.000000  -0.000003   0.000000
    21  H    0.000000   0.000000   0.000000   0.000000   0.000000   0.000000
    22  H    0.000000   0.000000   0.000000   0.000000   0.000000   0.000000
              7          8          9         10         11         12
     1  H    0.004340  -0.000022  -0.000174   0.000006   0.000010   0.000002
     2  C   -0.127732   0.001802   0.005417  -0.000253   0.000224   0.000140
     3  H    0.006919   0.000487   0.000439  -0.000005  -0.000036  -0.000003
     4  H    0.000202   0.000336  -0.000393  -0.000002   0.000003  -0.000009
     5  C    0.255687  -0.017648  -0.028703   0.003062  -0.002793   0.002780
     6  O   -0.087701   0.003551  -0.001792  -0.000057  -0.000406   0.008853
     7  N    7.091958   0.299682   0.273085  -0.047236  -0.037663  -0.004852
     8  H    0.299682   0.425711  -0.041266  -0.002693   0.005040  -0.000115
     9  C    0.273085  -0.041266   5.093622   0.364841   0.360549  -0.028771
    10  H   -0.047236  -0.002693   0.364841   0.633356  -0.037748   0.005015
    11  C   -0.037663   0.005040   0.360549  -0.037748   5.092417   0.376318
    12  H   -0.004852  -0.000115  -0.028771   0.005015   0.376318   0.487885
    13  H    0.003816  -0.000107  -0.032433  -0.005092   0.346076  -0.026026
    14  H   -0.001781  -0.000075  -0.025412  -0.004877   0.373439  -0.024748
    15  C   -0.049093   0.001046   0.299205  -0.053694  -0.036903  -0.003711
    16  O   -0.006454   0.002102  -0.082689   0.002514  -0.002050   0.001785
    17  N    0.002976   0.000258  -0.114224   0.005998  -0.001244   0.000150
    18  H    0.000227  -0.000013   0.002420   0.002473   0.000176  -0.000042
    19  C   -0.000129  -0.000006   0.005614  -0.000181  -0.000174  -0.000002
    20  H   -0.000005  -0.000002   0.001128  -0.000067  -0.000030  -0.000008
    21  H    0.000004   0.000000  -0.000115  -0.000003  -0.000007   0.000000
    22  H   -0.000001   0.000000  -0.000101  -0.000004   0.000050   0.000000
             13         14         15         16         17         18
     1  H    0.000000  -0.000002  -0.000001   0.000002   0.000000   0.000000
     2  C    0.000012  -0.000033  -0.000185  -0.000384   0.000001   0.000000
     3  H    0.000000   0.000000  -0.000003   0.000003   0.000000   0.000000
     4  H    0.000000   0.000001   0.000109   0.000400   0.000000   0.000000
     5  C    0.000510   0.000380   0.000581   0.008794   0.000196  -0.000019
     6  O    0.000857  -0.000345  -0.000977  -0.000581  -0.000007   0.000000
     7  N    0.003816  -0.001781  -0.049093  -0.006454   0.002976   0.000227
     8  H   -0.000107  -0.000075   0.001046   0.002102   0.000258  -0.000013
     9  C   -0.032433  -0.025412   0.299205  -0.082689  -0.114224   0.002420
    10  H   -0.005092  -0.004877  -0.053694   0.002514   0.005998   0.002473
    11  C    0.346076   0.373439  -0.036903  -0.002050  -0.001244   0.000176
    12  H   -0.026026  -0.024748  -0.003711   0.001785   0.000150  -0.000042
    13  H    0.616836  -0.029858  -0.003744  -0.000075   0.003283   0.001688
    14  H   -0.029858   0.541094   0.003965  -0.000060  -0.000049  -0.000078
    15  C   -0.003744   0.003965   4.438554   0.608592   0.247088  -0.022242
    16  O   -0.000075  -0.000060   0.608592   8.055968  -0.097464   0.003378
    17  N    0.003283  -0.000049   0.247088  -0.097464   7.093841   0.303791
    18  H    0.001688  -0.000078  -0.022242   0.003378   0.303791   0.414475
    19  C   -0.000149   0.000006  -0.022818  -0.007960   0.267717  -0.033597
    20  H    0.000001   0.000001  -0.000808   0.020824  -0.040757   0.004208
    21  H    0.000004   0.000000   0.001581   0.000404  -0.039569  -0.000912
    22  H   -0.000013  -0.000001   0.000959   0.000524  -0.043322  -0.000836
             19         20         21         22
     1  H    0.000000   0.000000   0.000000   0.000000
     2  C    0.000000   0.000000   0.000000   0.000000
     3  H    0.000000   0.000000   0.000000   0.000000
     4  H    0.000000   0.000000   0.000000   0.000000
     5  C   -0.000001  -0.000003   0.000000   0.000000
     6  O    0.000000   0.000000   0.000000   0.000000
     7  N   -0.000129  -0.000005   0.000004  -0.000001
     8  H   -0.000006  -0.000002   0.000000   0.000000
     9  C    0.005614   0.001128  -0.000115  -0.000101
    10  H   -0.000181  -0.000067  -0.000003  -0.000004
    11  C   -0.000174  -0.000030  -0.000007   0.000050
    12  H   -0.000002  -0.000008   0.000000   0.000000
    13  H   -0.000149   0.000001   0.000004  -0.000013
    14  H    0.000006   0.000001   0.000000  -0.000001
    15  C   -0.022818  -0.000808   0.001581   0.000959
    16  O   -0.007960   0.020824   0.000404   0.000524
    17  N    0.267717  -0.040757  -0.039569  -0.043322
    18  H   -0.033597   0.004208  -0.000912  -0.000836
    19  C    4.963050   0.376758   0.379087   0.383134
    20  H    0.376758   0.482260  -0.023294  -0.026141
    21  H    0.379087  -0.023294   0.567053  -0.040415
    22  H    0.383134  -0.026141  -0.040415   0.565778
 Mulliken atomic charges:
              1
     1  H    0.183762
     2  C   -0.549798
     3  H    0.149769
     4  H    0.188235
     5  C    0.601004
     6  O   -0.499335
     7  N   -0.576250
     8  H    0.321932
     9  C   -0.050246
    10  H    0.134646
    11  C   -0.435246
    12  H    0.205357
    13  H    0.124413
    14  H    0.168433
    15  C    0.592500
    16  O   -0.507574
    17  N   -0.588662
    18  H    0.324904
    19  C   -0.310349
    20  H    0.205935
    21  H    0.156181
    22  H    0.160389
 Sum of Mulliken atomic charges =   0.00000
 Mulliken charges with hydrogens summed into heavy atoms:
              1
     2  C   -0.028032
     5  C    0.601004
     6  O   -0.499335
     7  N   -0.254318
     9  C    0.084400
    11  C    0.062955
    15  C    0.592500
    16  O   -0.507574
    17  N   -0.263759
    19  C    0.212157
 Sum of Mulliken charges with hydrogens summed into heavy atoms =   0.00000
 Electronic spatial extent (au):  <R**2>=           1849.6931
 Charge=              0.0000 electrons
 Dipole moment (field-independent basis, Debye):
    X=             -3.2260    Y=              0.3655    Z=              3.9782  Tot=              5.1348
 Quadrupole moment (field-independent basis, Debye-Ang):
   XX=            -52.4073   YY=            -59.6104   ZZ=            -60.9998
   XY=             -7.3636   XZ=              2.7995   YZ=             -0.4654
 Traceless Quadrupole moment (field-independent basis, Debye-Ang):
   XX=              5.2652   YY=             -1.9379   ZZ=             -3.3273
   XY=             -7.3636   XZ=              2.7995   YZ=             -0.4654
 Octapole moment (field-independent basis, Debye-Ang**2):
  XXX=            -35.4699  YYY=              0.3731  ZZZ=              2.4428  XYY=             -0.0971
  XXY=            -12.4543  XXZ=             11.1077  XZZ=             -6.0579  YZZ=             -2.2328
  YYZ=              3.2352  XYZ=              0.1421
 Hexadecapole moment (field-independent basis, Debye-Ang**3):
 XXXX=          -1610.3804 YYYY=           -446.2923 ZZZZ=           -190.0557 XXXY=            -17.8337
 XXXZ=             10.2762 YYYX=              3.1800 YYYZ=              2.3700 ZZZX=              0.1140
 ZZZY=             -3.6703 XXYY=           -355.5121 XXZZ=           -331.1422 YYZZ=           -105.4425
 XXYZ=             15.4110 YYXZ=             -3.3619 ZZXY=             -8.5986
 N-N= 5.550542712761D+02 E-N=-2.266375666331D+03  KE= 4.912221586136D+02
 1\1\GINC-NODE006\FOpt\RB3LYP\6-31G(d)\C6H12N2O2\STEBOSS\11-Feb-2017\0\
 \# b3lyp/6-31G* Opt=(ModRedundant, maxcycles=1000, calcfc) geom=nocrow
 d\\Phi Psi fixed scan\\0,1\H,1.1029443112,2.4516700103,-1.6882517921\C
 ,1.4816981995,3.0987653007,-0.8954120911\H,1.3902944033,2.5872568004,0
 .0691341365\H,0.8640694945,4.0044343292,-0.8632835807\C,2.9181909053,3
 .4880772959,-1.2263270284\O,3.3426637444,3.4756516053,-2.3710925182\N,
 3.6672207187,3.8249740455,-0.1170785637\H,3.1262804634,3.9524737752,0.
 7286308797\C,4.9242019256,4.5628487174,-0.1135144948\H,5.4494810575,4.
 254993447,0.8029243728\C,5.8568230118,4.2638623191,-1.2985410028\H,5.4
 420236321,4.6310345317,-2.2356731535\H,6.8271416642,4.7402091355,-1.11
 59994691\H,6.0122663339,3.1862585491,-1.3958920811\C,4.6383708971,6.08
 14565514,0.0042772147\O,3.6060459025,6.5857627194,-0.41512971\N,5.6192
 657817,6.7894330808,0.6417761107\H,6.4613353891,6.3041429783,0.9181222
 982\C,5.5891321429,8.2374201601,0.7591564891\H,4.594244679,8.566361952
 ,0.4562184061\H,5.7736181197,8.5463215025,1.7939317943\H,6.3337872226,
 8.7132911933,0.1087237833\\Version=EM64L-G09RevA.02\State=1-A\HF=-495.
 8398507\RMSD=5.848e-09\RMSF=5.589e-04\Dipole=0.9760581,0.1894058,1.758
 5857\Quadrupole=4.7787546,-0.8832057,-3.8955489,4.9778674,0.1212571,-1
 .4118169\PG=C01 [X(C6H12N2O2)]\\@


 WHAT THE SLIME CONTAINS, THE GLOWING REVEALS
 BY THE FLAME'S BRIGHT HUE WHEN YOU IGNITE IT.
   --  LEONARD THURNEYSSER, 1531-1596
 DESCRIBING HIS FLAME PHOTOLYSIS ANALYTIC METHOD
 Job cpu time:  0 days  1 hours 12 minutes 49.1 seconds.
 File lengths (MBytes):  RWF=    186 Int=      0 D2E=      0 Chk=      4 Scr=      2
 Normal termination of Gaussian 09 at Sat Feb 11 03:08:58 2017.
