 Entering Gaussian System, Link 0=g09
 Initial command:
 /home/steboss/Software/g09/l1.exe /home/steboss/projects/phi_psi_scan/alanine/90/4682/Gau-6954.inp -scrdir=/home/steboss/projects/phi_psi_scan/alanine/90/4682/
 Entering Link 1 = /home/steboss/Software/g09/l1.exe PID=      6956.
  
 Copyright (c) 1988,1990,1992,1993,1995,1998,2003,2009, Gaussian, Inc.
                  All Rights Reserved.
  
 This is part of the Gaussian(R) 09 program.  It is based on
 the Gaussian(R) 03 system (copyright 2003, Gaussian, Inc.),
 the Gaussian(R) 98 system (copyright 1998, Gaussian, Inc.),
 the Gaussian(R) 94 system (copyright 1995, Gaussian, Inc.),
 the Gaussian 92(TM) system (copyright 1992, Gaussian, Inc.),
 the Gaussian 90(TM) system (copyright 1990, Gaussian, Inc.),
 the Gaussian 88(TM) system (copyright 1988, Gaussian, Inc.),
 the Gaussian 86(TM) system (copyright 1986, Carnegie Mellon
 University), and the Gaussian 82(TM) system (copyright 1983,
 Carnegie Mellon University). Gaussian is a federally registered
 trademark of Gaussian, Inc.
  
 This software contains proprietary and confidential information,
 including trade secrets, belonging to Gaussian, Inc.
  
 This software is provided under written license and may be
 used, copied, transmitted, or stored only in accord with that
 written license.
  
 The following legend is applicable only to US Government
 contracts under FAR:
  
                    RESTRICTED RIGHTS LEGEND
  
 Use, reproduction and disclosure by the US Government is
 subject to restrictions as set forth in subparagraphs (a)
 and (c) of the Commercial Computer Software - Restricted
 Rights clause in FAR 52.227-19.
  
 Gaussian, Inc.
 340 Quinnipiac St., Bldg. 40, Wallingford CT 06492
  
  
 ---------------------------------------------------------------
 Warning -- This program may not be used in any manner that
 competes with the business of Gaussian, Inc. or will provide
 assistance to any competitor of Gaussian, Inc.  The licensee
 of this program is prohibited from giving any competitor of
 Gaussian, Inc. access to this program.  By using this program,
 the user acknowledges that Gaussian, Inc. is engaged in the
 business of creating and licensing software in the field of
 computational chemistry and represents and warrants to the
 licensee that it is not a competitor of Gaussian, Inc. and that
 it will not use this program in any manner prohibited above.
 ---------------------------------------------------------------
  

 Cite this work as:
 Gaussian 09, Revision A.02,
 M. J. Frisch, G. W. Trucks, H. B. Schlegel, G. E. Scuseria, 
 M. A. Robb, J. R. Cheeseman, G. Scalmani, V. Barone, B. Mennucci, 
 G. A. Petersson, H. Nakatsuji, M. Caricato, X. Li, H. P. Hratchian, 
 A. F. Izmaylov, J. Bloino, G. Zheng, J. L. Sonnenberg, M. Hada, 
 M. Ehara, K. Toyota, R. Fukuda, J. Hasegawa, M. Ishida, T. Nakajima, 
 Y. Honda, O. Kitao, H. Nakai, T. Vreven, J. A. Montgomery, Jr., 
 J. E. Peralta, F. Ogliaro, M. Bearpark, J. J. Heyd, E. Brothers, 
 K. N. Kudin, V. N. Staroverov, R. Kobayashi, J. Normand, 
 K. Raghavachari, A. Rendell, J. C. Burant, S. S. Iyengar, J. Tomasi, 
 M. Cossi, N. Rega, J. M. Millam, M. Klene, J. E. Knox, J. B. Cross, 
 V. Bakken, C. Adamo, J. Jaramillo, R. Gomperts, R. E. Stratmann, 
 O. Yazyev, A. J. Austin, R. Cammi, C. Pomelli, J. W. Ochterski, 
 R. L. Martin, K. Morokuma, V. G. Zakrzewski, G. A. Voth, 
 P. Salvador, J. J. Dannenberg, S. Dapprich, A. D. Daniels, 
 O. Farkas, J. B. Foresman, J. V. Ortiz, J. Cioslowski, 
 and D. J. Fox, Gaussian, Inc., Wallingford CT, 2009.
 
 ******************************************
 Gaussian 09:  EM64L-G09RevA.02 11-Jun-2009
                11-Feb-2017 
 ******************************************
 %chk=structure_135.chk
 %NProcShared=8
 Will use up to    8 processors via shared memory.
 ----------------------------------------------------------------------
 # b3lyp/6-31G* Opt=(ModRedundant, maxcycles=1000, calcfc) geom=nocrowd
 ----------------------------------------------------------------------
 1/6=1000,10=4,14=-1,18=120,19=15,26=3,38=1/1,3;
 2/9=110,12=1,17=6,18=5,40=1/2;
 3/5=1,6=6,7=1,11=2,16=1,25=1,30=1,71=2,74=-5/1,2,3;
 4//1;
 5/5=2,38=5/2;
 8/6=4,10=90,11=11/1;
 11/6=1,8=1,9=11,15=111,16=1/1,2,10;
 10/6=1,7=6,13=1/2;
 6/7=2,8=2,9=2,10=2,28=1/1;
 7/10=1,18=20,25=1/1,2,3,16;
 1/6=1000,10=4,14=-1,18=20,19=15/3(2);
 2/9=110,12=1/2;
 99//99;
 2/9=110,12=1/2;
 3/5=1,6=6,7=1,11=2,16=1,25=1,30=1,71=1,74=-5/1,2,3;
 4/5=5,16=3/1;
 5/5=2,38=5/2;
 7//1,2,3,16;
 1/6=1000,14=-1,18=20,19=15/3(-5);
 2/9=110,12=1/2;
 6/7=2,8=2,9=2,10=2,19=2,28=1/1;
 99/9=1/99;
 ------------------
 Phi Psi fixed scan
 ------------------
 Symbolic Z-matrix:
 Charge =  0 Multiplicity = 1
 H                     1.1248    2.7631   -1.9684 
 C                     1.5589    2.9786   -0.9921 
 H                     1.6873    2.0489   -0.4377 
 H                     0.896     3.6429   -0.4377 
 C                     2.9235    3.656    -1.1334 
 O                     3.3922    3.8887   -2.2454 
 N                     3.5554    3.9697    0. 
 H                     3.1293    3.7581    0.8909 
 C                     4.8533    4.6139    0. 
 H                     5.4076    4.3155    0.8898 
 C                     5.6613    4.2208   -1.2322 
 H                     5.1233    4.5214   -2.1312 
 H                     6.6305    4.7189   -1.2058 
 H                     5.8085    3.1409   -1.2414 
 C                     4.7127    6.1294    0. 
 O                     3.9095    6.6814   -0.7488 
 N                     5.4979    6.8026    0.8441 
 H                     6.143     6.3041    1.4403 
 C                     5.4589    8.248     0.9387 
 H                     4.72      8.6386    0.2391 
 H                     5.1871    8.5389    1.9534 
 H                     6.4402    8.6552    0.695 
 
 The following ModRedundant input section has been read:
 D    5    7    9   15 F                                                       
 D    7    9   15   17 F                                                       

 GradGradGradGradGradGradGradGradGradGradGradGradGradGradGradGradGradGrad
 Berny optimization.
 Initialization pass.
                           ----------------------------
                           !    Initial Parameters    !
                           ! (Angstroms and Degrees)  !
 --------------------------                            --------------------------
 ! Name  Definition              Value          Derivative Info.                !
 --------------------------------------------------------------------------------
 ! R1    R(1,2)                  1.09           calculate D2E/DX2 analytically  !
 ! R2    R(2,3)                  1.09           calculate D2E/DX2 analytically  !
 ! R3    R(2,4)                  1.09           calculate D2E/DX2 analytically  !
 ! R4    R(2,5)                  1.53           calculate D2E/DX2 analytically  !
 ! R5    R(5,6)                  1.229          calculate D2E/DX2 analytically  !
 ! R6    R(5,7)                  1.335          calculate D2E/DX2 analytically  !
 ! R7    R(7,8)                  1.01           calculate D2E/DX2 analytically  !
 ! R8    R(7,9)                  1.449          calculate D2E/DX2 analytically  !
 ! R9    R(9,10)                 1.09           calculate D2E/DX2 analytically  !
 ! R10   R(9,11)                 1.525          calculate D2E/DX2 analytically  !
 ! R11   R(9,15)                 1.522          calculate D2E/DX2 analytically  !
 ! R12   R(11,12)                1.09           calculate D2E/DX2 analytically  !
 ! R13   R(11,13)                1.09           calculate D2E/DX2 analytically  !
 ! R14   R(11,14)                1.0899         calculate D2E/DX2 analytically  !
 ! R15   R(15,16)                1.229          calculate D2E/DX2 analytically  !
 ! R16   R(15,17)                1.335          calculate D2E/DX2 analytically  !
 ! R17   R(17,18)                1.01           calculate D2E/DX2 analytically  !
 ! R18   R(17,19)                1.449          calculate D2E/DX2 analytically  !
 ! R19   R(19,20)                1.0899         calculate D2E/DX2 analytically  !
 ! R20   R(19,21)                1.09           calculate D2E/DX2 analytically  !
 ! R21   R(19,22)                1.09           calculate D2E/DX2 analytically  !
 ! A1    A(1,2,3)              109.5024         calculate D2E/DX2 analytically  !
 ! A2    A(1,2,4)              109.5034         calculate D2E/DX2 analytically  !
 ! A3    A(1,2,5)              111.1015         calculate D2E/DX2 analytically  !
 ! A4    A(3,2,4)              109.4359         calculate D2E/DX2 analytically  !
 ! A5    A(3,2,5)              108.6343         calculate D2E/DX2 analytically  !
 ! A6    A(4,2,5)              108.6362         calculate D2E/DX2 analytically  !
 ! A7    A(2,5,6)              120.4997         calculate D2E/DX2 analytically  !
 ! A8    A(2,5,7)              116.6012         calculate D2E/DX2 analytically  !
 ! A9    A(6,5,7)              122.8991         calculate D2E/DX2 analytically  !
 ! A10   A(5,7,8)              119.9973         calculate D2E/DX2 analytically  !
 ! A11   A(5,7,9)              121.9001         calculate D2E/DX2 analytically  !
 ! A12   A(8,7,9)              118.1026         calculate D2E/DX2 analytically  !
 ! A13   A(7,9,10)             109.5            calculate D2E/DX2 analytically  !
 ! A14   A(7,9,11)             111.0992         calculate D2E/DX2 analytically  !
 ! A15   A(7,9,15)             111.0966         calculate D2E/DX2 analytically  !
 ! A16   A(10,9,11)            108.6382         calculate D2E/DX2 analytically  !
 ! A17   A(10,9,15)            108.6373         calculate D2E/DX2 analytically  !
 ! A18   A(11,9,15)            107.7947         calculate D2E/DX2 analytically  !
 ! A19   A(9,11,12)            109.5007         calculate D2E/DX2 analytically  !
 ! A20   A(9,11,13)            109.4959         calculate D2E/DX2 analytically  !
 ! A21   A(9,11,14)            109.4978         calculate D2E/DX2 analytically  !
 ! A22   A(12,11,13)           109.441          calculate D2E/DX2 analytically  !
 ! A23   A(12,11,14)           109.4482         calculate D2E/DX2 analytically  !
 ! A24   A(13,11,14)           109.4436         calculate D2E/DX2 analytically  !
 ! A25   A(9,15,16)            120.5029         calculate D2E/DX2 analytically  !
 ! A26   A(9,15,17)            116.6012         calculate D2E/DX2 analytically  !
 ! A27   A(16,15,17)           122.8959         calculate D2E/DX2 analytically  !
 ! A28   A(15,17,18)           120.0006         calculate D2E/DX2 analytically  !
 ! A29   A(15,17,19)           121.9013         calculate D2E/DX2 analytically  !
 ! A30   A(18,17,19)           118.0981         calculate D2E/DX2 analytically  !
 ! A31   A(17,19,20)           109.5004         calculate D2E/DX2 analytically  !
 ! A32   A(17,19,21)           109.4935         calculate D2E/DX2 analytically  !
 ! A33   A(17,19,22)           109.5003         calculate D2E/DX2 analytically  !
 ! A34   A(20,19,21)           109.441          calculate D2E/DX2 analytically  !
 ! A35   A(20,19,22)           109.4464         calculate D2E/DX2 analytically  !
 ! A36   A(21,19,22)           109.4457         calculate D2E/DX2 analytically  !
 ! D1    D(1,2,5,6)              0.002          calculate D2E/DX2 analytically  !
 ! D2    D(1,2,5,7)            179.9996         calculate D2E/DX2 analytically  !
 ! D3    D(3,2,5,6)            120.5171         calculate D2E/DX2 analytically  !
 ! D4    D(3,2,5,7)            -59.4853         calculate D2E/DX2 analytically  !
 ! D5    D(4,2,5,6)           -120.5155         calculate D2E/DX2 analytically  !
 ! D6    D(4,2,5,7)             59.482          calculate D2E/DX2 analytically  !
 ! D7    D(2,5,7,8)              0.0055         calculate D2E/DX2 analytically  !
 ! D8    D(2,5,7,9)            179.9962         calculate D2E/DX2 analytically  !
 ! D9    D(6,5,7,8)           -179.997          calculate D2E/DX2 analytically  !
 ! D10   D(6,5,7,9)             -0.0063         calculate D2E/DX2 analytically  !
 ! D11   D(5,7,9,10)          -149.9973         calculate D2E/DX2 analytically  !
 ! D12   D(5,7,9,11)           -29.9947         calculate D2E/DX2 analytically  !
 ! D13   D(5,7,9,15)            90.0028         frozen, calculate D2E/DX2 analyt!
 ! D14   D(8,7,9,10)            29.9935         calculate D2E/DX2 analytically  !
 ! D15   D(8,7,9,11)           149.9961         calculate D2E/DX2 analytically  !
 ! D16   D(8,7,9,15)           -90.0063         calculate D2E/DX2 analytically  !
 ! D17   D(7,9,11,12)           60.0024         calculate D2E/DX2 analytically  !
 ! D18   D(7,9,11,13)          179.9986         calculate D2E/DX2 analytically  !
 ! D19   D(7,9,11,14)          -60.0038         calculate D2E/DX2 analytically  !
 ! D20   D(10,9,11,12)        -179.4843         calculate D2E/DX2 analytically  !
 ! D21   D(10,9,11,13)         -59.4881         calculate D2E/DX2 analytically  !
 ! D22   D(10,9,11,14)          60.5095         calculate D2E/DX2 analytically  !
 ! D23   D(15,9,11,12)         -61.938          calculate D2E/DX2 analytically  !
 ! D24   D(15,9,11,13)          58.0582         calculate D2E/DX2 analytically  !
 ! D25   D(15,9,11,14)         178.0558         calculate D2E/DX2 analytically  !
 ! D26   D(7,9,15,16)          -45.001          calculate D2E/DX2 analytically  !
 ! D27   D(7,9,15,17)          134.9977         frozen, calculate D2E/DX2 analyt!
 ! D28   D(10,9,15,16)        -165.5121         calculate D2E/DX2 analytically  !
 ! D29   D(10,9,15,17)          14.4866         calculate D2E/DX2 analytically  !
 ! D30   D(11,9,15,16)          76.941          calculate D2E/DX2 analytically  !
 ! D31   D(11,9,15,17)        -103.0603         calculate D2E/DX2 analytically  !
 ! D32   D(9,15,17,18)           0.0065         calculate D2E/DX2 analytically  !
 ! D33   D(9,15,17,19)         179.9968         calculate D2E/DX2 analytically  !
 ! D34   D(16,15,17,18)       -179.9949         calculate D2E/DX2 analytically  !
 ! D35   D(16,15,17,19)         -0.0045         calculate D2E/DX2 analytically  !
 ! D36   D(15,17,19,20)          0.0072         calculate D2E/DX2 analytically  !
 ! D37   D(15,17,19,21)        120.0017         calculate D2E/DX2 analytically  !
 ! D38   D(15,17,19,22)       -119.9981         calculate D2E/DX2 analytically  !
 ! D39   D(18,17,19,20)        179.9977         calculate D2E/DX2 analytically  !
 ! D40   D(18,17,19,21)        -60.0078         calculate D2E/DX2 analytically  !
 ! D41   D(18,17,19,22)         59.9924         calculate D2E/DX2 analytically  !
 --------------------------------------------------------------------------------
 Trust Radius=3.00D-01 FncErr=1.00D-07 GrdErr=1.00D-06
 Number of steps in this run= 132 maximum allowed number of steps= 132.
 GradGradGradGradGradGradGradGradGradGradGradGradGradGradGradGradGradGrad

                          Input orientation:                          
 ---------------------------------------------------------------------
 Center     Atomic      Atomic             Coordinates (Angstroms)
 Number     Number       Type             X           Y           Z
 ---------------------------------------------------------------------
      1          1           0        1.124800    2.763100   -1.968400
      2          6           0        1.558900    2.978600   -0.992100
      3          1           0        1.687300    2.048900   -0.437700
      4          1           0        0.896000    3.642900   -0.437700
      5          6           0        2.923500    3.656000   -1.133400
      6          8           0        3.392200    3.888700   -2.245400
      7          7           0        3.555400    3.969700    0.000000
      8          1           0        3.129300    3.758100    0.890900
      9          6           0        4.853300    4.613900    0.000000
     10          1           0        5.407600    4.315500    0.889800
     11          6           0        5.661300    4.220800   -1.232200
     12          1           0        5.123300    4.521400   -2.131200
     13          1           0        6.630500    4.718900   -1.205800
     14          1           0        5.808500    3.140900   -1.241400
     15          6           0        4.712700    6.129400    0.000000
     16          8           0        3.909500    6.681400   -0.748800
     17          7           0        5.497900    6.802600    0.844100
     18          1           0        6.143000    6.304100    1.440300
     19          6           0        5.458900    8.248000    0.938700
     20          1           0        4.720000    8.638600    0.239100
     21          1           0        5.187100    8.538900    1.953400
     22          1           0        6.440200    8.655200    0.695000
 ---------------------------------------------------------------------
                    Distance matrix (angstroms):
                    1          2          3          4          5
     1  H    0.000000
     2  C    1.089975   0.000000
     3  H    1.780317   1.090040   0.000000
     4  H    1.780292   1.089996   1.779604   0.000000
     5  C    2.174814   1.530023   2.143586   2.143578   0.000000
     6  O    2.546528   2.400007   3.091816   3.091797   1.228972
     7  N    3.352357   2.439786   2.714931   2.714919   1.335028
     8  H    3.630928   2.572832   2.601136   2.601169   2.037294
     9  C    4.604538   3.809402   4.098093   4.098127   2.434398
    10  H    5.377883   4.487911   4.554159   4.750703   3.270937
    11  C    4.821484   4.293064   4.597940   4.865520   2.797197
    12  H    4.371055   4.047558   4.559309   4.637863   2.565861
    13  H    5.892321   5.366138   5.670459   5.884917   3.857052
    14  H    4.754819   4.259999   4.338512   5.003058   2.932613
    15  C    5.299019   4.567084   5.098540   4.576184   3.256308
    16  O    4.959340   4.392635   5.147331   4.290740   3.205177
    17  N    6.584202   5.788811   6.225861   5.727495   4.520966
    18  H    7.024261   6.163562   6.441030   6.175749   4.899137
    19  C    7.570983   6.834074   7.385681   6.627328   5.639886
    20  H    7.233258   6.598788   7.285566   6.327563   5.471515
    21  H    8.077293   7.263384   7.751520   6.935540   6.204428
    22  H    8.370425   7.674450   8.216828   7.559386   6.379830
                    6          7          8          9         10
     6  O    0.000000
     7  N    2.252780   0.000000
     8  H    3.150008   1.009970   0.000000
     9  C    2.775347   1.448978   2.120913   0.000000
    10  H    3.751463   2.083739   2.345495   1.089970   0.000000
    11  C    2.507126   2.452791   3.336565   1.525027   2.139209
    12  H    1.846634   2.702720   3.700237   2.150225   3.041326
    13  H    3.500941   3.386959   4.192575   2.150214   2.459625
    14  H    2.721346   2.702673   3.479332   2.150165   2.466256
    15  C    3.436026   2.450234   2.987293   1.522008   2.136554
    16  O    3.210387   2.835384   3.441368   2.392910   3.244502
    17  N    4.740232   3.537108   3.857646   2.432781   2.489158
    18  H    5.194751   3.770883   3.983258   2.567989   2.190524
    19  C    5.780419   4.775806   5.058510   3.801919   3.933139
    20  H    5.522440   4.817893   5.174403   4.033999   4.425539
    21  H    6.517357   5.230278   5.312203   4.396910   4.360845
    22  H    6.376188   5.546080   5.914560   4.396974   4.465110
                   11         12         13         14         15
    11  C    0.000000
    12  H    1.089957   0.000000
    13  H    1.090023   1.779613   0.000000
    14  H    1.089925   1.779613   1.779617   0.000000
    15  C    2.461892   2.701161   2.668599   3.416575   0.000000
    16  O    3.058926   2.837242   3.385867   4.047715   1.229039
    17  N    3.317139   3.767839   3.134753   4.225379   1.335006
    18  H    3.422635   4.119881   3.122877   4.160437   2.037337
    19  C    4.579532   4.839882   4.292560   5.563949   2.434428
    20  H    4.750550   4.767841   4.593669   5.796673   2.520577
    21  H    5.386919   5.729602   5.162979   6.303276   3.137916
    22  H    4.897417   5.177831   4.375353   5.878452   3.137985
                   16         17         18         19         20
    16  O    0.000000
    17  N    2.252784   0.000000
    18  H    3.150085   1.010005   0.000000
    19  C    2.775344   1.449017   2.120930   0.000000
    20  H    2.337411   2.083758   2.986252   1.089946   0.000000
    21  H    3.519155   2.083718   2.484220   1.090006   1.779592
    22  H    3.519217   2.083815   2.484245   1.090023   1.779665
                   21         22
    21  H    0.000000
    22  H    1.779707   0.000000
 Stoichiometry    C6H12N2O2
 Framework group  C1[X(C6H12N2O2)]
 Deg. of freedom    60
 Full point group                 C1      NOp   1
 Largest Abelian subgroup         C1      NOp   1
 Largest concise Abelian subgroup C1      NOp   1
                         Standard orientation:                         
 ---------------------------------------------------------------------
 Center     Atomic      Atomic             Coordinates (Angstroms)
 Number     Number       Type             X           Y           Z
 ---------------------------------------------------------------------
      1          1           0       -3.972780   -1.081410    0.510860
      2          6           0       -3.230867   -1.105882   -0.287270
      3          1           0       -3.685066   -0.763004   -1.216962
      4          1           0       -2.867789   -2.125602   -0.415477
      5          6           0       -2.041199   -0.200633    0.038586
      6          8           0       -2.011036    0.435637    1.089596
      7          7           0       -1.063635   -0.148222   -0.869116
      8          1           0       -1.133813   -0.689918   -1.718634
      9          6           0        0.115644    0.671702   -0.677903
     10          1           0        0.492481    0.998685   -1.646980
     11          6           0       -0.202803    1.903962    0.162238
     12          1           0       -0.572659    1.592648    1.139119
     13          1           0        0.700395    2.500757    0.289591
     14          1           0       -0.963857    2.500417   -0.340726
     15          6           0        1.213715   -0.105498    0.033932
     16          8           0        0.952530   -0.796621    1.016106
     17          7           0        2.446756    0.009201   -0.464762
     18          1           0        2.612030    0.589828   -1.274495
     19          6           0        3.577611   -0.680420    0.122811
     20          1           0        3.242878   -1.262033    0.981683
     21          1           0        4.021029   -1.347460   -0.616481
     22          1           0        4.320744    0.048733    0.445674
 ---------------------------------------------------------------------
 Rotational constants (GHZ):      2.8343624      0.7343735      0.6924286
 Standard basis: 6-31G(d) (6D, 7F)
 There are   174 symmetry adapted basis functions of A   symmetry.
 Integral buffers will be    131072 words long.
 Raffenetti 2 integral format.
 Two-electron integral symmetry is turned on.
   174 basis functions,   328 primitive gaussians,   174 cartesian basis functions
    39 alpha electrons       39 beta electrons
       nuclear repulsion energy       565.1985382977 Hartrees.
 NAtoms=   22 NActive=   22 NUniq=   22 SFac= 7.50D-01 NAtFMM=   80 NAOKFM=F Big=F
 One-electron integrals computed using PRISM.
 NBasis=   174 RedAO= T  NBF=   174
 NBsUse=   174 1.00D-06 NBFU=   174
 Harris functional with IExCor=  402 diagonalized for initial guess.
 ExpMin= 1.61D-01 ExpMax= 5.48D+03 ExpMxC= 8.25D+02 IAcc=1 IRadAn=         1 AccDes= 0.00D+00
 HarFok:  IExCor=  402 AccDes= 0.00D+00 IRadAn=         1 IDoV= 1
 ScaDFX=  1.000000  1.000000  1.000000  1.000000
 FoFCou: FMM=F IPFlag=           0 FMFlag=      100000 FMFlg1=           0
         NFxFlg=           0 DoJE=T BraDBF=F KetDBF=T FulRan=T
         Omega=  0.000000  0.000000  1.000000  0.000000  0.000000 ICntrl=     500 IOpCl=  0
         NMat0=    1 NMatS0=    1 NMatT0=    0 NMatD0=    1 NMtDS0=    0 NMtDT0=    0
         I1Cent=           4 NGrid=           0.
 Petite list used in FoFCou.
 Initial guess orbital symmetries:
       Occupied  (A) (A) (A) (A) (A) (A) (A) (A) (A) (A) (A) (A)
                 (A) (A) (A) (A) (A) (A) (A) (A) (A) (A) (A) (A)
                 (A) (A) (A) (A) (A) (A) (A) (A) (A) (A) (A) (A)
                 (A) (A) (A)
       Virtual   (A) (A) (A) (A) (A) (A) (A) (A) (A) (A) (A) (A)
                 (A) (A) (A) (A) (A) (A) (A) (A) (A) (A) (A) (A)
                 (A) (A) (A) (A) (A) (A) (A) (A) (A) (A) (A) (A)
                 (A) (A) (A) (A) (A) (A) (A) (A) (A) (A) (A) (A)
                 (A) (A) (A) (A) (A) (A) (A) (A) (A) (A) (A) (A)
                 (A) (A) (A) (A) (A) (A) (A) (A) (A) (A) (A) (A)
                 (A) (A) (A) (A) (A) (A) (A) (A) (A) (A) (A) (A)
                 (A) (A) (A) (A) (A) (A) (A) (A) (A) (A) (A) (A)
                 (A) (A) (A) (A) (A) (A) (A) (A) (A) (A) (A) (A)
                 (A) (A) (A) (A) (A) (A) (A) (A) (A) (A) (A) (A)
                 (A) (A) (A) (A) (A) (A) (A) (A) (A) (A) (A) (A)
                 (A) (A) (A)
 The electronic state of the initial guess is 1-A.
 Requested convergence on RMS density matrix=1.00D-08 within 128 cycles.
 Requested convergence on MAX density matrix=1.00D-06.
 Requested convergence on             energy=1.00D-06.
 No special actions if energy rises.
 Integral accuracy reduced to 1.0D-05 until final iterations.
 Initial convergence to 1.0D-05 achieved.  Increase integral accuracy.
 SCF Done:  E(RB3LYP) =  -495.821226465     A.U. after   16 cycles
             Convg  =    0.4290D-08             -V/T =  2.0086
 Range of M.O.s used for correlation:     1   174
 NBasis=   174 NAE=    39 NBE=    39 NFC=     0 NFV=     0
 NROrb=    174 NOA=    39 NOB=    39 NVA=   135 NVB=   135
 Symmetrizing basis deriv contribution to polar:
 IMax=3 JMax=2 DiffMx= 0.00D+00
 G2DrvN: will do    23 centers at a time, making    1 passes doing MaxLOS=2.
 Calling FoFCou, ICntrl=  3107 FMM=F I1Cent=   0 AccDes= 0.00D+00.
 FoFDir/FoFCou used for L=0 through L=2.
 End of G2Drv Frequency-dependent properties file   721 does not exist.
 End of G2Drv Frequency-dependent properties file   722 does not exist.
          IDoAtm=1111111111111111111111
          Differentiating once with respect to nuclear coordinates.
          There are    69 degrees of freedom in the 1st order CPHF.  IDoFFX=5.
     63 vectors produced by pass  0 Test12= 7.63D-11 1.45D-07 XBig12= 1.89D-01 1.11D-01.
 AX will form    63 AO Fock derivatives at one time.
     63 vectors produced by pass  1 Test12= 7.63D-11 1.45D-07 XBig12= 3.97D-02 4.75D-02.
     63 vectors produced by pass  2 Test12= 7.63D-11 1.45D-07 XBig12= 3.08D-05 8.98D-04.
     63 vectors produced by pass  3 Test12= 7.63D-11 1.45D-07 XBig12= 7.40D-08 3.27D-05.
     31 vectors produced by pass  4 Test12= 7.63D-11 1.45D-07 XBig12= 1.09D-10 1.21D-06.
 Inverted reduced A of dimension   283 with in-core refinement.
 End of Minotr Frequency-dependent properties file   721 does not exist.
 End of Minotr Frequency-dependent properties file   722 does not exist.

 **********************************************************************

            Population analysis using the SCF density.

 **********************************************************************

 Orbital symmetries:
       Occupied  (A) (A) (A) (A) (A) (A) (A) (A) (A) (A) (A) (A)
                 (A) (A) (A) (A) (A) (A) (A) (A) (A) (A) (A) (A)
                 (A) (A) (A) (A) (A) (A) (A) (A) (A) (A) (A) (A)
                 (A) (A) (A)
       Virtual   (A) (A) (A) (A) (A) (A) (A) (A) (A) (A) (A) (A)
                 (A) (A) (A) (A) (A) (A) (A) (A) (A) (A) (A) (A)
                 (A) (A) (A) (A) (A) (A) (A) (A) (A) (A) (A) (A)
                 (A) (A) (A) (A) (A) (A) (A) (A) (A) (A) (A) (A)
                 (A) (A) (A) (A) (A) (A) (A) (A) (A) (A) (A) (A)
                 (A) (A) (A) (A) (A) (A) (A) (A) (A) (A) (A) (A)
                 (A) (A) (A) (A) (A) (A) (A) (A) (A) (A) (A) (A)
                 (A) (A) (A) (A) (A) (A) (A) (A) (A) (A) (A) (A)
                 (A) (A) (A) (A) (A) (A) (A) (A) (A) (A) (A) (A)
                 (A) (A) (A) (A) (A) (A) (A) (A) (A) (A) (A) (A)
                 (A) (A) (A) (A) (A) (A) (A) (A) (A) (A) (A) (A)
                 (A) (A) (A)
 The electronic state is 1-A.
 Alpha  occ. eigenvalues --  -19.09715 -19.08976 -14.36568 -14.35956 -10.27604
 Alpha  occ. eigenvalues --  -10.27331 -10.23315 -10.21772 -10.18254 -10.15704
 Alpha  occ. eigenvalues --   -1.02931  -1.01697  -0.92401  -0.92292  -0.78124
 Alpha  occ. eigenvalues --   -0.72473  -0.70639  -0.64174  -0.59412  -0.57736
 Alpha  occ. eigenvalues --   -0.53389  -0.50405  -0.46785  -0.45836  -0.44460
 Alpha  occ. eigenvalues --   -0.43972  -0.41242  -0.40411  -0.40014  -0.38917
 Alpha  occ. eigenvalues --   -0.38672  -0.36905  -0.35758  -0.34544  -0.34356
 Alpha  occ. eigenvalues --   -0.26264  -0.24961  -0.22964  -0.21823
 Alpha virt. eigenvalues --    0.02945   0.04700   0.05934   0.08321   0.12119
 Alpha virt. eigenvalues --    0.13245   0.14775   0.15984   0.16124   0.16689
 Alpha virt. eigenvalues --    0.17320   0.18146   0.18613   0.19436   0.20267
 Alpha virt. eigenvalues --    0.22167   0.23737   0.25700   0.29730   0.33495
 Alpha virt. eigenvalues --    0.36349   0.41184   0.42771   0.50474   0.51532
 Alpha virt. eigenvalues --    0.52359   0.54307   0.55967   0.56293   0.57053
 Alpha virt. eigenvalues --    0.59092   0.59648   0.60885   0.62744   0.65309
 Alpha virt. eigenvalues --    0.67564   0.69026   0.71568   0.73357   0.75171
 Alpha virt. eigenvalues --    0.75866   0.77613   0.79519   0.80456   0.82344
 Alpha virt. eigenvalues --    0.86031   0.86294   0.87565   0.88456   0.89370
 Alpha virt. eigenvalues --    0.90051   0.90337   0.91228   0.92697   0.93825
 Alpha virt. eigenvalues --    0.95383   0.96036   0.97223   1.00506   1.03120
 Alpha virt. eigenvalues --    1.07839   1.10612   1.12563   1.13571   1.16457
 Alpha virt. eigenvalues --    1.20994   1.27526   1.30990   1.33044   1.34354
 Alpha virt. eigenvalues --    1.39266   1.41567   1.44659   1.47177   1.49566
 Alpha virt. eigenvalues --    1.53433   1.58214   1.62004   1.64493   1.69430
 Alpha virt. eigenvalues --    1.72210   1.75412   1.79765   1.82047   1.84199
 Alpha virt. eigenvalues --    1.85061   1.85739   1.87989   1.91581   1.93662
 Alpha virt. eigenvalues --    1.95643   1.96148   1.99548   2.03166   2.05592
 Alpha virt. eigenvalues --    2.07033   2.09036   2.14577   2.16018   2.16876
 Alpha virt. eigenvalues --    2.20798   2.22838   2.25309   2.29036   2.29832
 Alpha virt. eigenvalues --    2.30863   2.33407   2.39562   2.40769   2.42322
 Alpha virt. eigenvalues --    2.46615   2.47084   2.52934   2.60687   2.64296
 Alpha virt. eigenvalues --    2.67770   2.70427   2.73949   2.77706   2.88205
 Alpha virt. eigenvalues --    2.94573   3.00132   3.02953   3.17206   3.18921
 Alpha virt. eigenvalues --    3.94552   4.02285   4.07791   4.20436   4.22687
 Alpha virt. eigenvalues --    4.27479   4.31848   4.39863   4.49937   4.66295
          Condensed to atoms (all electrons):
              1          2          3          4          5          6
     1  H    0.499034   0.360170  -0.021422  -0.020309  -0.017027   0.005291
     2  C    0.360170   5.336719   0.347454   0.351161   0.353676  -0.073965
     3  H   -0.021422   0.347454   0.565520  -0.027774  -0.027959   0.001245
     4  H   -0.020309   0.351161  -0.027774   0.548949  -0.025973   0.000985
     5  C   -0.017027   0.353676  -0.027959  -0.025973   4.329991   0.571958
     6  O    0.005291  -0.073965   0.001245   0.000985   0.571958   8.130028
     7  N    0.004526  -0.137808   0.005690   0.004806   0.243286  -0.098855
     8  H   -0.000158   0.000288   0.000736   0.000846  -0.017913   0.003953
     9  C   -0.000122   0.005023   0.000141  -0.000281  -0.035074   0.001204
    10  H    0.000002  -0.000242   0.000011  -0.000001   0.003937   0.000084
    11  C    0.000017  -0.000503  -0.000034   0.000027  -0.003922  -0.045999
    12  H    0.000006   0.000699  -0.000011  -0.000030  -0.001328   0.019807
    13  H   -0.000001   0.000025  -0.000002   0.000000   0.001100   0.002854
    14  H    0.000003  -0.000148   0.000017  -0.000001   0.000844  -0.002389
    15  C    0.000000  -0.000107   0.000002   0.000052  -0.001602  -0.002920
    16  O    0.000001  -0.000038   0.000000   0.000056   0.011307  -0.001852
    17  N    0.000000   0.000002   0.000000   0.000000   0.000308  -0.000016
    18  H    0.000000   0.000000   0.000000   0.000000  -0.000030   0.000000
    19  C    0.000000   0.000000   0.000000   0.000000  -0.000002   0.000000
    20  H    0.000000   0.000000   0.000000   0.000000  -0.000006   0.000001
    21  H    0.000000   0.000000   0.000000   0.000000   0.000000   0.000000
    22  H    0.000000   0.000000   0.000000   0.000000   0.000000   0.000000
              7          8          9         10         11         12
     1  H    0.004526  -0.000158  -0.000122   0.000002   0.000017   0.000006
     2  C   -0.137808   0.000288   0.005023  -0.000242  -0.000503   0.000699
     3  H    0.005690   0.000736   0.000141   0.000011  -0.000034  -0.000011
     4  H    0.004806   0.000846  -0.000281  -0.000001   0.000027  -0.000030
     5  C    0.243286  -0.017913  -0.035074   0.003937  -0.003922  -0.001328
     6  O   -0.098855   0.003953   0.001204   0.000084  -0.045999   0.019807
     7  N    7.124845   0.305158   0.272113  -0.043207  -0.045538  -0.006237
     8  H    0.305158   0.417377  -0.034410  -0.004261   0.005019  -0.000217
     9  C    0.272113  -0.034410   5.105922   0.351633   0.366051  -0.027815
    10  H   -0.043207  -0.004261   0.351633   0.651149  -0.036628   0.004849
    11  C   -0.045538   0.005019   0.366051  -0.036628   5.191567   0.366325
    12  H   -0.006237  -0.000217  -0.027815   0.004849   0.366325   0.434251
    13  H    0.004149  -0.000118  -0.031737  -0.002820   0.334733  -0.019880
    14  H   -0.001012  -0.000091  -0.031082  -0.005453   0.370856  -0.022277
    15  C   -0.056769   0.001459   0.304464  -0.050516  -0.040435  -0.004817
    16  O   -0.003359   0.000167  -0.090273   0.003767  -0.003274   0.005194
    17  N    0.000515   0.000126  -0.112218   0.005718  -0.003128   0.000335
    18  H    0.000195  -0.000012   0.000810   0.004408   0.000137  -0.000018
    19  C   -0.000174   0.000001   0.006723  -0.000272  -0.000209   0.000004
    20  H   -0.000013   0.000001   0.001314  -0.000072  -0.000023  -0.000011
    21  H    0.000014  -0.000001  -0.000131  -0.000012  -0.000010   0.000000
    22  H   -0.000001   0.000000  -0.000179  -0.000017   0.000057   0.000000
             13         14         15         16         17         18
     1  H   -0.000001   0.000003   0.000000   0.000001   0.000000   0.000000
     2  C    0.000025  -0.000148  -0.000107  -0.000038   0.000002   0.000000
     3  H   -0.000002   0.000017   0.000002   0.000000   0.000000   0.000000
     4  H    0.000000  -0.000001   0.000052   0.000056   0.000000   0.000000
     5  C    0.001100   0.000844  -0.001602   0.011307   0.000308  -0.000030
     6  O    0.002854  -0.002389  -0.002920  -0.001852  -0.000016   0.000000
     7  N    0.004149  -0.001012  -0.056769  -0.003359   0.000515   0.000195
     8  H   -0.000118  -0.000091   0.001459   0.000167   0.000126  -0.000012
     9  C   -0.031737  -0.031082   0.304464  -0.090273  -0.112218   0.000810
    10  H   -0.002820  -0.005453  -0.050516   0.003767   0.005718   0.004408
    11  C    0.334733   0.370856  -0.040435  -0.003274  -0.003128   0.000137
    12  H   -0.019880  -0.022277  -0.004817   0.005194   0.000335  -0.000018
    13  H    0.624390  -0.031017  -0.003828  -0.000390   0.002594   0.000083
    14  H   -0.031017   0.574617   0.005229   0.000026  -0.000094  -0.000045
    15  C   -0.003828   0.005229   4.411428   0.606682   0.251911  -0.017542
    16  O   -0.000390   0.000026   0.606682   8.075186  -0.102565   0.003634
    17  N    0.002594  -0.000094   0.251911  -0.102565   7.106732   0.301217
    18  H    0.000083  -0.000045  -0.017542   0.003634   0.301217   0.415415
    19  C   -0.000129   0.000007  -0.026610  -0.009425   0.262080  -0.033228
    20  H   -0.000002   0.000001  -0.000062   0.022924  -0.038277   0.003906
    21  H    0.000004   0.000000   0.001056   0.000598  -0.043960  -0.000686
    22  H   -0.000015  -0.000001   0.002242   0.000583  -0.044018  -0.000869
             19         20         21         22
     1  H    0.000000   0.000000   0.000000   0.000000
     2  C    0.000000   0.000000   0.000000   0.000000
     3  H    0.000000   0.000000   0.000000   0.000000
     4  H    0.000000   0.000000   0.000000   0.000000
     5  C   -0.000002  -0.000006   0.000000   0.000000
     6  O    0.000000   0.000001   0.000000   0.000000
     7  N   -0.000174  -0.000013   0.000014  -0.000001
     8  H    0.000001   0.000001  -0.000001   0.000000
     9  C    0.006723   0.001314  -0.000131  -0.000179
    10  H   -0.000272  -0.000072  -0.000012  -0.000017
    11  C   -0.000209  -0.000023  -0.000010   0.000057
    12  H    0.000004  -0.000011   0.000000   0.000000
    13  H   -0.000129  -0.000002   0.000004  -0.000015
    14  H    0.000007   0.000001   0.000000  -0.000001
    15  C   -0.026610  -0.000062   0.001056   0.002242
    16  O   -0.009425   0.022924   0.000598   0.000583
    17  N    0.262080  -0.038277  -0.043960  -0.044018
    18  H   -0.033228   0.003906  -0.000686  -0.000869
    19  C    4.974182   0.375446   0.382309   0.382201
    20  H    0.375446   0.469544  -0.024078  -0.023712
    21  H    0.382309  -0.024078   0.568206  -0.038917
    22  H    0.382201  -0.023712  -0.038917   0.563730
 Mulliken atomic charges:
              1
     1  H    0.189988
     2  C   -0.542406
     3  H    0.156387
     4  H    0.167485
     5  C    0.614428
     6  O   -0.511414
     7  N   -0.572323
     8  H    0.322051
     9  C   -0.052075
    10  H    0.117943
    11  C   -0.455087
    12  H    0.251171
    13  H    0.120006
    14  H    0.142010
    15  C    0.620683
    16  O   -0.518949
    17  N   -0.587261
    18  H    0.322622
    19  C   -0.312904
    20  H    0.213120
    21  H    0.155607
    22  H    0.158918
 Sum of Mulliken atomic charges =   0.00000
 Mulliken charges with hydrogens summed into heavy atoms:
              1
     2  C   -0.028546
     5  C    0.614428
     6  O   -0.511414
     7  N   -0.250273
     9  C    0.065868
    11  C    0.058100
    15  C    0.620683
    16  O   -0.518949
    17  N   -0.264639
    19  C    0.214741
 Sum of Mulliken charges with hydrogens summed into heavy atoms =   0.00000
 APT atomic charges:
              1
     1  H    0.644977
     2  C   -1.243428
     3  H    0.470449
     4  H    0.316214
     5  C    0.096595
     6  O   -0.279872
     7  N   -0.713121
     8  H    0.621853
     9  C   -0.464313
    10  H    0.404860
    11  C   -1.139124
    12  H    0.335280
    13  H    0.406965
    14  H    0.463975
    15  C    0.111644
    16  O   -0.354625
    17  N   -0.441353
    18  H    0.620596
    19  C   -1.366185
    20  H    0.334082
    21  H    0.572003
    22  H    0.602528
 Sum of APT charges=   0.00000
 APT Atomic charges with hydrogens summed into heavy atoms:
              1
     1  H    0.000000
     2  C    0.188212
     3  H    0.000000
     4  H    0.000000
     5  C    0.096595
     6  O   -0.279872
     7  N   -0.091268
     8  H    0.000000
     9  C   -0.059453
    10  H    0.000000
    11  C    0.067096
    12  H    0.000000
    13  H    0.000000
    14  H    0.000000
    15  C    0.111644
    16  O   -0.354625
    17  N    0.179242
    18  H    0.000000
    19  C    0.142428
    20  H    0.000000
    21  H    0.000000
    22  H    0.000000
 Sum of APT charges=   0.00000
 Electronic spatial extent (au):  <R**2>=           1785.2336
 Charge=              0.0000 electrons
 Dipole moment (field-independent basis, Debye):
    X=              2.3233    Y=             -0.0340    Z=             -5.5603  Tot=              6.0263
 Quadrupole moment (field-independent basis, Debye-Ang):
   XX=            -49.9006   YY=            -59.8249   ZZ=            -60.0851
   XY=              4.7174   XZ=              1.7948   YZ=              0.7945
 Traceless Quadrupole moment (field-independent basis, Debye-Ang):
   XX=              6.7029   YY=             -3.2214   ZZ=             -3.4816
   XY=              4.7174   XZ=              1.7948   YZ=              0.7945
 Octapole moment (field-independent basis, Debye-Ang**2):
  XXX=             27.8018  YYY=             -4.6023  ZZZ=             -8.9917  XYY=             -0.0876
  XXY=            -10.3084  XXZ=            -13.0402  XZZ=              5.1806  YZZ=             -0.9398
  YYZ=             -1.4234  XYZ=             -0.2728
 Hexadecapole moment (field-independent basis, Debye-Ang**3):
 XXXX=          -1565.4122 YYYY=           -383.4555 ZZZZ=           -215.1646 XXXY=              6.6157
 XXXZ=             -2.5241 YYYX=             -4.8711 YYYZ=              0.2764 ZZZX=             -1.2677
 ZZZY=              2.8221 XXYY=           -338.9277 XXZZ=           -317.0940 YYZZ=            -99.2718
 XXYZ=            -13.8325 YYXZ=             -2.8301 ZZXY=              7.4673
 N-N= 5.651985382977D+02 E-N=-2.287255842401D+03  KE= 4.916151068042D+02
  Exact polarizability:   0.000   0.000   0.000   0.000   0.000   0.000
 Approx polarizability: 117.698   6.033  97.656 -14.955  -0.986 120.096
 Calling FoFJK, ICntrl=    100147 FMM=F ISym2X=0 I1Cent= 0 IOpClX= 0 NMat=1 NMatS=1 NMatT=0.
 ***** Axes restored to original set *****
 -------------------------------------------------------------------
 Center     Atomic                   Forces (Hartrees/Bohr)
 Number     Number              X              Y              Z
 -------------------------------------------------------------------
      1        1           0.003484331    0.001763746   -0.000900783
      2        6           0.008287337    0.003038021    0.006136785
      3        1          -0.004195359   -0.004343042    0.003373215
      4        1          -0.005324426   -0.000445902    0.002935493
      5        6          -0.021284438   -0.005294473   -0.040437124
      6        8          -0.025641317   -0.007832890   -0.003993289
      7        7           0.012816096    0.000154518    0.025936401
      8        1          -0.001700970    0.001366952   -0.000665018
      9        6           0.007287607    0.003042180   -0.003756317
     10        1          -0.000922875   -0.005742261    0.006048864
     11        6           0.016040576    0.004797072   -0.004069975
     12        1           0.010554780   -0.001127932    0.005346821
     13        1           0.006484155   -0.000290888    0.004143916
     14        1           0.001986479   -0.002881114   -0.002573933
     15        6          -0.027982671   -0.001048545   -0.017896720
     16        8           0.000944901    0.000248329    0.001858634
     17        7           0.013109679    0.009386263    0.013937647
     18        1          -0.000234762   -0.000256126    0.000034794
     19        6           0.004382589    0.000236435    0.002086543
     20        1          -0.000242583   -0.003608828   -0.000696792
     21        1          -0.000573335    0.004004570    0.003358187
     22        1           0.002724205    0.004833911   -0.000207348
 -------------------------------------------------------------------
 Cartesian Forces:  Max     0.040437124 RMS     0.009717097

 GradGradGradGradGradGradGradGradGradGradGradGradGradGradGradGradGradGrad
 Berny optimization.
 Internal  Forces:  Max     0.087191456 RMS     0.016241381
 Search for a local minimum.
 Step number   1 out of a maximum of  132
 All quantities printed in internal units (Hartrees-Bohrs-Radians)
 Mixed Optimization -- RFO/linear search
 Second derivative matrix not updated -- analytic derivatives used.
     Eigenvalues ---   -0.00969  -0.00053  -0.00011   0.00223   0.00360
     Eigenvalues ---    0.01055   0.01706   0.02162   0.04115   0.04221
     Eigenvalues ---    0.04514   0.04792   0.05293   0.05572   0.05832
     Eigenvalues ---    0.05986   0.06393   0.06602   0.11174   0.11978
     Eigenvalues ---    0.12419   0.12503   0.13183   0.13282   0.13352
     Eigenvalues ---    0.14247   0.14610   0.16549   0.17763   0.18525
     Eigenvalues ---    0.18872   0.21122   0.22397   0.23079   0.23505
     Eigenvalues ---    0.24171   0.29324   0.30790   0.33983   0.34096
     Eigenvalues ---    0.34568   0.34750   0.34960   0.35052   0.35112
     Eigenvalues ---    0.35411   0.35525   0.35909   0.36018   0.37360
     Eigenvalues ---    0.39375   0.46711   0.46833   0.50756   0.54110
     Eigenvalues ---    0.80613   0.82651   1.386751000.000001000.00000
     Eigenvalues --- 1000.000001000.000001000.000001000.000001000.00000
     Eigenvalues --- 1000.000001000.000001000.000001000.000001000.00000
     Eigenvalues --- 1000.000001000.000001000.000001000.000001000.00000
     Eigenvalues --- 1000.000001000.000001000.000001000.000001000.00000
     Eigenvalues --- 1000.000001000.000001000.000001000.000001000.00000
     Eigenvalues --- 1000.000001000.000001000.000001000.000001000.00000
     Eigenvalues --- 1000.000001000.000001000.000001000.000001000.00000
     Eigenvalues --- 1000.000001000.000001000.00000
 RFO step:  Lambda=-2.41347638D-02 EMin=-9.69272525D-03
 Linear search not attempted -- first point.
 Maximum step size (   0.300) exceeded in Quadratic search.
    -- Step size scaled by   0.312
 Iteration  1 RMS(Cart)=  0.07206468 RMS(Int)=  0.00240020
 Iteration  2 RMS(Cart)=  0.00371108 RMS(Int)=  0.00013044
 Iteration  3 RMS(Cart)=  0.00000746 RMS(Int)=  0.00013033
 Iteration  4 RMS(Cart)=  0.00000000 RMS(Int)=  0.00013033
 Iteration  1 RMS(Cart)=  0.00002784 RMS(Int)=  0.00001306
 Iteration  2 RMS(Cart)=  0.00001884 RMS(Int)=  0.00001443
 Iteration  3 RMS(Cart)=  0.00001278 RMS(Int)=  0.00001660
 Iteration  4 RMS(Cart)=  0.00000868 RMS(Int)=  0.00001842
 Iteration  5 RMS(Cart)=  0.00000589 RMS(Int)=  0.00001976
 Iteration  6 RMS(Cart)=  0.00000400 RMS(Int)=  0.00002071
 Iteration  7 RMS(Cart)=  0.00000271 RMS(Int)=  0.00002136
 Iteration  8 RMS(Cart)=  0.00000184 RMS(Int)=  0.00002181
 Iteration  9 RMS(Cart)=  0.00000124 RMS(Int)=  0.00002211
 Iteration 10 RMS(Cart)=  0.00000084 RMS(Int)=  0.00002232
 Variable       Old X    -DE/DX   Delta X   Delta X   Delta X     New X
                                 (Linear)    (Quad)   (Total)
    R1        2.05975  -0.00092   0.00000  -0.00003  -0.00003   2.05972
    R2        2.05988   0.00492   0.00000   0.00401   0.00401   2.06389
    R3        2.05979   0.00446   0.00000   0.00308   0.00308   2.06287
    R4        2.89132  -0.00095   0.00000  -0.00076  -0.00076   2.89056
    R5        2.32242  -0.00765   0.00000  -0.00434  -0.00434   2.31809
    R6        2.52284   0.05217   0.00000   0.02015   0.02015   2.54299
    R7        1.90857  -0.00016   0.00000   0.00022   0.00022   1.90878
    R8        2.73817   0.03521   0.00000   0.00222   0.00222   2.74039
    R9        2.05975   0.00604   0.00000   0.00494   0.00494   2.06469
   R10        2.88188   0.01614   0.00000   0.00720   0.00720   2.88908
   R11        2.87618   0.01446   0.00000   0.01497   0.01497   2.89114
   R12        2.05972  -0.00994   0.00000  -0.00130  -0.00130   2.05842
   R13        2.05984   0.00573   0.00000   0.00449   0.00449   2.06434
   R14        2.05966   0.00315   0.00000   0.00112   0.00112   2.06078
   R15        2.32255  -0.00164   0.00000  -0.00296  -0.00296   2.31959
   R16        2.52280   0.03034   0.00000   0.01550   0.01550   2.53829
   R17        1.90863   0.00000   0.00000  -0.00005  -0.00005   1.90858
   R18        2.73825   0.00558   0.00000   0.00236   0.00236   2.74061
   R19        2.05970  -0.00068   0.00000   0.00039   0.00039   2.06009
   R20        2.05981   0.00434   0.00000   0.00318   0.00318   2.06300
   R21        2.05985   0.00430   0.00000   0.00371   0.00371   2.06356
    A1        1.91118  -0.00012   0.00000  -0.00406  -0.00407   1.90711
    A2        1.91120   0.00006   0.00000   0.00158   0.00162   1.91282
    A3        1.93909  -0.00807   0.00000  -0.01302  -0.01300   1.92608
    A4        1.91002  -0.00491   0.00000  -0.00647  -0.00655   1.90347
    A5        1.89603   0.00717   0.00000   0.00603   0.00599   1.90202
    A6        1.89606   0.00593   0.00000   0.01610   0.01608   1.91214
    A7        2.10312  -0.01383   0.00000   0.00744   0.00724   2.11035
    A8        2.03507  -0.03187   0.00000  -0.01936  -0.01956   2.01552
    A9        2.14499   0.04570   0.00000   0.01192   0.01172   2.15671
   A10        2.09435  -0.04467   0.00000  -0.01905  -0.01970   2.07465
   A11        2.12756   0.08719   0.00000   0.02858   0.02792   2.15548
   A12        2.06128  -0.04252   0.00000  -0.00953  -0.01020   2.05108
   A13        1.91114  -0.01568   0.00000  -0.00751  -0.00757   1.90356
   A14        1.93905   0.04487   0.00000   0.01830   0.01817   1.95722
   A15        1.93900  -0.01550   0.00000  -0.01275  -0.01268   1.92632
   A16        1.89609  -0.01551   0.00000   0.00695   0.00695   1.90305
   A17        1.89608   0.00936   0.00000   0.00894   0.00888   1.90496
   A18        1.88137  -0.00803   0.00000  -0.01364  -0.01349   1.86789
   A19        1.91115   0.00833   0.00000   0.00200   0.00199   1.91314
   A20        1.91106  -0.00549   0.00000  -0.00787  -0.00786   1.90321
   A21        1.91110   0.00365   0.00000   0.01184   0.01184   1.92294
   A22        1.91011  -0.00146   0.00000   0.00394   0.00395   1.91405
   A23        1.91023  -0.00319   0.00000  -0.00727  -0.00729   1.90294
   A24        1.91015  -0.00184   0.00000  -0.00264  -0.00262   1.90754
   A25        2.10317   0.00501   0.00000   0.00219   0.00218   2.10535
   A26        2.03507  -0.00736   0.00000  -0.00645  -0.00646   2.02861
   A27        2.14494   0.00234   0.00000   0.00427   0.00426   2.14920
   A28        2.09441  -0.00264   0.00000  -0.00599  -0.00600   2.08840
   A29        2.12758   0.00474   0.00000   0.00435   0.00433   2.13191
   A30        2.06120  -0.00210   0.00000   0.00164   0.00163   2.06283
   A31        1.91114  -0.00728   0.00000  -0.01117  -0.01115   1.89999
   A32        1.91102   0.00462   0.00000   0.00624   0.00622   1.91724
   A33        1.91114   0.00557   0.00000   0.00996   0.00994   1.92108
   A34        1.91011   0.00035   0.00000   0.00028   0.00029   1.91039
   A35        1.91020   0.00001   0.00000  -0.00203  -0.00201   1.90819
   A36        1.91019  -0.00327   0.00000  -0.00327  -0.00332   1.90686
    D1        0.00004   0.00059   0.00000  -0.07228  -0.07227  -0.07223
    D2        3.14159  -0.00079   0.00000  -0.03609  -0.03614   3.10545
    D3        2.10342   0.00007   0.00000  -0.08147  -0.08147   2.02195
    D4       -1.03822  -0.00131   0.00000  -0.04528  -0.04534  -1.08355
    D5       -2.10339   0.00167   0.00000  -0.07658  -0.07650  -2.17989
    D6        1.03816   0.00029   0.00000  -0.04039  -0.04037   0.99779
    D7        0.00010  -0.00370   0.00000   0.03665   0.03678   0.03688
    D8        3.14153   0.00025   0.00000   0.10648   0.10628  -3.03538
    D9       -3.14154  -0.00512   0.00000   0.07379   0.07399  -3.06755
   D10       -0.00011  -0.00117   0.00000   0.14361   0.14348   0.14337
   D11       -2.61795  -0.00815   0.00000  -0.00181  -0.00174  -2.61968
   D12       -0.52351  -0.00930   0.00000   0.01351   0.01353  -0.50998
   D13        1.57085   0.00019   0.00000   0.00000   0.00000   1.57084
   D14        0.52349  -0.00427   0.00000   0.06674   0.06688   0.59037
   D15        2.61793  -0.00542   0.00000   0.08207   0.08215   2.70008
   D16       -1.57091   0.00406   0.00000   0.06855   0.06862  -1.50229
   D17        1.04724   0.00471   0.00000   0.00363   0.00357   1.05081
   D18        3.14157   0.00467   0.00000   0.00486   0.00480  -3.13682
   D19       -1.04726   0.00128   0.00000   0.00406   0.00398  -1.04329
   D20       -3.13259   0.00304   0.00000   0.01015   0.01022  -3.12237
   D21       -1.03826   0.00300   0.00000   0.01139   0.01145  -1.02681
   D22        1.05609  -0.00039   0.00000   0.01058   0.01063   1.06672
   D23       -1.08102   0.00139   0.00000   0.01701   0.01703  -1.06400
   D24        1.01331   0.00134   0.00000   0.01824   0.01826   1.03156
   D25        3.10766  -0.00204   0.00000   0.01744   0.01743   3.12509
   D26       -0.78542  -0.02099   0.00000  -0.00623  -0.00628  -0.79170
   D27        2.35615  -0.02000   0.00000   0.00000   0.00000   2.35615
   D28       -2.88873   0.00195   0.00000   0.00517   0.00522  -2.88351
   D29        0.25284   0.00295   0.00000   0.01141   0.01150   0.26434
   D30        1.34287   0.01969   0.00000  -0.00040  -0.00033   1.34255
   D31       -1.79874   0.02068   0.00000   0.00584   0.00596  -1.79279
   D32        0.00011  -0.00106   0.00000  -0.00321  -0.00325  -0.00314
   D33        3.14154  -0.00158   0.00000  -0.01312  -0.01314   3.12840
   D34       -3.14150  -0.00004   0.00000   0.00319   0.00321  -3.13830
   D35       -0.00008  -0.00056   0.00000  -0.00673  -0.00668  -0.00676
   D36        0.00013   0.00031   0.00000   0.03502   0.03502   0.03515
   D37        2.09442  -0.00089   0.00000   0.03234   0.03232   2.12674
   D38       -2.09436   0.00135   0.00000   0.03826   0.03829  -2.05607
   D39        3.14155  -0.00020   0.00000   0.02528   0.02527  -3.11636
   D40       -1.04733  -0.00140   0.00000   0.02260   0.02257  -1.02477
   D41        1.04706   0.00084   0.00000   0.02852   0.02854   1.07561
         Item               Value     Threshold  Converged?
 Maximum Force            0.087191     0.000450     NO 
 RMS     Force            0.016078     0.000300     NO 
 Maximum Displacement     0.383049     0.001800     NO 
 RMS     Displacement     0.072245     0.001200     NO 
 Predicted change in Energy=-7.140922D-03
 GradGradGradGradGradGradGradGradGradGradGradGradGradGradGradGradGradGrad

                          Input orientation:                          
 ---------------------------------------------------------------------
 Center     Atomic      Atomic             Coordinates (Angstroms)
 Number     Number       Type             X           Y           Z
 ---------------------------------------------------------------------
      1          1           0        1.061244    2.834483   -1.923144
      2          6           0        1.525565    3.040690   -0.958836
      3          1           0        1.586230    2.114848   -0.382678
      4          1           0        0.920927    3.764049   -0.408556
      5          6           0        2.936622    3.597318   -1.155876
      6          8           0        3.428368    3.685999   -2.276171
      7          7           0        3.590553    3.929833   -0.027737
      8          1           0        3.141111    3.767892    0.862234
      9          6           0        4.881956    4.589441   -0.015984
     10          1           0        5.427987    4.289067    0.881439
     11          6           0        5.717764    4.241758   -1.248009
     12          1           0        5.190324    4.555217   -2.148043
     13          1           0        6.677654    4.759458   -1.185269
     14          1           0        5.890863    3.166040   -1.293746
     15          6           0        4.703784    6.108947   -0.009900
     16          8           0        3.898877    6.647225   -0.764271
     17          7           0        5.475100    6.793703    0.850555
     18          1           0        6.122402    6.296926    1.445762
     19          6           0        5.422917    8.239514    0.951453
     20          1           0        4.661853    8.613375    0.266297
     21          1           0        5.168026    8.530912    1.972192
     22          1           0        6.391072    8.668906    0.685489
 ---------------------------------------------------------------------
                    Distance matrix (angstroms):
                    1          2          3          4          5
     1  H    0.000000
     2  C    1.089956   0.000000
     3  H    1.779472   1.092164   0.000000
     4  H    1.782627   1.091625   1.778528   0.000000
     5  C    2.165100   1.529621   2.149212   2.156226   0.000000
     6  O    2.540273   2.402593   3.073647   3.127513   1.226678
     7  N    3.345111   2.433454   2.727172   2.701742   1.345693
     8  H    3.599366   2.540691   2.588439   2.558152   2.035604
     9  C    4.616815   3.814834   4.137618   4.065112   2.463328
    10  H    5.389800   4.491542   4.591766   4.717342   3.291818
    11  C    4.911152   4.370437   4.726745   4.893111   2.856316
    12  H    4.478930   4.139863   4.696958   4.677554   2.642185
    13  H    5.982813   5.435941   5.793161   5.893558   3.917494
    14  H    4.881730   4.379920   4.523816   5.083448   2.988737
    15  C    5.258394   4.518379   5.080446   4.468498   3.277865
    16  O    4.892050   4.321754   5.102586   4.160218   3.221990
    17  N    6.546064   5.740891   6.207725   5.612900   4.548243
    18  H    6.996668   6.125037   6.435047   6.075303   4.919919
    19  C    7.516772   6.772469   7.349259   6.492097   5.672079
    20  H    7.152177   6.510919   7.218828   6.161648   5.491796
    21  H    8.030480   7.211171   7.716252   6.813867   6.253345
    22  H    8.321811   7.619303   8.196534   7.428125   6.406626
                    6          7          8          9         10
     6  O    0.000000
     7  N    2.267425   0.000000
     8  H    3.152588   1.010085   0.000000
     9  C    2.835061   1.450152   2.115834   0.000000
    10  H    3.785851   2.081300   2.345590   1.092586   0.000000
    11  C    2.570471   2.472122   3.364048   1.528838   2.149595
    12  H    1.968870   2.728749   3.725712   2.154516   3.050424
    13  H    3.591691   3.399757   4.205070   2.149573   2.460533
    14  H    2.701740   2.734517   3.545647   2.162554   2.491360
    15  C    3.554341   2.447067   2.946710   1.529928   2.151957
    16  O    3.357987   2.832272   3.392681   2.400177   3.256908
    17  N    4.860386   3.539020   3.821410   2.441614   2.505270
    18  H    5.284652   3.766244   3.952799   2.567278   2.198221
    19  C    5.927081   4.784321   5.020956   3.814657   3.951071
    20  H    5.680199   4.813492   5.113365   4.039823   4.434524
    21  H    6.674442   5.259094   5.294029   4.423785   4.387547
    22  H    6.509870   5.550713   5.883318   4.405852   4.488755
                   11         12         13         14         15
    11  C    0.000000
    12  H    1.089271   0.000000
    13  H    1.092400   1.783479   0.000000
    14  H    1.090516   1.774934   1.780390   0.000000
    15  C    2.459159   2.687462   2.664353   3.423174   0.000000
    16  O    3.054279   2.821198   3.385632   4.045615   1.227474
    17  N    3.312896   3.752800   3.119114   4.234481   1.343207
    18  H    3.412309   4.100946   3.097489   4.166649   2.041266
    19  C    4.572376   4.820272   4.272088   5.567767   2.445541
    20  H    4.745430   4.751522   4.585103   5.798073   2.519961
    21  H    5.391544   5.725642   5.145134   6.322238   3.163878
    22  H    4.877642   5.137425   4.343460   5.869337   3.143867
                   16         17         18         19         20
    16  O    0.000000
    17  N    2.261326   0.000000
    18  H    3.154523   1.009979   0.000000
    19  C    2.793169   1.450267   2.123032   0.000000
    20  H    2.347328   2.077001   2.981656   1.090151   0.000000
    21  H    3.556296   2.090516   2.485690   1.091691   1.781316
    22  H    3.521368   2.093475   2.505291   1.091989   1.780170
                   21         22
    21  H    0.000000
    22  H    1.780587   0.000000
 Stoichiometry    C6H12N2O2
 Framework group  C1[X(C6H12N2O2)]
 Deg. of freedom    60
 Full point group                 C1      NOp   1
 Largest Abelian subgroup         C1      NOp   1
 Largest concise Abelian subgroup C1      NOp   1
                         Standard orientation:                         
 ---------------------------------------------------------------------
 Center     Atomic      Atomic             Coordinates (Angstroms)
 Number     Number       Type             X           Y           Z
 ---------------------------------------------------------------------
      1          1           0        3.906002   -1.211308   -0.543586
      2          6           0        3.157587   -1.221787    0.248733
      3          1           0        3.636134   -0.978309    1.199802
      4          1           0        2.711785   -2.215814    0.318142
      5          6           0        2.065494   -0.189650   -0.037218
      6          8           0        2.145841    0.561600   -1.003607
      7          7           0        1.061754   -0.145710    0.858028
      8          1           0        1.099344   -0.754567    1.663107
      9          6           0       -0.123447    0.673259    0.692104
     10          1           0       -0.497350    0.963622    1.676802
     11          6           0        0.157122    1.933724   -0.126342
     12          1           0        0.512183    1.654588   -1.117566
     13          1           0       -0.764564    2.513252   -0.215673
     14          1           0        0.917876    2.540343    0.366092
     15          6           0       -1.211337   -0.107978   -0.047384
     16          8           0       -0.939255   -0.763625   -1.048778
     17          7           0       -2.452486   -0.021469    0.458847
     18          1           0       -2.617624    0.536002    1.284689
     19          6           0       -3.582761   -0.696745   -0.149226
     20          1           0       -3.230901   -1.270145   -1.007035
     21          1           0       -4.044681   -1.371226    0.574304
     22          1           0       -4.321712    0.035079   -0.482129
 ---------------------------------------------------------------------
 Rotational constants (GHZ):      2.7531653      0.7337343      0.6825860
 Standard basis: 6-31G(d) (6D, 7F)
 There are   174 symmetry adapted basis functions of A   symmetry.
 Integral buffers will be    131072 words long.
 Raffenetti 2 integral format.
 Two-electron integral symmetry is turned on.
   174 basis functions,   328 primitive gaussians,   174 cartesian basis functions
    39 alpha electrons       39 beta electrons
       nuclear repulsion energy       562.5517056872 Hartrees.
 NAtoms=   22 NActive=   22 NUniq=   22 SFac= 7.50D-01 NAtFMM=   80 NAOKFM=F Big=F
 One-electron integrals computed using PRISM.
 NBasis=   174 RedAO= T  NBF=   174
 NBsUse=   174 1.00D-06 NBFU=   174
 Initial guess read from the read-write file.
 B after Tr=     0.000000    0.000000    0.000000
         Rot=    1.000000    0.000000    0.000000    0.000000 Ang=   0.00 deg.
 Initial guess orbital symmetries:
       Occupied  (A) (A) (A) (A) (A) (A) (A) (A) (A) (A) (A) (A)
                 (A) (A) (A) (A) (A) (A) (A) (A) (A) (A) (A) (A)
                 (A) (A) (A) (A) (A) (A) (A) (A) (A) (A) (A) (A)
                 (A) (A) (A)
       Virtual   (A) (A) (A) (A) (A) (A) (A) (A) (A) (A) (A) (A)
                 (A) (A) (A) (A) (A) (A) (A) (A) (A) (A) (A) (A)
                 (A) (A) (A) (A) (A) (A) (A) (A) (A) (A) (A) (A)
                 (A) (A) (A) (A) (A) (A) (A) (A) (A) (A) (A) (A)
                 (A) (A) (A) (A) (A) (A) (A) (A) (A) (A) (A) (A)
                 (A) (A) (A) (A) (A) (A) (A) (A) (A) (A) (A) (A)
                 (A) (A) (A) (A) (A) (A) (A) (A) (A) (A) (A) (A)
                 (A) (A) (A) (A) (A) (A) (A) (A) (A) (A) (A) (A)
                 (A) (A) (A) (A) (A) (A) (A) (A) (A) (A) (A) (A)
                 (A) (A) (A) (A) (A) (A) (A) (A) (A) (A) (A) (A)
                 (A) (A) (A) (A) (A) (A) (A) (A) (A) (A) (A) (A)
                 (A) (A) (A)
 Harris functional with IExCor=  402 diagonalized for initial guess.
 ExpMin= 1.61D-01 ExpMax= 5.48D+03 ExpMxC= 8.25D+02 IAcc=1 IRadAn=         1 AccDes= 0.00D+00
 HarFok:  IExCor=  402 AccDes= 0.00D+00 IRadAn=         1 IDoV= 1
 ScaDFX=  1.000000  1.000000  1.000000  1.000000
 FoFCou: FMM=F IPFlag=           0 FMFlag=      100000 FMFlg1=           0
         NFxFlg=           0 DoJE=T BraDBF=F KetDBF=T FulRan=T
         Omega=  0.000000  0.000000  1.000000  0.000000  0.000000 ICntrl=     500 IOpCl=  0
         NMat0=    1 NMatS0=    1 NMatT0=    0 NMatD0=    1 NMtDS0=    0 NMtDT0=    0
         I1Cent=           4 NGrid=           0.
 Petite list used in FoFCou.
 Requested convergence on RMS density matrix=1.00D-08 within 128 cycles.
 Requested convergence on MAX density matrix=1.00D-06.
 Requested convergence on             energy=1.00D-06.
 No special actions if energy rises.
 Integral accuracy reduced to 1.0D-05 until final iterations.
 Initial convergence to 1.0D-05 achieved.  Increase integral accuracy.
 SCF Done:  E(RB3LYP) =  -495.828201736     A.U. after   16 cycles
             Convg  =    0.6607D-08             -V/T =  2.0088
 Calling FoFJK, ICntrl=      2127 FMM=F ISym2X=0 I1Cent= 0 IOpClX= 0 NMat=1 NMatS=1 NMatT=0.
 ***** Axes restored to original set *****
 -------------------------------------------------------------------
 Center     Atomic                   Forces (Hartrees/Bohr)
 Number     Number              X              Y              Z
 -------------------------------------------------------------------
      1        1           0.002551606    0.000955596   -0.000748005
      2        6           0.006250952    0.002482949    0.004303305
      3        1          -0.003325449   -0.002821699    0.002510173
      4        1          -0.003839548   -0.000045855    0.002062320
      5        6          -0.014943589   -0.008919766   -0.028256133
      6        8          -0.017339596   -0.003864964   -0.002347532
      7        7           0.010503791   -0.000851184    0.018094190
      8        1          -0.001902693    0.002990586   -0.000501298
      9        6           0.004908572    0.004059915   -0.004491142
     10        1          -0.000693107   -0.004235155    0.004178527
     11        6           0.010989881    0.003359438   -0.002556982
     12        1           0.007279450   -0.000749411    0.003597753
     13        1           0.004420957   -0.000271840    0.002860058
     14        1           0.001420853   -0.001924911   -0.001911750
     15        6          -0.020244306   -0.000910536   -0.011683740
     16        8           0.000599549    0.000235124    0.001579748
     17        7           0.008902275    0.006891203    0.010217874
     18        1          -0.000192918   -0.000270353   -0.000010516
     19        6           0.003437511    0.000059387    0.001489177
     20        1          -0.000156376   -0.002596695   -0.000501308
     21        1          -0.000447085    0.002900028    0.002344679
     22        1           0.001819269    0.003528142   -0.000229398
 -------------------------------------------------------------------
 Cartesian Forces:  Max     0.028256133 RMS     0.006920469

 GradGradGradGradGradGradGradGradGradGradGradGradGradGradGradGradGradGrad
 Berny optimization.
 Using GEDIIS/GDIIS optimizer.
 Internal  Forces:  Max     0.059621896 RMS     0.011155188
 Search for a local minimum.
 Step number   2 out of a maximum of  132
 All quantities printed in internal units (Hartrees-Bohrs-Radians)
 Mixed Optimization -- RFO/linear search
 Update second derivatives using D2CorX and points    1    2
 DE= -6.98D-03 DEPred=-7.14D-03 R= 9.77D-01
 SS=  1.41D+00  RLast= 3.00D-01 DXNew= 5.0454D-01 8.9997D-01
 Trust test= 9.77D-01 RLast= 3.00D-01 DXMaxT set to 5.05D-01
 Use linear search instead of GDIIS.
 Linear search step of   0.525 exceeds DXMaxT=   0.505 but not scaled.
 Quartic linear search produced a step of  1.76752.
 Iteration  1 RMS(Cart)=  0.11804671 RMS(Int)=  0.00776072
 Iteration  2 RMS(Cart)=  0.01498503 RMS(Int)=  0.00061835
 Iteration  3 RMS(Cart)=  0.00016188 RMS(Int)=  0.00060753
 Iteration  4 RMS(Cart)=  0.00000004 RMS(Int)=  0.00060753
 Iteration  1 RMS(Cart)=  0.00012652 RMS(Int)=  0.00005746
 Iteration  2 RMS(Cart)=  0.00008547 RMS(Int)=  0.00006350
 Iteration  3 RMS(Cart)=  0.00005774 RMS(Int)=  0.00007304
 Iteration  4 RMS(Cart)=  0.00003899 RMS(Int)=  0.00008105
 Iteration  5 RMS(Cart)=  0.00002631 RMS(Int)=  0.00008693
 Iteration  6 RMS(Cart)=  0.00001774 RMS(Int)=  0.00009107
 Iteration  7 RMS(Cart)=  0.00001195 RMS(Int)=  0.00009391
 Iteration  8 RMS(Cart)=  0.00000804 RMS(Int)=  0.00009585
 Iteration  9 RMS(Cart)=  0.00000541 RMS(Int)=  0.00009716
 Iteration 10 RMS(Cart)=  0.00000364 RMS(Int)=  0.00009805
 Iteration 11 RMS(Cart)=  0.00000245 RMS(Int)=  0.00009865
 Iteration 12 RMS(Cart)=  0.00000165 RMS(Int)=  0.00009905
 Iteration 13 RMS(Cart)=  0.00000111 RMS(Int)=  0.00009932
 Iteration 14 RMS(Cart)=  0.00000074 RMS(Int)=  0.00009950
 Variable       Old X    -DE/DX   Delta X   Delta X   Delta X     New X
                                 (Linear)    (Quad)   (Total)
    R1        2.05972  -0.00060  -0.00006   0.00000  -0.00006   2.05966
    R2        2.06389   0.00353   0.00709   0.00000   0.00709   2.07098
    R3        2.06287   0.00314   0.00544   0.00000   0.00544   2.06831
    R4        2.89056  -0.00067  -0.00134   0.00000  -0.00134   2.88922
    R5        2.31809  -0.00508  -0.00766   0.00000  -0.00766   2.31042
    R6        2.54299   0.03677   0.03562   0.00000   0.03562   2.57861
    R7        1.90878  -0.00007   0.00039   0.00000   0.00039   1.90917
    R8        2.74039   0.02425   0.00392   0.00000   0.00392   2.74431
    R9        2.06469   0.00425   0.00874   0.00000   0.00874   2.07342
   R10        2.88908   0.01148   0.01273   0.00000   0.01273   2.90181
   R11        2.89114   0.01051   0.02645   0.00000   0.02645   2.91760
   R12        2.05842  -0.00672  -0.00229   0.00000  -0.00229   2.05613
   R13        2.06434   0.00392   0.00794   0.00000   0.00794   2.07228
   R14        2.06078   0.00221   0.00197   0.00000   0.00197   2.06275
   R15        2.31959  -0.00126  -0.00523   0.00000  -0.00523   2.31436
   R16        2.53829   0.02156   0.02739   0.00000   0.02739   2.56568
   R17        1.90858   0.00000  -0.00009   0.00000  -0.00009   1.90850
   R18        2.74061   0.00393   0.00417   0.00000   0.00417   2.74478
   R19        2.06009  -0.00047   0.00069   0.00000   0.00069   2.06077
   R20        2.06300   0.00307   0.00563   0.00000   0.00563   2.06862
   R21        2.06356   0.00306   0.00656   0.00000   0.00656   2.07012
    A1        1.90711  -0.00018  -0.00719   0.00000  -0.00721   1.89990
    A2        1.91282   0.00002   0.00286   0.00000   0.00307   1.91589
    A3        1.92608  -0.00577  -0.02298   0.00000  -0.02288   1.90320
    A4        1.90347  -0.00362  -0.01157   0.00000  -0.01194   1.89153
    A5        1.90202   0.00526   0.01059   0.00000   0.01039   1.91241
    A6        1.91214   0.00431   0.02842   0.00000   0.02835   1.94049
    A7        2.11035  -0.00891   0.01279   0.00000   0.01180   2.12215
    A8        2.01552  -0.02145  -0.03457   0.00000  -0.03559   1.97993
    A9        2.15671   0.03038   0.02071   0.00000   0.01967   2.17638
   A10        2.07465  -0.03049  -0.03482   0.00000  -0.03775   2.03690
   A11        2.15548   0.05962   0.04935   0.00000   0.04632   2.20180
   A12        2.05108  -0.02922  -0.01803   0.00000  -0.02122   2.02986
   A13        1.90356  -0.01092  -0.01339   0.00000  -0.01367   1.88989
   A14        1.95722   0.03049   0.03212   0.00000   0.03144   1.98866
   A15        1.92632  -0.01071  -0.02242   0.00000  -0.02208   1.90424
   A16        1.90305  -0.01068   0.01229   0.00000   0.01230   1.91535
   A17        1.90496   0.00571   0.01570   0.00000   0.01544   1.92040
   A18        1.86789  -0.00407  -0.02384   0.00000  -0.02312   1.84476
   A19        1.91314   0.00591   0.00352   0.00000   0.00348   1.91662
   A20        1.90321  -0.00364  -0.01389   0.00000  -0.01382   1.88939
   A21        1.92294   0.00252   0.02092   0.00000   0.02094   1.94388
   A22        1.91405  -0.00111   0.00698   0.00000   0.00699   1.92105
   A23        1.90294  -0.00237  -0.01289   0.00000  -0.01298   1.88996
   A24        1.90754  -0.00132  -0.00462   0.00000  -0.00450   1.90304
   A25        2.10535   0.00379   0.00386   0.00000   0.00383   2.10918
   A26        2.02861  -0.00541  -0.01142   0.00000  -0.01145   2.01717
   A27        2.14920   0.00161   0.00753   0.00000   0.00750   2.15669
   A28        2.08840  -0.00196  -0.01061   0.00000  -0.01068   2.07773
   A29        2.13191   0.00335   0.00766   0.00000   0.00760   2.13951
   A30        2.06283  -0.00140   0.00287   0.00000   0.00281   2.06563
   A31        1.89999  -0.00526  -0.01970   0.00000  -0.01961   1.88038
   A32        1.91724   0.00335   0.01099   0.00000   0.01089   1.92813
   A33        1.92108   0.00403   0.01757   0.00000   0.01750   1.93858
   A34        1.91039   0.00023   0.00051   0.00000   0.00057   1.91096
   A35        1.90819   0.00000  -0.00355   0.00000  -0.00343   1.90476
   A36        1.90686  -0.00237  -0.00588   0.00000  -0.00612   1.90074
    D1       -0.07223   0.00065  -0.12774   0.00000  -0.12768  -0.19991
    D2        3.10545  -0.00074  -0.06387   0.00000  -0.06411   3.04134
    D3        2.02195   0.00020  -0.14400   0.00000  -0.14399   1.87796
    D4       -1.08355  -0.00119  -0.08013   0.00000  -0.08042  -1.16397
    D5       -2.17989   0.00152  -0.13522   0.00000  -0.13483  -2.31473
    D6        0.99779   0.00012  -0.07135   0.00000  -0.07127   0.92652
    D7        0.03688  -0.00239   0.06502   0.00000   0.06563   0.10251
    D8       -3.03538   0.00051   0.18785   0.00000   0.18690  -2.84848
    D9       -3.06755  -0.00288   0.13078   0.00000   0.13173  -2.93582
   D10        0.14337   0.00002   0.25361   0.00000   0.25300   0.39637
   D11       -2.61968  -0.00507  -0.00307   0.00000  -0.00264  -2.62233
   D12       -0.50998  -0.00623   0.02392   0.00000   0.02404  -0.48593
   D13        1.57084   0.00132   0.00000   0.00000   0.00000   1.57084
   D14        0.59037  -0.00209   0.11822   0.00000   0.11882   0.70919
   D15        2.70008  -0.00326   0.14520   0.00000   0.14551   2.84559
   D16       -1.50229   0.00429   0.12128   0.00000   0.12147  -1.38082
   D17        1.05081   0.00338   0.00631   0.00000   0.00602   1.05683
   D18       -3.13682   0.00337   0.00849   0.00000   0.00820  -3.12862
   D19       -1.04329   0.00102   0.00703   0.00000   0.00666  -1.03663
   D20       -3.12237   0.00206   0.01806   0.00000   0.01837  -3.10400
   D21       -1.02681   0.00205   0.02024   0.00000   0.02055  -1.00626
   D22        1.06672  -0.00030   0.01878   0.00000   0.01901   1.08573
   D23       -1.06400   0.00091   0.03009   0.00000   0.03015  -1.03384
   D24        1.03156   0.00090   0.03227   0.00000   0.03233   1.06390
   D25        3.12509  -0.00146   0.03081   0.00000   0.03079  -3.12730
   D26       -0.79170  -0.01469  -0.01111   0.00000  -0.01133  -0.80303
   D27        2.35615  -0.01393   0.00000   0.00000   0.00000   2.35615
   D28       -2.88351   0.00174   0.00922   0.00000   0.00942  -2.87409
   D29        0.26434   0.00250   0.02033   0.00000   0.02076   0.28509
   D30        1.34255   0.01361  -0.00058   0.00000  -0.00025   1.34230
   D31       -1.79279   0.01437   0.01053   0.00000   0.01108  -1.78170
   D32       -0.00314  -0.00085  -0.00574   0.00000  -0.00595  -0.00908
   D33        3.12840  -0.00130  -0.02322   0.00000  -0.02331   3.10509
   D34       -3.13830  -0.00008   0.00567   0.00000   0.00575  -3.13255
   D35       -0.00676  -0.00053  -0.01182   0.00000  -0.01161  -0.01837
   D36        0.03515   0.00026   0.06190   0.00000   0.06192   0.09707
   D37        2.12674  -0.00066   0.05713   0.00000   0.05704   2.18379
   D38       -2.05607   0.00108   0.06769   0.00000   0.06787  -1.98819
   D39       -3.11636  -0.00019   0.04466   0.00000   0.04460  -3.07177
   D40       -1.02477  -0.00111   0.03989   0.00000   0.03972  -0.98504
   D41        1.07561   0.00063   0.05045   0.00000   0.05055   1.12616
         Item               Value     Threshold  Converged?
 Maximum Force            0.059635     0.000450     NO 
 RMS     Force            0.011043     0.000300     NO 
 Maximum Displacement     0.686938     0.001800     NO 
 RMS     Displacement     0.125320     0.001200     NO 
 Predicted change in Energy=-7.089966D-03
 GradGradGradGradGradGradGradGradGradGradGradGradGradGradGradGradGradGrad

                          Input orientation:                          
 ---------------------------------------------------------------------
 Center     Atomic      Atomic             Coordinates (Angstroms)
 Number     Number       Type             X           Y           Z
 ---------------------------------------------------------------------
      1          1           0        0.982872    2.977007   -1.856279
      2          6           0        1.490760    3.159834   -0.909412
      3          1           0        1.427691    2.255701   -0.293295
      4          1           0        0.995393    3.976656   -0.375226
      5          6           0        2.957789    3.490017   -1.185772
      6          8           0        3.454934    3.322487   -2.290121
      7          7           0        3.651217    3.857092   -0.069352
      8          1           0        3.163513    3.784357    0.812431
      9          6           0        4.930072    4.544680   -0.042588
     10          1           0        5.465334    4.240767    0.865707
     11          6           0        5.806706    4.278309   -1.274879
     12          1           0        5.292471    4.614356   -2.172936
     13          1           0        6.747755    4.827784   -1.152230
     14          1           0        6.027033    3.214803   -1.384028
     15          6           0        4.684111    6.068804   -0.026497
     16          8           0        3.873817    6.582207   -0.787912
     17          7           0        5.433379    6.774095    0.859230
     18          1           0        6.087406    6.281092    1.450130
     19          6           0        5.357657    8.220302    0.970742
     20          1           0        4.555970    8.562532    0.315459
     21          1           0        5.136849    8.513774    2.001963
     22          1           0        6.298470    8.688945    0.662066
 ---------------------------------------------------------------------
                    Distance matrix (angstroms):
                    1          2          3          4          5
     1  H    0.000000
     2  C    1.089924   0.000000
     3  H    1.777939   1.095917   0.000000
     4  H    1.786889   1.094505   1.776311   0.000000
     5  C    2.147803   1.528911   2.158993   2.178256   0.000000
     6  O    2.533509   2.406407   3.038925   3.184981   1.222623
     7  N    3.329823   2.420629   2.749304   2.676052   1.364543
     8  H    3.539636   2.480498   2.563688   2.479566   2.030214
     9  C    4.618167   3.807630   4.191534   3.989360   2.511789
    10  H    5.394326   4.485164   4.646109   4.646508   3.325653
    11  C    5.029989   4.473471   4.922421   4.903988   2.957308
    12  H    4.621020   4.262057   4.902329   4.701414   2.772971
    13  H    6.095485   5.520599   5.971304   5.866671   4.019277
    14  H    5.071798   4.561366   4.823228   5.188015   3.087930
    15  C    5.158147   4.408983   5.021474   4.255036   3.312740
    16  O    4.743041   4.172093   4.994680   3.904424   3.249467
    17  N    6.449719   5.633402   6.147336   5.389366   4.593010
    18  H    6.921386   6.036459   6.399707   5.879706   4.953037
    19  C    7.390733   6.640497   7.253888   6.232937   5.725863
    20  H    6.977218   6.331269   7.066317   5.846795   5.526146
    21  H    7.924478   7.101742   7.628207   6.586966   6.336252
    22  H    8.199017   7.493643   8.125505   7.169677   6.450078
[...]
    13  H    6.195201   5.599332   5.968983   6.019106   4.109629
    14  H    4.976506   4.567877   4.901073   5.249462   3.120140
    15  C    5.356203   4.446488   4.771522   4.419731   3.354840
    16  O    5.080634   4.223617   4.742750   3.941340   3.310287
    17  N    6.631780   5.673687   5.849923   5.633811   4.636450
    18  H    7.021114   6.076453   6.138061   6.189548   4.984081
    19  C    7.685810   6.718027   6.947096   6.483262   5.789271
    20  H    7.347157   6.405797   6.736860   6.015386   5.595928
    21  H    8.278619   7.255213   7.345377   6.995954   6.460047
    22  H    8.432198   7.518599   7.818493   7.327218   6.457188
                    6          7          8          9         10
     6  O    0.000000
     7  N    2.304680   0.000000
     8  H    3.148502   1.011968   0.000000
     9  C    2.975761   1.460235   2.082491   0.000000
    10  H    3.892994   2.051494   2.337733   1.100098   0.000000
    11  C    2.853814   2.526290   3.415231   1.535549   2.142510
    12  H    2.407760   2.868554   3.818033   2.179555   3.060333
    13  H    3.922909   3.437359   4.209041   2.153176   2.415992
    14  H    2.861929   2.753397   3.664006   2.174013   2.508227
    15  C    3.766840   2.461147   2.736568   1.547619   2.161795
    16  O    3.625181   2.854403   3.110176   2.428685   3.262233
    17  N    5.085011   3.558444   3.641522   2.453681   2.499395
    18  H    5.443419   3.772595   3.861481   2.547019   2.183141
    19  C    6.191074   4.835532   4.836289   3.834787   3.949874
    20  H    5.973151   4.839587   4.829507   4.056011   4.412039
    21  H    7.003141   5.401674   5.219388   4.501992   4.413359
    22  H    6.693201   5.553579   5.695071   4.384537   4.503114
                   11         12         13         14         15
    11  C    0.000000
    12  H    1.088491   0.000000
    13  H    1.096426   1.785280   0.000000
    14  H    1.093145   1.768099   1.778776   0.000000
    15  C    2.529625   2.760452   2.775193   3.485421   0.000000
    16  O    3.204636   3.019049   3.601113   4.164580   1.222808
    17  N    3.329670   3.763856   3.145490   4.264316   1.368144
    18  H    3.317585   3.995254   2.954219   4.105283   2.052492
    19  C    4.588004   4.829033   4.297110   5.594540   2.473437
    20  H    4.835932   4.863322   4.727349   5.881709   2.526179
    21  H    5.424389   5.779184   5.131448   6.364032   3.254625
    22  H    4.814243   5.005340   4.308584   5.837337   3.125738
                   16         17         18         19         20
    16  O    0.000000
    17  N    2.283197   0.000000
    18  H    3.164201   1.010214   0.000000
    19  C    2.833208   1.453053   2.126742   0.000000
    20  H    2.378361   2.060036   2.969272   1.090897   0.000000
    21  H    3.670491   2.105954   2.499066   1.095439   1.783802
    22  H    3.485290   2.120822   2.548676   1.097350   1.779909
                   21         22
    21  H    0.000000
    22  H    1.783631   0.000000
 Stoichiometry    C6H12N2O2
 Framework group  C1[X(C6H12N2O2)]
 Deg. of freedom    60
 Full point group                 C1      NOp   1
 Largest Abelian subgroup         C1      NOp   1
 Largest concise Abelian subgroup C1      NOp   1
                         Standard orientation:                         
 ---------------------------------------------------------------------
 Center     Atomic      Atomic             Coordinates (Angstroms)
 Number     Number       Type             X           Y           Z
 ---------------------------------------------------------------------
      1          1           0        4.059431   -1.123865   -0.082560
      2          6           0        3.058556   -1.345072    0.291873
      3          1           0        3.111546   -1.572123    1.362443
      4          1           0        2.684838   -2.234543   -0.229591
      5          6           0        2.147903   -0.162483   -0.022788
      6          8           0        2.383450    0.604440   -0.942364
      7          7           0        1.074691   -0.049701    0.838310
      8          1           0        0.946580   -0.838796    1.458791
      9          6           0       -0.142184    0.729121    0.626325
     10          1           0       -0.513288    0.978895    1.631368
     11          6           0        0.056745    2.046985   -0.136284
     12          1           0        0.343870    1.863630   -1.170089
     13          1           0       -0.882490    2.612063   -0.110318
     14          1           0        0.839137    2.647141    0.335565
     15          6           0       -1.206382   -0.144008   -0.080960
     16          8           0       -0.926886   -0.871033   -1.023604
     17          7           0       -2.462748   -0.048843    0.452243
     18          1           0       -2.621608    0.614109    1.197756
     19          6           0       -3.614686   -0.704438   -0.143237
     20          1           0       -3.238339   -1.413086   -0.882316
     21          1           0       -4.188630   -1.244233    0.617812
     22          1           0       -4.276891    0.012732   -0.644562
 ---------------------------------------------------------------------
 Rotational constants (GHZ):      2.5808534      0.7229455      0.6540835

 **********************************************************************

            Population analysis using the SCF density.

 **********************************************************************

 Orbital symmetries:
       Occupied  (A) (A) (A) (A) (A) (A) (A) (A) (A) (A) (A) (A)
                 (A) (A) (A) (A) (A) (A) (A) (A) (A) (A) (A) (A)
                 (A) (A) (A) (A) (A) (A) (A) (A) (A) (A) (A) (A)
                 (A) (A) (A)
       Virtual   (A) (A) (A) (A) (A) (A) (A) (A) (A) (A) (A) (A)
                 (A) (A) (A) (A) (A) (A) (A) (A) (A) (A) (A) (A)
                 (A) (A) (A) (A) (A) (A) (A) (A) (A) (A) (A) (A)
                 (A) (A) (A) (A) (A) (A) (A) (A) (A) (A) (A) (A)
                 (A) (A) (A) (A) (A) (A) (A) (A) (A) (A) (A) (A)
                 (A) (A) (A) (A) (A) (A) (A) (A) (A) (A) (A) (A)
                 (A) (A) (A) (A) (A) (A) (A) (A) (A) (A) (A) (A)
                 (A) (A) (A) (A) (A) (A) (A) (A) (A) (A) (A) (A)
                 (A) (A) (A) (A) (A) (A) (A) (A) (A) (A) (A) (A)
                 (A) (A) (A) (A) (A) (A) (A) (A) (A) (A) (A) (A)
                 (A) (A) (A) (A) (A) (A) (A) (A) (A) (A) (A) (A)
                 (A) (A) (A)
 The electronic state is 1-A.
 Alpha  occ. eigenvalues --  -19.11270 -19.10076 -14.36899 -14.35551 -10.28517
 Alpha  occ. eigenvalues --  -10.28101 -10.24116 -10.22246 -10.18360 -10.17830
 Alpha  occ. eigenvalues --   -1.03403  -1.01930  -0.92476  -0.91750  -0.77901
 Alpha  occ. eigenvalues --   -0.72336  -0.70919  -0.64453  -0.59115  -0.56173
 Alpha  occ. eigenvalues --   -0.53006  -0.50046  -0.47018  -0.45765  -0.44866
 Alpha  occ. eigenvalues --   -0.43547  -0.41966  -0.40510  -0.40247  -0.39340
 Alpha  occ. eigenvalues --   -0.38807  -0.37490  -0.36768  -0.35556  -0.34736
 Alpha  occ. eigenvalues --   -0.26751  -0.25624  -0.24048  -0.23266
 Alpha virt. eigenvalues --    0.01788   0.04263   0.05676   0.08579   0.11689
 Alpha virt. eigenvalues --    0.13569   0.14480   0.15090   0.15690   0.15979
 Alpha virt. eigenvalues --    0.16586   0.17363   0.18368   0.19072   0.19707
 Alpha virt. eigenvalues --    0.20404   0.22296   0.25203   0.28077   0.32716
 Alpha virt. eigenvalues --    0.34918   0.39466   0.40164   0.50214   0.51178
 Alpha virt. eigenvalues --    0.51774   0.53684   0.54360   0.56006   0.56712
 Alpha virt. eigenvalues --    0.57979   0.59479   0.60733   0.62693   0.64597
 Alpha virt. eigenvalues --    0.68255   0.69455   0.71510   0.71950   0.73741
 Alpha virt. eigenvalues --    0.74616   0.77870   0.78212   0.79290   0.82843
 Alpha virt. eigenvalues --    0.85380   0.86111   0.86648   0.87605   0.88632
 Alpha virt. eigenvalues --    0.89212   0.90034   0.90657   0.91598   0.93030
 Alpha virt. eigenvalues --    0.94503   0.94866   0.96142   0.98974   0.99858
 Alpha virt. eigenvalues --    1.05873   1.06080   1.09380   1.15193   1.16085
 Alpha virt. eigenvalues --    1.19683   1.22683   1.23746   1.30906   1.33987
 Alpha virt. eigenvalues --    1.38366   1.40892   1.43229   1.46335   1.50180
 Alpha virt. eigenvalues --    1.51239   1.54502   1.63179   1.65072   1.68295
 Alpha virt. eigenvalues --    1.70250   1.75363   1.78914   1.79533   1.80111
 Alpha virt. eigenvalues --    1.82490   1.85483   1.85708   1.88725   1.92116
 Alpha virt. eigenvalues --    1.93877   1.94655   1.97375   1.99247   2.02470
 Alpha virt. eigenvalues --    2.03418   2.06126   2.11213   2.14150   2.15556
 Alpha virt. eigenvalues --    2.20211   2.23176   2.23647   2.28705   2.30141
 Alpha virt. eigenvalues --    2.30794   2.32755   2.35543   2.38369   2.40805
 Alpha virt. eigenvalues --    2.41281   2.45812   2.51676   2.56582   2.61213
 Alpha virt. eigenvalues --    2.66622   2.68159   2.71420   2.76903   2.85713
 Alpha virt. eigenvalues --    2.92299   2.98022   3.01433   3.12511   3.15091
 Alpha virt. eigenvalues --    3.90648   3.97997   4.08222   4.15980   4.20566
 Alpha virt. eigenvalues --    4.23396   4.27245   4.39066   4.49966   4.63744
          Condensed to atoms (all electrons):
              1          2          3          4          5          6
     1  H    0.514384   0.357240  -0.024433  -0.020611  -0.019852   0.004382
     2  C    0.357240   5.345530   0.343030   0.358305   0.344386  -0.078145
     3  H   -0.024433   0.343030   0.576751  -0.027328  -0.026565   0.002389
     4  H   -0.020611   0.358305  -0.027328   0.521903  -0.019479  -0.000064
     5  C   -0.019852   0.344386  -0.026565  -0.019479   4.302891   0.594416
     6  O    0.004382  -0.078145   0.002389  -0.000064   0.594416   8.051880
     7  N    0.004281  -0.128266   0.006931   0.000275   0.254026  -0.087114
     8  H   -0.000031   0.002206   0.000643   0.000226  -0.018004   0.003563
     9  C   -0.000165   0.005282   0.000401  -0.000373  -0.027839  -0.001206
    10  H    0.000006  -0.000260  -0.000007  -0.000003   0.003031  -0.000049
    11  C    0.000010   0.000220  -0.000036   0.000003  -0.003088  -0.000492
    12  H    0.000002   0.000137  -0.000003  -0.000009   0.002903   0.008470
    13  H    0.000000   0.000012   0.000000   0.000000   0.000524   0.000802
    14  H   -0.000002  -0.000031   0.000000   0.000001   0.000461  -0.000343
    15  C   -0.000002  -0.000174   0.000002   0.000122  -0.000239  -0.001336
    16  O    0.000001  -0.000217   0.000002   0.000216   0.008792  -0.000688
    17  N    0.000000   0.000002   0.000000   0.000000   0.000163  -0.000008
    18  H    0.000000   0.000000   0.000000   0.000000  -0.000022   0.000000
    19  C    0.000000   0.000000   0.000000   0.000000  -0.000001   0.000000
    20  H    0.000000   0.000000   0.000000   0.000000  -0.000003   0.000000
    21  H    0.000000   0.000000   0.000000   0.000000   0.000000   0.000000
    22  H    0.000000   0.000000   0.000000   0.000000   0.000000   0.000000
              7          8          9         10         11         12
     1  H    0.004281  -0.000031  -0.000165   0.000006   0.000010   0.000002
     2  C   -0.128266   0.002206   0.005282  -0.000260   0.000220   0.000137
     3  H    0.006931   0.000643   0.000401  -0.000007  -0.000036  -0.000003
     4  H    0.000275   0.000226  -0.000373  -0.000003   0.000003  -0.000009
     5  C    0.254026  -0.018004  -0.027839   0.003031  -0.003088   0.002903
     6  O   -0.087114   0.003563  -0.001206  -0.000049  -0.000492   0.008470
     7  N    7.107606   0.297732   0.267980  -0.048207  -0.039530  -0.004886
     8  H    0.297732   0.428815  -0.038644  -0.002600   0.005029  -0.000101
     9  C    0.267980  -0.038644   5.076382   0.359592   0.362770  -0.029430
    10  H   -0.048207  -0.002600   0.359592   0.645499  -0.036788   0.005049
    11  C   -0.039530   0.005029   0.362770  -0.036788   5.095512   0.376298
    12  H   -0.004886  -0.000101  -0.029430   0.005049   0.376298   0.482354
    13  H    0.003867  -0.000114  -0.031547  -0.004532   0.346160  -0.025090
    14  H   -0.001903  -0.000088  -0.025960  -0.004582   0.373541  -0.024225
    15  C   -0.049035   0.000159   0.305117  -0.055217  -0.037428  -0.004504
    16  O   -0.004973   0.000629  -0.081050   0.003111  -0.002661   0.003567
    17  N    0.001624   0.000430  -0.106638   0.006577  -0.002153   0.000327
    18  H    0.000266  -0.000008   0.001832   0.003993  -0.000111  -0.000027
    19  C   -0.000138  -0.000013   0.005926  -0.000124  -0.000187   0.000003
    20  H   -0.000007  -0.000001   0.001111  -0.000074  -0.000024  -0.000010
    21  H    0.000007  -0.000001  -0.000116  -0.000012  -0.000007   0.000000
    22  H   -0.000002   0.000000  -0.000167  -0.000008   0.000066   0.000000
             13         14         15         16         17         18
     1  H    0.000000  -0.000002  -0.000002   0.000001   0.000000   0.000000
     2  C    0.000012  -0.000031  -0.000174  -0.000217   0.000002   0.000000
     3  H    0.000000   0.000000   0.000002   0.000002   0.000000   0.000000
     4  H    0.000000   0.000001   0.000122   0.000216   0.000000   0.000000
     5  C    0.000524   0.000461  -0.000239   0.008792   0.000163  -0.000022
     6  O    0.000802  -0.000343  -0.001336  -0.000688  -0.000008   0.000000
     7  N    0.003867  -0.001903  -0.049035  -0.004973   0.001624   0.000266
     8  H   -0.000114  -0.000088   0.000159   0.000629   0.000430  -0.000008
     9  C   -0.031547  -0.025960   0.305117  -0.081050  -0.106638   0.001832
    10  H   -0.004532  -0.004582  -0.055217   0.003111   0.006577   0.003993
    11  C    0.346160   0.373541  -0.037428  -0.002661  -0.002153  -0.000111
    12  H   -0.025090  -0.024225  -0.004504   0.003567   0.000327  -0.000027
    13  H    0.611476  -0.030386  -0.002482  -0.000138   0.002575   0.000369
    14  H   -0.030386   0.544072   0.004157  -0.000032  -0.000100  -0.000043
    15  C   -0.002482   0.004157   4.443152   0.601994   0.244308  -0.020196
    16  O   -0.000138  -0.000032   0.601994   8.057280  -0.097055   0.003363
    17  N    0.002575  -0.000100   0.244308  -0.097055   7.095040   0.302386
    18  H    0.000369  -0.000043  -0.020196   0.003363   0.302386   0.414615
    19  C   -0.000135   0.000006  -0.024067  -0.007773   0.265767  -0.033359
    20  H    0.000001   0.000000  -0.000630   0.021036  -0.040974   0.004230
    21  H    0.000003   0.000000   0.001768   0.000410  -0.039338  -0.000849
    22  H   -0.000018  -0.000001   0.000925   0.000532  -0.043178  -0.000939
             19         20         21         22
     1  H    0.000000   0.000000   0.000000   0.000000
     2  C    0.000000   0.000000   0.000000   0.000000
     3  H    0.000000   0.000000   0.000000   0.000000
     4  H    0.000000   0.000000   0.000000   0.000000
     5  C   -0.000001  -0.000003   0.000000   0.000000
     6  O    0.000000   0.000000   0.000000   0.000000
     7  N   -0.000138  -0.000007   0.000007  -0.000002
     8  H   -0.000013  -0.000001  -0.000001   0.000000
     9  C    0.005926   0.001111  -0.000116  -0.000167
    10  H   -0.000124  -0.000074  -0.000012  -0.000008
    11  C   -0.000187  -0.000024  -0.000007   0.000066
    12  H    0.000003  -0.000010   0.000000   0.000000
    13  H   -0.000135   0.000001   0.000003  -0.000018
    14  H    0.000006   0.000000   0.000000  -0.000001
    15  C   -0.024067  -0.000630   0.001768   0.000925
    16  O   -0.007773   0.021036   0.000410   0.000532
    17  N    0.265767  -0.040974  -0.039338  -0.043178
    18  H   -0.033359   0.004230  -0.000849  -0.000939
    19  C    4.966829   0.376289   0.378720   0.383263
    20  H    0.376289   0.481879  -0.023124  -0.026250
    21  H    0.378720  -0.023124   0.566514  -0.040157
    22  H    0.383263  -0.026250  -0.040157   0.565434
 Mulliken atomic charges:
              1
     1  H    0.184788
     2  C   -0.549258
     3  H    0.148223
     4  H    0.186815
     5  C    0.603498
     6  O   -0.496456
     7  N   -0.580537
     8  H    0.320174
     9  C   -0.043259
    10  H    0.125602
    11  C   -0.437105
    12  H    0.209174
    13  H    0.128653
    14  H    0.165456
    15  C    0.593609
    16  O   -0.506344
    17  N   -0.589756
    18  H    0.324500
    19  C   -0.311008
    20  H    0.206551
    21  H    0.156182
    22  H    0.160499
 Sum of Mulliken atomic charges =   0.00000
 Mulliken charges with hydrogens summed into heavy atoms:
              1
     2  C   -0.029431
     5  C    0.603498
     6  O   -0.496456
     7  N   -0.260364
     9  C    0.082342
    11  C    0.066178
    15  C    0.593609
    16  O   -0.506344
    17  N   -0.265255
    19  C    0.212223
 Sum of Mulliken charges with hydrogens summed into heavy atoms =   0.00000
 Electronic spatial extent (au):  <R**2>=           1851.9148
 Charge=              0.0000 electrons
 Dipole moment (field-independent basis, Debye):
    X=             -3.3066    Y=             -0.2542    Z=              4.5552  Tot=              5.6345
 Quadrupole moment (field-independent basis, Debye-Ang):
   XX=            -53.2628   YY=            -58.5402   ZZ=            -61.3456
   XY=             -6.5747   XZ=              1.4835   YZ=             -0.7341
 Traceless Quadrupole moment (field-independent basis, Debye-Ang):
   XX=              4.4534   YY=             -0.8240   ZZ=             -3.6295
   XY=             -6.5747   XZ=              1.4835   YZ=             -0.7341
 Octapole moment (field-independent basis, Debye-Ang**2):
  XXX=            -37.5588  YYY=             -1.7328  ZZZ=              4.0572  XYY=              0.4432
  XXY=            -14.4267  XXZ=             13.2608  XZZ=             -6.2284  YZZ=             -0.7726
  YYZ=              1.9858  XYZ=              0.4365
 Hexadecapole moment (field-independent basis, Debye-Ang**3):
 XXXX=          -1607.1391 YYYY=           -443.9829 ZZZZ=           -206.0203 XXXY=            -14.7587
 XXXZ=              7.7976 YYYX=              6.2494 YYYZ=              2.6824 ZZZX=             -6.4494
 ZZZY=             -3.9921 XXYY=           -354.5922 XXZZ=           -327.9574 YYZZ=           -107.3130
 XXYZ=             14.2771 YYXZ=             -2.1584 ZZXY=             -8.4603
 N-N= 5.545203040746D+02 E-N=-2.265311705821D+03  KE= 4.912205989508D+02
 1\1\GINC-NODE006\FOpt\RB3LYP\6-31G(d)\C6H12N2O2\STEBOSS\11-Feb-2017\0\
 \# b3lyp/6-31G* Opt=(ModRedundant, maxcycles=1000, calcfc) geom=nocrow
 d\\Phi Psi fixed scan\\0,1\H,1.1122890552,2.4187759134,-1.6692605928\C
 ,1.4791715063,3.0923368338,-0.8929895338\H,1.3827274458,2.608398772,0.
 085265344\H,0.8525339264,3.9923772119,-0.8939952832\C,2.915420161,3.48
 36592935,-1.2259670924\O,3.3414804267,3.4560811784,-2.3692010068\N,3.6
 60047968,3.8385939212,-0.1189238289\H,3.1255236873,3.9409230583,0.7342
 41853\C,4.9209948721,4.5749362324,-0.1090127702\H,5.4398646527,4.26216
 62262,0.8092277198\C,5.8530815276,4.2794140619,-1.2929858512\H,5.43038
 47661,4.6450208166,-2.2270477162\H,6.8175940435,4.7676505089,-1.109982
 1278\H,6.0186190481,3.2032032929,-1.3896002774\C,4.6398804818,6.093862
 3838,-0.0143445735\O,3.7687151956,6.6351654545,-0.6801683341\N,5.42520
 28399,6.7603339224,0.8861560211\H,6.1572843581,6.2494229282,1.35897548
 52\C,5.3871366914,8.205214027,1.0352699401\H,4.5056626406,8.5631714802
 ,0.5014848097\H,5.3091783973,8.4829530717,2.0920434974\H,6.2784063085,
 8.6819394109,0.6080143181\\Version=EM64L-G09RevA.02\State=1-A\HF=-495.
 8388324\RMSD=7.661e-09\RMSF=4.904e-04\Dipole=0.7877188,0.1514301,2.066
 5726\Quadrupole=4.4046482,-1.1465759,-3.2580724,4.329903,0.3535972,-0.
 4236386\PG=C01 [X(C6H12N2O2)]\\@


 MODELS ARE TO BE USED, NOT BELIEVED.

    -- PARAPHRASED BY H. THIEL IN "PRINCIPLES OF ECONOMETRICS"
 Job cpu time:  0 days  1 hours 20 minutes 41.1 seconds.
 File lengths (MBytes):  RWF=    186 Int=      0 D2E=      0 Chk=      4 Scr=      2
 Normal termination of Gaussian 09 at Sat Feb 11 03:09:41 2017.
