 Entering Gaussian System, Link 0=g09
 Initial command:
 /home/steboss/Software/g09/l1.exe /home/steboss/projects/phi_psi_scan/alanine/90/4688/Gau-11755.inp -scrdir=/home/steboss/projects/phi_psi_scan/alanine/90/4688/
 Entering Link 1 = /home/steboss/Software/g09/l1.exe PID=     11757.
  
 Copyright (c) 1988,1990,1992,1993,1995,1998,2003,2009, Gaussian, Inc.
                  All Rights Reserved.
  
 This is part of the Gaussian(R) 09 program.  It is based on
 the Gaussian(R) 03 system (copyright 2003, Gaussian, Inc.),
 the Gaussian(R) 98 system (copyright 1998, Gaussian, Inc.),
 the Gaussian(R) 94 system (copyright 1995, Gaussian, Inc.),
 the Gaussian 92(TM) system (copyright 1992, Gaussian, Inc.),
 the Gaussian 90(TM) system (copyright 1990, Gaussian, Inc.),
 the Gaussian 88(TM) system (copyright 1988, Gaussian, Inc.),
 the Gaussian 86(TM) system (copyright 1986, Carnegie Mellon
 University), and the Gaussian 82(TM) system (copyright 1983,
 Carnegie Mellon University). Gaussian is a federally registered
 trademark of Gaussian, Inc.
  
 This software contains proprietary and confidential information,
 including trade secrets, belonging to Gaussian, Inc.
  
 This software is provided under written license and may be
 used, copied, transmitted, or stored only in accord with that
 written license.
  
 The following legend is applicable only to US Government
 contracts under FAR:
  
                    RESTRICTED RIGHTS LEGEND
  
 Use, reproduction and disclosure by the US Government is
 subject to restrictions as set forth in subparagraphs (a)
 and (c) of the Commercial Computer Software - Restricted
 Rights clause in FAR 52.227-19.
  
 Gaussian, Inc.
 340 Quinnipiac St., Bldg. 40, Wallingford CT 06492
  
  
 ---------------------------------------------------------------
 Warning -- This program may not be used in any manner that
 competes with the business of Gaussian, Inc. or will provide
 assistance to any competitor of Gaussian, Inc.  The licensee
 of this program is prohibited from giving any competitor of
 Gaussian, Inc. access to this program.  By using this program,
 the user acknowledges that Gaussian, Inc. is engaged in the
 business of creating and licensing software in the field of
 computational chemistry and represents and warrants to the
 licensee that it is not a competitor of Gaussian, Inc. and that
 it will not use this program in any manner prohibited above.
 ---------------------------------------------------------------
  

 Cite this work as:
 Gaussian 09, Revision A.02,
 M. J. Frisch, G. W. Trucks, H. B. Schlegel, G. E. Scuseria, 
 M. A. Robb, J. R. Cheeseman, G. Scalmani, V. Barone, B. Mennucci, 
 G. A. Petersson, H. Nakatsuji, M. Caricato, X. Li, H. P. Hratchian, 
 A. F. Izmaylov, J. Bloino, G. Zheng, J. L. Sonnenberg, M. Hada, 
 M. Ehara, K. Toyota, R. Fukuda, J. Hasegawa, M. Ishida, T. Nakajima, 
 Y. Honda, O. Kitao, H. Nakai, T. Vreven, J. A. Montgomery, Jr., 
 J. E. Peralta, F. Ogliaro, M. Bearpark, J. J. Heyd, E. Brothers, 
 K. N. Kudin, V. N. Staroverov, R. Kobayashi, J. Normand, 
 K. Raghavachari, A. Rendell, J. C. Burant, S. S. Iyengar, J. Tomasi, 
 M. Cossi, N. Rega, J. M. Millam, M. Klene, J. E. Knox, J. B. Cross, 
 V. Bakken, C. Adamo, J. Jaramillo, R. Gomperts, R. E. Stratmann, 
 O. Yazyev, A. J. Austin, R. Cammi, C. Pomelli, J. W. Ochterski, 
 R. L. Martin, K. Morokuma, V. G. Zakrzewski, G. A. Voth, 
 P. Salvador, J. J. Dannenberg, S. Dapprich, A. D. Daniels, 
 O. Farkas, J. B. Foresman, J. V. Ortiz, J. Cioslowski, 
 and D. J. Fox, Gaussian, Inc., Wallingford CT, 2009.
 
 ******************************************
 Gaussian 09:  EM64L-G09RevA.02 11-Jun-2009
                11-Feb-2017 
 ******************************************
 %chk=structure_210.chk
 %NProcShared=8
 Will use up to    8 processors via shared memory.
 ----------------------------------------------------------------------
 # b3lyp/6-31G* Opt=(ModRedundant, maxcycles=1000, calcfc) geom=nocrowd
 ----------------------------------------------------------------------
 1/6=1000,10=4,14=-1,18=120,19=15,26=3,38=1/1,3;
 2/9=110,12=1,17=6,18=5,40=1/2;
 3/5=1,6=6,7=1,11=2,16=1,25=1,30=1,71=2,74=-5/1,2,3;
 4//1;
 5/5=2,38=5/2;
 8/6=4,10=90,11=11/1;
 11/6=1,8=1,9=11,15=111,16=1/1,2,10;
 10/6=1,7=6,13=1/2;
 6/7=2,8=2,9=2,10=2,28=1/1;
 7/10=1,18=20,25=1/1,2,3,16;
 1/6=1000,10=4,14=-1,18=20,19=15/3(2);
 2/9=110,12=1/2;
 99//99;
 2/9=110,12=1/2;
 3/5=1,6=6,7=1,11=2,16=1,25=1,30=1,71=1,74=-5/1,2,3;
 4/5=5,16=3/1;
 5/5=2,38=5/2;
 7//1,2,3,16;
 1/6=1000,14=-1,18=20,19=15/3(-5);
 2/9=110,12=1/2;
 6/7=2,8=2,9=2,10=2,19=2,28=1/1;
 99/9=1/99;
 ------------------
 Phi Psi fixed scan
 ------------------
 Symbolic Z-matrix:
 Charge =  0 Multiplicity = 1
 H                     1.1248    2.7631   -1.9684 
 C                     1.5589    2.9786   -0.9921 
 H                     1.6873    2.0489   -0.4377 
 H                     0.896     3.6429   -0.4377 
 C                     2.9235    3.656    -1.1334 
 O                     3.3922    3.8887   -2.2454 
 N                     3.5554    3.9697    0. 
 H                     3.1293    3.7581    0.8909 
 C                     4.8533    4.6139    0. 
 H                     5.4076    4.3155    0.8898 
 C                     5.6613    4.2208   -1.2322 
 H                     5.1233    4.5214   -2.1312 
 H                     6.6305    4.7189   -1.2058 
 H                     5.8085    3.1409   -1.2414 
 C                     4.7127    6.1294    0. 
 O                     3.7419    6.6658    0.5295 
 N                     5.6868    6.8201   -0.5968 
 H                     6.4653    6.334    -1.0185 
 C                     5.669     8.2675   -0.6638 
 H                     4.7735    8.6435   -0.169 
 H                     6.553     8.6657   -0.1657 
 H                     5.667     8.5835   -1.7069 
 
 The following ModRedundant input section has been read:
 D    5    7    9   15 F                                                       
 D    7    9   15   17 F                                                       

 GradGradGradGradGradGradGradGradGradGradGradGradGradGradGradGradGradGrad
 Berny optimization.
 Initialization pass.
                           ----------------------------
                           !    Initial Parameters    !
                           ! (Angstroms and Degrees)  !
 --------------------------                            --------------------------
 ! Name  Definition              Value          Derivative Info.                !
 --------------------------------------------------------------------------------
 ! R1    R(1,2)                  1.09           calculate D2E/DX2 analytically  !
 ! R2    R(2,3)                  1.09           calculate D2E/DX2 analytically  !
 ! R3    R(2,4)                  1.09           calculate D2E/DX2 analytically  !
 ! R4    R(2,5)                  1.53           calculate D2E/DX2 analytically  !
 ! R5    R(5,6)                  1.229          calculate D2E/DX2 analytically  !
 ! R6    R(5,7)                  1.335          calculate D2E/DX2 analytically  !
 ! R7    R(7,8)                  1.01           calculate D2E/DX2 analytically  !
 ! R8    R(7,9)                  1.449          calculate D2E/DX2 analytically  !
 ! R9    R(9,10)                 1.09           calculate D2E/DX2 analytically  !
 ! R10   R(9,11)                 1.525          calculate D2E/DX2 analytically  !
 ! R11   R(9,15)                 1.522          calculate D2E/DX2 analytically  !
 ! R12   R(11,12)                1.09           calculate D2E/DX2 analytically  !
 ! R13   R(11,13)                1.09           calculate D2E/DX2 analytically  !
 ! R14   R(11,14)                1.0899         calculate D2E/DX2 analytically  !
 ! R15   R(15,16)                1.229          calculate D2E/DX2 analytically  !
 ! R16   R(15,17)                1.335          calculate D2E/DX2 analytically  !
 ! R17   R(17,18)                1.01           calculate D2E/DX2 analytically  !
 ! R18   R(17,19)                1.4491         calculate D2E/DX2 analytically  !
 ! R19   R(19,20)                1.09           calculate D2E/DX2 analytically  !
 ! R20   R(19,21)                1.09           calculate D2E/DX2 analytically  !
 ! R21   R(19,22)                1.0899         calculate D2E/DX2 analytically  !
 ! A1    A(1,2,3)              109.5024         calculate D2E/DX2 analytically  !
 ! A2    A(1,2,4)              109.5034         calculate D2E/DX2 analytically  !
 ! A3    A(1,2,5)              111.1015         calculate D2E/DX2 analytically  !
 ! A4    A(3,2,4)              109.4359         calculate D2E/DX2 analytically  !
 ! A5    A(3,2,5)              108.6343         calculate D2E/DX2 analytically  !
 ! A6    A(4,2,5)              108.6362         calculate D2E/DX2 analytically  !
 ! A7    A(2,5,6)              120.4997         calculate D2E/DX2 analytically  !
 ! A8    A(2,5,7)              116.6012         calculate D2E/DX2 analytically  !
 ! A9    A(6,5,7)              122.8991         calculate D2E/DX2 analytically  !
 ! A10   A(5,7,8)              119.9973         calculate D2E/DX2 analytically  !
 ! A11   A(5,7,9)              121.9001         calculate D2E/DX2 analytically  !
 ! A12   A(8,7,9)              118.1026         calculate D2E/DX2 analytically  !
 ! A13   A(7,9,10)             109.5            calculate D2E/DX2 analytically  !
 ! A14   A(7,9,11)             111.0992         calculate D2E/DX2 analytically  !
 ! A15   A(7,9,15)             111.0966         calculate D2E/DX2 analytically  !
 ! A16   A(10,9,11)            108.6382         calculate D2E/DX2 analytically  !
 ! A17   A(10,9,15)            108.6373         calculate D2E/DX2 analytically  !
 ! A18   A(11,9,15)            107.7947         calculate D2E/DX2 analytically  !
 ! A19   A(9,11,12)            109.5007         calculate D2E/DX2 analytically  !
 ! A20   A(9,11,13)            109.4959         calculate D2E/DX2 analytically  !
 ! A21   A(9,11,14)            109.4978         calculate D2E/DX2 analytically  !
 ! A22   A(12,11,13)           109.441          calculate D2E/DX2 analytically  !
 ! A23   A(12,11,14)           109.4482         calculate D2E/DX2 analytically  !
 ! A24   A(13,11,14)           109.4436         calculate D2E/DX2 analytically  !
 ! A25   A(9,15,16)            120.5            calculate D2E/DX2 analytically  !
 ! A26   A(9,15,17)            116.6011         calculate D2E/DX2 analytically  !
 ! A27   A(16,15,17)           122.8989         calculate D2E/DX2 analytically  !
 ! A28   A(15,17,18)           120.0038         calculate D2E/DX2 analytically  !
 ! A29   A(15,17,19)           121.9048         calculate D2E/DX2 analytically  !
 ! A30   A(18,17,19)           118.0914         calculate D2E/DX2 analytically  !
 ! A31   A(17,19,20)           109.491          calculate D2E/DX2 analytically  !
 ! A32   A(17,19,21)           109.5001         calculate D2E/DX2 analytically  !
 ! A33   A(17,19,22)           109.504          calculate D2E/DX2 analytically  !
 ! A34   A(20,19,21)           109.4404         calculate D2E/DX2 analytically  !
 ! A35   A(20,19,22)           109.4463         calculate D2E/DX2 analytically  !
 ! A36   A(21,19,22)           109.4456         calculate D2E/DX2 analytically  !
 ! D1    D(1,2,5,6)              0.002          calculate D2E/DX2 analytically  !
 ! D2    D(1,2,5,7)            179.9996         calculate D2E/DX2 analytically  !
 ! D3    D(3,2,5,6)            120.5171         calculate D2E/DX2 analytically  !
 ! D4    D(3,2,5,7)            -59.4853         calculate D2E/DX2 analytically  !
 ! D5    D(4,2,5,6)           -120.5155         calculate D2E/DX2 analytically  !
 ! D6    D(4,2,5,7)             59.482          calculate D2E/DX2 analytically  !
 ! D7    D(2,5,7,8)              0.0055         calculate D2E/DX2 analytically  !
 ! D8    D(2,5,7,9)            179.9962         calculate D2E/DX2 analytically  !
 ! D9    D(6,5,7,8)           -179.997          calculate D2E/DX2 analytically  !
 ! D10   D(6,5,7,9)             -0.0063         calculate D2E/DX2 analytically  !
 ! D11   D(5,7,9,10)          -149.9973         calculate D2E/DX2 analytically  !
 ! D12   D(5,7,9,11)           -29.9947         calculate D2E/DX2 analytically  !
 ! D13   D(5,7,9,15)            90.0028         frozen, calculate D2E/DX2 analyt!
 ! D14   D(8,7,9,10)            29.9935         calculate D2E/DX2 analytically  !
 ! D15   D(8,7,9,11)           149.9961         calculate D2E/DX2 analytically  !
 ! D16   D(8,7,9,15)           -90.0063         calculate D2E/DX2 analytically  !
 ! D17   D(7,9,11,12)           60.0024         calculate D2E/DX2 analytically  !
 ! D18   D(7,9,11,13)          179.9986         calculate D2E/DX2 analytically  !
 ! D19   D(7,9,11,14)          -60.0038         calculate D2E/DX2 analytically  !
 ! D20   D(10,9,11,12)        -179.4843         calculate D2E/DX2 analytically  !
 ! D21   D(10,9,11,13)         -59.4881         calculate D2E/DX2 analytically  !
 ! D22   D(10,9,11,14)          60.5095         calculate D2E/DX2 analytically  !
 ! D23   D(15,9,11,12)         -61.938          calculate D2E/DX2 analytically  !
 ! D24   D(15,9,11,13)          58.0582         calculate D2E/DX2 analytically  !
 ! D25   D(15,9,11,14)         178.0558         calculate D2E/DX2 analytically  !
 ! D26   D(7,9,15,16)           30.0006         calculate D2E/DX2 analytically  !
 ! D27   D(7,9,15,17)         -150.0013         frozen, calculate D2E/DX2 analyt!
 ! D28   D(10,9,15,16)         -90.5105         calculate D2E/DX2 analytically  !
 ! D29   D(10,9,15,17)          89.4877         calculate D2E/DX2 analytically  !
 ! D30   D(11,9,15,16)         151.9427         calculate D2E/DX2 analytically  !
 ! D31   D(11,9,15,17)         -28.0592         calculate D2E/DX2 analytically  !
 ! D32   D(9,15,17,18)           0.0058         calculate D2E/DX2 analytically  !
 ! D33   D(9,15,17,19)         179.9984         calculate D2E/DX2 analytically  !
 ! D34   D(16,15,17,18)       -179.9962         calculate D2E/DX2 analytically  !
 ! D35   D(16,15,17,19)         -0.0036         calculate D2E/DX2 analytically  !
 ! D36   D(15,17,19,20)          0.0048         calculate D2E/DX2 analytically  !
 ! D37   D(15,17,19,21)        119.9969         calculate D2E/DX2 analytically  !
 ! D38   D(15,17,19,22)       -119.9968         calculate D2E/DX2 analytically  !
 ! D39   D(18,17,19,20)        179.9976         calculate D2E/DX2 analytically  !
 ! D40   D(18,17,19,21)        -60.0103         calculate D2E/DX2 analytically  !
 ! D41   D(18,17,19,22)         59.996          calculate D2E/DX2 analytically  !
 --------------------------------------------------------------------------------
 Trust Radius=3.00D-01 FncErr=1.00D-07 GrdErr=1.00D-06
 Number of steps in this run= 132 maximum allowed number of steps= 132.
 GradGradGradGradGradGradGradGradGradGradGradGradGradGradGradGradGradGrad

                          Input orientation:                          
 ---------------------------------------------------------------------
 Center     Atomic      Atomic             Coordinates (Angstroms)
 Number     Number       Type             X           Y           Z
 ---------------------------------------------------------------------
      1          1           0        1.124800    2.763100   -1.968400
      2          6           0        1.558900    2.978600   -0.992100
      3          1           0        1.687300    2.048900   -0.437700
      4          1           0        0.896000    3.642900   -0.437700
      5          6           0        2.923500    3.656000   -1.133400
      6          8           0        3.392200    3.888700   -2.245400
      7          7           0        3.555400    3.969700    0.000000
      8          1           0        3.129300    3.758100    0.890900
      9          6           0        4.853300    4.613900    0.000000
     10          1           0        5.407600    4.315500    0.889800
     11          6           0        5.661300    4.220800   -1.232200
     12          1           0        5.123300    4.521400   -2.131200
     13          1           0        6.630500    4.718900   -1.205800
     14          1           0        5.808500    3.140900   -1.241400
     15          6           0        4.712700    6.129400    0.000000
     16          8           0        3.741900    6.665800    0.529500
     17          7           0        5.686800    6.820100   -0.596800
     18          1           0        6.465300    6.334000   -1.018500
     19          6           0        5.669000    8.267500   -0.663800
     20          1           0        4.773500    8.643500   -0.169000
     21          1           0        6.553000    8.665700   -0.165700
     22          1           0        5.667000    8.583500   -1.706900
 ---------------------------------------------------------------------
                    Distance matrix (angstroms):
                    1          2          3          4          5
     1  H    0.000000
     2  C    1.089975   0.000000
     3  H    1.780317   1.090040   0.000000
     4  H    1.780292   1.089996   1.779604   0.000000
     5  C    2.174814   1.530023   2.143586   2.143578   0.000000
     6  O    2.546528   2.400007   3.091816   3.091797   1.228972
     7  N    3.352357   2.439786   2.714931   2.714919   1.335028
     8  H    3.630928   2.572832   2.601136   2.601169   2.037294
     9  C    4.604538   3.809402   4.098093   4.098127   2.434398
    10  H    5.377883   4.487911   4.554159   4.750703   3.270937
    11  C    4.821484   4.293064   4.597940   4.865520   2.797197
    12  H    4.371055   4.047558   4.559309   4.637863   2.565861
    13  H    5.892321   5.366138   5.670459   5.884917   3.857052
    14  H    4.754819   4.259999   4.338512   5.003058   2.932613
    15  C    5.299019   4.567084   5.098540   4.576184   3.256308
    16  O    5.321634   4.547109   5.145155   4.262927   3.534673
    17  N    6.257186   5.652693   6.227814   5.750798   4.235008
    18  H    6.494196   5.944087   6.444276   6.212604   4.441760
    19  C    7.256043   6.706204   7.387560   6.649780   5.387414
    20  H    7.150521   6.565230   7.285985   6.333499   5.406267
    21  H    8.219232   7.613611   8.217729   7.569951   6.261534
    22  H    7.387626   6.985866   7.755635   6.984471   5.668858
                    6          7          8          9         10
     6  O    0.000000
     7  N    2.252780   0.000000
     8  H    3.150008   1.009970   0.000000
     9  C    2.775347   1.448978   2.120913   0.000000
    10  H    3.751463   2.083739   2.345495   1.089970   0.000000
    11  C    2.507126   2.452791   3.336565   1.525027   2.139209
    12  H    1.846634   2.702720   3.700237   2.150225   3.041326
    13  H    3.500941   3.386959   4.192575   2.150214   2.459625
    14  H    2.721346   2.702673   3.479332   2.150165   2.466256
    15  C    3.436026   2.450234   2.987293   1.522008   2.136554
    16  O    3.941401   2.753926   2.993427   2.392880   2.903150
    17  N    4.071385   3.608852   4.257922   2.432737   2.925911
    18  H    4.114452   3.885199   4.627090   2.568001   2.972319
    19  C    5.182583   4.835186   5.403874   3.801946   4.254446
    20  H    5.369129   4.832881   5.262501   4.033932   4.500525
    21  H    6.093893   5.573641   6.076402   4.396990   4.620634
    22  H    5.244601   5.353458   6.039286   4.396969   5.002596
                   11         12         13         14         15
    11  C    0.000000
    12  H    1.089957   0.000000
    13  H    1.090023   1.779613   0.000000
    14  H    1.089925   1.779613   1.779617   0.000000
    15  C    2.461892   2.701161   2.668599   3.416575   0.000000
    16  O    3.572913   3.685925   3.891747   4.453296   1.229043
    17  N    2.675957   2.820627   2.382539   3.737223   1.334956
    18  H    2.271057   2.514873   1.634295   3.267562   2.037354
    19  C    4.086431   4.060088   3.716290   5.160921   2.434463
    20  H    4.634529   4.578679   4.463842   5.700866   2.520507
    21  H    4.657219   4.804420   4.082284   5.677572   3.137990
    22  H    4.388453   4.120230   4.014295   5.464303   3.137962
                   16         17         18         19         20
    16  O    0.000000
    17  N    2.252775   0.000000
    18  H    3.150127   1.010043   0.000000
    19  C    2.775450   1.449059   2.120926   0.000000
    20  H    2.337391   2.083727   2.986240   1.090011   0.000000
    21  H    3.519259   2.083840   2.484308   1.090010   1.779642
    22  H    3.519243   2.083817   2.484236   1.089916   1.779629
                   21         22
    21  H    0.000000
    22  H    1.779621   0.000000
 Stoichiometry    C6H12N2O2
 Framework group  C1[X(C6H12N2O2)]
 Deg. of freedom    60
 Full point group                 C1      NOp   1
 Largest Abelian subgroup         C1      NOp   1
 Largest concise Abelian subgroup C1      NOp   1
                         Standard orientation:                         
 ---------------------------------------------------------------------
 Center     Atomic      Atomic             Coordinates (Angstroms)
 Number     Number       Type             X           Y           Z
 ---------------------------------------------------------------------
      1          1           0       -3.866383   -0.535368    1.243781
      2          6           0       -3.308291   -0.802889    0.346557
      3          1           0       -3.903389   -0.567552   -0.535861
      4          1           0       -3.086646   -1.870021    0.360519
      5          6           0       -1.989823   -0.030671    0.267247
      6          8           0       -1.681334    0.768935    1.148064
      7          7           0       -1.216498   -0.275497   -0.793097
      8          1           0       -1.513286   -0.942090   -1.491388
      9          6           0        0.055701    0.391484   -0.983319
     10          1           0        0.260163    0.487816   -2.049598
     11          6           0        0.043896    1.783961   -0.361566
     12          1           0       -0.150559    1.703285    0.707866
     13          1           0        1.011152    2.261074   -0.519458
     14          1           0       -0.737161    2.384098   -0.828173
     15          6           0        1.188484   -0.395573   -0.340005
     16          8           0        1.124921   -1.619657   -0.249866
     17          7           0        2.228345    0.311466    0.108204
     18          1           0        2.234868    1.316843    0.011454
     19          6           0        3.368966   -0.320629    0.740037
     20          1           0        3.215986   -1.399404    0.771082
     21          1           0        4.270578   -0.098349    0.169239
     22          1           0        3.479447    0.059563    1.755500
 ---------------------------------------------------------------------
 Rotational constants (GHZ):      2.5877636      0.7823542      0.7162635
 Standard basis: 6-31G(d) (6D, 7F)
 There are   174 symmetry adapted basis functions of A   symmetry.
 Integral buffers will be    131072 words long.
 Raffenetti 2 integral format.
 Two-electron integral symmetry is turned on.
   174 basis functions,   328 primitive gaussians,   174 cartesian basis functions
    39 alpha electrons       39 beta electrons
       nuclear repulsion energy       567.3864456928 Hartrees.
 NAtoms=   22 NActive=   22 NUniq=   22 SFac= 7.50D-01 NAtFMM=   80 NAOKFM=F Big=F
 One-electron integrals computed using PRISM.
 NBasis=   174 RedAO= T  NBF=   174
 NBsUse=   174 1.00D-06 NBFU=   174
 Harris functional with IExCor=  402 diagonalized for initial guess.
 ExpMin= 1.61D-01 ExpMax= 5.48D+03 ExpMxC= 8.25D+02 IAcc=1 IRadAn=         1 AccDes= 0.00D+00
 HarFok:  IExCor=  402 AccDes= 0.00D+00 IRadAn=         1 IDoV= 1
 ScaDFX=  1.000000  1.000000  1.000000  1.000000
 FoFCou: FMM=F IPFlag=           0 FMFlag=      100000 FMFlg1=           0
         NFxFlg=           0 DoJE=T BraDBF=F KetDBF=T FulRan=T
         Omega=  0.000000  0.000000  1.000000  0.000000  0.000000 ICntrl=     500 IOpCl=  0
         NMat0=    1 NMatS0=    1 NMatT0=    0 NMatD0=    1 NMtDS0=    0 NMtDT0=    0
         I1Cent=           4 NGrid=           0.
 Petite list used in FoFCou.
 Initial guess orbital symmetries:
       Occupied  (A) (A) (A) (A) (A) (A) (A) (A) (A) (A) (A) (A)
                 (A) (A) (A) (A) (A) (A) (A) (A) (A) (A) (A) (A)
                 (A) (A) (A) (A) (A) (A) (A) (A) (A) (A) (A) (A)
                 (A) (A) (A)
       Virtual   (A) (A) (A) (A) (A) (A) (A) (A) (A) (A) (A) (A)
                 (A) (A) (A) (A) (A) (A) (A) (A) (A) (A) (A) (A)
                 (A) (A) (A) (A) (A) (A) (A) (A) (A) (A) (A) (A)
                 (A) (A) (A) (A) (A) (A) (A) (A) (A) (A) (A) (A)
                 (A) (A) (A) (A) (A) (A) (A) (A) (A) (A) (A) (A)
                 (A) (A) (A) (A) (A) (A) (A) (A) (A) (A) (A) (A)
                 (A) (A) (A) (A) (A) (A) (A) (A) (A) (A) (A) (A)
                 (A) (A) (A) (A) (A) (A) (A) (A) (A) (A) (A) (A)
                 (A) (A) (A) (A) (A) (A) (A) (A) (A) (A) (A) (A)
                 (A) (A) (A) (A) (A) (A) (A) (A) (A) (A) (A) (A)
                 (A) (A) (A) (A) (A) (A) (A) (A) (A) (A) (A) (A)
                 (A) (A) (A)
 The electronic state of the initial guess is 1-A.
 Requested convergence on RMS density matrix=1.00D-08 within 128 cycles.
 Requested convergence on MAX density matrix=1.00D-06.
 Requested convergence on             energy=1.00D-06.
 No special actions if energy rises.
 Integral accuracy reduced to 1.0D-05 until final iterations.
 Initial convergence to 1.0D-05 achieved.  Increase integral accuracy.
 SCF Done:  E(RB3LYP) =  -495.818773084     A.U. after   15 cycles
             Convg  =    0.8422D-08             -V/T =  2.0085
 Range of M.O.s used for correlation:     1   174
 NBasis=   174 NAE=    39 NBE=    39 NFC=     0 NFV=     0
 NROrb=    174 NOA=    39 NOB=    39 NVA=   135 NVB=   135
 Symmetrizing basis deriv contribution to polar:
 IMax=3 JMax=2 DiffMx= 0.00D+00
 G2DrvN: will do    23 centers at a time, making    1 passes doing MaxLOS=2.
 Calling FoFCou, ICntrl=  3107 FMM=F I1Cent=   0 AccDes= 0.00D+00.
 FoFDir/FoFCou used for L=0 through L=2.
 End of G2Drv Frequency-dependent properties file   721 does not exist.
 End of G2Drv Frequency-dependent properties file   722 does not exist.
          IDoAtm=1111111111111111111111
          Differentiating once with respect to nuclear coordinates.
          There are    69 degrees of freedom in the 1st order CPHF.  IDoFFX=5.
     63 vectors produced by pass  0 Test12= 7.63D-11 1.45D-07 XBig12= 1.85D-01 9.67D-02.
 AX will form    63 AO Fock derivatives at one time.
     63 vectors produced by pass  1 Test12= 7.63D-11 1.45D-07 XBig12= 3.40D-02 6.16D-02.
     63 vectors produced by pass  2 Test12= 7.63D-11 1.45D-07 XBig12= 3.20D-05 1.06D-03.
     63 vectors produced by pass  3 Test12= 7.63D-11 1.45D-07 XBig12= 1.16D-07 4.49D-05.
     30 vectors produced by pass  4 Test12= 7.63D-11 1.45D-07 XBig12= 1.55D-10 1.18D-06.
 Inverted reduced A of dimension   282 with in-core refinement.
 End of Minotr Frequency-dependent properties file   721 does not exist.
 End of Minotr Frequency-dependent properties file   722 does not exist.

 **********************************************************************

            Population analysis using the SCF density.

 **********************************************************************

 Orbital symmetries:
       Occupied  (A) (A) (A) (A) (A) (A) (A) (A) (A) (A) (A) (A)
                 (A) (A) (A) (A) (A) (A) (A) (A) (A) (A) (A) (A)
                 (A) (A) (A) (A) (A) (A) (A) (A) (A) (A) (A) (A)
                 (A) (A) (A)
       Virtual   (A) (A) (A) (A) (A) (A) (A) (A) (A) (A) (A) (A)
                 (A) (A) (A) (A) (A) (A) (A) (A) (A) (A) (A) (A)
                 (A) (A) (A) (A) (A) (A) (A) (A) (A) (A) (A) (A)
                 (A) (A) (A) (A) (A) (A) (A) (A) (A) (A) (A) (A)
                 (A) (A) (A) (A) (A) (A) (A) (A) (A) (A) (A) (A)
                 (A) (A) (A) (A) (A) (A) (A) (A) (A) (A) (A) (A)
                 (A) (A) (A) (A) (A) (A) (A) (A) (A) (A) (A) (A)
                 (A) (A) (A) (A) (A) (A) (A) (A) (A) (A) (A) (A)
                 (A) (A) (A) (A) (A) (A) (A) (A) (A) (A) (A) (A)
                 (A) (A) (A) (A) (A) (A) (A) (A) (A) (A) (A) (A)
                 (A) (A) (A) (A) (A) (A) (A) (A) (A) (A) (A) (A)
                 (A) (A) (A)
 The electronic state is 1-A.
 Alpha  occ. eigenvalues --  -19.09835 -19.09711 -14.36154 -14.35825 -10.28209
 Alpha  occ. eigenvalues --  -10.27287 -10.23494 -10.21330 -10.18567 -10.16851
 Alpha  occ. eigenvalues --   -1.03282  -1.02081  -0.92587  -0.92156  -0.78740
 Alpha  occ. eigenvalues --   -0.72824  -0.69936  -0.65294  -0.59638  -0.57216
 Alpha  occ. eigenvalues --   -0.53862  -0.51312  -0.46101  -0.45624  -0.44754
 Alpha  occ. eigenvalues --   -0.44157  -0.41952  -0.41162  -0.39833  -0.39267
 Alpha  occ. eigenvalues --   -0.38368  -0.37497  -0.37200  -0.35202  -0.34874
 Alpha  occ. eigenvalues --   -0.25927  -0.24619  -0.23605  -0.22791
 Alpha virt. eigenvalues --    0.03284   0.03794   0.06997   0.08803   0.12087
 Alpha virt. eigenvalues --    0.12852   0.13346   0.16243   0.16633   0.16892
 Alpha virt. eigenvalues --    0.17116   0.18006   0.18733   0.19306   0.20851
 Alpha virt. eigenvalues --    0.22882   0.25360   0.25584   0.29976   0.33324
 Alpha virt. eigenvalues --    0.36654   0.40699   0.42965   0.49399   0.51288
 Alpha virt. eigenvalues --    0.52243   0.54230   0.55019   0.56121   0.56533
 Alpha virt. eigenvalues --    0.57785   0.60069   0.60386   0.65326   0.66448
 Alpha virt. eigenvalues --    0.67346   0.70892   0.71266   0.72156   0.74319
 Alpha virt. eigenvalues --    0.75883   0.77072   0.79388   0.81186   0.83861
 Alpha virt. eigenvalues --    0.85651   0.86701   0.87218   0.88030   0.89157
 Alpha virt. eigenvalues --    0.90254   0.90399   0.91248   0.92615   0.95276
 Alpha virt. eigenvalues --    0.95473   0.96679   0.99077   1.01638   1.04317
 Alpha virt. eigenvalues --    1.05219   1.07849   1.09288   1.11433   1.17372
 Alpha virt. eigenvalues --    1.24165   1.27674   1.31021   1.32423   1.36121
 Alpha virt. eigenvalues --    1.39502   1.40148   1.41931   1.47172   1.50334
 Alpha virt. eigenvalues --    1.52419   1.57188   1.61573   1.66535   1.68932
 Alpha virt. eigenvalues --    1.74256   1.77872   1.80475   1.82305   1.83401
 Alpha virt. eigenvalues --    1.84319   1.86017   1.87674   1.90347   1.91130
 Alpha virt. eigenvalues --    1.94632   1.96120   1.99300   2.02156   2.04839
 Alpha virt. eigenvalues --    2.06664   2.08844   2.10237   2.15145   2.16943
 Alpha virt. eigenvalues --    2.19397   2.23500   2.27096   2.28944   2.29863
 Alpha virt. eigenvalues --    2.31501   2.31909   2.36296   2.41960   2.42916
 Alpha virt. eigenvalues --    2.45810   2.48058   2.54352   2.60108   2.63513
 Alpha virt. eigenvalues --    2.66430   2.69425   2.72105   2.75212   2.89390
 Alpha virt. eigenvalues --    2.94008   2.99213   3.03707   3.16275   3.20607
 Alpha virt. eigenvalues --    3.93980   4.05147   4.06908   4.16319   4.21966
 Alpha virt. eigenvalues --    4.26021   4.30525   4.37252   4.50715   4.67464
          Condensed to atoms (all electrons):
              1          2          3          4          5          6
     1  H    0.501982   0.360224  -0.021489  -0.020584  -0.017819   0.005100
     2  C    0.360224   5.329727   0.349557   0.352244   0.355297  -0.075071
     3  H   -0.021489   0.349557   0.559176  -0.026548  -0.027705   0.001263
     4  H   -0.020584   0.352244  -0.026548   0.538308  -0.024276   0.001141
     5  C   -0.017819   0.355297  -0.027705  -0.024276   4.332352   0.576544
     6  O    0.005100  -0.075071   0.001263   0.001141   0.576544   8.135431
     7  N    0.004544  -0.134381   0.004953   0.004241   0.253564  -0.099907
     8  H   -0.000136  -0.000100   0.000713   0.000889  -0.018826   0.003772
     9  C   -0.000130   0.005455   0.000138  -0.000260  -0.039470  -0.002389
    10  H    0.000002  -0.000215   0.000013  -0.000004   0.004000   0.000148
    11  C    0.000015  -0.000510  -0.000042   0.000030  -0.003561  -0.046719
    12  H    0.000007   0.000743  -0.000009  -0.000033  -0.001487   0.022150
    13  H   -0.000001   0.000028  -0.000002   0.000000   0.001114   0.003310
    14  H    0.000003  -0.000128   0.000014   0.000000   0.000993  -0.002284
    15  C    0.000001  -0.000172   0.000008   0.000027   0.002107   0.000672
    16  O    0.000000  -0.000083   0.000001   0.000056   0.002476  -0.000148
    17  N    0.000000  -0.000002   0.000000   0.000000   0.000253  -0.000259
    18  H    0.000000   0.000000   0.000000   0.000000  -0.000041  -0.000026
    19  C    0.000000   0.000000   0.000000   0.000000  -0.000010   0.000005
    20  H    0.000000   0.000000   0.000000   0.000000  -0.000004   0.000000
    21  H    0.000000   0.000000   0.000000   0.000000   0.000000   0.000000
    22  H    0.000000   0.000000   0.000000   0.000000   0.000000   0.000000
              7          8          9         10         11         12
     1  H    0.004544  -0.000136  -0.000130   0.000002   0.000015   0.000007
     2  C   -0.134381  -0.000100   0.005455  -0.000215  -0.000510   0.000743
     3  H    0.004953   0.000713   0.000138   0.000013  -0.000042  -0.000009
     4  H    0.004241   0.000889  -0.000260  -0.000004   0.000030  -0.000033
     5  C    0.253564  -0.018826  -0.039470   0.004000  -0.003561  -0.001487
     6  O   -0.099907   0.003772  -0.002389   0.000148  -0.046719   0.022150
     7  N    7.086465   0.308465   0.277325  -0.036439  -0.044970  -0.006914
     8  H    0.308465   0.401315  -0.032172  -0.003716   0.005254  -0.000192
     9  C    0.277325  -0.032172   5.146792   0.371963   0.333097  -0.028929
    10  H   -0.036439  -0.003716   0.371963   0.575767  -0.037103   0.004364
    11  C   -0.044970   0.005254   0.333097  -0.037103   5.265614   0.367986
    12  H   -0.006914  -0.000192  -0.028929   0.004364   0.367986   0.450431
    13  H    0.004204  -0.000105  -0.029228  -0.003749   0.319387  -0.027841
    14  H   -0.000728  -0.000116  -0.026803  -0.004232   0.365078  -0.021313
    15  C   -0.067510   0.001001   0.306746  -0.035489  -0.053685  -0.001675
    16  O    0.001977   0.002374  -0.093108  -0.000233   0.002502   0.000074
    17  N    0.002865   0.000000  -0.128272   0.000794   0.003155   0.000149
    18  H    0.000179  -0.000015  -0.001589   0.000314   0.003502  -0.000089
    19  C   -0.000120   0.000002   0.006838  -0.000267   0.000041  -0.000187
    20  H   -0.000015  -0.000001   0.001205  -0.000025  -0.000098  -0.000011
    21  H   -0.000001   0.000000  -0.000280   0.000033   0.000058   0.000005
    22  H    0.000008   0.000000   0.000009  -0.000004  -0.000104   0.000005
             13         14         15         16         17         18
     1  H   -0.000001   0.000003   0.000001   0.000000   0.000000   0.000000
     2  C    0.000028  -0.000128  -0.000172  -0.000083  -0.000002   0.000000
     3  H   -0.000002   0.000014   0.000008   0.000001   0.000000   0.000000
     4  H    0.000000   0.000000   0.000027   0.000056   0.000000   0.000000
     5  C    0.001114   0.000993   0.002107   0.002476   0.000253  -0.000041
     6  O    0.003310  -0.002284   0.000672  -0.000148  -0.000259  -0.000026
     7  N    0.004204  -0.000728  -0.067510   0.001977   0.002865   0.000179
     8  H   -0.000105  -0.000116   0.001001   0.002374   0.000000  -0.000015
     9  C   -0.029228  -0.026803   0.306746  -0.093108  -0.128272  -0.001589
    10  H   -0.003749  -0.004232  -0.035489  -0.000233   0.000794   0.000314
    11  C    0.319387   0.365078  -0.053685   0.002502   0.003155   0.003502
    12  H   -0.027841  -0.021313  -0.001675   0.000074   0.000149  -0.000089
    13  H    0.657415  -0.026623  -0.012402  -0.000075  -0.007476   0.014088
    14  H   -0.026623   0.563668   0.004420  -0.000084   0.000594  -0.000405
    15  C   -0.012402   0.004420   4.378217   0.612368   0.276654  -0.018907
    16  O   -0.000075  -0.000084   0.612368   8.094983  -0.101553   0.003898
    17  N   -0.007476   0.000594   0.276654  -0.101553   7.108536   0.292504
    18  H    0.014088  -0.000405  -0.018907   0.003898   0.292504   0.401918
    19  C    0.000791  -0.000002  -0.028280  -0.009954   0.266285  -0.029752
    20  H   -0.000020   0.000002  -0.000076   0.022598  -0.037987   0.003591
    21  H   -0.000078   0.000001   0.001834   0.000607  -0.043815  -0.000995
    22  H    0.000055  -0.000002   0.001289   0.000599  -0.044366  -0.000323
             19         20         21         22
     1  H    0.000000   0.000000   0.000000   0.000000
     2  C    0.000000   0.000000   0.000000   0.000000
     3  H    0.000000   0.000000   0.000000   0.000000
     4  H    0.000000   0.000000   0.000000   0.000000
     5  C   -0.000010  -0.000004   0.000000   0.000000
     6  O    0.000005   0.000000   0.000000   0.000000
     7  N   -0.000120  -0.000015  -0.000001   0.000008
     8  H    0.000002  -0.000001   0.000000   0.000000
     9  C    0.006838   0.001205  -0.000280   0.000009
    10  H   -0.000267  -0.000025   0.000033  -0.000004
    11  C    0.000041  -0.000098   0.000058  -0.000104
    12  H   -0.000187  -0.000011   0.000005   0.000005
    13  H    0.000791  -0.000020  -0.000078   0.000055
    14  H   -0.000002   0.000002   0.000001  -0.000002
    15  C   -0.028280  -0.000076   0.001834   0.001289
    16  O   -0.009954   0.022598   0.000607   0.000599
    17  N    0.266285  -0.037987  -0.043815  -0.044366
    18  H   -0.029752   0.003591  -0.000995  -0.000323
    19  C    4.967376   0.375083   0.380739   0.384304
    20  H    0.375083   0.476167  -0.024093  -0.024226
    21  H    0.380739  -0.024093   0.571032  -0.039077
    22  H    0.384304  -0.024226  -0.039077   0.560634
 Mulliken atomic charges:
              1
     1  H    0.188281
     2  C   -0.542614
     3  H    0.159958
     4  H    0.174768
     5  C    0.604497
     6  O   -0.522732
     7  N   -0.557802
     8  H    0.331592
     9  C   -0.066938
    10  H    0.164077
    11  C   -0.478926
    12  H    0.242768
    13  H    0.107206
    14  H    0.147950
    15  C    0.632852
    16  O   -0.539276
    17  N   -0.588058
    18  H    0.332149
    19  C   -0.312892
    20  H    0.207910
    21  H    0.154030
    22  H    0.161199
 Sum of Mulliken atomic charges =   0.00000
 Mulliken charges with hydrogens summed into heavy atoms:
              1
     2  C   -0.019607
     5  C    0.604497
     6  O   -0.522732
     7  N   -0.226210
     9  C    0.097139
    11  C    0.018998
    15  C    0.632852
    16  O   -0.539276
    17  N   -0.255909
    19  C    0.210248
 Sum of Mulliken charges with hydrogens summed into heavy atoms =   0.00000
 APT atomic charges:
              1
     1  H    0.616979
     2  C   -1.256769
     3  H    0.490023
     4  H    0.339745
     5  C    0.167067
     6  O   -0.366935
     7  N   -0.757254
     8  H    0.670900
     9  C   -0.472650
    10  H    0.490643
    11  C   -1.108626
    12  H    0.312417
    13  H    0.363690
    14  H    0.466083
    15  C   -0.022463
    16  O   -0.219676
    17  N   -0.397459
    18  H    0.534532
    19  C   -1.348331
    20  H    0.396037
    21  H    0.639115
    22  H    0.462931
 Sum of APT charges=   0.00000
 APT Atomic charges with hydrogens summed into heavy atoms:
              1
     1  H    0.000000
     2  C    0.189979
     3  H    0.000000
     4  H    0.000000
     5  C    0.167067
     6  O   -0.366935
     7  N   -0.086354
     8  H    0.000000
     9  C    0.017993
    10  H    0.000000
    11  C    0.033564
    12  H    0.000000
    13  H    0.000000
    14  H    0.000000
    15  C   -0.022463
    16  O   -0.219676
    17  N    0.137072
    18  H    0.000000
    19  C    0.149752
    20  H    0.000000
    21  H    0.000000
    22  H    0.000000
 Sum of APT charges=   0.00000
 Electronic spatial extent (au):  <R**2>=           1731.5911
 Charge=              0.0000 electrons
 Dipole moment (field-independent basis, Debye):
    X=              0.6913    Y=              1.2398    Z=             -2.5233  Tot=              2.8952
 Quadrupole moment (field-independent basis, Debye-Ang):
   XX=            -49.4468   YY=            -63.8777   ZZ=            -58.9601
   XY=              8.7815   XZ=              5.8441   YZ=             -1.8024
 Traceless Quadrupole moment (field-independent basis, Debye-Ang):
   XX=              7.9814   YY=             -6.4495   ZZ=             -1.5319
   XY=              8.7815   XZ=              5.8441   YZ=             -1.8024
 Octapole moment (field-independent basis, Debye-Ang**2):
  XXX=             10.5355  YYY=              4.7543  ZZZ=             -6.7869  XYY=             -1.7137
  XXY=             -4.7575  XXZ=              1.1728  XZZ=              2.2100  YZZ=             -5.9572
  YYZ=              0.0795  XYZ=              0.3629
 Hexadecapole moment (field-independent basis, Debye-Ang**3):
 XXXX=          -1481.8859 YYYY=           -410.5752 ZZZZ=           -225.5769 XXXY=             11.5211
 XXXZ=             14.5254 YYYX=             11.1631 YYYZ=              2.5058 ZZZX=              8.8347
 ZZZY=              7.8209 XXYY=           -328.3410 XXZZ=           -300.6560 YYZZ=           -104.8962
 XXYZ=             -6.8537 YYXZ=              7.6553 ZZXY=              6.6613
 N-N= 5.673864456928D+02 E-N=-2.291455382050D+03  KE= 4.916594813812D+02
  Exact polarizability:   0.000   0.000   0.000   0.000   0.000   0.000
 Approx polarizability: 111.561  12.364 118.754   2.977  12.409 104.200
 Calling FoFJK, ICntrl=    100147 FMM=F ISym2X=0 I1Cent= 0 IOpClX= 0 NMat=1 NMatS=1 NMatT=0.
 ***** Axes restored to original set *****
 -------------------------------------------------------------------
 Center     Atomic                   Forces (Hartrees/Bohr)
 Number     Number              X              Y              Z
 -------------------------------------------------------------------
      1        1           0.003426232    0.001569190   -0.000978556
      2        6           0.008353051    0.003157754    0.005765871
      3        1          -0.004169219   -0.004168334    0.003281541
      4        1          -0.004996838   -0.000484788    0.003006560
      5        6          -0.021999508   -0.007241846   -0.030580888
      6        8          -0.022708245   -0.002460280   -0.008091279
      7        7           0.012314470   -0.002501797    0.024012640
      8        1          -0.001636631    0.003539832   -0.000970569
      9        6           0.009723349    0.002444568   -0.015590360
     10        1          -0.001431595   -0.001320523    0.005997762
     11        6           0.013677598   -0.006458405   -0.003017459
     12        1           0.011244391   -0.002526944    0.004262709
     13        1           0.008050784   -0.010462668    0.003237477
     14        1           0.003273722   -0.002295603   -0.003918514
     15        6          -0.027795061    0.001759132    0.018518632
     16        8          -0.002306440    0.001094963    0.001950641
     17        7           0.015806509    0.015332282   -0.005495492
     18        1          -0.004071204    0.005913706    0.000890403
     19        6           0.002591297   -0.000357670   -0.000395763
     20        1          -0.000356276   -0.002984290    0.000285699
     21        1           0.002823079    0.004627289    0.001068477
     22        1           0.000186536    0.003824432   -0.003239531
 -------------------------------------------------------------------
 Cartesian Forces:  Max     0.030580888 RMS     0.009353250

 GradGradGradGradGradGradGradGradGradGradGradGradGradGradGradGradGradGrad
 Berny optimization.
 Internal  Forces:  Max     0.082228867 RMS     0.016408259
 Search for a local minimum.
 Step number   1 out of a maximum of  132
 All quantities printed in internal units (Hartrees-Bohrs-Radians)
 Mixed Optimization -- RFO/linear search
 Second derivative matrix not updated -- analytic derivatives used.
     Eigenvalues ---   -0.00943  -0.00050  -0.00029   0.00138   0.00281
     Eigenvalues ---    0.01040   0.01542   0.02165   0.04129   0.04443
     Eigenvalues ---    0.04754   0.04902   0.05211   0.05735   0.05822
     Eigenvalues ---    0.05992   0.06409   0.06607   0.11365   0.12185
     Eigenvalues ---    0.12435   0.13107   0.13300   0.13416   0.13587
     Eigenvalues ---    0.14293   0.15009   0.17646   0.18388   0.18548
     Eigenvalues ---    0.18821   0.21318   0.22642   0.23595   0.24269
     Eigenvalues ---    0.29441   0.29582   0.30646   0.34098   0.34487
     Eigenvalues ---    0.34572   0.34860   0.34924   0.35086   0.35350
     Eigenvalues ---    0.35462   0.35846   0.35898   0.36625   0.39388
     Eigenvalues ---    0.45816   0.46869   0.50558   0.53720   0.69284
     Eigenvalues ---    0.81301   0.83158   1.376191000.000001000.00000
     Eigenvalues --- 1000.000001000.000001000.000001000.000001000.00000
     Eigenvalues --- 1000.000001000.000001000.000001000.000001000.00000
     Eigenvalues --- 1000.000001000.000001000.000001000.000001000.00000
     Eigenvalues --- 1000.000001000.000001000.000001000.000001000.00000
     Eigenvalues --- 1000.000001000.000001000.000001000.000001000.00000
     Eigenvalues --- 1000.000001000.000001000.000001000.000001000.00000
     Eigenvalues --- 1000.000001000.000001000.000001000.000001000.00000
     Eigenvalues --- 1000.000001000.000001000.00000
 RFO step:  Lambda=-3.07613924D-02 EMin=-9.43281206D-03
 Linear search not attempted -- first point.
 Maximum step size (   0.300) exceeded in Quadratic search.
    -- Step size scaled by   0.303
 Iteration  1 RMS(Cart)=  0.05918930 RMS(Int)=  0.00167594
 Iteration  2 RMS(Cart)=  0.00258900 RMS(Int)=  0.00011020
 Iteration  3 RMS(Cart)=  0.00000330 RMS(Int)=  0.00011018
 Iteration  4 RMS(Cart)=  0.00000000 RMS(Int)=  0.00011018
 Iteration  1 RMS(Cart)=  0.00003089 RMS(Int)=  0.00001139
 Iteration  2 RMS(Cart)=  0.00001673 RMS(Int)=  0.00001268
 Iteration  3 RMS(Cart)=  0.00000927 RMS(Int)=  0.00001437
 Iteration  4 RMS(Cart)=  0.00000529 RMS(Int)=  0.00001557
 Iteration  5 RMS(Cart)=  0.00000314 RMS(Int)=  0.00001635
 Iteration  6 RMS(Cart)=  0.00000193 RMS(Int)=  0.00001684
 Iteration  7 RMS(Cart)=  0.00000123 RMS(Int)=  0.00001715
 Iteration  8 RMS(Cart)=  0.00000080 RMS(Int)=  0.00001735
 Variable       Old X    -DE/DX   Delta X   Delta X   Delta X     New X
                                 (Linear)    (Quad)   (Total)
    R1        2.05975  -0.00080   0.00000   0.00007   0.00007   2.05982
    R2        2.05988   0.00473   0.00000   0.00305   0.00305   2.06293
    R3        2.05979   0.00428   0.00000   0.00360   0.00360   2.06339
    R4        2.89132  -0.00134   0.00000  -0.00466  -0.00466   2.88666
    R5        2.32242  -0.00181   0.00000   0.00061   0.00061   2.32303
    R6        2.52284   0.04561   0.00000   0.01432   0.01432   2.53716
    R7        1.90857  -0.00091   0.00000  -0.00085  -0.00085   1.90771
    R8        2.73817   0.03196   0.00000   0.00387   0.00387   2.74204
    R9        2.05975   0.00453   0.00000   0.00392   0.00392   2.06366
   R10        2.88188   0.02435   0.00000   0.00772   0.00772   2.88961
   R11        2.87618   0.03029   0.00000   0.01157   0.01157   2.88774
   R12        2.05972  -0.00976   0.00000  -0.00126  -0.00126   2.05846
   R13        2.05984   0.00245   0.00000   0.00374   0.00374   2.06359
   R14        2.05966   0.00275   0.00000   0.00364   0.00364   2.06330
   R15        2.32256   0.00314   0.00000  -0.00277  -0.00277   2.31979
   R16        2.52270   0.02912   0.00000   0.01405   0.01405   2.53675
   R17        1.90870  -0.00635   0.00000  -0.00155  -0.00155   1.90715
   R18        2.73833   0.00514   0.00000   0.00177   0.00177   2.74010
   R19        2.05982  -0.00061   0.00000   0.00021   0.00021   2.06003
   R20        2.05982   0.00447   0.00000   0.00326   0.00326   2.06308
   R21        2.05964   0.00421   0.00000   0.00353   0.00353   2.06317
    A1        1.91118  -0.00019   0.00000   0.00172   0.00176   1.91294
    A2        1.91120   0.00024   0.00000  -0.00397  -0.00399   1.90721
    A3        1.93909  -0.00781   0.00000  -0.01132  -0.01131   1.92777
    A4        1.91002  -0.00485   0.00000  -0.00731  -0.00737   1.90265
    A5        1.89603   0.00706   0.00000   0.01738   0.01737   1.91340
    A6        1.89606   0.00560   0.00000   0.00360   0.00356   1.89962
    A7        2.10312  -0.01185   0.00000   0.01048   0.01031   2.11343
    A8        2.03507  -0.02934   0.00000  -0.00452  -0.00469   2.03039
    A9        2.14499   0.04119   0.00000  -0.00597  -0.00613   2.13886
   A10        2.09435  -0.04146   0.00000   0.00008  -0.00011   2.09424
   A11        2.12756   0.08223   0.00000   0.00016  -0.00003   2.12753
   A12        2.06128  -0.04077   0.00000  -0.00025  -0.00044   2.06084
   A13        1.91114  -0.00800   0.00000  -0.01166  -0.01185   1.89929
   A14        1.93905   0.03185   0.00000   0.00502   0.00476   1.94380
   A15        1.93900  -0.03151   0.00000  -0.00841  -0.00907   1.92993
   A16        1.89609  -0.02099   0.00000  -0.01519  -0.01500   1.88109
   A17        1.89608   0.00224   0.00000  -0.01679  -0.01681   1.87926
   A18        1.88137   0.02634   0.00000   0.04698   0.04703   1.92840
   A19        1.91115   0.01013   0.00000   0.00571   0.00567   1.91682
   A20        1.91106   0.00230   0.00000   0.00668   0.00665   1.91771
   A21        1.91110   0.00342   0.00000  -0.00431  -0.00430   1.90679
   A22        1.91011  -0.00274   0.00000   0.00636   0.00628   1.91638
   A23        1.91023  -0.00507   0.00000  -0.00343  -0.00342   1.90681
   A24        1.91015  -0.00806   0.00000  -0.01101  -0.01101   1.89915
   A25        2.10312  -0.01237   0.00000   0.00210   0.00209   2.10521
   A26        2.03507   0.02396   0.00000  -0.00590  -0.00591   2.02916
   A27        2.14499  -0.01159   0.00000   0.00380   0.00379   2.14878
   A28        2.09446   0.00302   0.00000  -0.00406  -0.00414   2.09032
   A29        2.12764   0.00028   0.00000   0.00271   0.00263   2.13027
   A30        2.06108  -0.00330   0.00000   0.00135   0.00127   2.06236
   A31        1.91098  -0.00611   0.00000  -0.00975  -0.00973   1.90125
   A32        1.91114   0.00509   0.00000   0.00629   0.00628   1.91741
   A33        1.91120   0.00410   0.00000   0.00804   0.00803   1.91924
   A34        1.91010  -0.00009   0.00000   0.00047   0.00048   1.91058
   A35        1.91020   0.00005   0.00000  -0.00201  -0.00199   1.90820
   A36        1.91019  -0.00304   0.00000  -0.00305  -0.00309   1.90709
    D1        0.00004   0.00130   0.00000   0.07165   0.07174   0.07178
    D2        3.14159  -0.00143   0.00000   0.03830   0.03825  -3.10335
    D3        2.10342   0.00080   0.00000   0.07802   0.07805   2.18147
    D4       -1.03822  -0.00193   0.00000   0.04467   0.04456  -0.99365
    D5       -2.10339   0.00222   0.00000   0.08125   0.08133  -2.02206
    D6        1.03816  -0.00051   0.00000   0.04789   0.04784   1.08600
    D7        0.00010  -0.00554   0.00000  -0.04645  -0.04651  -0.04642
    D8        3.14153  -0.00003   0.00000  -0.08321  -0.08335   3.05818
    D9       -3.14154  -0.00834   0.00000  -0.08068  -0.08054   3.06111
   D10       -0.00011  -0.00283   0.00000  -0.11744  -0.11737  -0.11748
   D11       -2.61795  -0.01163   0.00000  -0.03377  -0.03367  -2.65162
   D12       -0.52351  -0.02282   0.00000  -0.05707  -0.05690  -0.58041
   D13        1.57085   0.01068   0.00000   0.00000   0.00000   1.57084
   D14        0.52349  -0.00623   0.00000  -0.06987  -0.06983   0.45366
   D15        2.61793  -0.01742   0.00000  -0.09317  -0.09306   2.52487
   D16       -1.57091   0.01608   0.00000  -0.03609  -0.03616  -1.60707
   D17        1.04724   0.00317   0.00000  -0.00026  -0.00011   1.04713
   D18        3.14157   0.00744   0.00000   0.01513   0.01533  -3.12629
   D19       -1.04726   0.00108   0.00000   0.00309   0.00327  -1.04399
   D20       -3.13259  -0.00059   0.00000  -0.02140  -0.02139   3.12921
   D21       -1.03826   0.00368   0.00000  -0.00601  -0.00595  -1.04422
   D22        1.05609  -0.00269   0.00000  -0.01805  -0.01801   1.03808
   D23       -1.08102   0.00521   0.00000  -0.02372  -0.02397  -1.10499
   D24        1.01331   0.00948   0.00000  -0.00834  -0.00853   1.00477
   D25        3.10766   0.00311   0.00000  -0.02037  -0.02059   3.08707
   D26        0.52361  -0.02158   0.00000   0.00903   0.00902   0.53263
   D27       -2.61802  -0.02371   0.00000   0.00000   0.00000  -2.61802
   D28       -1.57971   0.00637   0.00000   0.03951   0.03942  -1.54029
   D29        1.56185   0.00424   0.00000   0.03048   0.03039   1.59224
   D30        2.65190   0.01559   0.00000   0.04080   0.04088   2.69278
   D31       -0.48973   0.01346   0.00000   0.03177   0.03186  -0.45787
   D32        0.00010   0.00185   0.00000   0.03037   0.03035   0.03045
   D33        3.14156   0.00174   0.00000   0.00624   0.00626  -3.13536
   D34       -3.14153  -0.00034   0.00000   0.02111   0.02108  -3.12045
   D35       -0.00006  -0.00044   0.00000  -0.00302  -0.00301  -0.00307
   D36        0.00008  -0.00008   0.00000   0.03432   0.03433   0.03441
   D37        2.09434  -0.00082   0.00000   0.03277   0.03277   2.12711
   D38       -2.09434   0.00109   0.00000   0.03783   0.03786  -2.05647
   D39        3.14155  -0.00018   0.00000   0.01063   0.01061  -3.13102
   D40       -1.04738  -0.00092   0.00000   0.00909   0.00905  -1.03833
   D41        1.04713   0.00099   0.00000   0.01414   0.01415   1.06128
         Item               Value     Threshold  Converged?
 Maximum Force            0.082229     0.000450     NO 
 RMS     Force            0.016101     0.000300     NO 
 Maximum Displacement     0.301867     0.001800     NO 
 RMS     Displacement     0.059216     0.001200     NO 
 Predicted change in Energy=-8.812975D-03
 GradGradGradGradGradGradGradGradGradGradGradGradGradGradGradGradGradGrad

                          Input orientation:                          
 ---------------------------------------------------------------------
 Center     Atomic      Atomic             Coordinates (Angstroms)
 Number     Number       Type             X           Y           Z
 ---------------------------------------------------------------------
      1          1           0        1.145941    2.716737   -1.975662
      2          6           0        1.570064    2.941209   -0.996960
      3          1           0        1.744248    2.011849   -0.451379
      4          1           0        0.868008    3.558620   -0.432896
      5          6           0        2.885917    3.702375   -1.147260
      6          8           0        3.296341    4.048441   -2.253133
      7          7           0        3.534937    4.000098   -0.010279
      8          1           0        3.128281    3.757435    0.881279
      9          6           0        4.842613    4.628928   -0.015981
     10          1           0        5.378616    4.335451    0.889076
     11          6           0        5.673065    4.176901   -1.217736
     12          1           0        5.161044    4.442851   -2.141672
     13          1           0        6.655960    4.651870   -1.189594
     14          1           0        5.804179    3.093688   -1.177754
     15          6           0        4.706733    6.150937   -0.001766
     16          8           0        3.749254    6.688088    0.547462
     17          7           0        5.687199    6.840486   -0.606102
     18          1           0        6.442071    6.346268   -1.058258
     19          6           0        5.688431    8.289472   -0.660225
     20          1           0        4.819221    8.664362   -0.119581
     21          1           0        6.598851    8.677068   -0.198934
     22          1           0        5.640125    8.623765   -1.698447
 ---------------------------------------------------------------------
                    Distance matrix (angstroms):
                    1          2          3          4          5
     1  H    0.000000
     2  C    1.090012   0.000000
     3  H    1.782772   1.091654   0.000000
     4  H    1.779365   1.091901   1.777819   0.000000
     5  C    2.164543   1.527557   2.155351   2.145446   0.000000
     6  O    2.544532   2.404987   3.130977   3.074083   1.229294
     7  N    3.349186   2.440391   2.711875   2.736059   1.342607
     8  H    3.629716   2.573333   2.595881   2.622102   2.043708
     9  C    4.600240   3.810550   4.079037   4.137254   2.442735
    10  H    5.361202   4.472818   4.517142   4.764101   3.280396
    11  C    4.816781   4.290721   4.550863   4.907833   2.828133
    12  H    4.373566   4.057146   4.521212   4.704460   2.591016
    13  H    5.892618   5.369339   5.624908   5.938702   3.888002
    14  H    4.741089   4.240715   4.263923   5.013658   2.981222
    15  C    5.326278   4.596896   5.109845   4.652074   3.259292
    16  O    5.377269   4.601436   5.185070   4.365347   3.540046
    17  N    6.285222   5.684006   6.235907   5.833116   4.241200
    18  H    6.485685   5.944294   6.420672   6.263564   4.432192
    19  C    7.308896   6.758569   7.416789   6.757893   5.397477
    20  H    7.232721   6.639373   7.336312   6.463656   5.423569
    21  H    8.271429   7.669786   8.249609   7.687380   6.279552
    22  H    7.427483   7.024878   7.774990   7.073218   5.666529
                    6          7          8          9         10
     6  O    0.000000
     7  N    2.256027   0.000000
     8  H    3.152375   1.009519   0.000000
     9  C    2.780786   1.451027   2.122148   0.000000
    10  H    3.780439   2.078570   2.323396   1.092042   0.000000
    11  C    2.595644   2.461870   3.325318   1.529115   2.133189
    12  H    1.909215   2.717185   3.706771   2.157448   3.040445
    13  H    3.575232   3.399467   4.187248   2.160120   2.460203
    14  H    2.890890   2.708143   3.441018   2.152042   2.448441
    15  C    3.387971   2.449345   3.000021   1.528129   2.130966
    16  O    3.875074   2.753598   3.014261   2.398550   2.882086
    17  N    4.027956   3.613176   4.273823   2.439786   2.933595
    18  H    4.074721   3.879975   4.630881   2.567852   2.994400
    19  C    5.123065   4.843419   5.428624   3.811829   4.258004
    20  H    5.308289   4.839080   5.285728   4.036831   4.479930
    21  H    6.045701   5.594391   6.116739   4.416478   4.639222
    22  H    5.170550   5.353506   6.053553   4.407429   5.015307
                   11         12         13         14         15
    11  C    0.000000
    12  H    1.089289   0.000000
    13  H    1.092003   1.784632   0.000000
    14  H    1.091852   1.778483   1.775838   0.000000
    15  C    2.511812   2.775456   2.730866   3.454578   0.000000
    16  O    3.622573   3.776994   3.951264   4.485399   1.227578
    17  N    2.732943   2.895421   2.463534   3.791960   1.342391
    18  H    2.307153   2.537284   1.712887   3.316695   2.041012
    19  C    4.150216   4.155637   3.801118   5.222778   2.443488
    20  H    4.698116   4.693277   4.540774   5.755196   2.518697
    21  H    4.706011   4.875460   4.145708   5.723961   3.162329
    22  H    4.472892   4.231549   4.131199   5.556958   3.140832
                   16         17         18         19         20
    16  O    0.000000
    17  N    2.260435   0.000000
    18  H    3.153798   1.009221   0.000000
    19  C    2.789865   1.449998   2.121897   0.000000
    20  H    2.344233   2.077646   2.981328   1.090122   0.000000
    21  H    3.554342   2.090438   2.489106   1.091734   1.781444
    22  H    3.516581   2.091774   2.497989   1.091784   1.779987
                   21         22
    21  H    0.000000
    22  H    1.780601   0.000000
 Stoichiometry    C6H12N2O2
 Framework group  C1[X(C6H12N2O2)]
 Deg. of freedom    60
 Full point group                 C1      NOp   1
 Largest Abelian subgroup         C1      NOp   1
 Largest concise Abelian subgroup C1      NOp   1
                         Standard orientation:                         
 ---------------------------------------------------------------------
 Center     Atomic      Atomic             Coordinates (Angstroms)
 Number     Number       Type             X           Y           Z
 ---------------------------------------------------------------------
      1          1           0       -3.907490   -0.494989    1.191256
      2          6           0       -3.347245   -0.753454    0.292675
      3          1           0       -3.913915   -0.454036   -0.591034
      4          1           0       -3.189037   -1.833471    0.264741
      5          6           0       -1.988385   -0.055649    0.291666
      6          8           0       -1.620976    0.619890    1.250738
      7          7           0       -1.216425   -0.256758   -0.788253
      8          1           0       -1.527998   -0.874646   -1.523281
      9          6           0        0.051471    0.427020   -0.962516
     10          1           0        0.253487    0.527756   -2.030972
     11          6           0        0.014380    1.831881   -0.359870
     12          1           0       -0.198130    1.770839    0.706744
     13          1           0        0.973612    2.329188   -0.518074
     14          1           0       -0.768838    2.413420   -0.850299
     15          6           0        1.189811   -0.387909   -0.349940
     16          8           0        1.132220   -1.613601   -0.313754
     17          7           0        2.233514    0.311533    0.122796
     18          1           0        2.219818    1.319909    0.083849
     19          6           0        3.384611   -0.334635    0.722741
     20          1           0        3.247938   -1.415149    0.676085
     21          1           0        4.290155   -0.058606    0.178975
     22          1           0        3.482965   -0.027476    1.765800
 ---------------------------------------------------------------------
 Rotational constants (GHZ):      2.5681473      0.7746729      0.7149285
 Standard basis: 6-31G(d) (6D, 7F)
 There are   174 symmetry adapted basis functions of A   symmetry.
 Integral buffers will be    131072 words long.
 Raffenetti 2 integral format.
 Two-electron integral symmetry is turned on.
   174 basis functions,   328 primitive gaussians,   174 cartesian basis functions
    39 alpha electrons       39 beta electrons
       nuclear repulsion energy       565.3391115843 Hartrees.
 NAtoms=   22 NActive=   22 NUniq=   22 SFac= 7.50D-01 NAtFMM=   80 NAOKFM=F Big=F
 One-electron integrals computed using PRISM.
 NBasis=   174 RedAO= T  NBF=   174
 NBsUse=   174 1.00D-06 NBFU=   174
 Initial guess read from the read-write file.
 B after Tr=     0.000000    0.000000    0.000000
         Rot=    1.000000    0.000000    0.000000    0.000000 Ang=   0.00 deg.
 Initial guess orbital symmetries:
       Occupied  (A) (A) (A) (A) (A) (A) (A) (A) (A) (A) (A) (A)
                 (A) (A) (A) (A) (A) (A) (A) (A) (A) (A) (A) (A)
                 (A) (A) (A) (A) (A) (A) (A) (A) (A) (A) (A) (A)
                 (A) (A) (A)
       Virtual   (A) (A) (A) (A) (A) (A) (A) (A) (A) (A) (A) (A)
                 (A) (A) (A) (A) (A) (A) (A) (A) (A) (A) (A) (A)
                 (A) (A) (A) (A) (A) (A) (A) (A) (A) (A) (A) (A)
                 (A) (A) (A) (A) (A) (A) (A) (A) (A) (A) (A) (A)
                 (A) (A) (A) (A) (A) (A) (A) (A) (A) (A) (A) (A)
                 (A) (A) (A) (A) (A) (A) (A) (A) (A) (A) (A) (A)
                 (A) (A) (A) (A) (A) (A) (A) (A) (A) (A) (A) (A)
                 (A) (A) (A) (A) (A) (A) (A) (A) (A) (A) (A) (A)
                 (A) (A) (A) (A) (A) (A) (A) (A) (A) (A) (A) (A)
                 (A) (A) (A) (A) (A) (A) (A) (A) (A) (A) (A) (A)
                 (A) (A) (A) (A) (A) (A) (A) (A) (A) (A) (A) (A)
                 (A) (A) (A)
 Harris functional with IExCor=  402 diagonalized for initial guess.
 ExpMin= 1.61D-01 ExpMax= 5.48D+03 ExpMxC= 8.25D+02 IAcc=1 IRadAn=         1 AccDes= 0.00D+00
 HarFok:  IExCor=  402 AccDes= 0.00D+00 IRadAn=         1 IDoV= 1
 ScaDFX=  1.000000  1.000000  1.000000  1.000000
 FoFCou: FMM=F IPFlag=           0 FMFlag=      100000 FMFlg1=           0
         NFxFlg=           0 DoJE=T BraDBF=F KetDBF=T FulRan=T
         Omega=  0.000000  0.000000  1.000000  0.000000  0.000000 ICntrl=     500 IOpCl=  0
         NMat0=    1 NMatS0=    1 NMatT0=    0 NMatD0=    1 NMtDS0=    0 NMtDT0=    0
         I1Cent=           4 NGrid=           0.
 Petite list used in FoFCou.
 Requested convergence on RMS density matrix=1.00D-08 within 128 cycles.
 Requested convergence on MAX density matrix=1.00D-06.
 Requested convergence on             energy=1.00D-06.
 No special actions if energy rises.
 Integral accuracy reduced to 1.0D-05 until final iterations.
 Initial convergence to 1.0D-05 achieved.  Increase integral accuracy.
 SCF Done:  E(RB3LYP) =  -495.827385084     A.U. after   13 cycles
             Convg  =    0.8953D-08             -V/T =  2.0087
 Calling FoFJK, ICntrl=      2127 FMM=F ISym2X=0 I1Cent= 0 IOpClX= 0 NMat=1 NMatS=1 NMatT=0.
 ***** Axes restored to original set *****
 -------------------------------------------------------------------
 Center     Atomic                   Forces (Hartrees/Bohr)
 Number     Number              X              Y              Z
 -------------------------------------------------------------------
      1        1           0.002388716    0.001322366   -0.000748827
      2        6           0.006423659    0.002342115    0.004439231
      3        1          -0.002940697   -0.003172927    0.002299998
      4        1          -0.003736800   -0.000681247    0.002120823
      5        6          -0.018808011    0.000792982   -0.022753125
      6        8          -0.015283460   -0.002637298   -0.005002043
      7        7           0.011247110   -0.006045218    0.017114365
      8        1          -0.001059033    0.001733774   -0.000716589
      9        6           0.007794931    0.002178035   -0.011506992
     10        1          -0.002187687   -0.000732413    0.005076293
     11        6           0.009445445   -0.005257095   -0.001252594
     12        1           0.007524678   -0.001802742    0.002911195
     13        1           0.005535887   -0.007811151    0.002643620
     14        1           0.002637361   -0.001650503   -0.002613280
     15        6          -0.020145239    0.001722220    0.011039088
     16        8          -0.001080952    0.000687669    0.002037498
     17        7           0.011552962    0.011165709   -0.003530771
     18        1          -0.003090901    0.004225258    0.000333044
     19        6           0.002044486   -0.000461760   -0.000547170
     20        1          -0.000300701   -0.002188661    0.000196888
     21        1           0.002054736    0.003384212    0.000735038
     22        1          -0.000016491    0.002886676   -0.002275688
 -------------------------------------------------------------------
 Cartesian Forces:  Max     0.022753125 RMS     0.006876036

 GradGradGradGradGradGradGradGradGradGradGradGradGradGradGradGradGradGrad
 Berny optimization.
 Using GEDIIS/GDIIS optimizer.
 Internal  Forces:  Max     0.056973341 RMS     0.011498775
 Search for a local minimum.
 Step number   2 out of a maximum of  132
 All quantities printed in internal units (Hartrees-Bohrs-Radians)
 Mixed Optimization -- RFO/linear search
 Update second derivatives using D2CorX and points    1    2
 DE= -8.61D-03 DEPred=-8.81D-03 R= 9.77D-01
 SS=  1.41D+00  RLast= 3.00D-01 DXNew= 5.0454D-01 8.9998D-01
 Trust test= 9.77D-01 RLast= 3.00D-01 DXMaxT set to 5.05D-01
 Use linear search instead of GDIIS.
     Eigenvalues ---   -0.01551  -0.00051  -0.00029   0.00138   0.00281
     Eigenvalues ---    0.01041   0.01551   0.02168   0.04125   0.04440
     Eigenvalues ---    0.04788   0.04910   0.05207   0.05732   0.05825
     Eigenvalues ---    0.05989   0.06408   0.06607   0.11336   0.12158
     Eigenvalues ---    0.12434   0.13128   0.13253   0.13426   0.13572
     Eigenvalues ---    0.14293   0.15029   0.17623   0.18380   0.18540
     Eigenvalues ---    0.18834   0.21313   0.22598   0.22926   0.24261
     Eigenvalues ---    0.29388   0.29518   0.30648   0.34084   0.34430
     Eigenvalues ---    0.34572   0.34838   0.34925   0.35086   0.35289
     Eigenvalues ---    0.35461   0.35845   0.35895   0.36658   0.39350
     Eigenvalues ---    0.45714   0.46854   0.50135   0.53086   0.61376
     Eigenvalues ---    0.81205   0.83150   1.281531000.000001000.00000
     Eigenvalues --- 1000.000001000.000001000.000001000.000001000.00000
     Eigenvalues --- 1000.000001000.000001000.000001000.000001000.00000
     Eigenvalues --- 1000.000001000.000001000.000001000.000001000.00000
     Eigenvalues --- 1000.000001000.000001000.000001000.000001000.00000
     Eigenvalues --- 1000.000001000.000001000.000001000.000001000.00000
     Eigenvalues --- 1000.000001000.000001000.000001000.000001000.00000
     Eigenvalues --- 1000.000001000.000001000.000001000.000001000.00000
     Eigenvalues --- 1000.000001000.000001000.00000
 RFO step:  Lambda=-1.95577728D-02 EMin=-1.55076491D-02
 Quartic linear search produced a step of  1.69240.
 Maximum step size (   0.505) exceeded in Quadratic search.
    -- Step size scaled by   0.436
 Iteration  1 RMS(Cart)=  0.09949231 RMS(Int)=  0.00215618
 Iteration  2 RMS(Cart)=  0.00450705 RMS(Int)=  0.00057269
 Iteration  3 RMS(Cart)=  0.00000506 RMS(Int)=  0.00057268
 Iteration  4 RMS(Cart)=  0.00000001 RMS(Int)=  0.00057268
 Iteration  1 RMS(Cart)=  0.00034905 RMS(Int)=  0.00011341
 Iteration  2 RMS(Cart)=  0.00018719 RMS(Int)=  0.00012671
 Iteration  3 RMS(Cart)=  0.00010039 RMS(Int)=  0.00014290
 Iteration  4 RMS(Cart)=  0.00005385 RMS(Int)=  0.00015342
 Iteration  5 RMS(Cart)=  0.00002890 RMS(Int)=  0.00015950
 Iteration  6 RMS(Cart)=  0.00001552 RMS(Int)=  0.00016289
 Iteration  7 RMS(Cart)=  0.00000835 RMS(Int)=  0.00016475
 Iteration  8 RMS(Cart)=  0.00000451 RMS(Int)=  0.00016576
 Iteration  9 RMS(Cart)=  0.00000245 RMS(Int)=  0.00016631
 Iteration 10 RMS(Cart)=  0.00000134 RMS(Int)=  0.00016662
 Iteration 11 RMS(Cart)=  0.00000074 RMS(Int)=  0.00016678
 Variable       Old X    -DE/DX   Delta X   Delta X   Delta X     New X
                                 (Linear)    (Quad)   (Total)
    R1        2.05982  -0.00053   0.00012   0.00025   0.00037   2.06020
    R2        2.06293   0.00338   0.00516   0.00409   0.00925   2.07218
    R3        2.06339   0.00312   0.00609   0.00287   0.00897   2.07236
    R4        2.88666  -0.00094  -0.00789   0.00100  -0.00689   2.87978
    R5        2.32303  -0.00135   0.00103  -0.00389  -0.00286   2.32017
    R6        2.53716   0.03252   0.02424   0.02136   0.04560   2.58276
    R7        1.90771  -0.00062  -0.00144  -0.00005  -0.00149   1.90622
    R8        2.74204   0.02236   0.00655   0.00436   0.01091   2.75295
    R9        2.06366   0.00333   0.00663   0.00412   0.01074   2.07440
   R10        2.88961   0.01721   0.01307   0.00597   0.01904   2.90865
   R11        2.88774   0.02220   0.01957   0.02704   0.04662   2.93436
   R12        2.05846  -0.00645  -0.00213   0.00019  -0.00194   2.05651
   R13        2.06359   0.00165   0.00633   0.00520   0.01153   2.07511
   R14        2.06330   0.00186   0.00616  -0.00116   0.00500   2.06830
   R15        2.31979   0.00205  -0.00469  -0.00039  -0.00507   2.31471
   R16        2.53675   0.02102   0.02378   0.01457   0.03834   2.57510
   R17        1.90715  -0.00453  -0.00263  -0.00136  -0.00399   1.90316
   R18        2.74010   0.00369   0.00300   0.00288   0.00588   2.74598
   R19        2.06003  -0.00042   0.00036  -0.00003   0.00032   2.06035
   R20        2.06308   0.00322   0.00551   0.00390   0.00941   2.07249
   R21        2.06317   0.00305   0.00597   0.00308   0.00905   2.07222
    A1        1.91294  -0.00012   0.00298  -0.00628  -0.00304   1.90989
    A2        1.90721   0.00008  -0.00675   0.00381  -0.00279   1.90442
    A3        1.92777  -0.00574  -0.01914  -0.01163  -0.03056   1.89721
    A4        1.90265  -0.00365  -0.01247  -0.00624  -0.01929   1.88336
    A5        1.91340   0.00519   0.02940   0.00018   0.02941   1.94281
    A6        1.89962   0.00426   0.00603   0.02040   0.02620   1.92582
    A7        2.11343  -0.00770   0.01745   0.00682   0.02394   2.13737
    A8        2.03039  -0.02039  -0.00794  -0.02463  -0.03288   1.99751
    A9        2.13886   0.02804  -0.01038   0.01995   0.00927   2.14813
   A10        2.09424  -0.02872  -0.00018  -0.02558  -0.02667   2.06757
   A11        2.12753   0.05697  -0.00004   0.04175   0.04077   2.16831
   A12        2.06084  -0.02808  -0.00074  -0.01219  -0.01386   2.04698
   A13        1.89929  -0.00587  -0.02005  -0.00360  -0.02534   1.87395
   A14        1.94380   0.02184   0.00805   0.01035   0.01855   1.96236
   A15        1.92993  -0.02286  -0.01536  -0.02612  -0.04495   1.88498
   A16        1.88109  -0.01423  -0.02539   0.01550  -0.00893   1.87216
   A17        1.87926   0.00161  -0.02846   0.00127  -0.02882   1.85045
   A18        1.92840   0.01869   0.07959   0.00330   0.08360   2.01201
   A19        1.91682   0.00708   0.00960   0.00677   0.01613   1.93295
   A20        1.91771   0.00188   0.01125  -0.00466   0.00640   1.92411
   A21        1.90679   0.00251  -0.00728   0.01645   0.00917   1.91596
   A22        1.91638  -0.00198   0.01063   0.00069   0.01093   1.92732
   A23        1.90681  -0.00361  -0.00580  -0.01016  -0.01599   1.89082
   A24        1.89915  -0.00602  -0.01863  -0.00920  -0.02779   1.87136
   A25        2.10521  -0.00909   0.00353  -0.00710  -0.00360   2.10161
   A26        2.02916   0.01752  -0.01001   0.01054   0.00050   2.02966
   A27        2.14878  -0.00844   0.00641  -0.00339   0.00298   2.15176
   A28        2.09032   0.00211  -0.00701  -0.00169  -0.00888   2.08144
   A29        2.13027   0.00021   0.00445   0.00187   0.00613   2.13640
   A30        2.06236  -0.00232   0.00215   0.00026   0.00222   2.06458
   A31        1.90125  -0.00452  -0.01647  -0.00982  -0.02616   1.87509
   A32        1.91741   0.00377   0.01062   0.00979   0.02029   1.93771
   A33        1.91924   0.00307   0.01359   0.00464   0.01811   1.93734
   A34        1.91058  -0.00008   0.00082  -0.00216  -0.00121   1.90937
   A35        1.90820   0.00000  -0.00338   0.00084  -0.00241   1.90580
   A36        1.90709  -0.00226  -0.00523  -0.00335  -0.00893   1.89816
    D1        0.07178   0.00064   0.12141  -0.11515   0.00640   0.07817
    D2       -3.10335  -0.00069   0.06474  -0.04465   0.02004  -3.08331
    D3        2.18147   0.00019   0.13210  -0.13028   0.00158   2.18305
    D4       -0.99365  -0.00114   0.07542  -0.05978   0.01521  -0.97844
    D5       -2.02206   0.00137   0.13765  -0.12554   0.01250  -2.00956
    D6        1.08600   0.00004   0.08097  -0.05504   0.02613   1.11213
    D7       -0.04642  -0.00443  -0.07872   0.06323  -0.01521  -0.06163
    D8        3.05818   0.00062  -0.14106   0.19203   0.05040   3.10858
    D9        3.06111  -0.00654  -0.13630   0.13456  -0.00118   3.05993
   D10       -0.11748  -0.00150  -0.19864   0.26336   0.06444  -0.05305
   D11       -2.65162  -0.00951  -0.05698  -0.01595  -0.07214  -2.72376
   D12       -0.58041  -0.01759  -0.09630   0.00710  -0.08822  -0.66863
   D13        1.57084   0.00550   0.00000   0.00000   0.00000   1.57084
   D14        0.45366  -0.00462  -0.11818   0.11019  -0.00752   0.44614
   D15        2.52487  -0.01269  -0.15750   0.13323  -0.02359   2.50127
   D16       -1.60707   0.01040  -0.06120   0.12613   0.06462  -1.54244
   D17        1.04713   0.00258  -0.00018   0.00799   0.00892   1.05605
   D18       -3.12629   0.00584   0.02594   0.01019   0.03744  -3.08884
   D19       -1.04399   0.00115   0.00553   0.00618   0.01289  -1.03110
   D20        3.12921  -0.00072  -0.03619   0.01941  -0.01696   3.11224
   D21       -1.04422   0.00253  -0.01007   0.02161   0.01156  -1.03265
   D22        1.03808  -0.00216  -0.03048   0.01761  -0.01299   1.02509
   D23       -1.10499   0.00323  -0.04056   0.03188  -0.00988  -1.11487
   D24        1.00477   0.00648  -0.01444   0.03408   0.01865   1.02342
   D25        3.08707   0.00179  -0.03485   0.03007  -0.00590   3.08116
   D26        0.53263  -0.01407   0.01527  -0.00649   0.00915   0.54179
   D27       -2.61802  -0.01579   0.00000   0.00000   0.00000  -2.61802
   D28       -1.54029   0.00509   0.06671   0.01197   0.07794  -1.46235
   D29        1.59224   0.00337   0.05143   0.01847   0.06879   1.66104
   D30        2.69278   0.01091   0.06919  -0.00924   0.05985   2.75263
   D31       -0.45787   0.00919   0.05391  -0.00275   0.05070  -0.40717
   D32        0.03045   0.00173   0.05137  -0.01936   0.03216   0.06261
   D33       -3.13536   0.00139   0.01060   0.00268   0.01357  -3.12178
   D34       -3.12045  -0.00004   0.03567  -0.01270   0.02268  -3.09777
   D35       -0.00307  -0.00038  -0.00509   0.00933   0.00409   0.00102
   D36        0.03441   0.00004   0.05810  -0.05404   0.00412   0.03853
   D37        2.12711  -0.00056   0.05546  -0.05680  -0.00149   2.12562
   D38       -2.05647   0.00097   0.06408  -0.05183   0.01249  -2.04399
   D39       -3.13102  -0.00024   0.01796  -0.03237  -0.01444   3.13772
   D40       -1.03833  -0.00083   0.01532  -0.03513  -0.02005  -1.05838
   D41        1.06128   0.00069   0.02394  -0.03016  -0.00607   1.05520
         Item               Value     Threshold  Converged?
 Maximum Force            0.056986     0.000450     NO 
 RMS     Force            0.011326     0.000300     NO 
 Maximum Displacement     0.329158     0.001800     NO 
 RMS     Displacement     0.100489     0.001200     NO 
 Predicted change in Energy=-1.149725D-02
 GradGradGradGradGradGradGradGradGradGradGradGradGradGradGradGradGradGrad

                          Input orientation:                          
 ---------------------------------------------------------------------
 Center     Atomic      Atomic             Coordinates (Angstroms)
 Number     Number       Type             X           Y           Z
 ---------------------------------------------------------------------
      1          1           0        1.067684    2.765760   -1.916726
      2          6           0        1.524116    3.006037   -0.956261
      3          1           0        1.651505    2.086431   -0.372723
      4          1           0        0.854716    3.670464   -0.396733
      5          6           0        2.861480    3.691644   -1.208665
      6          8           0        3.253177    3.977075   -2.336739
      7          7           0        3.571013    3.981512   -0.077068
      8          1           0        3.151765    3.780136    0.818038
      9          6           0        4.890615    4.598681   -0.072698
     10          1           0        5.378549    4.322256    0.870973
     11          6           0        5.783319    4.084584   -1.216330
     12          1           0        5.335227    4.303739   -2.183541
     13          1           0        6.784014    4.531459   -1.147459
     14          1           0        5.906103    3.000310   -1.131490
     15          6           0        4.699883    6.138869   -0.021495
     16          8           0        3.731866    6.625144    0.550206
     17          7           0        5.668655    6.887253   -0.620079
     18          1           0        6.418891    6.423481   -1.106222
     19          6           0        5.635756    8.339956   -0.629929
     20          1           0        4.758813    8.650711   -0.061477
     21          1           0        6.537493    8.757065   -0.165520
     22          1           0        5.556460    8.724333   -1.653862
 ---------------------------------------------------------------------
                    Distance matrix (angstroms):
                    1          2          3          4          5
     1  H    0.000000
     2  C    1.090209   0.000000
     3  H    1.785016   1.096549   0.000000
[...]
    13  H    6.150196   5.596827   5.919944   6.108056   4.112578
    14  H    4.857234   4.484026   4.764140   5.232675   3.093885
    15  C    5.344215   4.444512   4.754749   4.472739   3.309912
    16  O    5.347995   4.337701   4.530949   4.143169   3.575742
    17  N    6.387162   5.582925   6.013245   5.577523   4.326338
    18  H    6.541940   5.854207   6.346551   5.979481   4.455531
    19  C    7.405305   6.573564   7.031750   6.359381   5.468826
    20  H    7.397263   6.478745   6.835193   6.157020   5.563378
    21  H    8.385738   7.555744   7.971622   7.402234   6.382842
    22  H    7.438521   6.698007   7.297278   6.388672   5.634563
                    6          7          8          9         10
     6  O    0.000000
     7  N    2.299437   0.000000
     8  H    3.137826   1.012453   0.000000
     9  C    2.921717   1.464149   2.071775   0.000000
    10  H    3.887223   2.044304   2.306887   1.099816   0.000000
    11  C    2.859533   2.520576   3.398993   1.532294   2.128924
    12  H    2.400252   2.912609   3.857283   2.193663   3.060177
    13  H    3.928176   3.433422   4.190240   2.162226   2.383283
    14  H    2.924601   2.696260   3.601610   2.160833   2.505276
    15  C    3.668681   2.445955   2.653912   1.550942   2.100902
    16  O    4.194417   2.733491   2.496403   2.405607   2.752893
    17  N    4.358582   3.637909   3.990094   2.483588   2.983370
    18  H    4.259168   3.877759   4.435268   2.603847   3.149147
    19  C    5.499668   4.861482   5.051455   3.857742   4.285700
    20  H    5.804597   4.876672   4.845606   4.063650   4.385028
    21  H    6.378193   5.681206   5.887869   4.515152   4.774400
    22  H    5.496480   5.283675   5.548946   4.425215   5.044944
                   11         12         13         14         15
    11  C    0.000000
    12  H    1.089850   0.000000
    13  H    1.096919   1.795296   0.000000
    14  H    1.093314   1.758604   1.764725   0.000000
    15  C    2.634119   2.913460   2.938257   3.551712   0.000000
    16  O    3.740710   4.004772   4.123688   4.543081   1.227492
    17  N    2.904437   2.972538   2.821908   3.978830   1.360695
    18  H    2.445400   2.404737   2.173673   3.526186   2.044309
    19  C    4.342618   4.284119   4.190141   5.424791   2.464745
    20  H    4.880483   4.931155   4.837347   5.915649   2.532610
    21  H    4.835112   4.858164   4.436806   5.905147   3.262631
    22  H    4.756763   4.443711   4.714821   5.839656   3.089692
                   16         17         18         19         20
    16  O    0.000000
    17  N    2.279957   0.000000
    18  H    3.158323   1.009010   0.000000
    19  C    2.820386   1.453974   2.126186   0.000000
    20  H    2.387245   2.064840   2.970899   1.090531   0.000000
    21  H    3.702345   2.102379   2.481405   1.095017   1.785239
    22  H    3.411054   2.120417   2.558304   1.097244   1.777931
                   21         22
    21  H    0.000000
    22  H    1.783773   0.000000
 Stoichiometry    C6H12N2O2
 Framework group  C1[X(C6H12N2O2)]
 Deg. of freedom    60
 Full point group                 C1      NOp   1
 Largest Abelian subgroup         C1      NOp   1
 Largest concise Abelian subgroup C1      NOp   1
                         Standard orientation:                         
 ---------------------------------------------------------------------
 Center     Atomic      Atomic             Coordinates (Angstroms)
 Number     Number       Type             X           Y           Z
 ---------------------------------------------------------------------
      1          1           0       -4.020343   -0.741421    0.765376
      2          6           0       -3.143865   -1.122575    0.237770
      3          1           0       -3.422248   -1.400316   -0.783815
      4          1           0       -2.799848   -2.024633    0.758124
      5          6           0       -2.046211   -0.066393    0.289171
      6          8           0       -1.952982    0.722526    1.220655
      7          7           0       -1.200787   -0.086298   -0.796129
      8          1           0       -1.198462   -0.949600   -1.325057
      9          6           0        0.082311    0.614786   -0.872765
     10          1           0        0.297782    0.691828   -1.948512
     11          6           0        0.059502    2.044442   -0.321867
     12          1           0       -0.020295    2.070884    0.764735
     13          1           0        0.958757    2.579017   -0.651720
     14          1           0       -0.804452    2.579721   -0.724852
     15          6           0        1.190845   -0.334211   -0.347427
     16          8           0        1.100616   -1.541041   -0.552743
     17          7           0        2.268588    0.246485    0.246503
     18          1           0        2.213699    1.223226    0.493620
     19          6           0        3.382016   -0.532567    0.763605
     20          1           0        3.321626   -1.528032    0.322404
     21          1           0        4.333561   -0.066547    0.487110
     22          1           0        3.336957   -0.628213    1.855744
 ---------------------------------------------------------------------
 Rotational constants (GHZ):      2.2614787      0.7737218      0.6890485

 **********************************************************************

            Population analysis using the SCF density.

 **********************************************************************

 Orbital symmetries:
       Occupied  (A) (A) (A) (A) (A) (A) (A) (A) (A) (A) (A) (A)
                 (A) (A) (A) (A) (A) (A) (A) (A) (A) (A) (A) (A)
                 (A) (A) (A) (A) (A) (A) (A) (A) (A) (A) (A) (A)
                 (A) (A) (A)
       Virtual   (A) (A) (A) (A) (A) (A) (A) (A) (A) (A) (A) (A)
                 (A) (A) (A) (A) (A) (A) (A) (A) (A) (A) (A) (A)
                 (A) (A) (A) (A) (A) (A) (A) (A) (A) (A) (A) (A)
                 (A) (A) (A) (A) (A) (A) (A) (A) (A) (A) (A) (A)
                 (A) (A) (A) (A) (A) (A) (A) (A) (A) (A) (A) (A)
                 (A) (A) (A) (A) (A) (A) (A) (A) (A) (A) (A) (A)
                 (A) (A) (A) (A) (A) (A) (A) (A) (A) (A) (A) (A)
                 (A) (A) (A) (A) (A) (A) (A) (A) (A) (A) (A) (A)
                 (A) (A) (A) (A) (A) (A) (A) (A) (A) (A) (A) (A)
                 (A) (A) (A) (A) (A) (A) (A) (A) (A) (A) (A) (A)
                 (A) (A) (A) (A) (A) (A) (A) (A) (A) (A) (A) (A)
                 (A) (A) (A)
 The electronic state is 1-A.
 Alpha  occ. eigenvalues --  -19.11297 -19.10513 -14.36733 -14.35280 -10.28691
 Alpha  occ. eigenvalues --  -10.28302 -10.24039 -10.22085 -10.18638 -10.18485
 Alpha  occ. eigenvalues --   -1.03501  -1.02217  -0.92412  -0.91657  -0.78038
 Alpha  occ. eigenvalues --   -0.72537  -0.70652  -0.65314  -0.59185  -0.55659
 Alpha  occ. eigenvalues --   -0.53158  -0.50530  -0.46466  -0.45758  -0.44617
 Alpha  occ. eigenvalues --   -0.43874  -0.42545  -0.41304  -0.39812  -0.39328
 Alpha  occ. eigenvalues --   -0.39191  -0.38322  -0.37443  -0.35435  -0.34854
 Alpha  occ. eigenvalues --   -0.26294  -0.25808  -0.24793  -0.23569
 Alpha virt. eigenvalues --    0.02351   0.03152   0.07180   0.09356   0.11429
 Alpha virt. eigenvalues --    0.12842   0.14554   0.15289   0.15545   0.16069
 Alpha virt. eigenvalues --    0.16706   0.17072   0.18169   0.18988   0.19177
 Alpha virt. eigenvalues --    0.20755   0.22855   0.25691   0.28305   0.32312
 Alpha virt. eigenvalues --    0.33546   0.39542   0.40727   0.48498   0.51368
 Alpha virt. eigenvalues --    0.52856   0.53205   0.54064   0.55143   0.56590
 Alpha virt. eigenvalues --    0.57767   0.59991   0.61603   0.65347   0.67957
 Alpha virt. eigenvalues --    0.68214   0.69348   0.70733   0.72144   0.73216
 Alpha virt. eigenvalues --    0.74959   0.77134   0.78504   0.79538   0.83407
 Alpha virt. eigenvalues --    0.85326   0.86278   0.86496   0.86943   0.87793
 Alpha virt. eigenvalues --    0.89402   0.90617   0.91621   0.93776   0.94062
 Alpha virt. eigenvalues --    0.94549   0.95523   0.98343   0.98939   1.02181
 Alpha virt. eigenvalues --    1.04016   1.05503   1.07706   1.08258   1.16296
 Alpha virt. eigenvalues --    1.18692   1.19784   1.26574   1.31050   1.33911
 Alpha virt. eigenvalues --    1.36479   1.39720   1.43891   1.44733   1.50655
 Alpha virt. eigenvalues --    1.53839   1.53974   1.58857   1.61345   1.69301
 Alpha virt. eigenvalues --    1.70916   1.77543   1.78954   1.79885   1.81455
 Alpha virt. eigenvalues --    1.83544   1.83865   1.86646   1.88761   1.89549
 Alpha virt. eigenvalues --    1.93341   1.96776   1.98082   1.98721   2.03339
 Alpha virt. eigenvalues --    2.03856   2.07401   2.08498   2.11532   2.13935
 Alpha virt. eigenvalues --    2.20100   2.22242   2.25417   2.27973   2.29105
 Alpha virt. eigenvalues --    2.30748   2.31997   2.36654   2.37706   2.40764
 Alpha virt. eigenvalues --    2.42093   2.49492   2.49997   2.55878   2.62073
 Alpha virt. eigenvalues --    2.65604   2.68221   2.69193   2.71906   2.86846
 Alpha virt. eigenvalues --    2.92948   2.98534   3.01138   3.11402   3.16107
 Alpha virt. eigenvalues --    3.90817   4.02003   4.04106   4.14978   4.19748
 Alpha virt. eigenvalues --    4.22386   4.25501   4.34118   4.51010   4.64200
          Condensed to atoms (all electrons):
              1          2          3          4          5          6
     1  H    0.516525   0.358274  -0.024466  -0.021548  -0.019964   0.003771
     2  C    0.358274   5.334130   0.345084   0.359087   0.343551  -0.079485
     3  H   -0.024466   0.345084   0.566760  -0.026350  -0.026395   0.002561
     4  H   -0.021548   0.359087  -0.026350   0.523496  -0.019414   0.000090
     5  C   -0.019964   0.343551  -0.026395  -0.019414   4.318448   0.593008
     6  O    0.003771  -0.079485   0.002561   0.000090   0.593008   8.065487
     7  N    0.003979  -0.124009   0.007459   0.000124   0.262226  -0.091625
     8  H   -0.000008   0.000609   0.000297   0.000289  -0.016508   0.003204
     9  C   -0.000174   0.006392   0.000354  -0.000332  -0.029731   0.000596
    10  H    0.000006  -0.000233  -0.000015  -0.000004   0.003796   0.000058
    11  C    0.000011   0.000146  -0.000038   0.000000  -0.003929  -0.002022
    12  H    0.000001   0.000175  -0.000005  -0.000006   0.002245   0.011252
    13  H    0.000000   0.000013  -0.000001   0.000000   0.000478   0.000798
    14  H   -0.000002  -0.000051   0.000002   0.000002   0.000640  -0.000631
    15  C   -0.000003  -0.000376   0.000007   0.000098   0.000848  -0.000160
    16  O    0.000000  -0.000240  -0.000005   0.000078   0.001562  -0.000012
    17  N    0.000000  -0.000003   0.000000   0.000000   0.000067  -0.000091
    18  H    0.000000   0.000000   0.000000   0.000000  -0.000004  -0.000033
    19  C    0.000000   0.000000   0.000000   0.000000  -0.000006   0.000001
    20  H    0.000000   0.000000   0.000000   0.000000  -0.000001   0.000000
    21  H    0.000000   0.000000   0.000000   0.000000   0.000000   0.000000
    22  H    0.000000   0.000000   0.000000   0.000000   0.000000   0.000000
              7          8          9         10         11         12
     1  H    0.003979  -0.000008  -0.000174   0.000006   0.000011   0.000001
     2  C   -0.124009   0.000609   0.006392  -0.000233   0.000146   0.000175
     3  H    0.007459   0.000297   0.000354  -0.000015  -0.000038  -0.000005
     4  H    0.000124   0.000289  -0.000332  -0.000004   0.000000  -0.000006
     5  C    0.262226  -0.016508  -0.029731   0.003796  -0.003929   0.002245
     6  O   -0.091625   0.003204   0.000596   0.000058  -0.002022   0.011252
     7  N    7.097557   0.292373   0.276913  -0.042336  -0.042126  -0.004561
     8  H    0.292373   0.405114  -0.039113  -0.002222   0.005824  -0.000086
     9  C    0.276913  -0.039113   5.079289   0.371948   0.329404  -0.030292
    10  H   -0.042336  -0.002222   0.371948   0.587411  -0.039587   0.004613
    11  C   -0.042126   0.005824   0.329404  -0.039587   5.163191   0.373501
    12  H   -0.004561  -0.000086  -0.030292   0.004613   0.373501   0.502084
    13  H    0.003731  -0.000112  -0.027269  -0.005677   0.342148  -0.030390
    14  H   -0.001693  -0.000120  -0.020657  -0.003503   0.369981  -0.023985
    15  C   -0.058198  -0.002007   0.324950  -0.042726  -0.029406  -0.003123
    16  O   -0.009811   0.017194  -0.083911  -0.001193   0.002944   0.000013
    17  N    0.003098   0.000526  -0.108327   0.001536  -0.000400   0.000644
    18  H    0.000112  -0.000050  -0.004181   0.000359   0.008834   0.001944
    19  C   -0.000137  -0.000005   0.005969  -0.000248  -0.000212  -0.000103
    20  H   -0.000010  -0.000011   0.000890  -0.000023  -0.000031  -0.000003
    21  H    0.000000   0.000000  -0.000147   0.000024   0.000009   0.000008
    22  H    0.000011   0.000000  -0.000080  -0.000006  -0.000018  -0.000016
             13         14         15         16         17         18
     1  H    0.000000  -0.000002  -0.000003   0.000000   0.000000   0.000000
     2  C    0.000013  -0.000051  -0.000376  -0.000240  -0.000003   0.000000
     3  H   -0.000001   0.000002   0.000007  -0.000005   0.000000   0.000000
     4  H    0.000000   0.000002   0.000098   0.000078   0.000000   0.000000
     5  C    0.000478   0.000640   0.000848   0.001562   0.000067  -0.000004
     6  O    0.000798  -0.000631  -0.000160  -0.000012  -0.000091  -0.000033
     7  N    0.003731  -0.001693  -0.058198  -0.009811   0.003098   0.000112
     8  H   -0.000112  -0.000120  -0.002007   0.017194   0.000526  -0.000050
     9  C   -0.027269  -0.020657   0.324950  -0.083911  -0.108327  -0.004181
    10  H   -0.005677  -0.003503  -0.042726  -0.001193   0.001536   0.000359
    11  C    0.342148   0.369981  -0.029406   0.002944  -0.000400   0.008834
    12  H   -0.030390  -0.023985  -0.003123   0.000013   0.000644   0.001944
    13  H    0.611117  -0.027808  -0.004536  -0.000045   0.001255   0.003353
    14  H   -0.027808   0.532063   0.002922  -0.000057   0.000116  -0.000212
    15  C   -0.004536   0.002922   4.374316   0.581480   0.280190  -0.016446
    16  O   -0.000045  -0.000057   0.581480   8.103799  -0.096866   0.003374
    17  N    0.001255   0.000116   0.280190  -0.096866   7.071377   0.298684
    18  H    0.003353  -0.000212  -0.016446   0.003374   0.298684   0.397702
    19  C    0.000063   0.000003  -0.024844  -0.006051   0.265285  -0.032039
    20  H   -0.000006   0.000001  -0.001084   0.019476  -0.040244   0.003958
    21  H   -0.000021   0.000000   0.003038   0.000468  -0.039533  -0.001097
    22  H    0.000015   0.000000  -0.001014   0.000511  -0.041826  -0.000444
             19         20         21         22
     1  H    0.000000   0.000000   0.000000   0.000000
     2  C    0.000000   0.000000   0.000000   0.000000
     3  H    0.000000   0.000000   0.000000   0.000000
     4  H    0.000000   0.000000   0.000000   0.000000
     5  C   -0.000006  -0.000001   0.000000   0.000000
     6  O    0.000001   0.000000   0.000000   0.000000
     7  N   -0.000137  -0.000010   0.000000   0.000011
     8  H   -0.000005  -0.000011   0.000000   0.000000
     9  C    0.005969   0.000890  -0.000147  -0.000080
    10  H   -0.000248  -0.000023   0.000024  -0.000006
    11  C   -0.000212  -0.000031   0.000009  -0.000018
    12  H   -0.000103  -0.000003   0.000008  -0.000016
    13  H    0.000063  -0.000006  -0.000021   0.000015
    14  H    0.000003   0.000001   0.000000   0.000000
    15  C   -0.024844  -0.001084   0.003038  -0.001014
    16  O   -0.006051   0.019476   0.000468   0.000511
    17  N    0.265285  -0.040244  -0.039533  -0.041826
    18  H   -0.032039   0.003958  -0.001097  -0.000444
    19  C    4.963162   0.377995   0.377617   0.384600
    20  H    0.377995   0.485951  -0.022526  -0.027668
    21  H    0.377617  -0.022526   0.565156  -0.039380
    22  H    0.384600  -0.027668  -0.039380   0.561060
 Mulliken atomic charges:
              1
     1  H    0.183598
     2  C   -0.543063
     3  H    0.154751
     4  H    0.184390
     5  C    0.589081
     6  O   -0.506768
     7  N   -0.573076
     8  H    0.334813
     9  C   -0.052491
    10  H    0.168021
    11  C   -0.478227
    12  H    0.196089
    13  H    0.132895
    14  H    0.172989
    15  C    0.616073
    16  O   -0.532705
    17  N   -0.595488
    18  H    0.336186
    19  C   -0.311051
    20  H    0.203340
    21  H    0.156387
    22  H    0.164256
 Sum of Mulliken atomic charges =   0.00000
 Mulliken charges with hydrogens summed into heavy atoms:
              1
     2  C   -0.020324
     5  C    0.589081
     6  O   -0.506768
     7  N   -0.238263
     9  C    0.115530
    11  C    0.023746
    15  C    0.616073
    16  O   -0.532705
    17  N   -0.259301
    19  C    0.212931
 Sum of Mulliken charges with hydrogens summed into heavy atoms =   0.00000
 Electronic spatial extent (au):  <R**2>=           1793.2101
 Charge=              0.0000 electrons
 Dipole moment (field-independent basis, Debye):
    X=              1.8784    Y=              0.9780    Z=             -1.2939  Tot=              2.4817
 Quadrupole moment (field-independent basis, Debye-Ang):
   XX=            -52.4879   YY=            -61.3659   ZZ=            -60.9966
   XY=              8.5420   XZ=              6.8675   YZ=             -2.6892
 Traceless Quadrupole moment (field-independent basis, Debye-Ang):
   XX=              5.7956   YY=             -3.0825   ZZ=             -2.7131
   XY=              8.5420   XZ=              6.8675   YZ=             -2.6892
 Octapole moment (field-independent basis, Debye-Ang**2):
  XXX=             18.5304  YYY=              6.0125  ZZZ=             -4.8724  XYY=             -1.7579
  XXY=             -9.4365  XXZ=              3.4781  XZZ=              6.9140  YZZ=             -4.5628
  YYZ=              1.8798  XYZ=              1.7650
 Hexadecapole moment (field-independent basis, Debye-Ang**3):
 XXXX=          -1475.5987 YYYY=           -477.8502 ZZZZ=           -238.4244 XXXY=             10.3810
 XXXZ=             22.6905 YYYX=              6.0991 YYYZ=              0.1541 ZZZX=              7.4030
 ZZZY=              5.3817 XXYY=           -336.9656 XXZZ=           -314.8489 YYZZ=           -117.8480
 XXYZ=             -6.6251 YYXZ=              7.8987 ZZXY=              8.1165
 N-N= 5.564815579690D+02 E-N=-2.269136899104D+03  KE= 4.912295246479D+02
 1\1\GINC-NODE003\FOpt\RB3LYP\6-31G(d)\C6H12N2O2\STEBOSS\11-Feb-2017\0\
 \# b3lyp/6-31G* Opt=(ModRedundant, maxcycles=1000, calcfc) geom=nocrow
 d\\Phi Psi fixed scan\\0,1\H,1.1362183644,2.4703390113,-1.715795527\C,
 1.4798309076,3.1509464085,-0.9344096096\H,1.3785939326,2.6687752204,0.
 0431043034\H,0.8351466166,4.0380723618,-0.949073872\C,2.9120549023,3.5
 684487713,-1.2465505035\O,3.3294410198,3.6331027343,-2.3956180763\N,3.
 6679887579,3.8477188081,-0.1313887283\H,3.1395173287,4.0460528576,0.70
 91131147\C,4.9639101412,4.5289796354,-0.1456517879\H,5.4341019144,4.26
 07241241,0.8117170002\C,5.9151931144,4.0625579814,-1.2526467875\H,5.59
 97837078,4.3965381714,-2.2409517042\H,6.9308795982,4.4159126354,-1.036
 4206215\H,5.9473753192,2.9699105708,-1.2731705701\C,4.7165556423,6.054
 3916678,-0.0139185386\O,3.7817758782,6.4581315913,0.6715861977\N,5.622
 6840941,6.8789418156,-0.605981293\H,6.2847900423,6.4798657827,-1.25440
 72153\C,5.5124509702,8.3271910744,-0.5391822285\H,4.8220671948,8.56886
 24692,0.2696577029\H,6.4903312104,8.774208455,-0.331846878\H,5.1204093
 425,8.7472278521,-1.4739643778\\Version=EM64L-G09RevA.02\State=1-A\HF=
 -495.8427757\RMSD=5.300e-09\RMSF=5.400e-04\Dipole=0.8559234,0.2255526,
 0.4121378\Quadrupole=4.764614,1.1228594,-5.8874735,4.4732453,-1.664969
 9,-5.6787857\PG=C01 [X(C6H12N2O2)]\\@


 THE MOST INCOMPREHENSIBLE THING ABOUT THE WORLD
 IS THAT IT IS COMPREHENSIBLE. -- A. EINSTEIN
 Job cpu time:  0 days  2 hours 25 minutes 17.3 seconds.
 File lengths (MBytes):  RWF=    186 Int=      0 D2E=      0 Chk=      4 Scr=      2
 Normal termination of Gaussian 09 at Sat Feb 11 03:23:27 2017.
