 Entering Gaussian System, Link 0=g09
 Initial command:
 /home/steboss/Software/g09/l1.exe /tmp/Gau-20725.inp -scrdir=/tmp/
 Entering Link 1 = /home/steboss/Software/g09/l1.exe PID=     20727.
  
 Copyright (c) 1988,1990,1992,1993,1995,1998,2003,2009, Gaussian, Inc.
                  All Rights Reserved.
  
 This is part of the Gaussian(R) 09 program.  It is based on
 the Gaussian(R) 03 system (copyright 2003, Gaussian, Inc.),
 the Gaussian(R) 98 system (copyright 1998, Gaussian, Inc.),
 the Gaussian(R) 94 system (copyright 1995, Gaussian, Inc.),
 the Gaussian 92(TM) system (copyright 1992, Gaussian, Inc.),
 the Gaussian 90(TM) system (copyright 1990, Gaussian, Inc.),
 the Gaussian 88(TM) system (copyright 1988, Gaussian, Inc.),
 the Gaussian 86(TM) system (copyright 1986, Carnegie Mellon
 University), and the Gaussian 82(TM) system (copyright 1983,
 Carnegie Mellon University). Gaussian is a federally registered
 trademark of Gaussian, Inc.
  
 This software contains proprietary and confidential information,
 including trade secrets, belonging to Gaussian, Inc.
  
 This software is provided under written license and may be
 used, copied, transmitted, or stored only in accord with that
 written license.
  
 The following legend is applicable only to US Government
 contracts under FAR:
  
                    RESTRICTED RIGHTS LEGEND
  
 Use, reproduction and disclosure by the US Government is
 subject to restrictions as set forth in subparagraphs (a)
 and (c) of the Commercial Computer Software - Restricted
 Rights clause in FAR 52.227-19.
  
 Gaussian, Inc.
 340 Quinnipiac St., Bldg. 40, Wallingford CT 06492
  
  
 ---------------------------------------------------------------
 Warning -- This program may not be used in any manner that
 competes with the business of Gaussian, Inc. or will provide
 assistance to any competitor of Gaussian, Inc.  The licensee
 of this program is prohibited from giving any competitor of
 Gaussian, Inc. access to this program.  By using this program,
 the user acknowledges that Gaussian, Inc. is engaged in the
 business of creating and licensing software in the field of
 computational chemistry and represents and warrants to the
 licensee that it is not a competitor of Gaussian, Inc. and that
 it will not use this program in any manner prohibited above.
 ---------------------------------------------------------------
  

 Cite this work as:
 Gaussian 09, Revision A.02,
 M. J. Frisch, G. W. Trucks, H. B. Schlegel, G. E. Scuseria, 
 M. A. Robb, J. R. Cheeseman, G. Scalmani, V. Barone, B. Mennucci, 
 G. A. Petersson, H. Nakatsuji, M. Caricato, X. Li, H. P. Hratchian, 
 A. F. Izmaylov, J. Bloino, G. Zheng, J. L. Sonnenberg, M. Hada, 
 M. Ehara, K. Toyota, R. Fukuda, J. Hasegawa, M. Ishida, T. Nakajima, 
 Y. Honda, O. Kitao, H. Nakai, T. Vreven, J. A. Montgomery, Jr., 
 J. E. Peralta, F. Ogliaro, M. Bearpark, J. J. Heyd, E. Brothers, 
 K. N. Kudin, V. N. Staroverov, R. Kobayashi, J. Normand, 
 K. Raghavachari, A. Rendell, J. C. Burant, S. S. Iyengar, J. Tomasi, 
 M. Cossi, N. Rega, J. M. Millam, M. Klene, J. E. Knox, J. B. Cross, 
 V. Bakken, C. Adamo, J. Jaramillo, R. Gomperts, R. E. Stratmann, 
 O. Yazyev, A. J. Austin, R. Cammi, C. Pomelli, J. W. Ochterski, 
 R. L. Martin, K. Morokuma, V. G. Zakrzewski, G. A. Voth, 
 P. Salvador, J. J. Dannenberg, S. Dapprich, A. D. Daniels, 
 O. Farkas, J. B. Foresman, J. V. Ortiz, J. Cioslowski, 
 and D. J. Fox, Gaussian, Inc., Wallingford CT, 2009.
 
 ******************************************
 Gaussian 09:  EM64L-G09RevA.02 11-Jun-2009
                 9-Feb-2017 
 ******************************************
 %chk=structure_150.chk
 %NProcShared=8
 Will use up to    8 processors via shared memory.
 -------------------------------------------
 # HF/6-31G* Opt=(ModRedundant) geom=nocrowd
 -------------------------------------------
 1/18=120,19=15,38=1/1,3;
 2/9=110,12=1,17=6,18=5,40=1/2;
 3/5=1,6=6,7=1,11=9,16=1,25=1,30=1,71=1/1,2,3;
 4//1;
 5/5=2,38=5/2;
 6/7=2,8=2,9=2,10=2,28=1/1;
 7//1,2,3,16;
 1/18=20,19=15/3(2);
 2/9=110,12=1/2;
 99//99;
 2/9=110,12=1/2;
 3/5=1,6=6,7=1,11=9,16=1,25=1,30=1,71=1/1,2,3;
 4/5=5,16=3/1;
 5/5=2,38=5/2;
 7//1,2,3,16;
 1/18=20,19=15/3(-5);
 2/9=110,12=1/2;
 6/7=2,8=2,9=2,10=2,19=2,28=1/1;
 99/9=1/99;
 ------------------
 Phi Psi fixed scan
 ------------------
 Symbolic Z-matrix:
 Charge =  0 Multiplicity = 1
 H                     0.5059    4.0098   -1.3919 
 C                     1.247     3.6069   -0.7015 
 H                     1.4338    2.5596   -0.9387 
 H                     0.8743    3.6867    0.3197 
 C                     2.5671    4.3738   -0.8014 
 O                     2.6862    5.3108   -1.5877 
 N                     3.5554    3.9697    0. 
 H                     3.4094    3.1938    0.63 
 C                     4.8533    4.6139    0. 
 H                     5.4076    4.3155    0.8898 
 C                     5.6613    4.2208   -1.2322 
 H                     5.1233    4.5214   -2.1312 
 H                     6.6305    4.7189   -1.2058 
 H                     5.8085    3.1409   -1.2414 
 C                     4.7127    6.1294    0. 
 O                     3.7419    6.6658   -0.5295 
 N                     5.6868    6.8201    0.5968 
 H                     6.4653    6.3339    1.0185 
 C                     5.669     8.2675    0.6638 
 H                     4.7735    8.6435    0.169 
 H                     5.667     8.5835    1.707 
 H                     6.553     8.6656    0.1657 
 
 The following ModRedundant input section has been read:
 D    5    7    9   15 F                                                       
 D    7    9   15   17 F                                                       

 GradGradGradGradGradGradGradGradGradGradGradGradGradGradGradGradGradGrad
 Berny optimization.
 Initialization pass.
                           ----------------------------
                           !    Initial Parameters    !
                           ! (Angstroms and Degrees)  !
 --------------------------                            --------------------------
 ! Name  Definition              Value          Derivative Info.                !
 --------------------------------------------------------------------------------
 ! R1    R(1,2)                  1.0901         estimate D2E/DX2                !
 ! R2    R(2,3)                  1.09           estimate D2E/DX2                !
 ! R3    R(2,4)                  1.09           estimate D2E/DX2                !
 ! R4    R(2,5)                  1.53           estimate D2E/DX2                !
 ! R5    R(5,6)                  1.229          estimate D2E/DX2                !
 ! R6    R(5,7)                  1.335          estimate D2E/DX2                !
 ! R7    R(7,8)                  1.0101         estimate D2E/DX2                !
 ! R8    R(7,9)                  1.449          estimate D2E/DX2                !
 ! R9    R(9,10)                 1.09           estimate D2E/DX2                !
 ! R10   R(9,11)                 1.525          estimate D2E/DX2                !
 ! R11   R(9,15)                 1.522          estimate D2E/DX2                !
 ! R12   R(11,12)                1.09           estimate D2E/DX2                !
 ! R13   R(11,13)                1.09           estimate D2E/DX2                !
 ! R14   R(11,14)                1.0899         estimate D2E/DX2                !
 ! R15   R(15,16)                1.229          estimate D2E/DX2                !
 ! R16   R(15,17)                1.335          estimate D2E/DX2                !
 ! R17   R(17,18)                1.0101         estimate D2E/DX2                !
 ! R18   R(17,19)                1.4491         estimate D2E/DX2                !
 ! R19   R(19,20)                1.09           estimate D2E/DX2                !
 ! R20   R(19,21)                1.09           estimate D2E/DX2                !
 ! R21   R(19,22)                1.09           estimate D2E/DX2                !
 ! A1    A(1,2,3)              109.5018         estimate D2E/DX2                !
 ! A2    A(1,2,4)              109.503          estimate D2E/DX2                !
 ! A3    A(1,2,5)              111.0997         estimate D2E/DX2                !
 ! A4    A(3,2,4)              109.4407         estimate D2E/DX2                !
 ! A5    A(3,2,5)              108.636          estimate D2E/DX2                !
 ! A6    A(4,2,5)              108.6327         estimate D2E/DX2                !
 ! A7    A(2,5,6)              120.5011         estimate D2E/DX2                !
 ! A8    A(2,5,7)              116.6041         estimate D2E/DX2                !
 ! A9    A(6,5,7)              122.8948         estimate D2E/DX2                !
 ! A10   A(5,7,8)              119.9952         estimate D2E/DX2                !
 ! A11   A(5,7,9)              121.9061         estimate D2E/DX2                !
 ! A12   A(8,7,9)              118.0987         estimate D2E/DX2                !
 ! A13   A(7,9,10)             109.5            estimate D2E/DX2                !
 ! A14   A(7,9,11)             111.0992         estimate D2E/DX2                !
 ! A15   A(7,9,15)             111.0966         estimate D2E/DX2                !
 ! A16   A(10,9,11)            108.6382         estimate D2E/DX2                !
 ! A17   A(10,9,15)            108.6373         estimate D2E/DX2                !
 ! A18   A(11,9,15)            107.7947         estimate D2E/DX2                !
 ! A19   A(9,11,12)            109.5007         estimate D2E/DX2                !
 ! A20   A(9,11,13)            109.4959         estimate D2E/DX2                !
 ! A21   A(9,11,14)            109.4978         estimate D2E/DX2                !
 ! A22   A(12,11,13)           109.441          estimate D2E/DX2                !
 ! A23   A(12,11,14)           109.4482         estimate D2E/DX2                !
 ! A24   A(13,11,14)           109.4436         estimate D2E/DX2                !
 ! A25   A(9,15,16)            120.5            estimate D2E/DX2                !
 ! A26   A(9,15,17)            116.6011         estimate D2E/DX2                !
 ! A27   A(16,15,17)           122.8989         estimate D2E/DX2                !
 ! A28   A(15,17,18)           119.9988         estimate D2E/DX2                !
 ! A29   A(15,17,19)           121.9048         estimate D2E/DX2                !
 ! A30   A(18,17,19)           118.0964         estimate D2E/DX2                !
 ! A31   A(17,19,20)           109.491          estimate D2E/DX2                !
 ! A32   A(17,19,21)           109.5024         estimate D2E/DX2                !
 ! A33   A(17,19,22)           109.4952         estimate D2E/DX2                !
 ! A34   A(20,19,21)           109.447          estimate D2E/DX2                !
 ! A35   A(20,19,22)           109.443          estimate D2E/DX2                !
 ! A36   A(21,19,22)           109.4486         estimate D2E/DX2                !
 ! D1    D(1,2,5,6)             -0.0006         estimate D2E/DX2                !
 ! D2    D(1,2,5,7)            179.9998         estimate D2E/DX2                !
 ! D3    D(3,2,5,6)            120.5137         estimate D2E/DX2                !
 ! D4    D(3,2,5,7)            -59.4859         estimate D2E/DX2                !
 ! D5    D(4,2,5,6)           -120.5142         estimate D2E/DX2                !
 ! D6    D(4,2,5,7)             59.4861         estimate D2E/DX2                !
 ! D7    D(2,5,7,8)              0.0017         estimate D2E/DX2                !
 ! D8    D(2,5,7,9)            179.9958         estimate D2E/DX2                !
 ! D9    D(6,5,7,8)           -179.998          estimate D2E/DX2                !
 ! D10   D(6,5,7,9)             -0.0039         estimate D2E/DX2                !
 ! D11   D(5,7,9,10)           165.0015         estimate D2E/DX2                !
 ! D12   D(5,7,9,11)           -74.9959         estimate D2E/DX2                !
 ! D13   D(5,7,9,15)            45.0017         Frozen                          !
 ! D14   D(8,7,9,10)           -15.0043         estimate D2E/DX2                !
 ! D15   D(8,7,9,11)           104.9983         estimate D2E/DX2                !
 ! D16   D(8,7,9,15)          -135.0041         estimate D2E/DX2                !
 ! D17   D(7,9,11,12)           60.0024         estimate D2E/DX2                !
 ! D18   D(7,9,11,13)          179.9986         estimate D2E/DX2                !
 ! D19   D(7,9,11,14)          -60.0038         estimate D2E/DX2                !
 ! D20   D(10,9,11,12)        -179.4843         estimate D2E/DX2                !
 ! D21   D(10,9,11,13)         -59.4881         estimate D2E/DX2                !
 ! D22   D(10,9,11,14)          60.5095         estimate D2E/DX2                !
 ! D23   D(15,9,11,12)         -61.938          estimate D2E/DX2                !
 ! D24   D(15,9,11,13)          58.0582         estimate D2E/DX2                !
 ! D25   D(15,9,11,14)         178.0558         estimate D2E/DX2                !
 ! D26   D(7,9,15,16)          -30.0006         estimate D2E/DX2                !
 ! D27   D(7,9,15,17)          150.0013         Frozen                          !
 ! D28   D(10,9,15,16)        -150.5117         estimate D2E/DX2                !
 ! D29   D(10,9,15,17)          29.4902         estimate D2E/DX2                !
 ! D30   D(11,9,15,16)          91.9414         estimate D2E/DX2                !
 ! D31   D(11,9,15,17)         -88.0567         estimate D2E/DX2                !
 ! D32   D(9,15,17,18)          -0.0061         estimate D2E/DX2                !
 ! D33   D(9,15,17,19)        -179.9984         estimate D2E/DX2                !
 ! D34   D(16,15,17,18)        179.9959         estimate D2E/DX2                !
 ! D35   D(16,15,17,19)          0.0036         estimate D2E/DX2                !
 ! D36   D(15,17,19,20)         -0.0048         estimate D2E/DX2                !
 ! D37   D(15,17,19,21)        119.9968         estimate D2E/DX2                !
 ! D38   D(15,17,19,22)       -119.9971         estimate D2E/DX2                !
 ! D39   D(18,17,19,20)       -179.9973         estimate D2E/DX2                !
 ! D40   D(18,17,19,21)        -59.9957         estimate D2E/DX2                !
 ! D41   D(18,17,19,22)         60.0105         estimate D2E/DX2                !
 --------------------------------------------------------------------------------
 Trust Radius=3.00D-01 FncErr=1.00D-07 GrdErr=1.00D-07
 Number of steps in this run= 108 maximum allowed number of steps= 132.
 GradGradGradGradGradGradGradGradGradGradGradGradGradGradGradGradGradGrad

                          Input orientation:                          
 ---------------------------------------------------------------------
 Center     Atomic      Atomic             Coordinates (Angstroms)
 Number     Number       Type             X           Y           Z
 ---------------------------------------------------------------------
      1          1           0        0.505900    4.009800   -1.391900
      2          6           0        1.247000    3.606900   -0.701500
      3          1           0        1.433800    2.559600   -0.938700
      4          1           0        0.874300    3.686700    0.319700
      5          6           0        2.567100    4.373800   -0.801400
      6          8           0        2.686200    5.310800   -1.587700
      7          7           0        3.555400    3.969700    0.000000
      8          1           0        3.409400    3.193800    0.630000
      9          6           0        4.853300    4.613900    0.000000
     10          1           0        5.407600    4.315500    0.889800
     11          6           0        5.661300    4.220800   -1.232200
     12          1           0        5.123300    4.521400   -2.131200
     13          1           0        6.630500    4.718900   -1.205800
     14          1           0        5.808500    3.140900   -1.241400
     15          6           0        4.712700    6.129400    0.000000
     16          8           0        3.741900    6.665800   -0.529500
     17          7           0        5.686800    6.820100    0.596800
     18          1           0        6.465300    6.333900    1.018500
     19          6           0        5.669000    8.267500    0.663800
     20          1           0        4.773500    8.643500    0.169000
     21          1           0        5.667000    8.583500    1.707000
     22          1           0        6.553000    8.665600    0.165700
 ---------------------------------------------------------------------
                    Distance matrix (angstroms):
                    1          2          3          4          5
     1  H    0.000000
     2  C    1.090050   0.000000
     3  H    1.780300   1.089952   0.000000
     4  H    1.780361   1.090010   1.779597   0.000000
     5  C    2.174795   1.529961   2.143488   2.143489   0.000000
     6  O    2.546497   2.399984   3.091732   3.091740   1.228992
     7  N    3.352379   2.439762   2.714908   2.714884   1.335019
     8  H    3.631012   2.572842   2.601158   2.601148   2.037345
     9  C    4.604586   3.809403   4.098083   4.098091   2.434461
    10  H    5.415374   4.510537   4.713564   4.612072   3.306357
    11  C    5.162187   4.488269   4.551646   5.060536   3.127790
    12  H    4.704113   4.231555   4.345472   4.975705   2.885188
    13  H    6.168321   5.520230   5.633792   6.043710   4.098030
    14  H    5.375426   4.616918   4.423521   5.203966   3.495757
    15  C    4.911950   4.343522   4.937187   4.560954   2.885823
    16  O    4.274315   3.951073   4.728176   4.221292   2.589855
    17  N    6.220485   5.632234   6.212699   5.749360   4.203793
    18  H    6.835636   6.133970   6.587258   6.225373   4.727578
    19  C    7.000822   6.568053   7.285949   6.640127   5.189364
    20  H    6.489992   6.209776   7.028117   6.308434   4.903082
    21  H    7.560348   7.078405   7.823496   6.990939   5.798536
    22  H    7.789096   7.382149   8.044199   7.553860   5.936517
                    6          7          8          9         10
     6  O    0.000000
     7  N    2.252743   0.000000
     8  H    3.150064   1.010068   0.000000
     9  C    2.775389   1.448978   2.120951   0.000000
    10  H    3.812433   2.083739   2.306190   1.089970   0.000000
    11  C    3.188370   2.452791   3.097349   1.525027   2.139209
    12  H    2.618779   2.702720   3.510584   2.150225   3.041326
    13  H    4.006706   3.386959   4.008937   2.150214   2.459625
    14  H    3.818003   2.702673   3.043126   2.150165   2.466256
    15  C    2.701407   2.450234   3.273108   1.522008   2.136554
    16  O    2.017502   2.753926   3.675565   2.392880   3.211367
    17  N    4.006698   3.608852   4.282255   2.432737   2.537089
    18  H    4.703255   3.885139   4.398828   2.567934   2.282374
    19  C    4.765336   4.835186   5.554221   3.801946   3.967078
    20  H    4.306937   4.832881   5.636712   4.033932   4.433195
    21  H    5.518223   5.353490   5.941848   4.397008   4.353266
    22  H    5.411214   5.573557   6.327590   4.396898   4.556274
                   11         12         13         14         15
    11  C    0.000000
    12  H    1.089957   0.000000
    13  H    1.090023   1.779613   0.000000
    14  H    1.089925   1.779613   1.779617   0.000000
    15  C    2.461892   2.701161   2.668599   3.416575   0.000000
    16  O    3.186834   3.012003   3.548494   4.147597   1.229043
    17  N    3.178404   3.611584   2.924889   4.114645   1.334956
    18  H    3.190182   3.873852   2.753730   3.966583   2.037344
    19  C    4.468854   4.705643   4.124615   5.470948   2.434463
    20  H    4.723540   4.733391   4.554230   5.773999   2.520507
    21  H    5.260426   5.614984   4.934356   6.191525   3.138016
    22  H    4.743996   4.949160   4.178930   5.749480   3.137909
                   16         17         18         19         20
    16  O    0.000000
    17  N    2.252775   0.000000
    18  H    3.150138   1.010091   0.000000
    19  C    2.775450   1.449059   2.121017   0.000000
    20  H    2.337391   2.083727   2.986317   1.090011   0.000000
    21  H    3.519306   2.083870   2.484354   1.090012   1.779715
    22  H    3.519203   2.083751   2.484308   1.089974   1.779640
                   21         22
    21  H    0.000000
    22  H    1.779703   0.000000
 Stoichiometry    C6H12N2O2
 Framework group  C1[X(C6H12N2O2)]
 Deg. of freedom    60
 Full point group                 C1      NOp   1
 Largest Abelian subgroup         C1      NOp   1
 Largest concise Abelian subgroup C1      NOp   1
                         Standard orientation:                         
 ---------------------------------------------------------------------
 Center     Atomic      Atomic             Coordinates (Angstroms)
 Number     Number       Type             X           Y           Z
 ---------------------------------------------------------------------
      1          1           0       -3.651864   -1.510997    0.241197
      2          6           0       -3.247414   -0.741330   -0.416255
      3          1           0       -3.892535    0.136759   -0.388443
      4          1           0       -3.197979   -1.123033   -1.436051
      5          6           0       -1.840300   -0.328222    0.019809
      6          8           0       -1.311954   -0.850878    0.998636
      7          7           0       -1.239335    0.612236   -0.712760
      8          1           0       -1.714622    1.012449   -1.509107
      9          6           0        0.093295    1.089252   -0.402776
     10          1           0        0.489696    1.640939   -1.255151
     11          6           0        0.077375    2.012716    0.810760
     12          1           0       -0.308576    1.471670    1.674657
     13          1           0        1.090648    2.355480    1.020380
     14          1           0       -0.561144    2.871898    0.605734
     15          6           0        1.031575   -0.068642   -0.093874
     16          8           0        0.599902   -1.104890    0.406523
     17          7           0        2.320103    0.109734   -0.393848
     18          1           0        2.627272    0.980002   -0.804414
     19          6           0        3.312822   -0.916910   -0.148318
     20          1           0        2.831936   -1.789512    0.293765
     21          1           0        3.783944   -1.200091   -1.089583
     22          1           0        4.070143   -0.534394    0.535926
 ---------------------------------------------------------------------
 Rotational constants (GHZ):      2.5347264      0.8644615      0.7444982
 Standard basis: 6-31G(d) (6D, 7F)
 There are   174 symmetry adapted basis functions of A   symmetry.
 Integral buffers will be    131072 words long.
 Raffenetti 1 integral format.
 Two-electron integral symmetry is turned on.
   174 basis functions,   328 primitive gaussians,   174 cartesian basis functions
    39 alpha electrons       39 beta electrons
       nuclear repulsion energy       576.1458444208 Hartrees.
 NAtoms=   22 NActive=   22 NUniq=   22 SFac= 7.50D-01 NAtFMM=   80 NAOKFM=F Big=F
 One-electron integrals computed using PRISM.
 NBasis=   174 RedAO= T  NBF=   174
 NBsUse=   174 1.00D-06 NBFU=   174
 Harris functional with IExCor=  205 diagonalized for initial guess.
 ExpMin= 1.61D-01 ExpMax= 5.48D+03 ExpMxC= 8.25D+02 IAcc=1 IRadAn=         1 AccDes= 0.00D+00
 HarFok:  IExCor=  205 AccDes= 0.00D+00 IRadAn=         1 IDoV= 1
 ScaDFX=  1.000000  1.000000  1.000000  1.000000
 FoFCou: FMM=F IPFlag=           0 FMFlag=      100000 FMFlg1=           0
         NFxFlg=           0 DoJE=T BraDBF=F KetDBF=T FulRan=T
         Omega=  0.000000  0.000000  1.000000  0.000000  0.000000 ICntrl=     500 IOpCl=  0
         NMat0=    1 NMatS0=    1 NMatT0=    0 NMatD0=    1 NMtDS0=    0 NMtDT0=    0
         I1Cent=           4 NGrid=           0.
 Petite list used in FoFCou.
 Initial guess orbital symmetries:
       Occupied  (A) (A) (A) (A) (A) (A) (A) (A) (A) (A) (A) (A)
                 (A) (A) (A) (A) (A) (A) (A) (A) (A) (A) (A) (A)
                 (A) (A) (A) (A) (A) (A) (A) (A) (A) (A) (A) (A)
                 (A) (A) (A)
       Virtual   (A) (A) (A) (A) (A) (A) (A) (A) (A) (A) (A) (A)
                 (A) (A) (A) (A) (A) (A) (A) (A) (A) (A) (A) (A)
                 (A) (A) (A) (A) (A) (A) (A) (A) (A) (A) (A) (A)
                 (A) (A) (A) (A) (A) (A) (A) (A) (A) (A) (A) (A)
                 (A) (A) (A) (A) (A) (A) (A) (A) (A) (A) (A) (A)
                 (A) (A) (A) (A) (A) (A) (A) (A) (A) (A) (A) (A)
                 (A) (A) (A) (A) (A) (A) (A) (A) (A) (A) (A) (A)
                 (A) (A) (A) (A) (A) (A) (A) (A) (A) (A) (A) (A)
                 (A) (A) (A) (A) (A) (A) (A) (A) (A) (A) (A) (A)
                 (A) (A) (A) (A) (A) (A) (A) (A) (A) (A) (A) (A)
                 (A) (A) (A) (A) (A) (A) (A) (A) (A) (A) (A) (A)
                 (A) (A) (A)
 The electronic state of the initial guess is 1-A.
 Requested convergence on RMS density matrix=1.00D-08 within 128 cycles.
 Requested convergence on MAX density matrix=1.00D-06.
 Requested convergence on             energy=1.00D-06.
 No special actions if energy rises.
 Integral accuracy reduced to 1.0D-05 until final iterations.
 Initial convergence to 1.0D-05 achieved.  Increase integral accuracy.
 SCF Done:  E(RHF) =  -492.778121590     A.U. after   16 cycles
             Convg  =    0.4436D-08             -V/T =  2.0014

 **********************************************************************

            Population analysis using the SCF density.

 **********************************************************************

 Orbital symmetries:
       Occupied  (A) (A) (A) (A) (A) (A) (A) (A) (A) (A) (A) (A)
                 (A) (A) (A) (A) (A) (A) (A) (A) (A) (A) (A) (A)
                 (A) (A) (A) (A) (A) (A) (A) (A) (A) (A) (A) (A)
                 (A) (A) (A)
       Virtual   (A) (A) (A) (A) (A) (A) (A) (A) (A) (A) (A) (A)
                 (A) (A) (A) (A) (A) (A) (A) (A) (A) (A) (A) (A)
                 (A) (A) (A) (A) (A) (A) (A) (A) (A) (A) (A) (A)
                 (A) (A) (A) (A) (A) (A) (A) (A) (A) (A) (A) (A)
                 (A) (A) (A) (A) (A) (A) (A) (A) (A) (A) (A) (A)
                 (A) (A) (A) (A) (A) (A) (A) (A) (A) (A) (A) (A)
                 (A) (A) (A) (A) (A) (A) (A) (A) (A) (A) (A) (A)
                 (A) (A) (A) (A) (A) (A) (A) (A) (A) (A) (A) (A)
                 (A) (A) (A) (A) (A) (A) (A) (A) (A) (A) (A) (A)
                 (A) (A) (A) (A) (A) (A) (A) (A) (A) (A) (A) (A)
                 (A) (A) (A) (A) (A) (A) (A) (A) (A) (A) (A) (A)
                 (A) (A) (A)
 The electronic state is 1-A.
 Alpha  occ. eigenvalues --  -20.48553 -20.48299 -15.58411 -15.58328 -11.33033
 Alpha  occ. eigenvalues --  -11.32346 -11.28409 -11.25291 -11.22182 -11.22158
 Alpha  occ. eigenvalues --   -1.37343  -1.33224  -1.23305  -1.22013  -1.05325
 Alpha  occ. eigenvalues --   -0.97745  -0.95168  -0.87391  -0.80398  -0.77474
 Alpha  occ. eigenvalues --   -0.70424  -0.68211  -0.64257  -0.62776  -0.61557
 Alpha  occ. eigenvalues --   -0.60605  -0.58299  -0.56995  -0.56014  -0.54686
 Alpha  occ. eigenvalues --   -0.53757  -0.53077  -0.52176  -0.49535  -0.47212
 Alpha  occ. eigenvalues --   -0.43787  -0.38293  -0.36779  -0.31615
 Alpha virt. eigenvalues --    0.19465   0.21048   0.22357   0.23169   0.27078
 Alpha virt. eigenvalues --    0.27571   0.28981   0.30693   0.32071   0.32644
 Alpha virt. eigenvalues --    0.33044   0.33319   0.33992   0.34153   0.36804
 Alpha virt. eigenvalues --    0.38318   0.41086   0.44163   0.48515   0.52451
 Alpha virt. eigenvalues --    0.56791   0.61194   0.62095   0.71586   0.73306
 Alpha virt. eigenvalues --    0.74152   0.75880   0.77169   0.77887   0.79275
 Alpha virt. eigenvalues --    0.81310   0.83293   0.85144   0.86174   0.91908
 Alpha virt. eigenvalues --    0.93424   0.96282   0.97455   0.97910   0.99756
 Alpha virt. eigenvalues --    1.02315   1.02892   1.03740   1.06945   1.09355
 Alpha virt. eigenvalues --    1.10635   1.13116   1.14480   1.15721   1.16122
 Alpha virt. eigenvalues --    1.17797   1.18516   1.19040   1.20077   1.21291
 Alpha virt. eigenvalues --    1.21700   1.22455   1.23138   1.25052   1.28935
 Alpha virt. eigenvalues --    1.31186   1.36354   1.38967   1.43881   1.45276
 Alpha virt. eigenvalues --    1.52712   1.56982   1.58319   1.60803   1.65251
 Alpha virt. eigenvalues --    1.66088   1.68281   1.72189   1.76175   1.79716
 Alpha virt. eigenvalues --    1.82440   1.84867   1.88741   1.95728   2.01588
 Alpha virt. eigenvalues --    2.02333   2.06516   2.07807   2.11824   2.13925
 Alpha virt. eigenvalues --    2.15734   2.18995   2.21704   2.23383   2.24120
 Alpha virt. eigenvalues --    2.26089   2.29784   2.34280   2.34362   2.37311
 Alpha virt. eigenvalues --    2.38886   2.43749   2.47278   2.50611   2.54852
 Alpha virt. eigenvalues --    2.56263   2.57553   2.61614   2.63086   2.64691
 Alpha virt. eigenvalues --    2.66034   2.69412   2.74280   2.74983   2.79383
 Alpha virt. eigenvalues --    2.81255   2.87752   2.93399   2.98561   3.00917
 Alpha virt. eigenvalues --    3.03479   3.05011   3.09248   3.16288   3.25483
 Alpha virt. eigenvalues --    3.33746   3.39988   3.42310   3.57333   3.61368
 Alpha virt. eigenvalues --    4.40029   4.44542   4.51480   4.61893   4.67172
 Alpha virt. eigenvalues --    4.71557   4.75864   4.90061   4.96329   5.08001
          Condensed to atoms (all electrons):
              1          2          3          4          5          6
     1  H    0.455318   0.385604  -0.019110  -0.018079  -0.028943   0.004044
     2  C    0.385604   5.254848   0.372950   0.370855   0.372222  -0.062671
     3  H   -0.019110   0.372950   0.533780  -0.027032  -0.036464   0.001022
     4  H   -0.018079   0.370855  -0.027032   0.534908  -0.039271   0.000714
     5  C   -0.028943   0.372222  -0.036464  -0.039271   4.234960   0.583660
     6  O    0.004044  -0.062671   0.001022   0.000714   0.583660   8.297500
     7  N    0.003742  -0.126891   0.004374   0.005732   0.214253  -0.114006
     8  H   -0.000044  -0.000166   0.000612   0.000282  -0.015331   0.002696
     9  C   -0.000077   0.004438  -0.000231  -0.000178  -0.027617   0.023090
    10  H    0.000001  -0.000062  -0.000004   0.000005   0.002790   0.000065
    11  C    0.000005  -0.000282   0.000040   0.000005  -0.001771  -0.006529
    12  H    0.000001   0.000171  -0.000034   0.000000   0.003274   0.006315
    13  H    0.000000   0.000005   0.000000   0.000000   0.000114   0.000095
    14  H    0.000000  -0.000016   0.000003  -0.000001  -0.000157   0.000076
    15  C   -0.000002  -0.000017   0.000014  -0.000022  -0.004132   0.005505
    16  O    0.000028  -0.000892  -0.000010   0.000160   0.009368  -0.176394
    17  N    0.000000  -0.000001   0.000000   0.000000   0.000144  -0.000285
    18  H    0.000000   0.000000   0.000000   0.000000   0.000001   0.000021
    19  C    0.000000   0.000000   0.000000   0.000000   0.000003   0.000004
    20  H    0.000000   0.000000   0.000000   0.000000  -0.000001   0.000058
    21  H    0.000000   0.000000   0.000000   0.000000   0.000000   0.000000
    22  H    0.000000   0.000000   0.000000   0.000000   0.000000   0.000000
              7          8          9         10         11         12
     1  H    0.003742  -0.000044  -0.000077   0.000001   0.000005   0.000001
     2  C   -0.126891  -0.000166   0.004438  -0.000062  -0.000282   0.000171
     3  H    0.004374   0.000612  -0.000231  -0.000004   0.000040  -0.000034
     4  H    0.005732   0.000282  -0.000178   0.000005   0.000005   0.000000
     5  C    0.214253  -0.015331  -0.027617   0.002790  -0.001771   0.003274
     6  O   -0.114006   0.002696   0.023090   0.000065  -0.006529   0.006315
     7  N    7.434865   0.325944   0.192094  -0.037547  -0.070178  -0.006054
     8  H    0.325944   0.326171  -0.025161  -0.003970   0.002041  -0.000132
     9  C    0.192094  -0.025161   5.080022   0.408762   0.333119  -0.029041
    10  H   -0.037547  -0.003970   0.408762   0.531540  -0.041737   0.003618
    11  C   -0.070178   0.002041   0.333119  -0.041737   5.170537   0.390976
    12  H   -0.006054  -0.000132  -0.029041   0.003618   0.390976   0.449331
    13  H    0.005120  -0.000087  -0.040297  -0.001012   0.380781  -0.021092
    14  H    0.000353   0.000377  -0.038139  -0.003885   0.386496  -0.021640
    15  C   -0.044382   0.002524   0.357869  -0.043746  -0.059560  -0.005221
    16  O    0.010724  -0.000104  -0.093848   0.002292   0.000905   0.001442
    17  N    0.002278  -0.000105  -0.115673   0.005327  -0.000120   0.000326
    18  H   -0.000008  -0.000002   0.001998   0.001431   0.000056  -0.000009
    19  C   -0.000102   0.000002   0.004505  -0.000135  -0.000317  -0.000004
    20  H   -0.000012   0.000000   0.000722  -0.000026  -0.000034  -0.000003
    21  H    0.000004   0.000000  -0.000061  -0.000013  -0.000005   0.000000
    22  H    0.000000   0.000000  -0.000088  -0.000002   0.000046   0.000000
             13         14         15         16         17         18
     1  H    0.000000   0.000000  -0.000002   0.000028   0.000000   0.000000
     2  C    0.000005  -0.000016  -0.000017  -0.000892  -0.000001   0.000000
     3  H    0.000000   0.000003   0.000014  -0.000010   0.000000   0.000000
     4  H    0.000000  -0.000001  -0.000022   0.000160   0.000000   0.000000
     5  C    0.000114  -0.000157  -0.004132   0.009368   0.000144   0.000001
     6  O    0.000095   0.000076   0.005505  -0.176394  -0.000285   0.000021
     7  N    0.005120   0.000353  -0.044382   0.010724   0.002278  -0.000008
     8  H   -0.000087   0.000377   0.002524  -0.000104  -0.000105  -0.000002
     9  C   -0.040297  -0.038139   0.357869  -0.093848  -0.115673   0.001998
    10  H   -0.001012  -0.003885  -0.043746   0.002292   0.005327   0.001431
    11  C    0.380781   0.386496  -0.059560   0.000905  -0.000120   0.000056
    12  H   -0.021092  -0.021640  -0.005221   0.001442   0.000326  -0.000009
    13  H    0.544840  -0.023854  -0.003563  -0.000157   0.002593   0.000471
    14  H   -0.023854   0.531132   0.005200  -0.000106  -0.000100  -0.000009
    15  C   -0.003563   0.005200   4.211449   0.585952   0.266677  -0.022320
    16  O   -0.000157  -0.000106   0.585952   8.321784  -0.093549   0.002367
    17  N    0.002593  -0.000100   0.266677  -0.093549   7.349176   0.323533
    18  H    0.000471  -0.000009  -0.022320   0.002367   0.323533   0.339124
    19  C   -0.000050   0.000006  -0.025940  -0.005022   0.187562  -0.022213
    20  H    0.000000   0.000000  -0.001045   0.012230  -0.031939   0.002468
    21  H    0.000004   0.000000   0.000576   0.000392  -0.048503  -0.001032
    22  H   -0.000023  -0.000001   0.001606   0.000410  -0.048889  -0.001080
             19         20         21         22
     1  H    0.000000   0.000000   0.000000   0.000000
     2  C    0.000000   0.000000   0.000000   0.000000
     3  H    0.000000   0.000000   0.000000   0.000000
     4  H    0.000000   0.000000   0.000000   0.000000
     5  C    0.000003  -0.000001   0.000000   0.000000
     6  O    0.000004   0.000058   0.000000   0.000000
     7  N   -0.000102  -0.000012   0.000004   0.000000
     8  H    0.000002   0.000000   0.000000   0.000000
     9  C    0.004505   0.000722  -0.000061  -0.000088
    10  H   -0.000135  -0.000026  -0.000013  -0.000002
    11  C   -0.000317  -0.000034  -0.000005   0.000046
    12  H   -0.000004  -0.000003   0.000000   0.000000
    13  H   -0.000050   0.000000   0.000004  -0.000023
    14  H    0.000006   0.000000   0.000000  -0.000001
    15  C   -0.025940  -0.001045   0.000576   0.001606
    16  O   -0.005022   0.012230   0.000392   0.000410
    17  N    0.187562  -0.031939  -0.048503  -0.048889
    18  H   -0.022213   0.002468  -0.001032  -0.001080
    19  C    4.950157   0.394751   0.402638   0.402398
    20  H    0.394751   0.424829  -0.022165  -0.022210
    21  H    0.402638  -0.022165   0.541973  -0.037758
    22  H    0.402398  -0.022210  -0.037758   0.540316
 Mulliken atomic charges:
              1
     1  H    0.217513
     2  C   -0.570094
     3  H    0.170091
     4  H    0.171922
     5  C    0.732897
     6  O   -0.564979
     7  N   -0.800303
     8  H    0.384452
     9  C   -0.036209
    10  H    0.176311
    11  C   -0.484472
    12  H    0.227776
    13  H    0.156111
    14  H    0.164264
    15  C    0.772580
    16  O   -0.577975
    17  N   -0.798450
    18  H    0.375205
    19  C   -0.288243
    20  H    0.242377
    21  H    0.163949
    22  H    0.165276
 Sum of Mulliken atomic charges =   0.00000
 Mulliken charges with hydrogens summed into heavy atoms:
              1
     2  C   -0.010568
     5  C    0.732897
     6  O   -0.564979
     7  N   -0.415851
     9  C    0.140102
    11  C    0.063679
    15  C    0.772580
    16  O   -0.577975
    17  N   -0.423245
    19  C    0.283359
 Sum of Mulliken charges with hydrogens summed into heavy atoms =   0.00000
 Electronic spatial extent (au):  <R**2>=           1663.7815
 Charge=              0.0000 electrons
 Dipole moment (field-independent basis, Debye):
    X=              1.2178    Y=              4.4778    Z=             -4.2166  Tot=              6.2700
 Quadrupole moment (field-independent basis, Debye-Ang):
   XX=            -47.3035   YY=            -60.6857   ZZ=            -60.7882
   XY=             -0.1489   XZ=              2.8727   YZ=              0.5209
 Traceless Quadrupole moment (field-independent basis, Debye-Ang):
   XX=              8.9556   YY=             -4.4265   ZZ=             -4.5291
   XY=             -0.1489   XZ=              2.8727   YZ=              0.5209
 Octapole moment (field-independent basis, Debye-Ang**2):
  XXX=             11.5472  YYY=             -0.7017  ZZZ=             -4.9236  XYY=              3.2029
  XXY=             -1.8330  XXZ=            -10.1403  XZZ=              0.7700  YZZ=              4.8956
  YYZ=             -6.0505  XYZ=             -2.4215
 Hexadecapole moment (field-independent basis, Debye-Ang**3):
 XXXX=          -1404.0008 YYYY=           -468.8383 ZZZZ=           -194.5260 XXXY=              1.3103
 XXXZ=             -8.5911 YYYX=             -0.4767 YYYZ=            -12.5972 ZZZX=              6.4881
 ZZZY=             -9.7585 XXYY=           -307.2314 XXZZ=           -282.4487 YYZZ=           -108.8213
 XXYZ=            -11.1801 YYXZ=             -0.0446 ZZXY=             -5.1853
 N-N= 5.761458444208D+02 E-N=-2.308828447386D+03  KE= 4.921094855439D+02
 Calling FoFJK, ICntrl=      2127 FMM=F ISym2X=0 I1Cent= 0 IOpClX= 0 NMat=1 NMatS=1 NMatT=0.
 ***** Axes restored to original set *****
 -------------------------------------------------------------------
 Center     Atomic                   Forces (Hartrees/Bohr)
 Number     Number              X              Y              Z
 -------------------------------------------------------------------
      1        1           0.009034830   -0.000201711    0.004241642
      2        6           0.008679631    0.001623472    0.007061194
      3        1          -0.004018862    0.001296566    0.002527168
      4        1          -0.002463938   -0.004323282   -0.002877925
      5        6          -0.034849322    0.051307570   -0.070190177
      6        8          -0.044911791   -0.113031992   -0.007379676
      7        7           0.015676133   -0.014876394    0.030238817
      8        1           0.001433152    0.012647505   -0.010226532
      9        6           0.006544243    0.002410768   -0.005205499
     10        1          -0.006927849   -0.002349893   -0.001275874
     11        6           0.004069855   -0.003036938   -0.005159416
     12        1           0.004436435   -0.001997597    0.004714721
     13        1          -0.001562851   -0.003744218   -0.003360588
     14        1           0.001404402    0.003928267   -0.001763931
     15        6          -0.066711244    0.026755387   -0.023422983
     16        8           0.092242063    0.036249106    0.074762767
     17        7           0.022751673   -0.000256118    0.011128393
     18        1          -0.011869723    0.007630151   -0.006176209
     19        6           0.002739545    0.002753474   -0.000070637
     20        1           0.007791818   -0.006058180    0.004126339
     21        1           0.000414929    0.001504693   -0.004429465
     22        1          -0.003903132    0.001769365    0.002737871
 -------------------------------------------------------------------
 Cartesian Forces:  Max     0.113031992 RMS     0.026972152

 GradGradGradGradGradGradGradGradGradGradGradGradGradGradGradGradGradGrad
 Berny optimization.
 Internal  Forces:  Max     0.208152669 RMS     0.045930116
 Search for a local minimum.
 Step number   1 out of a maximum of  108
 All quantities printed in internal units (Hartrees-Bohrs-Radians)
 Mixed Optimization -- RFO/linear search
 Second derivative matrix not updated -- first step.
     Eigenvalues ---    0.00370   0.00435   0.00999   0.01043   0.01269
     Eigenvalues ---    0.01422   0.01660   0.02551   0.02552   0.03503
     Eigenvalues ---    0.05232   0.05841   0.05844   0.05844   0.07165
     Eigenvalues ---    0.07465   0.07685   0.07686   0.15421   0.16000
     Eigenvalues ---    0.16000   0.16000   0.16000   0.16000   0.16000
     Eigenvalues ---    0.16000   0.16000   0.16000   0.16000   0.16000
     Eigenvalues ---    0.16180   0.22000   0.22000   0.25000   0.25000
     Eigenvalues ---    0.25000   0.25000   0.29427   0.29887   0.30174
     Eigenvalues ---    0.34807   0.34810   0.34811   0.34811   0.34811
     Eigenvalues ---    0.34816   0.34816   0.34818   0.34818   0.34821
     Eigenvalues ---    0.38368   0.38379   0.45957   0.45961   0.58336
     Eigenvalues ---    0.58350   0.91486   0.915081000.000001000.00000
     Eigenvalues --- 1000.000001000.000001000.000001000.000001000.00000
     Eigenvalues --- 1000.000001000.000001000.000001000.000001000.00000
     Eigenvalues --- 1000.000001000.000001000.000001000.000001000.00000
     Eigenvalues --- 1000.000001000.000001000.000001000.000001000.00000
     Eigenvalues --- 1000.000001000.000001000.000001000.000001000.00000
     Eigenvalues --- 1000.000001000.000001000.000001000.000001000.00000
     Eigenvalues --- 1000.000001000.000001000.000001000.000001000.00000
     Eigenvalues --- 1000.000001000.000001000.00000
 RFO step:  Lambda=-3.36018910D-01 EMin= 3.69625305D-03
 Linear search not attempted -- first point.
 Maximum step size (   0.300) exceeded in Quadratic search.
    -- Step size scaled by   0.379
 Iteration  1 RMS(Cart)=  0.20802167 RMS(Int)=  0.00930738
 Iteration  2 RMS(Cart)=  0.02035492 RMS(Int)=  0.00024996
 Iteration  3 RMS(Cart)=  0.00028901 RMS(Int)=  0.00021611
 Iteration  4 RMS(Cart)=  0.00000007 RMS(Int)=  0.00021611
 Iteration  1 RMS(Cart)=  0.00004489 RMS(Int)=  0.00002304
 Iteration  2 RMS(Cart)=  0.00003118 RMS(Int)=  0.00002542
 Iteration  3 RMS(Cart)=  0.00002160 RMS(Int)=  0.00002925
 Iteration  4 RMS(Cart)=  0.00001493 RMS(Int)=  0.00003256
 Iteration  5 RMS(Cart)=  0.00001030 RMS(Int)=  0.00003504
 Iteration  6 RMS(Cart)=  0.00000709 RMS(Int)=  0.00003682
 Iteration  7 RMS(Cart)=  0.00000487 RMS(Int)=  0.00003808
 Iteration  8 RMS(Cart)=  0.00000335 RMS(Int)=  0.00003895
 Iteration  9 RMS(Cart)=  0.00000230 RMS(Int)=  0.00003955
 Iteration 10 RMS(Cart)=  0.00000157 RMS(Int)=  0.00003996
 Iteration 11 RMS(Cart)=  0.00000108 RMS(Int)=  0.00004025
 Iteration 12 RMS(Cart)=  0.00000074 RMS(Int)=  0.00004044
 Variable       Old X    -DE/DX   Delta X   Delta X   Delta X     New X
                                 (Linear)    (Quad)   (Total)
    R1        2.05990  -0.00890   0.00000  -0.00494  -0.00494   2.05496
    R2        2.05971  -0.00248   0.00000  -0.00138  -0.00138   2.05833
    R3        2.05982  -0.00217   0.00000  -0.00120  -0.00120   2.05862
    R4        2.89121  -0.00817   0.00000  -0.00492  -0.00492   2.88629
    R5        2.32246  -0.08581   0.00000  -0.02603  -0.02603   2.29643
    R6        2.52282   0.07155   0.00000   0.02953   0.02953   2.55235
    R7        1.90875  -0.01630   0.00000  -0.00777  -0.00777   1.90098
    R8        2.73817   0.07521   0.00000   0.03965   0.03965   2.77782
    R9        2.05975  -0.00392   0.00000  -0.00217  -0.00217   2.05757
   R10        2.88188   0.01017   0.00000   0.00608   0.00608   2.88796
   R11        2.87618   0.06603   0.00000   0.03929   0.03929   2.91547
   R12        2.05972  -0.00663   0.00000  -0.00368  -0.00368   2.05604
   R13        2.05984  -0.00318   0.00000  -0.00176  -0.00176   2.05808
   R14        2.05966  -0.00369   0.00000  -0.00205  -0.00205   2.05761
   R15        2.32256  -0.08925   0.00000  -0.02707  -0.02707   2.29548
   R16        2.52270   0.02015   0.00000   0.00832   0.00832   2.53102
   R17        1.90880  -0.01540   0.00000  -0.00734  -0.00734   1.90145
   R18        2.73833  -0.00001   0.00000   0.00000   0.00000   2.73832
   R19        2.05982  -0.01036   0.00000  -0.00575  -0.00575   2.05407
   R20        2.05982  -0.00380   0.00000  -0.00211  -0.00211   2.05771
   R21        2.05975  -0.00377   0.00000  -0.00209  -0.00209   2.05766
    A1        1.91117   0.00050   0.00000   0.00026   0.00027   1.91144
    A2        1.91119   0.00002   0.00000  -0.00003  -0.00002   1.91117
    A3        1.93906  -0.00904   0.00000  -0.00700  -0.00699   1.93207
    A4        1.91010  -0.00529   0.00000  -0.00388  -0.00389   1.90621
    A5        1.89606   0.00595   0.00000   0.00457   0.00457   1.90062
    A6        1.89600   0.00792   0.00000   0.00612   0.00611   1.90211
    A7        2.10314  -0.03920   0.00000  -0.02538  -0.02547   2.07767
    A8        2.03513  -0.06008   0.00000  -0.03890  -0.03900   1.99612
    A9        2.14492   0.09928   0.00000   0.06429   0.06417   2.20909
   A10        2.09431  -0.10492   0.00000  -0.07167  -0.07170   2.02261
   A11        2.12766   0.20815   0.00000   0.14206   0.14203   2.26969
   A12        2.06121  -0.10324   0.00000  -0.07039  -0.07042   1.99079
   A13        1.91114  -0.02993   0.00000  -0.02628  -0.02628   1.88485
   A14        1.93905  -0.05538   0.00000  -0.03625  -0.03612   1.90293
   A15        1.93900   0.12477   0.00000   0.10613   0.10639   2.04539
   A16        1.89609   0.03046   0.00000   0.01592   0.01486   1.91095
   A17        1.89608  -0.06405   0.00000  -0.02934  -0.02943   1.86665
   A18        1.88137  -0.00753   0.00000  -0.03165  -0.03111   1.85026
   A19        1.91115   0.00055   0.00000   0.00042   0.00042   1.91157
   A20        1.91106   0.00525   0.00000   0.00403   0.00402   1.91509
   A21        1.91110   0.00246   0.00000   0.00187   0.00187   1.91297
   A22        1.91011  -0.00277   0.00000  -0.00209  -0.00210   1.90801
   A23        1.91023  -0.00167   0.00000  -0.00130  -0.00130   1.90893
   A24        1.91015  -0.00384   0.00000  -0.00293  -0.00294   1.90721
   A25        2.10312   0.13684   0.00000   0.08861   0.08858   2.19170
   A26        2.03507  -0.07725   0.00000  -0.05002  -0.05005   1.98503
   A27        2.14499  -0.05959   0.00000  -0.03858  -0.03860   2.10639
   A28        2.09437  -0.00256   0.00000  -0.00172  -0.00172   2.09265
   A29        2.12764   0.00561   0.00000   0.00383   0.00383   2.13147
   A30        2.06117  -0.00305   0.00000  -0.00210  -0.00210   2.05907
   A31        1.91098  -0.00564   0.00000  -0.00440  -0.00439   1.90658
   A32        1.91118   0.00399   0.00000   0.00309   0.00309   1.91427
   A33        1.91105   0.00521   0.00000   0.00403   0.00403   1.91508
   A34        1.91021   0.00000   0.00000  -0.00010  -0.00010   1.91011
   A35        1.91014  -0.00036   0.00000  -0.00035  -0.00034   1.90980
   A36        1.91024  -0.00321   0.00000  -0.00228  -0.00229   1.90795
    D1       -0.00001  -0.01144   0.00000  -0.01249  -0.01217  -0.01218
    D2        3.14159   0.01177   0.00000   0.01277   0.01245  -3.12915
    D3        2.10336  -0.01258   0.00000  -0.01354  -0.01323   2.09013
    D4       -1.03823   0.01064   0.00000   0.01172   0.01139  -1.02683
    D5       -2.10337  -0.01100   0.00000  -0.01208  -0.01175  -2.11512
    D6        1.03823   0.01222   0.00000   0.01318   0.01287   1.05110
    D7        0.00003   0.03440   0.00000   0.01260   0.01224   0.01227
    D8        3.14152   0.00607   0.00000   0.02897   0.02844  -3.11323
    D9       -3.14156   0.05822   0.00000   0.03852   0.03904  -3.10251
   D10       -0.00007   0.02990   0.00000   0.05489   0.05524   0.05518
   D11        2.87982   0.05818   0.00000   0.01345   0.01334   2.89316
   D12       -1.30893   0.04164   0.00000  -0.00673  -0.00611  -1.31504
   D13        0.78543   0.07850   0.00000   0.00000   0.00000   0.78542
   D14       -0.26187   0.03037   0.00000   0.02952   0.02930  -0.23257
   D15        1.83257   0.01383   0.00000   0.00935   0.00985   1.84242
   D16       -2.35627   0.05070   0.00000   0.01607   0.01596  -2.34031
   D17        1.04724   0.05556   0.00000   0.04424   0.04433   1.09157
   D18        3.14157   0.05573   0.00000   0.04441   0.04449  -3.09713
   D19       -1.04726   0.05575   0.00000   0.04443   0.04451  -1.00275
   D20       -3.13259   0.00394   0.00000  -0.00043  -0.00040  -3.13299
   D21       -1.03826   0.00410   0.00000  -0.00026  -0.00024  -1.03850
   D22        1.05609   0.00413   0.00000  -0.00024  -0.00022   1.05587
   D23       -1.08102  -0.05967   0.00000  -0.04396  -0.04407  -1.12509
   D24        1.01331  -0.05950   0.00000  -0.04380  -0.04391   0.96940
   D25        3.10766  -0.05948   0.00000  -0.04377  -0.04388   3.06378
   D26       -0.52361   0.00761   0.00000   0.01233   0.01261  -0.51100
   D27        2.61802   0.00273   0.00000   0.00000   0.00000   2.61801
   D28       -2.62693   0.00885   0.00000  -0.00185  -0.00133  -2.62826
   D29        0.51470   0.00398   0.00000  -0.01418  -0.01395   0.50076
   D30        1.60468   0.01134   0.00000   0.01242   0.01231   1.61699
   D31       -1.53688   0.00647   0.00000   0.00009  -0.00030  -1.53718
   D32       -0.00011   0.00205   0.00000   0.00586   0.00549   0.00539
   D33       -3.14156   0.00162   0.00000   0.00539   0.00503  -3.13654
   D34        3.14152  -0.00296   0.00000  -0.00680  -0.00644   3.13508
   D35        0.00006  -0.00339   0.00000  -0.00727  -0.00690  -0.00684
   D36       -0.00008   0.00034   0.00000   0.00035   0.00035   0.00026
   D37        2.09434  -0.00067   0.00000  -0.00058  -0.00058   2.09376
   D38       -2.09434   0.00104   0.00000   0.00099   0.00100  -2.09335
   D39       -3.14155  -0.00009   0.00000  -0.00011  -0.00011   3.14153
   D40       -1.04712  -0.00110   0.00000  -0.00104  -0.00104  -1.04816
   D41        1.04738   0.00061   0.00000   0.00053   0.00054   1.04792
         Item               Value     Threshold  Converged?
 Maximum Force            0.208154     0.000450     NO 
 RMS     Force            0.044553     0.000300     NO 
 Maximum Displacement     0.789814     0.001800     NO 
 RMS     Displacement     0.217269     0.001200     NO 
 Predicted change in Energy=-1.184805D-01
 GradGradGradGradGradGradGradGradGradGradGradGradGradGradGradGradGradGrad

                          Input orientation:                          
 ---------------------------------------------------------------------
 Center     Atomic      Atomic             Coordinates (Angstroms)
 Number     Number       Type             X           Y           Z
 ---------------------------------------------------------------------
      1          1           0        0.396835    3.591849   -1.373980
      2          6           0        1.204012    3.366148   -0.681129
      3          1           0        1.519997    2.332381   -0.814868
      4          1           0        0.855036    3.504998    0.341452
      5          6           0        2.399333    4.284561   -0.927189
      6          8           0        2.337032    5.107815   -1.818890
      7          7           0        3.453588    4.057086   -0.114140
      8          1           0        3.342964    3.309428    0.549723
      9          6           0        4.748767    4.747097   -0.029452
     10          1           0        5.228091    4.449638    0.901835
     11          6           0        5.619431    4.319316   -1.210333
     12          1           0        5.145213    4.624015   -2.140948
     13          1           0        6.598872    4.789439   -1.134228
     14          1           0        5.738681    3.237047   -1.203162
     15          6           0        4.728656    6.289596   -0.052312
     16          8           0        3.895076    6.977331   -0.607020
     17          7           0        5.736077    6.851988    0.627904
     18          1           0        6.416871    6.270948    1.087641
     19          6           0        5.888860    8.289312    0.730485
     20          1           0        5.082945    8.774914    0.186250
     21          1           0        5.851243    8.588319    1.776848
     22          1           0        6.845218    8.588575    0.304513
 ---------------------------------------------------------------------
                    Distance matrix (angstroms):
                    1          2          3          4          5
     1  H    0.000000
     2  C    1.087437   0.000000
     3  H    1.777740   1.089223   0.000000
     4  H    1.777695   1.089373   1.776029   0.000000
     5  C    2.165519   1.527357   2.144027   2.145232   0.000000
     6  O    2.502092   2.368889   3.062456   3.071222   1.215220
     7  N    3.338770   2.420633   2.684101   2.695336   1.350647
     8  H    3.529883   2.468467   2.477889   2.504278   2.005640
     9  C    4.699114   3.859663   4.107637   4.103842   2.557286
    10  H    5.408898   4.457908   4.602152   4.508879   3.372603
    11  C    5.275557   4.548023   4.572708   5.076476   3.232709
    12  H    4.919421   4.387068   4.489127   5.081351   3.021307
    13  H    6.321153   5.597819   5.651026   6.067872   4.234843
    14  H    5.356341   4.566444   4.332030   5.129095   3.510654
    15  C    5.271558   4.622237   5.151362   4.786853   3.195516
    16  O    4.928226   4.504216   5.221088   4.711532   3.096896
    17  N    6.568375   5.865514   6.346949   5.925281   4.488191
    18  H    7.034059   6.224172   6.565914   6.256300   4.913846
    19  C    7.527103   6.941038   7.547192   6.955601   5.564415
    20  H    7.159478   6.712170   7.429877   6.758056   5.348345
    21  H    8.040087   7.410092   8.038248   7.270666   6.144089
    22  H    8.328641   7.750384   8.291620   7.856615   6.309321
                    6          7          8          9         10
     6  O    0.000000
     7  N    2.292793   0.000000
     8  H    3.139493   1.005954   0.000000
     9  C    3.024677   1.469958   2.092515   0.000000
    10  H    4.024147   2.082106   2.231091   1.088819   0.000000
    11  C    3.430191   2.441573   3.049585   1.528245   2.152065
    12  H    2.867693   2.700177   3.495132   2.151914   3.048902
    13  H    4.328211   3.386700   3.953108   2.155275   2.477914
    14  H    3.930663   2.660843   2.969395   2.153550   2.482356
    15  C    3.199573   2.571716   3.341255   1.542799   2.131965
    16  O    2.718680   2.994274   3.885407   2.456892   3.231532
    17  N    4.536788   3.684001   4.275843   2.416084   2.470703
    18  H    5.142557   3.889282   4.302193   2.520434   2.182863
    19  C    5.407100   4.955369   5.595847   3.797974   3.899881
    20  H    5.000824   5.000295   5.747276   4.047408   4.386473
    21  H    6.114974   5.464124   5.971933   4.385562   4.275820
    22  H    6.078510   5.675635   6.339977   4.389031   4.483603
                   11         12         13         14         15
    11  C    0.000000
    12  H    1.088011   0.000000
    13  H    1.089089   1.775944   0.000000
    14  H    1.088843   1.776324   1.776120   0.000000
    15  C    2.452855   2.703716   2.630346   3.415064   0.000000
    16  O    3.225280   3.074715   3.517859   4.212362   1.214716
    17  N    3.131637   3.602711   2.846688   4.052235   1.339356
    18  H    3.118568   3.841001   2.676695   3.861642   2.037133
    19  C    4.427216   4.715140   4.028695   5.411740   2.440843
    20  H    4.700066   4.759170   4.463822   5.747037   2.521754
    21  H    5.215493   5.618123   4.844048   6.126111   3.144861
    22  H    4.692962   4.958633   4.069902   5.668895   3.145229
                   16         17         18         19         20
    16  O    0.000000
    17  N    2.220367   0.000000
    18  H    3.119343   1.006204   0.000000
    19  C    2.735944   1.449057   2.116636   0.000000
    20  H    2.296000   2.078289   2.976862   1.086969   0.000000
    21  H    3.479180   2.085229   2.482971   1.088896   1.776260
    22  H    3.482864   2.085788   2.483579   1.088867   1.776039
                   21         22
    21  H    0.000000
    22  H    1.776445   0.000000
 Stoichiometry    C6H12N2O2
 Framework group  C1[X(C6H12N2O2)]
 Deg. of freedom    60
 Full point group                 C1      NOp   1
 Largest Abelian subgroup         C1      NOp   1
 Largest concise Abelian subgroup C1      NOp   1
                         Standard orientation:                         
 ---------------------------------------------------------------------
 Center     Atomic      Atomic             Coordinates (Angstroms)
 Number     Number       Type             X           Y           Z
 ---------------------------------------------------------------------
      1          1           0       -4.007504   -1.222405   -0.027691
      2          6           0       -3.423845   -0.500207   -0.593632
      3          1           0       -3.935190    0.461527   -0.592935
      4          1           0       -3.313172   -0.846728   -1.620477
      5          6           0       -2.037816   -0.323966    0.023363
      6          8           0       -1.752290   -0.954263    1.022342
      7          7           0       -1.253428    0.571383   -0.614864
      8          1           0       -1.665765    1.027717   -1.410904
      9          6           0        0.131818    0.979779   -0.340850
     10          1           0        0.500064    1.523921   -1.209085
     11          6           0        0.148292    1.897752    0.880865
     12          1           0       -0.211362    1.351979    1.750664
     13          1           0        1.164074    2.243584    1.067147
     14          1           0       -0.496534    2.756547    0.701286
     15          6           0        1.151630   -0.139668   -0.045810
     16          8           0        0.896061   -1.211910    0.464599
     17          7           0        2.402172    0.157397   -0.422339
     18          1           0        2.599551    1.046959   -0.849148
     19          6           0        3.502880   -0.766546   -0.236496
     20          1           0        3.132935   -1.674664    0.232507
     21          1           0        3.943576   -1.010801   -1.201805
     22          1           0        4.260201   -0.312570    0.400687
 ---------------------------------------------------------------------
 Rotational constants (GHZ):      2.6370626      0.7497772      0.6721143
 Standard basis: 6-31G(d) (6D, 7F)
 There are   174 symmetry adapted basis functions of A   symmetry.
 Integral buffers will be    131072 words long.
 Raffenetti 1 integral format.
 Two-electron integral symmetry is turned on.
   174 basis functions,   328 primitive gaussians,   174 cartesian basis functions
    39 alpha electrons       39 beta electrons
       nuclear repulsion energy       559.9325352657 Hartrees.
 NAtoms=   22 NActive=   22 NUniq=   22 SFac= 7.50D-01 NAtFMM=   80 NAOKFM=F Big=F
 One-electron integrals computed using PRISM.
 NBasis=   174 RedAO= T  NBF=   174
 NBsUse=   174 1.00D-06 NBFU=   174
 Initial guess read from the read-write file.
 B after Tr=     0.000000    0.000000    0.000000
         Rot=    1.000000    0.000000    0.000000    0.000000 Ang=   0.00 deg.
 Initial guess orbital symmetries:
       Occupied  (A) (A) (A) (A) (A) (A) (A) (A) (A) (A) (A) (A)
                 (A) (A) (A) (A) (A) (A) (A) (A) (A) (A) (A) (A)
                 (A) (A) (A) (A) (A) (A) (A) (A) (A) (A) (A) (A)
                 (A) (A) (A)
       Virtual   (A) (A) (A) (A) (A) (A) (A) (A) (A) (A) (A) (A)
                 (A) (A) (A) (A) (A) (A) (A) (A) (A) (A) (A) (A)
                 (A) (A) (A) (A) (A) (A) (A) (A) (A) (A) (A) (A)
                 (A) (A) (A) (A) (A) (A) (A) (A) (A) (A) (A) (A)
                 (A) (A) (A) (A) (A) (A) (A) (A) (A) (A) (A) (A)
                 (A) (A) (A) (A) (A) (A) (A) (A) (A) (A) (A) (A)
                 (A) (A) (A) (A) (A) (A) (A) (A) (A) (A) (A) (A)
                 (A) (A) (A) (A) (A) (A) (A) (A) (A) (A) (A) (A)
                 (A) (A) (A) (A) (A) (A) (A) (A) (A) (A) (A) (A)
                 (A) (A) (A) (A) (A) (A) (A) (A) (A) (A) (A) (A)
                 (A) (A) (A) (A) (A) (A) (A) (A) (A) (A) (A) (A)
                 (A) (A) (A)
 Harris functional with IExCor=  205 diagonalized for initial guess.
 ExpMin= 1.61D-01 ExpMax= 5.48D+03 ExpMxC= 8.25D+02 IAcc=1 IRadAn=         1 AccDes= 0.00D+00
 HarFok:  IExCor=  205 AccDes= 0.00D+00 IRadAn=         1 IDoV= 1
 ScaDFX=  1.000000  1.000000  1.000000  1.000000
 FoFCou: FMM=F IPFlag=           0 FMFlag=      100000 FMFlg1=           0
         NFxFlg=           0 DoJE=T BraDBF=F KetDBF=T FulRan=T
         Omega=  0.000000  0.000000  1.000000  0.000000  0.000000 ICntrl=     500 IOpCl=  0
         NMat0=    1 NMatS0=    1 NMatT0=    0 NMatD0=    1 NMtDS0=    0 NMtDT0=    0
         I1Cent=           4 NGrid=           0.
 Petite list used in FoFCou.
 Requested convergence on RMS density matrix=1.00D-08 within 128 cycles.
 Requested convergence on MAX density matrix=1.00D-06.
 Requested convergence on             energy=1.00D-06.
 No special actions if energy rises.
 Integral accuracy reduced to 1.0D-05 until final iterations.
 Initial convergence to 1.0D-05 achieved.  Increase integral accuracy.
 SCF Done:  E(RHF) =  -492.826333422     A.U. after   15 cycles
             Convg  =    0.5201D-08             -V/T =  2.0020
 Calling FoFJK, ICntrl=      2127 FMM=F ISym2X=0 I1Cent= 0 IOpClX= 0 NMat=1 NMatS=1 NMatT=0.
 ***** Axes restored to original set *****
 -------------------------------------------------------------------
 Center     Atomic                   Forces (Hartrees/Bohr)
 Number     Number              X              Y              Z
 -------------------------------------------------------------------
      1        1           0.007387859    0.001256033    0.002858444
      2        6           0.006983371   -0.000188323    0.006190027
      3        1          -0.004000453    0.000497127    0.002213709
      4        1          -0.001464478   -0.003922789   -0.002335660
      5        6          -0.025015771    0.025538683   -0.044973028
      6        8           0.010319469   -0.028697073    0.025268295
      7        7           0.012683575    0.001382343    0.028444521
      8        1           0.000227347    0.009754147   -0.006608810
      9        6          -0.003997801    0.004024252   -0.021449920
     10        1          -0.006918874   -0.003121272   -0.002907708
     11        6           0.006598957   -0.003015640   -0.001433063
     12        1           0.002319415   -0.001448552    0.003675300
     13        1          -0.000969283   -0.003332964   -0.003728826
     14        1           0.001099301    0.003407530   -0.001777549
     15        6          -0.045205281    0.018766518   -0.005951223
     16        8           0.021749803   -0.024090166    0.013604002
     17        7           0.020000176   -0.004109246    0.011769553
     18        1          -0.008073326    0.007805709   -0.004980440
     19        6           0.003134815    0.001680152   -0.000118076
     20        1           0.005640270   -0.005180860    0.003824037
     21        1           0.000622036    0.001148307   -0.003577978
     22        1          -0.003121126    0.001846087    0.001994393
 -------------------------------------------------------------------
 Cartesian Forces:  Max     0.045205281 RMS     0.013110749

 GradGradGradGradGradGradGradGradGradGradGradGradGradGradGradGradGradGrad
 Berny optimization.
 Using GEDIIS/GDIIS optimizer.
 Internal  Forces:  Max     0.038511270 RMS     0.007429664
 Search for a local minimum.
 Step number   2 out of a maximum of  108
 All quantities printed in internal units (Hartrees-Bohrs-Radians)
 Mixed Optimization -- RFO/linear search
 Update second derivatives using D2CorX and points    1    2
 DE= -4.82D-02 DEPred=-1.18D-01 R= 4.07D-01
 Trust test= 4.07D-01 RLast= 3.00D-01 DXMaxT set to 3.00D-01
 Use linear search instead of GDIIS.
     Eigenvalues ---    0.00370   0.00435   0.00940   0.01043   0.01349
     Eigenvalues ---    0.01435   0.01660   0.02552   0.02648   0.03197
     Eigenvalues ---    0.05538   0.05814   0.05830   0.06065   0.07190
     Eigenvalues ---    0.07416   0.07652   0.07700   0.15968   0.15999
     Eigenvalues ---    0.16000   0.16000   0.16000   0.16000   0.16000
     Eigenvalues ---    0.16000   0.16000   0.16000   0.16000   0.16767
     Eigenvalues ---    0.17287   0.21993   0.23773   0.24923   0.24995
     Eigenvalues ---    0.25000   0.29421   0.29862   0.29906   0.34753
     Eigenvalues ---    0.34808   0.34810   0.34811   0.34811   0.34815
     Eigenvalues ---    0.34816   0.34817   0.34818   0.34821   0.37530
     Eigenvalues ---    0.38368   0.45841   0.45959   0.56958   0.58221
     Eigenvalues ---    0.86458   0.91480   1.433871000.000001000.00000
     Eigenvalues --- 1000.000001000.000001000.000001000.000001000.00000
     Eigenvalues --- 1000.000001000.000001000.000001000.000001000.00000
     Eigenvalues --- 1000.000001000.000001000.000001000.000001000.00000
     Eigenvalues --- 1000.000001000.000001000.000001000.000001000.00000
     Eigenvalues --- 1000.000001000.000001000.000001000.000001000.00000
     Eigenvalues --- 1000.000001000.000001000.000001000.000001000.00000
     Eigenvalues --- 1000.000001000.000001000.000001000.000001000.00000
     Eigenvalues --- 1000.000001000.000001000.00000
 RFO step:  Lambda=-2.62647889D-02 EMin= 3.69625423D-03
 Quartic linear search produced a step of  0.31935.
 Maximum step size (   0.300) exceeded in Quadratic search.
    -- Step size scaled by   0.546
 Iteration  1 RMS(Cart)=  0.08462653 RMS(Int)=  0.00286677
 Iteration  2 RMS(Cart)=  0.00461500 RMS(Int)=  0.00034388
 Iteration  3 RMS(Cart)=  0.00000778 RMS(Int)=  0.00034383
 Iteration  4 RMS(Cart)=  0.00000000 RMS(Int)=  0.00034383
 Iteration  1 RMS(Cart)=  0.00011005 RMS(Int)=  0.00003465
 Iteration  2 RMS(Cart)=  0.00005737 RMS(Int)=  0.00003870
 Iteration  3 RMS(Cart)=  0.00003039 RMS(Int)=  0.00004337
 Iteration  4 RMS(Cart)=  0.00001644 RMS(Int)=  0.00004628
 Iteration  5 RMS(Cart)=  0.00000914 RMS(Int)=  0.00004793
 Iteration  6 RMS(Cart)=  0.00000525 RMS(Int)=  0.00004884
 Iteration  7 RMS(Cart)=  0.00000312 RMS(Int)=  0.00004936
 Iteration  8 RMS(Cart)=  0.00000191 RMS(Int)=  0.00004965
 Iteration  9 RMS(Cart)=  0.00000121 RMS(Int)=  0.00004982
 Iteration 10 RMS(Cart)=  0.00000078 RMS(Int)=  0.00004992
 Variable       Old X    -DE/DX   Delta X   Delta X   Delta X     New X
                                 (Linear)    (Quad)   (Total)
    R1        2.05496  -0.00704  -0.00158  -0.01177  -0.01335   2.04161
    R2        2.05833  -0.00190  -0.00044  -0.00317  -0.00361   2.05473
    R3        2.05862  -0.00222  -0.00038  -0.00384  -0.00422   2.05439
    R4        2.88629  -0.00411  -0.00157  -0.00764  -0.00921   2.87708
    R5        2.29643  -0.03851  -0.00831  -0.01738  -0.02569   2.27074
    R6        2.55235   0.01008   0.00943  -0.00057   0.00886   2.56122
    R7        1.90098  -0.01164  -0.00248  -0.01414  -0.01662   1.88436
    R8        2.77782  -0.00955   0.01266  -0.03125  -0.01859   2.75923
    R9        2.05757  -0.00468  -0.00069  -0.00821  -0.00890   2.04867
   R10        2.88796   0.00891   0.00194   0.01769   0.01963   2.90760
   R11        2.91547  -0.00231   0.01255  -0.01783  -0.00528   2.91019
   R12        2.05604  -0.00456  -0.00117  -0.00745  -0.00862   2.04742
   R13        2.05808  -0.00257  -0.00056  -0.00431  -0.00487   2.05321
   R14        2.05761  -0.00328  -0.00065  -0.00557  -0.00622   2.05140
   R15        2.29548  -0.03478  -0.00865  -0.01406  -0.02270   2.27278
   R16        2.53102   0.01956   0.00266   0.01952   0.02217   2.55319
   R17        1.90145  -0.01225  -0.00235  -0.01521  -0.01755   1.88390
   R18        2.73832   0.00031   0.00000   0.00054   0.00054   2.73886
   R19        2.05407  -0.00841  -0.00184  -0.01411  -0.01594   2.03813
   R20        2.05771  -0.00314  -0.00067  -0.00529  -0.00596   2.05175
   R21        2.05766  -0.00301  -0.00067  -0.00504  -0.00571   2.05195
    A1        1.91144   0.00006   0.00009  -0.00185  -0.00159   1.90985
    A2        1.91117   0.00011  -0.00001  -0.00122  -0.00104   1.91013
    A3        1.93207  -0.00779  -0.00223  -0.03071  -0.03276   1.89931
    A4        1.90621  -0.00462  -0.00124  -0.01330  -0.01498   1.89123
    A5        1.90062   0.00608   0.00146   0.02345   0.02477   1.92539
    A6        1.90211   0.00621   0.00195   0.02392   0.02574   1.92785
    A7        2.07767   0.01150  -0.00813   0.03671   0.02755   2.10522
    A8        1.99612  -0.00843  -0.01246  -0.01125  -0.02469   1.97144
    A9        2.20909  -0.00313   0.02049  -0.02711  -0.00754   2.20155
   A10        2.02261  -0.00409  -0.02290   0.00576  -0.01819   2.00442
   A11        2.26969   0.00765   0.04536  -0.01442   0.02988   2.29957
   A12        1.99079  -0.00352  -0.02249   0.00760  -0.01595   1.97484
   A13        1.88485  -0.00452  -0.00839  -0.04048  -0.04854   1.83631
   A14        1.90293   0.00215  -0.01153   0.02698   0.01416   1.91709
   A15        2.04539  -0.00115   0.03398   0.00056   0.03400   2.07939
   A16        1.91095  -0.00034   0.00474  -0.02222  -0.01780   1.89315
   A17        1.86665  -0.00343  -0.00940   0.00444  -0.00435   1.86229
   A18        1.85026   0.00736  -0.00994   0.02913   0.01821   1.86847
   A19        1.91157  -0.00096   0.00013  -0.00472  -0.00457   1.90700
   A20        1.91509   0.00600   0.00128   0.02370   0.02489   1.93998
   A21        1.91297   0.00222   0.00060   0.00796   0.00847   1.92144
   A22        1.90801  -0.00240  -0.00067  -0.00834  -0.00901   1.89900
   A23        1.90893  -0.00128  -0.00041  -0.00720  -0.00760   1.90134
   A24        1.90721  -0.00362  -0.00094  -0.01155  -0.01266   1.89455
   A25        2.19170  -0.00092   0.02829  -0.02773   0.00047   2.19217
   A26        1.98503  -0.01038  -0.01598  -0.01256  -0.02863   1.95640
   A27        2.10639   0.01133  -0.01233   0.04059   0.02817   2.13456
   A28        2.09265  -0.00201  -0.00055  -0.00460  -0.00516   2.08749
   A29        2.13147   0.00573   0.00122   0.01572   0.01693   2.14840
   A30        2.05907  -0.00372  -0.00067  -0.01113  -0.01181   2.04726
   A31        1.90658  -0.00371  -0.00140  -0.01501  -0.01636   1.89022
   A32        1.91427   0.00295   0.00099   0.01136   0.01228   1.92655
   A33        1.91508   0.00422   0.00129   0.01651   0.01774   1.93282
   A34        1.91011  -0.00028  -0.00003  -0.00295  -0.00294   1.90718
   A35        1.90980  -0.00060  -0.00011  -0.00327  -0.00331   1.90649
   A36        1.90795  -0.00258  -0.00073  -0.00669  -0.00759   1.90036
    D1       -0.01218  -0.00104  -0.00389  -0.03347  -0.03759  -0.04977
    D2       -3.12915   0.00114   0.00398   0.03433   0.03852  -3.09063
    D3        2.09013  -0.00190  -0.00423  -0.03977  -0.04446   2.04567
    D4       -1.02683   0.00028   0.00364   0.02803   0.03164  -0.99519
    D5       -2.11512  -0.00031  -0.00375  -0.02820  -0.03193  -2.14705
    D6        1.05110   0.00187   0.00411   0.03959   0.04418   1.09528
    D7        0.01227   0.00407   0.00391  -0.00251   0.00179   0.01406
    D8       -3.11323   0.00118   0.00908   0.08505   0.09447  -3.01876
    D9       -3.10251   0.00622   0.01247   0.07022   0.08235  -3.02016
   D10        0.05518   0.00332   0.01764   0.15777   0.17502   0.23020
   D11        2.89316   0.00501   0.00426  -0.02583  -0.02188   2.87128
   D12       -1.31504   0.00322  -0.00195  -0.06050  -0.06250  -1.37754
   D13        0.78542   0.01388   0.00000   0.00000   0.00000   0.78543
   D14       -0.23257   0.00216   0.00936   0.06045   0.06960  -0.16297
   D15        1.84242   0.00037   0.00315   0.02578   0.02898   1.87140
   D16       -2.34031   0.01103   0.00510   0.08626   0.09148  -2.24882
   D17        1.09157   0.00273   0.01416   0.02529   0.03948   1.13105
   D18       -3.09713   0.00290   0.01421   0.02674   0.04094  -3.05619
   D19       -1.00275   0.00353   0.01422   0.03213   0.04643  -0.95632
   D20       -3.13299  -0.00167  -0.00013  -0.02072  -0.02081   3.12938
   D21       -1.03850  -0.00150  -0.00008  -0.01927  -0.01935  -1.05785
   D22        1.05587  -0.00087  -0.00007  -0.01388  -0.01386   1.04202
   D23       -1.12509  -0.00196  -0.01407  -0.01099  -0.02514  -1.15023
   D24        0.96940  -0.00180  -0.01402  -0.00953  -0.02367   0.94573
   D25        3.06378  -0.00116  -0.01401  -0.00414  -0.01818   3.04559
   D26       -0.51100  -0.00606   0.00403  -0.02833  -0.02421  -0.53521
   D27        2.61801  -0.00369   0.00000   0.00000   0.00000   2.61801
   D28       -2.62826   0.00332  -0.00043   0.02077   0.02053  -2.60773
   D29        0.50076   0.00569  -0.00445   0.04910   0.04474   0.54549
   D30        1.61699   0.00176   0.00393   0.03003   0.03428   1.65127
   D31       -1.53718   0.00413  -0.00010   0.05836   0.05849  -1.47869
   D32        0.00539  -0.00174   0.00175  -0.02191  -0.02046  -0.01507
   D33       -3.13654  -0.00223   0.00161  -0.03063  -0.02935   3.11730
   D34        3.13508   0.00041  -0.00206   0.00436   0.00262   3.13771
   D35       -0.00684  -0.00008  -0.00220  -0.00436  -0.00626  -0.01310
   D36        0.00026   0.00038   0.00011   0.00542   0.00551   0.00577
   D37        2.09376  -0.00045  -0.00019  -0.00049  -0.00076   2.09300
   D38       -2.09335   0.00082   0.00032   0.00860   0.00901  -2.08434
   D39        3.14153  -0.00010  -0.00004  -0.00314  -0.00318   3.13835
   D40       -1.04816  -0.00093  -0.00033  -0.00904  -0.00945  -1.05762
   D41        1.04792   0.00034   0.00017   0.00004   0.00032   1.04824
         Item               Value     Threshold  Converged?
 Maximum Force            0.038511     0.000450     NO 
 RMS     Force            0.007168     0.000300     NO 
 Maximum Displacement     0.311092     0.001800     NO 
 RMS     Displacement     0.084367     0.001200     NO 
 Predicted change in Energy=-1.612867D-03
 GradGradGradGradGradGradGradGradGradGradGradGradGradGradGradGradGradGrad

                          Input orientation:                          
 ---------------------------------------------------------------------
 Center     Atomic      Atomic             Coordinates (Angstroms)
 Number     Number       Type             X           Y           Z
 ---------------------------------------------------------------------
      1          1           0        0.393470    3.496949   -1.329284
      2          6           0        1.194839    3.338360   -0.622276
      3          1           0        1.503111    2.296110   -0.652870
      4          1           0        0.841465    3.561609    0.381296
      5          6           0        2.360951    4.245543   -0.989919
      6          8           0        2.309278    4.943192   -1.966912
      7          7           0        3.440967    4.068362   -0.190474
      8          1           0        3.332022    3.369109    0.512023
      9          6           0        4.703792    4.794003   -0.087152
     10          1           0        5.135103    4.481367    0.857051
     11          6           0        5.648900    4.361617   -1.221705
     12          1           0        5.223627    4.657201   -2.173351
     13          1           0        6.626099    4.824628   -1.115847
     14          1           0        5.774704    3.283426   -1.211698
     15          6           0        4.685195    6.333862   -0.076944
     16          8           0        3.876694    7.028020   -0.634583
     17          7           0        5.711572    6.849756    0.634286
     18          1           0        6.356856    6.236704    1.083304
     19          6           0        5.939293    8.274080    0.775855
     20          1           0        5.165483    8.796130    0.235565
     21          1           0        5.901604    8.560891    1.822350
     22          1           0        6.907773    8.550879    0.370284
 ---------------------------------------------------------------------
                    Distance matrix (angstroms):
                    1          2          3          4          5
     1  H    0.000000
     2  C    1.080372   0.000000
     3  H    1.769422   1.087314   0.000000
     4  H    1.769453   1.087138   1.763168   0.000000
     5  C    2.132262   1.522485   2.156335   2.157970   0.000000
     6  O    2.483648   2.371815   3.063275   3.094725   1.201623
     7  N    3.303126   2.400927   2.666454   2.709452   1.355338
     8  H    3.470136   2.419738   2.419342   2.501403   1.991719
     9  C    4.669488   3.836406   4.099252   4.081152   2.569961
    10  H    5.313401   4.361256   4.499620   4.416743   3.341082
    11  C    5.327173   4.609233   4.666633   5.130405   3.298152
    12  H    5.038755   4.514014   4.661423   5.189402   3.124883
    13  H    6.376045   5.652539   5.731733   6.107261   4.306122
    14  H    5.386752   4.617965   4.419683   5.191518   3.553669
    15  C    5.294841   4.631739   5.173084   4.761263   3.255259
    16  O    5.008385   4.561369   5.293884   4.718116   3.188404
    17  N    6.586283   5.857451   6.332741   5.881653   4.543856
    18  H    6.992054   6.160830   6.488562   6.169967   4.922422
    19  C    7.616347   6.987557   7.580046   6.953482   5.670238
    20  H    7.300835   6.803614   7.513492   6.791066   5.484073
    21  H    8.118857   7.443431   8.044933   7.257717   6.250385
    22  H    8.418247   7.796996   8.329427   7.854491   6.407782
                    6          7          8          9         10
     6  O    0.000000
     7  N    2.280741   0.000000
     8  H    3.109479   0.997159   0.000000
     9  C    3.047860   1.460122   2.066662   0.000000
    10  H    4.021609   2.034202   2.146454   1.084108   0.000000
    11  C    3.470826   2.454466   3.059218   1.538635   2.144658
    12  H    2.935616   2.730643   3.528256   2.154338   3.036790
    13  H    4.401513   3.401958   3.952144   2.180463   2.496643
    14  H    3.915910   2.665587   2.990862   2.166403   2.474647
    15  C    3.339300   2.587176   3.311756   1.540005   2.122852
    16  O    2.928891   3.024345   3.872855   2.444300   3.208427
    17  N    4.687944   3.684023   4.218070   2.400461   2.447694
    18  H    5.230667   3.850536   4.207029   2.486760   2.150600
    19  C    5.638670   4.986330   5.561135   3.792384   3.877884
    20  H    5.277684   5.050471   5.735031   4.041575   4.359398
    21  H    6.352248   5.503545   5.939218   4.389806   4.261671
    22  H    6.294764   5.694396   6.297367   4.379600   4.465449
                   11         12         13         14         15
    11  C    0.000000
    12  H    1.083447   0.000000
    13  H    1.086510   1.764447   0.000000
    14  H    1.085552   1.765140   1.763339   0.000000
    15  C    2.475672   2.737887   2.669122   3.432180   0.000000
    16  O    3.255016   3.130946   3.556091   4.237628   1.202701
    17  N    3.104749   3.595583   2.828511   4.016261   1.351090
    18  H    3.054541   3.792735   2.627302   3.785207   2.037171
    19  C    4.402492   4.721420   3.993615   5.374392   2.462615
    20  H    4.692785   4.789258   4.442133   5.731983   2.528063
    21  H    5.192690   5.627084   4.808072   6.088776   3.169641
[...]
    13  H    6.326901   5.649629   6.021824   5.915871   4.215154
    14  H    5.579635   4.926764   5.067311   5.460265   3.555463
    15  C    4.821360   4.056459   4.655125   3.866646   3.001818
    16  O    4.227653   3.632913   4.444803   3.313514   2.780203
    17  N    6.128683   5.317989   5.840751   5.012738   4.333052
    18  H    6.735792   5.874082   6.272959   5.673402   4.805356
    19  C    6.934724   6.224011   6.871009   5.757080   5.358694
    20  H    6.569976   5.904742   6.601402   5.285792   5.265555
    21  H    7.877129   7.104015   7.666661   6.602659   6.271060
    22  H    7.234393   6.638089   7.379084   6.257394   5.651360
                    6          7          8          9         10
     6  O    0.000000
     7  N    2.269475   0.000000
     8  H    3.078382   0.998015   0.000000
     9  C    2.951868   1.456628   2.031626   0.000000
    10  H    3.955788   2.036188   2.155425   1.083654   0.000000
    11  C    3.187835   2.467270   3.272926   1.535575   2.142370
    12  H    2.592271   2.746430   3.701113   2.160218   3.039629
    13  H    4.129601   3.410431   4.115501   2.178280   2.492509
    14  H    3.604717   2.680764   3.390986   2.152723   2.460239
    15  C    3.270354   2.507156   2.945397   1.536565   2.134027
    16  O    2.900009   2.854261   3.302320   2.417062   3.176156
    17  N    4.609644   3.650202   3.922315   2.426508   2.510096
    18  H    5.106529   3.896115   4.148658   2.521996   2.298632
    19  C    5.506193   4.913307   5.173030   3.796113   3.950679
    20  H    5.475934   5.003820   5.167048   4.139048   4.361859
    21  H    6.497278   5.675061   5.833368   4.488521   4.411153
    22  H    5.568080   5.352982   5.779014   4.204507   4.540351
                   11         12         13         14         15
    11  C    0.000000
    12  H    1.080738   0.000000
    13  H    1.086046   1.763729   0.000000
    14  H    1.083184   1.757395   1.760685   0.000000
    15  C    2.513728   2.775338   2.746024   3.452596   0.000000
    16  O    3.316867   3.222483   3.685457   4.258809   1.196851
    17  N    3.176970   3.644244   2.943491   4.094274   1.357558
    18  H    3.024867   3.711754   2.563163   3.805749   2.028778
    19  C    4.433268   4.705042   4.083226   5.422564   2.443613
    20  H    5.005566   5.186841   4.849305   5.997113   2.666441
    21  H    5.106460   5.519087   4.614738   6.020559   3.311107
    22  H    4.521402   4.601614   4.078377   5.566526   2.859656
                   16         17         18         19         20
    16  O    0.000000
    17  N    2.237092   0.000000
    18  H    3.103369   0.994322   0.000000
    19  C    2.760314   1.448719   2.101313   0.000000
    20  H    2.579613   2.073886   2.919857   1.079457   0.000000
    21  H    3.778713   2.067936   2.321088   1.082141   1.760075
    22  H    3.018570   2.112843   2.664311   1.085082   1.755939
                   21         22
    21  H    0.000000
    22  H    1.764890   0.000000
 Stoichiometry    C6H12N2O2
 Framework group  C1[X(C6H12N2O2)]
 Deg. of freedom    60
 Full point group                 C1      NOp   1
 Largest Abelian subgroup         C1      NOp   1
 Largest concise Abelian subgroup C1      NOp   1
                         Standard orientation:                         
 ---------------------------------------------------------------------
 Center     Atomic      Atomic             Coordinates (Angstroms)
 Number     Number       Type             X           Y           Z
 ---------------------------------------------------------------------
      1          1           0       -3.578605   -1.577068    0.216604
      2          6           0       -2.858396   -1.238608   -0.513281
      3          1           0       -3.376649   -0.856680   -1.387307
      4          1           0       -2.243141   -2.078646   -0.820769
      5          6           0       -1.973265   -0.187026    0.116438
      6          8           0       -1.958761    0.019118    1.289646
      7          7           0       -1.247982    0.577250   -0.792131
      8          1           0       -1.358480    0.232326   -1.722105
      9          6           0        0.134629    0.972681   -0.560209
     10          1           0        0.517738    1.275325   -1.527649
     11          6           0        0.212524    2.174070    0.392989
     12          1           0       -0.181676    1.904989    1.362626
     13          1           0        1.236333    2.516773    0.510739
     14          1           0       -0.379083    2.988619   -0.006758
     15          6           0        1.024532   -0.165639   -0.037396
     16          8           0        0.609437   -1.114609    0.562274
     17          7           0        2.325929   -0.058422   -0.408656
     18          1           0        2.641331    0.807178   -0.782733
     19          6           0        3.328387   -0.966794    0.109733
     20          1           0        2.975680   -1.982352    0.012440
     21          1           0        4.234912   -0.851142   -0.469808
     22          1           0        3.550139   -0.779298    1.155234
 ---------------------------------------------------------------------
 Rotational constants (GHZ):      2.2840617      0.8423198      0.7288331

 **********************************************************************

            Population analysis using the SCF density.

 **********************************************************************

 Orbital symmetries:
       Occupied  (A) (A) (A) (A) (A) (A) (A) (A) (A) (A) (A) (A)
                 (A) (A) (A) (A) (A) (A) (A) (A) (A) (A) (A) (A)
                 (A) (A) (A) (A) (A) (A) (A) (A) (A) (A) (A) (A)
                 (A) (A) (A)
       Virtual   (A) (A) (A) (A) (A) (A) (A) (A) (A) (A) (A) (A)
                 (A) (A) (A) (A) (A) (A) (A) (A) (A) (A) (A) (A)
                 (A) (A) (A) (A) (A) (A) (A) (A) (A) (A) (A) (A)
                 (A) (A) (A) (A) (A) (A) (A) (A) (A) (A) (A) (A)
                 (A) (A) (A) (A) (A) (A) (A) (A) (A) (A) (A) (A)
                 (A) (A) (A) (A) (A) (A) (A) (A) (A) (A) (A) (A)
                 (A) (A) (A) (A) (A) (A) (A) (A) (A) (A) (A) (A)
                 (A) (A) (A) (A) (A) (A) (A) (A) (A) (A) (A) (A)
                 (A) (A) (A) (A) (A) (A) (A) (A) (A) (A) (A) (A)
                 (A) (A) (A) (A) (A) (A) (A) (A) (A) (A) (A) (A)
                 (A) (A) (A) (A) (A) (A) (A) (A) (A) (A) (A) (A)
                 (A) (A) (A)
 The electronic state is 1-A.
 Alpha  occ. eigenvalues --  -20.52795 -20.51663 -15.58950 -15.57735 -11.34689
 Alpha  occ. eigenvalues --  -11.33976 -11.28653 -11.25987 -11.22356 -11.22076
 Alpha  occ. eigenvalues --   -1.40000  -1.38162  -1.23767  -1.22917  -1.05216
 Alpha  occ. eigenvalues --   -0.98704  -0.95790  -0.87692  -0.79950  -0.77112
 Alpha  occ. eigenvalues --   -0.70781  -0.69366  -0.65232  -0.63304  -0.62315
 Alpha  occ. eigenvalues --   -0.61883  -0.59572  -0.58579  -0.56543  -0.55993
 Alpha  occ. eigenvalues --   -0.55535  -0.53562  -0.53118  -0.50936  -0.49204
 Alpha  occ. eigenvalues --   -0.44072  -0.40857  -0.39436  -0.37736
 Alpha virt. eigenvalues --    0.18539   0.20148   0.21640   0.22740   0.26212
 Alpha virt. eigenvalues --    0.27768   0.29315   0.30750   0.31553   0.31895
 Alpha virt. eigenvalues --    0.33522   0.33969   0.34242   0.34799   0.37059
 Alpha virt. eigenvalues --    0.38262   0.40301   0.43887   0.47434   0.52598
 Alpha virt. eigenvalues --    0.54520   0.59588   0.60951   0.71394   0.73342
 Alpha virt. eigenvalues --    0.73748   0.75686   0.76237   0.76478   0.77939
 Alpha virt. eigenvalues --    0.80749   0.83312   0.85657   0.88517   0.89660
 Alpha virt. eigenvalues --    0.90712   0.96410   0.97477   0.98585   0.99076
 Alpha virt. eigenvalues --    1.01417   1.01985   1.02628   1.05107   1.09563
 Alpha virt. eigenvalues --    1.11881   1.12723   1.13873   1.14728   1.15215
 Alpha virt. eigenvalues --    1.16327   1.17333   1.19784   1.20501   1.20936
 Alpha virt. eigenvalues --    1.22211   1.22552   1.23113   1.26094   1.27266
 Alpha virt. eigenvalues --    1.30267   1.32225   1.33639   1.38711   1.42157
 Alpha virt. eigenvalues --    1.46057   1.48999   1.53584   1.58096   1.61953
 Alpha virt. eigenvalues --    1.66309   1.68392   1.70674   1.73410   1.77678
 Alpha virt. eigenvalues --    1.81591   1.85540   1.90408   1.92454   1.99713
 Alpha virt. eigenvalues --    2.01784   2.04659   2.07333   2.08271   2.13248
 Alpha virt. eigenvalues --    2.13635   2.16104   2.17960   2.19495   2.21017
 Alpha virt. eigenvalues --    2.25074   2.28597   2.31619   2.34420   2.35604
 Alpha virt. eigenvalues --    2.36504   2.38759   2.43889   2.46346   2.49830
 Alpha virt. eigenvalues --    2.51963   2.54666   2.57949   2.62406   2.62990
 Alpha virt. eigenvalues --    2.65967   2.67563   2.72678   2.76222   2.79872
 Alpha virt. eigenvalues --    2.81767   2.84282   2.88384   2.92113   2.96433
 Alpha virt. eigenvalues --    3.02138   3.05598   3.08500   3.14085   3.24003
 Alpha virt. eigenvalues --    3.33429   3.39912   3.41491   3.51709   3.55030
 Alpha virt. eigenvalues --    4.35481   4.41356   4.51349   4.57025   4.66799
 Alpha virt. eigenvalues --    4.68171   4.71676   4.86864   4.89550   5.06248
          Condensed to atoms (all electrons):
              1          2          3          4          5          6
     1  H    0.464519   0.381560  -0.020789  -0.016203  -0.031817   0.004239
     2  C    0.381560   5.292282   0.373774   0.372214   0.372867  -0.071138
     3  H   -0.020789   0.373774   0.528323  -0.025729  -0.035324   0.001604
     4  H   -0.016203   0.372214  -0.025729   0.492170  -0.027358   0.000333
     5  C   -0.031817   0.372867  -0.035324  -0.027358   4.135656   0.612553
     6  O    0.004239  -0.071138   0.001604   0.000333   0.612553   8.113788
     7  N    0.004525  -0.122411   0.004177   0.001444   0.247498  -0.099170
     8  H    0.000159   0.000288  -0.000305   0.000009  -0.026429   0.003281
     9  C   -0.000139   0.005248   0.000258  -0.000718  -0.024309   0.009131
    10  H    0.000002  -0.000097  -0.000008  -0.000003   0.002949  -0.000018
    11  C    0.000007  -0.000132  -0.000017   0.000007  -0.001653  -0.003892
    12  H   -0.000001   0.000128  -0.000004  -0.000004   0.001220   0.006907
    13  H    0.000000   0.000006   0.000000   0.000000   0.000107   0.000173
    14  H    0.000000  -0.000004   0.000001   0.000000  -0.000038  -0.000063
    15  C    0.000001  -0.000459   0.000013   0.000333  -0.003007  -0.002037
    16  O    0.000018  -0.001373   0.000019   0.001209   0.010907  -0.005583
    17  N    0.000000  -0.000007   0.000000   0.000002   0.000190  -0.000032
    18  H    0.000000   0.000000   0.000000   0.000000  -0.000005   0.000000
    19  C    0.000000   0.000000   0.000000   0.000000  -0.000006   0.000002
    20  H    0.000000   0.000000   0.000000   0.000000   0.000001   0.000000
    21  H    0.000000   0.000000   0.000000   0.000000   0.000000   0.000000
    22  H    0.000000   0.000000   0.000000   0.000000  -0.000001   0.000000
              7          8          9         10         11         12
     1  H    0.004525   0.000159  -0.000139   0.000002   0.000007  -0.000001
     2  C   -0.122411   0.000288   0.005248  -0.000097  -0.000132   0.000128
     3  H    0.004177  -0.000305   0.000258  -0.000008  -0.000017  -0.000004
     4  H    0.001444   0.000009  -0.000718  -0.000003   0.000007  -0.000004
     5  C    0.247498  -0.026429  -0.024309   0.002949  -0.001653   0.001220
     6  O   -0.099170   0.003281   0.009131  -0.000018  -0.003892   0.006907
     7  N    7.320038   0.329116   0.235695  -0.043064  -0.062595  -0.002906
     8  H    0.329116   0.365418  -0.037584  -0.005984   0.004943  -0.000110
     9  C    0.235695  -0.037584   5.061835   0.420014   0.319496  -0.030146
    10  H   -0.043064  -0.005984   0.420014   0.524263  -0.036706   0.003427
    11  C   -0.062595   0.004943   0.319496  -0.036706   5.162389   0.389734
    12  H   -0.002906  -0.000110  -0.030146   0.003427   0.389734   0.444775
    13  H    0.004118  -0.000106  -0.040543  -0.001936   0.378307  -0.021992
    14  H    0.000154  -0.000138  -0.033182  -0.003639   0.388569  -0.019974
    15  C   -0.047748   0.000730   0.368705  -0.052693  -0.057526  -0.003675
    16  O   -0.001810   0.000350  -0.072985   0.001762   0.000299   0.000861
    17  N    0.003489  -0.000057  -0.117301   0.006227   0.001607   0.000390
    18  H    0.000127  -0.000011   0.000750   0.000542   0.000255  -0.000034
    19  C   -0.000106  -0.000001   0.004508  -0.000018  -0.000351  -0.000006
    20  H    0.000001   0.000000   0.000094  -0.000026  -0.000013   0.000000
    21  H    0.000001   0.000000   0.000004  -0.000020  -0.000003   0.000000
    22  H    0.000000   0.000000  -0.000088   0.000006   0.000058   0.000000
             13         14         15         16         17         18
     1  H    0.000000   0.000000   0.000001   0.000018   0.000000   0.000000
     2  C    0.000006  -0.000004  -0.000459  -0.001373  -0.000007   0.000000
     3  H    0.000000   0.000001   0.000013   0.000019   0.000000   0.000000
     4  H    0.000000   0.000000   0.000333   0.001209   0.000002   0.000000
     5  C    0.000107  -0.000038  -0.003007   0.010907   0.000190  -0.000005
     6  O    0.000173  -0.000063  -0.002037  -0.005583  -0.000032   0.000000
     7  N    0.004118   0.000154  -0.047748  -0.001810   0.003489   0.000127
     8  H   -0.000106  -0.000138   0.000730   0.000350  -0.000057  -0.000011
     9  C   -0.040543  -0.033182   0.368705  -0.072985  -0.117301   0.000750
    10  H   -0.001936  -0.003639  -0.052693   0.001762   0.006227   0.000542
    11  C    0.378307   0.388569  -0.057526   0.000299   0.001607   0.000255
    12  H   -0.021992  -0.019974  -0.003675   0.000861   0.000390  -0.000034
    13  H    0.561060  -0.025749  -0.002019  -0.000013   0.001513   0.001027
    14  H   -0.025749   0.506508   0.004650  -0.000067  -0.000131  -0.000017
    15  C   -0.002019   0.004650   4.218151   0.615030   0.257383  -0.023425
    16  O   -0.000013  -0.000067   0.615030   8.137555  -0.105910   0.002645
    17  N    0.001513  -0.000131   0.257383  -0.105910   7.342740   0.327360
    18  H    0.001027  -0.000017  -0.023425   0.002645   0.327360   0.335703
    19  C   -0.000038   0.000006  -0.027563   0.006465   0.199190  -0.024409
    20  H    0.000003   0.000000  -0.003974   0.004658  -0.037928   0.002934
    21  H   -0.000001   0.000000   0.004118   0.000342  -0.038505  -0.004121
    22  H   -0.000015  -0.000001  -0.002343   0.001017  -0.048210   0.000755
             19         20         21         22
     1  H    0.000000   0.000000   0.000000   0.000000
     2  C    0.000000   0.000000   0.000000   0.000000
     3  H    0.000000   0.000000   0.000000   0.000000
     4  H    0.000000   0.000000   0.000000   0.000000
     5  C   -0.000006   0.000001   0.000000  -0.000001
     6  O    0.000002   0.000000   0.000000   0.000000
     7  N   -0.000106   0.000001   0.000001   0.000000
     8  H   -0.000001   0.000000   0.000000   0.000000
     9  C    0.004508   0.000094   0.000004  -0.000088
    10  H   -0.000018  -0.000026  -0.000020   0.000006
    11  C   -0.000351  -0.000013  -0.000003   0.000058
    12  H   -0.000006   0.000000   0.000000   0.000000
    13  H   -0.000038   0.000003  -0.000001  -0.000015
    14  H    0.000006   0.000000   0.000000  -0.000001
    15  C   -0.027563  -0.003974   0.004118  -0.002343
    16  O    0.006465   0.004658   0.000342   0.001017
    17  N    0.199190  -0.037928  -0.038505  -0.048210
    18  H   -0.024409   0.002934  -0.004121   0.000755
    19  C    4.912638   0.403024   0.397647   0.406548
    20  H    0.403024   0.478898  -0.024090  -0.031805
    21  H    0.397647  -0.024090   0.529366  -0.032984
    22  H    0.406548  -0.031805  -0.032984   0.529248
 Mulliken atomic charges:
              1
     1  H    0.213919
     2  C   -0.602746
     3  H    0.174005
     4  H    0.202293
     5  C    0.765995
     6  O   -0.570079
     7  N   -0.770573
     8  H    0.366433
     9  C   -0.068743
    10  H    0.185021
    11  C   -0.482783
    12  H    0.231409
    13  H    0.146098
    14  H    0.183117
    15  C    0.757356
    16  O   -0.595397
    17  N   -0.792006
    18  H    0.379925
    19  C   -0.277528
    20  H    0.208223
    21  H    0.168245
    22  H    0.177815
 Sum of Mulliken atomic charges =   0.00000
 Mulliken charges with hydrogens summed into heavy atoms:
              1
     2  C   -0.012529
     5  C    0.765995
     6  O   -0.570079
     7  N   -0.404140
     9  C    0.116278
    11  C    0.077842
    15  C    0.757356
    16  O   -0.595397
    17  N   -0.412082
    19  C    0.276756
 Sum of Mulliken charges with hydrogens summed into heavy atoms =   0.00000
 Electronic spatial extent (au):  <R**2>=           1704.5985
 Charge=              0.0000 electrons
 Dipole moment (field-independent basis, Debye):
    X=              2.9644    Y=              1.4729    Z=             -4.7523  Tot=              5.7915
 Quadrupole moment (field-independent basis, Debye-Ang):
   XX=            -51.2501   YY=            -60.3386   ZZ=            -62.3283
   XY=              4.8649   XZ=              5.1967   YZ=              1.1609
 Traceless Quadrupole moment (field-independent basis, Debye-Ang):
   XX=              6.7222   YY=             -2.3663   ZZ=             -4.3559
   XY=              4.8649   XZ=              5.1967   YZ=              1.1609
 Octapole moment (field-independent basis, Debye-Ang**2):
  XXX=             25.5457  YYY=             -2.4286  ZZZ=             -7.7432  XYY=              2.3130
  XXY=            -10.4496  XXZ=            -12.4790  XZZ=              4.4670  YZZ=              1.6829
  YYZ=             -0.9486  XYZ=             -3.3487
 Hexadecapole moment (field-independent basis, Debye-Ang**3):
 XXXX=          -1358.6155 YYYY=           -505.8553 ZZZZ=           -214.2634 XXXY=             10.6371
 XXXZ=              3.9007 YYYX=             -1.4793 YYYZ=             -0.9351 ZZZX=             14.3467
 ZZZY=             -4.3844 XXYY=           -317.7841 XXZZ=           -294.5722 YYZZ=           -123.4266
 XXYZ=             -9.6546 YYXZ=             -9.0596 ZZXY=              3.4684
 N-N= 5.667120776707D+02 E-N=-2.289086410914D+03  KE= 4.921058522766D+02
 1\1\GINC-RODAN\FOpt\RHF\6-31G(d)\C6H12N2O2\STEBOSS\09-Feb-2017\0\\# HF
 /6-31G* Opt=(ModRedundant) geom=nocrowd\\Phi Psi fixed scan\\0,1\H,0.5
 228709931,3.8988835175,-1.3542310262\C,1.2473998415,3.8684433933,-0.55
 41562747\H,1.1877030616,2.9120756321,-0.0440853182\H,1.0189627026,4.65
 22650677,0.1615181976\C,2.6255893693,4.1127533132,-1.1257625786\O,2.79
 76105619,4.5073161953,-2.2365511665\N,3.672638183,3.7546083941,-0.2825
 111234\H,3.3345095297,3.4830872591,0.6163652438\C,4.8825411733,4.55439
 43254,-0.1474425875\H,5.3565182656,4.2145146715,0.7658668519\C,5.84357
 56565,4.3033881463,-1.318509548\H,5.3875517328,4.6167107332,-2.2468763
 245\H,6.7766841451,4.842523232,-1.1838338641\H,6.063960267,3.244742320
 3,-1.3816529968\C,4.6159344639,6.0610396247,-0.0061121315\O,3.63238959
 5,6.6054198922,-0.4168932078\N,5.5517239573,6.7167058002,0.7269392394\
 H,6.4082934383,6.2522032214,0.9249326479\C,5.5322207981,8.1604962231,0
 .8447380467\H,4.5352974577,8.4851987623,1.1015240103\H,6.2128618223,8.
 4539373742,1.6331850731\H,5.8259629843,8.651092901,-0.077451163\\Versi
 on=EM64L-G09RevA.02\State=1-A\HF=-492.8403256\RMSD=4.792e-09\RMSF=4.35
 3e-03\Dipole=1.1925618,-0.3655796,1.9068079\Quadrupole=4.7998036,-0.04
 53501,-4.7544535,4.8225322,-1.1731035,-0.7617035\PG=C01 [X(C6H12N2O2)]
 \\@


 YOU CAN WIPE THE SLATE CLEAN, BUT YOU'LL STILL
 HAVE TO EAT A LITTLE CHALK DUST.
 Job cpu time:  0 days  0 hours 22 minutes 46.1 seconds.
 File lengths (MBytes):  RWF=     25 Int=      0 D2E=      0 Chk=      3 Scr=      1
 Normal termination of Gaussian 09 at Thu Feb  9 17:27:47 2017.
