 Entering Gaussian System, Link 0=g09
 Initial command:
 /home/steboss/Software/g09/l1.exe /tmp/Gau-3878.inp -scrdir=/tmp/
 Entering Link 1 = /home/steboss/Software/g09/l1.exe PID=      3880.
  
 Copyright (c) 1988,1990,1992,1993,1995,1998,2003,2009, Gaussian, Inc.
                  All Rights Reserved.
  
 This is part of the Gaussian(R) 09 program.  It is based on
 the Gaussian(R) 03 system (copyright 2003, Gaussian, Inc.),
 the Gaussian(R) 98 system (copyright 1998, Gaussian, Inc.),
 the Gaussian(R) 94 system (copyright 1995, Gaussian, Inc.),
 the Gaussian 92(TM) system (copyright 1992, Gaussian, Inc.),
 the Gaussian 90(TM) system (copyright 1990, Gaussian, Inc.),
 the Gaussian 88(TM) system (copyright 1988, Gaussian, Inc.),
 the Gaussian 86(TM) system (copyright 1986, Carnegie Mellon
 University), and the Gaussian 82(TM) system (copyright 1983,
 Carnegie Mellon University). Gaussian is a federally registered
 trademark of Gaussian, Inc.
  
 This software contains proprietary and confidential information,
 including trade secrets, belonging to Gaussian, Inc.
  
 This software is provided under written license and may be
 used, copied, transmitted, or stored only in accord with that
 written license.
  
 The following legend is applicable only to US Government
 contracts under FAR:
  
                    RESTRICTED RIGHTS LEGEND
  
 Use, reproduction and disclosure by the US Government is
 subject to restrictions as set forth in subparagraphs (a)
 and (c) of the Commercial Computer Software - Restricted
 Rights clause in FAR 52.227-19.
  
 Gaussian, Inc.
 340 Quinnipiac St., Bldg. 40, Wallingford CT 06492
  
  
 ---------------------------------------------------------------
 Warning -- This program may not be used in any manner that
 competes with the business of Gaussian, Inc. or will provide
 assistance to any competitor of Gaussian, Inc.  The licensee
 of this program is prohibited from giving any competitor of
 Gaussian, Inc. access to this program.  By using this program,
 the user acknowledges that Gaussian, Inc. is engaged in the
 business of creating and licensing software in the field of
 computational chemistry and represents and warrants to the
 licensee that it is not a competitor of Gaussian, Inc. and that
 it will not use this program in any manner prohibited above.
 ---------------------------------------------------------------
  

 Cite this work as:
 Gaussian 09, Revision A.02,
 M. J. Frisch, G. W. Trucks, H. B. Schlegel, G. E. Scuseria, 
 M. A. Robb, J. R. Cheeseman, G. Scalmani, V. Barone, B. Mennucci, 
 G. A. Petersson, H. Nakatsuji, M. Caricato, X. Li, H. P. Hratchian, 
 A. F. Izmaylov, J. Bloino, G. Zheng, J. L. Sonnenberg, M. Hada, 
 M. Ehara, K. Toyota, R. Fukuda, J. Hasegawa, M. Ishida, T. Nakajima, 
 Y. Honda, O. Kitao, H. Nakai, T. Vreven, J. A. Montgomery, Jr., 
 J. E. Peralta, F. Ogliaro, M. Bearpark, J. J. Heyd, E. Brothers, 
 K. N. Kudin, V. N. Staroverov, R. Kobayashi, J. Normand, 
 K. Raghavachari, A. Rendell, J. C. Burant, S. S. Iyengar, J. Tomasi, 
 M. Cossi, N. Rega, J. M. Millam, M. Klene, J. E. Knox, J. B. Cross, 
 V. Bakken, C. Adamo, J. Jaramillo, R. Gomperts, R. E. Stratmann, 
 O. Yazyev, A. J. Austin, R. Cammi, C. Pomelli, J. W. Ochterski, 
 R. L. Martin, K. Morokuma, V. G. Zakrzewski, G. A. Voth, 
 P. Salvador, J. J. Dannenberg, S. Dapprich, A. D. Daniels, 
 O. Farkas, J. B. Foresman, J. V. Ortiz, J. Cioslowski, 
 and D. J. Fox, Gaussian, Inc., Wallingford CT, 2009.
 
 ******************************************
 Gaussian 09:  EM64L-G09RevA.02 11-Jun-2009
                 9-Feb-2017 
 ******************************************
 %chk=structure_285.chk
 %NProcShared=8
 Will use up to    8 processors via shared memory.
 -------------------------------------------
 # HF/6-31G* Opt=(ModRedundant) geom=nocrowd
 -------------------------------------------
 1/18=120,19=15,38=1/1,3;
 2/9=110,12=1,17=6,18=5,40=1/2;
 3/5=1,6=6,7=1,11=9,16=1,25=1,30=1,71=1/1,2,3;
 4//1;
 5/5=2,38=5/2;
 6/7=2,8=2,9=2,10=2,28=1/1;
 7//1,2,3,16;
 1/18=20,19=15/3(2);
 2/9=110,12=1/2;
 99//99;
 2/9=110,12=1/2;
 3/5=1,6=6,7=1,11=9,16=1,25=1,30=1,71=1/1,2,3;
 4/5=5,16=3/1;
 5/5=2,38=5/2;
 7//1,2,3,16;
 1/18=20,19=15/3(-5);
 2/9=110,12=1/2;
 6/7=2,8=2,9=2,10=2,19=2,28=1/1;
 99/9=1/99;
 ------------------
 Phi Psi fixed scan
 ------------------
 Symbolic Z-matrix:
 Charge =  0 Multiplicity = 1
 H                     0.5059    4.0098   -1.3919 
 C                     1.247     3.6069   -0.7015 
 H                     1.4338    2.5596   -0.9387 
 H                     0.8743    3.6867    0.3197 
 C                     2.5671    4.3738   -0.8014 
 O                     2.6862    5.3108   -1.5877 
 N                     3.5554    3.9697    0. 
 H                     3.4094    3.1938    0.63 
 C                     4.8533    4.6139    0. 
 H                     5.4076    4.3155    0.8898 
 C                     5.6613    4.2208   -1.2322 
 H                     5.1233    4.5214   -2.1312 
 H                     6.6305    4.7189   -1.2058 
 H                     5.8085    3.1409   -1.2414 
 C                     4.7127    6.1294    0. 
 O                     4.928     6.7758    1.0229 
 N                     4.3498    6.6961   -1.153 
 H                     4.1839    6.1223   -1.9675 
 C                     4.1821    8.1295   -1.2823 
 H                     4.3948    8.6084   -0.3265 
 H                     4.8683    8.5094   -2.0392 
 H                     3.1567    8.3506   -1.5786 
 
 The following ModRedundant input section has been read:
 D    5    7    9   15 F                                                       
 D    7    9   15   17 F                                                       

 GradGradGradGradGradGradGradGradGradGradGradGradGradGradGradGradGradGrad
 Berny optimization.
 Initialization pass.
                           ----------------------------
                           !    Initial Parameters    !
                           ! (Angstroms and Degrees)  !
 --------------------------                            --------------------------
 ! Name  Definition              Value          Derivative Info.                !
 --------------------------------------------------------------------------------
 ! R1    R(1,2)                  1.0901         estimate D2E/DX2                !
 ! R2    R(2,3)                  1.09           estimate D2E/DX2                !
 ! R3    R(2,4)                  1.09           estimate D2E/DX2                !
 ! R4    R(2,5)                  1.53           estimate D2E/DX2                !
 ! R5    R(5,6)                  1.229          estimate D2E/DX2                !
 ! R6    R(5,7)                  1.335          estimate D2E/DX2                !
 ! R7    R(6,18)                 1.7452         estimate D2E/DX2                !
 ! R8    R(7,8)                  1.0101         estimate D2E/DX2                !
 ! R9    R(7,9)                  1.449          estimate D2E/DX2                !
 ! R10   R(9,10)                 1.09           estimate D2E/DX2                !
 ! R11   R(9,11)                 1.525          estimate D2E/DX2                !
 ! R12   R(9,15)                 1.522          estimate D2E/DX2                !
 ! R13   R(11,12)                1.09           estimate D2E/DX2                !
 ! R14   R(11,13)                1.09           estimate D2E/DX2                !
 ! R15   R(11,14)                1.0899         estimate D2E/DX2                !
 ! R16   R(15,16)                1.229          estimate D2E/DX2                !
 ! R17   R(15,17)                1.335          estimate D2E/DX2                !
 ! R18   R(17,18)                1.01           estimate D2E/DX2                !
 ! R19   R(17,19)                1.449          estimate D2E/DX2                !
 ! R20   R(19,20)                1.09           estimate D2E/DX2                !
 ! R21   R(19,21)                1.09           estimate D2E/DX2                !
 ! R22   R(19,22)                1.09           estimate D2E/DX2                !
 ! A1    A(1,2,3)              109.5018         estimate D2E/DX2                !
 ! A2    A(1,2,4)              109.503          estimate D2E/DX2                !
 ! A3    A(1,2,5)              111.0997         estimate D2E/DX2                !
 ! A4    A(3,2,4)              109.4407         estimate D2E/DX2                !
 ! A5    A(3,2,5)              108.636          estimate D2E/DX2                !
 ! A6    A(4,2,5)              108.6327         estimate D2E/DX2                !
 ! A7    A(2,5,6)              120.5011         estimate D2E/DX2                !
 ! A8    A(2,5,7)              116.6041         estimate D2E/DX2                !
 ! A9    A(6,5,7)              122.8948         estimate D2E/DX2                !
 ! A10   A(5,7,8)              119.9952         estimate D2E/DX2                !
 ! A11   A(5,7,9)              121.9061         estimate D2E/DX2                !
 ! A12   A(8,7,9)              118.0987         estimate D2E/DX2                !
 ! A13   A(7,9,10)             109.5            estimate D2E/DX2                !
 ! A14   A(7,9,11)             111.0992         estimate D2E/DX2                !
 ! A15   A(7,9,15)             111.0966         estimate D2E/DX2                !
 ! A16   A(10,9,11)            108.6382         estimate D2E/DX2                !
 ! A17   A(10,9,15)            108.6373         estimate D2E/DX2                !
 ! A18   A(11,9,15)            107.7947         estimate D2E/DX2                !
 ! A19   A(9,11,12)            109.5007         estimate D2E/DX2                !
 ! A20   A(9,11,13)            109.4959         estimate D2E/DX2                !
 ! A21   A(9,11,14)            109.4978         estimate D2E/DX2                !
 ! A22   A(12,11,13)           109.441          estimate D2E/DX2                !
 ! A23   A(12,11,14)           109.4482         estimate D2E/DX2                !
 ! A24   A(13,11,14)           109.4436         estimate D2E/DX2                !
 ! A25   A(9,15,16)            120.4983         estimate D2E/DX2                !
 ! A26   A(9,15,17)            116.6018         estimate D2E/DX2                !
 ! A27   A(16,15,17)           122.8999         estimate D2E/DX2                !
 ! A28   A(15,17,18)           119.9973         estimate D2E/DX2                !
 ! A29   A(15,17,19)           121.9018         estimate D2E/DX2                !
 ! A30   A(18,17,19)           118.1009         estimate D2E/DX2                !
 ! A31   A(17,19,20)           109.4996         estimate D2E/DX2                !
 ! A32   A(17,19,21)           109.5054         estimate D2E/DX2                !
 ! A33   A(17,19,22)           109.4995         estimate D2E/DX2                !
 ! A34   A(20,19,21)           109.4465         estimate D2E/DX2                !
 ! A35   A(20,19,22)           109.4394         estimate D2E/DX2                !
 ! A36   A(21,19,22)           109.4369         estimate D2E/DX2                !
 ! D1    D(1,2,5,6)             -0.0006         estimate D2E/DX2                !
 ! D2    D(1,2,5,7)            179.9998         estimate D2E/DX2                !
 ! D3    D(3,2,5,6)            120.5137         estimate D2E/DX2                !
 ! D4    D(3,2,5,7)            -59.4859         estimate D2E/DX2                !
 ! D5    D(4,2,5,6)           -120.5142         estimate D2E/DX2                !
 ! D6    D(4,2,5,7)             59.4861         estimate D2E/DX2                !
 ! D7    D(2,5,7,8)              0.0017         estimate D2E/DX2                !
 ! D8    D(2,5,7,9)            179.9958         estimate D2E/DX2                !
 ! D9    D(6,5,7,8)           -179.998          estimate D2E/DX2                !
 ! D10   D(6,5,7,9)             -0.0039         estimate D2E/DX2                !
 ! D11   D(5,7,9,10)           165.0015         estimate D2E/DX2                !
 ! D12   D(5,7,9,11)           -74.9959         estimate D2E/DX2                !
 ! D13   D(5,7,9,15)            45.0017         Frozen                          !
 ! D14   D(8,7,9,10)           -15.0043         estimate D2E/DX2                !
 ! D15   D(8,7,9,11)           104.9983         estimate D2E/DX2                !
 ! D16   D(8,7,9,15)          -135.0041         estimate D2E/DX2                !
 ! D17   D(7,9,11,12)           60.0024         estimate D2E/DX2                !
 ! D18   D(7,9,11,13)          179.9986         estimate D2E/DX2                !
 ! D19   D(7,9,11,14)          -60.0038         estimate D2E/DX2                !
 ! D20   D(10,9,11,12)        -179.4843         estimate D2E/DX2                !
 ! D21   D(10,9,11,13)         -59.4881         estimate D2E/DX2                !
 ! D22   D(10,9,11,14)          60.5095         estimate D2E/DX2                !
 ! D23   D(15,9,11,12)         -61.938          estimate D2E/DX2                !
 ! D24   D(15,9,11,13)          58.0582         estimate D2E/DX2                !
 ! D25   D(15,9,11,14)         178.0558         estimate D2E/DX2                !
 ! D26   D(7,9,15,16)          105.0004         estimate D2E/DX2                !
 ! D27   D(7,9,15,17)          -74.9976         Frozen                          !
 ! D28   D(10,9,15,16)         -15.5107         estimate D2E/DX2                !
 ! D29   D(10,9,15,17)         164.4913         estimate D2E/DX2                !
 ! D30   D(11,9,15,16)        -133.0576         estimate D2E/DX2                !
 ! D31   D(11,9,15,17)          46.9444         estimate D2E/DX2                !
 ! D32   D(9,15,17,18)          -0.0053         estimate D2E/DX2                !
 ! D33   D(9,15,17,19)        -179.9963         estimate D2E/DX2                !
 ! D34   D(16,15,17,18)        179.9968         estimate D2E/DX2                !
 ! D35   D(16,15,17,19)          0.0058         estimate D2E/DX2                !
 ! D36   D(15,17,19,20)         -0.0095         estimate D2E/DX2                !
 ! D37   D(15,17,19,21)        119.9986         estimate D2E/DX2                !
 ! D38   D(15,17,19,22)       -120.0052         estimate D2E/DX2                !
 ! D39   D(18,17,19,20)        179.9994         estimate D2E/DX2                !
 ! D40   D(18,17,19,21)        -59.9925         estimate D2E/DX2                !
 ! D41   D(18,17,19,22)         60.0037         estimate D2E/DX2                !
 --------------------------------------------------------------------------------
 Trust Radius=3.00D-01 FncErr=1.00D-07 GrdErr=1.00D-07
 Number of steps in this run= 109 maximum allowed number of steps= 132.
 GradGradGradGradGradGradGradGradGradGradGradGradGradGradGradGradGradGrad

                          Input orientation:                          
 ---------------------------------------------------------------------
 Center     Atomic      Atomic             Coordinates (Angstroms)
 Number     Number       Type             X           Y           Z
 ---------------------------------------------------------------------
      1          1           0        0.505900    4.009800   -1.391900
      2          6           0        1.247000    3.606900   -0.701500
      3          1           0        1.433800    2.559600   -0.938700
      4          1           0        0.874300    3.686700    0.319700
      5          6           0        2.567100    4.373800   -0.801400
      6          8           0        2.686200    5.310800   -1.587700
      7          7           0        3.555400    3.969700    0.000000
      8          1           0        3.409400    3.193800    0.630000
      9          6           0        4.853300    4.613900    0.000000
     10          1           0        5.407600    4.315500    0.889800
     11          6           0        5.661300    4.220800   -1.232200
     12          1           0        5.123300    4.521400   -2.131200
     13          1           0        6.630500    4.718900   -1.205800
     14          1           0        5.808500    3.140900   -1.241400
     15          6           0        4.712700    6.129400    0.000000
     16          8           0        4.928000    6.775800    1.022900
     17          7           0        4.349800    6.696100   -1.153000
     18          1           0        4.183900    6.122300   -1.967500
     19          6           0        4.182100    8.129500   -1.282300
     20          1           0        4.394800    8.608400   -0.326500
     21          1           0        4.868300    8.509400   -2.039200
     22          1           0        3.156700    8.350600   -1.578600
 ---------------------------------------------------------------------
                    Distance matrix (angstroms):
                    1          2          3          4          5
     1  H    0.000000
     2  C    1.090050   0.000000
     3  H    1.780300   1.089952   0.000000
     4  H    1.780361   1.090010   1.779597   0.000000
     5  C    2.174795   1.529961   2.143488   2.143489   0.000000
     6  O    2.546497   2.399984   3.091732   3.091740   1.228992
     7  N    3.352379   2.439762   2.714908   2.714884   1.335019
     8  H    3.631012   2.572842   2.601158   2.601148   2.037345
     9  C    4.604586   3.809403   4.098083   4.098091   2.434461
    10  H    5.415374   4.510537   4.713564   4.612072   3.306357
    11  C    5.162187   4.488269   4.551646   5.060536   3.127790
    12  H    4.704113   4.231555   4.345472   4.975705   2.885188
    13  H    6.168321   5.520230   5.633792   6.043710   4.098030
    14  H    5.375426   4.616918   4.423521   5.203966   3.495757
    15  C    4.911950   4.343522   4.937187   4.560954   2.885823
    16  O    5.747781   5.154148   5.816670   5.144853   3.830342
    17  N    4.695620   4.401633   5.065532   4.827467   2.948681
    18  H    4.280380   4.068830   4.616742   4.702859   2.651619
    19  C    5.522534   5.422735   6.220531   5.765971   4.116403
    20  H    6.116023   5.921509   6.762418   6.085608   4.636578
    21  H    6.300471   6.240013   6.957515   6.691403   4.891918
    22  H    5.089611   5.188347   6.075651   5.528549   4.094705
                    6          7          8          9         10
     6  O    0.000000
     7  N    2.252743   0.000000
     8  H    3.150064   1.010068   0.000000
     9  C    2.775389   1.448978   2.120951   0.000000
    10  H    3.812433   2.083739   2.306190   1.089970   0.000000
    11  C    3.188370   2.452791   3.097349   1.525027   2.139209
    12  H    2.618779   2.702720   3.510584   2.150225   3.041326
    13  H    4.006706   3.386959   4.008937   2.150214   2.459625
    14  H    3.818003   2.702673   3.043126   2.150165   2.466256
    15  C    2.701407   2.450234   3.273108   1.522008   2.136554
    16  O    3.739936   3.287028   3.910402   2.392847   2.510141
    17  N    2.208073   3.064920   4.040983   2.432792   3.310473
    18  H    1.745247   2.983246   3.990359   2.567961   3.595293
    19  C    3.205629   4.397838   5.349308   3.801874   4.557024
    20  H    3.922258   4.725329   5.586036   4.033963   4.575384
    21  H    3.898263   5.146933   6.124428   4.396986   5.143800
    22  H    3.076010   4.673674   5.615546   4.396971   5.238471
                   11         12         13         14         15
    11  C    0.000000
    12  H    1.089957   0.000000
    13  H    1.090023   1.779613   0.000000
    14  H    1.089925   1.779613   1.779617   0.000000
    15  C    2.461892   2.701161   2.668599   3.416575   0.000000
    16  O    3.485861   3.881856   3.477995   4.372051   1.229029
    17  N    2.802395   2.506890   3.018891   3.843835   1.335011
    18  H    2.517753   1.863371   2.921570   3.472073   2.037336
    19  C    4.179531   3.824248   4.199132   5.247188   2.434385
    20  H    4.655679   4.526723   4.571623   5.720939   2.520536
    21  H    4.435334   3.997203   4.262370   5.508289   3.137985
    22  H    4.842341   4.340006   5.039396   5.855486   3.137968
                   16         17         18         19         20
    16  O    0.000000
    17  N    2.252822   0.000000
    18  H    3.150117   1.010039   0.000000
    19  C    2.775395   1.448957   2.120932   0.000000
    20  H    2.337436   2.083751   2.986311   1.090018   0.000000
    21  H    3.519288   2.083807   2.484309   1.089996   1.779703
    22  H    3.519276   2.083745   2.484291   1.090011   1.779637
                   21         22
    21  H    0.000000
    22  H    1.779591   0.000000
 Stoichiometry    C6H12N2O2
 Framework group  C1[X(C6H12N2O2)]
 Deg. of freedom    60
 Full point group                 C1      NOp   1
 Largest Abelian subgroup         C1      NOp   1
 Largest concise Abelian subgroup C1      NOp   1
                         Standard orientation:                         
 ---------------------------------------------------------------------
 Center     Atomic      Atomic             Coordinates (Angstroms)
 Number     Number       Type             X           Y           Z
 ---------------------------------------------------------------------
      1          1           0        3.155511   -1.949764   -0.030662
      2          6           0        2.997728   -0.941175    0.351520
      3          1           0        3.725706   -0.264506   -0.095876
      4          1           0        3.118685   -0.939437    1.434797
      5          6           0        1.592218   -0.438576    0.015791
      6          8           0        0.808110   -1.149629   -0.608709
      7          7           0        1.280923    0.790347    0.434263
      8          1           0        1.959815    1.337106    0.944554
      9          6           0       -0.017778    1.380159    0.179242
     10          1           0       -0.153388    2.252064    0.819107
     11          6           0       -0.145360    1.818813   -1.275754
     12          1           0       -0.021008    0.954827   -1.928494
     13          1           0       -1.129773    2.257701   -1.438412
     14          1           0        0.623204    2.557885   -1.501625
     15          6           0       -1.135847    0.388000    0.465689
     16          8           0       -1.821482    0.496608    1.479898
     17          7           0       -1.318606   -0.582463   -0.432674
     18          1           0       -0.729094   -0.630216   -1.251438
     19          6           0       -2.349766   -1.588035   -0.274524
     20          1           0       -2.898083   -1.404715    0.649533
     21          1           0       -3.036676   -1.540960   -1.119527
     22          1           0       -1.891301   -2.576126   -0.234376
 ---------------------------------------------------------------------
 Rotational constants (GHZ):      1.8880312      1.0564600      0.8792100
 Standard basis: 6-31G(d) (6D, 7F)
 There are   174 symmetry adapted basis functions of A   symmetry.
 Integral buffers will be    131072 words long.
 Raffenetti 1 integral format.
 Two-electron integral symmetry is turned on.
   174 basis functions,   328 primitive gaussians,   174 cartesian basis functions
    39 alpha electrons       39 beta electrons
       nuclear repulsion energy       583.3127015834 Hartrees.
 NAtoms=   22 NActive=   22 NUniq=   22 SFac= 7.50D-01 NAtFMM=   80 NAOKFM=F Big=F
 One-electron integrals computed using PRISM.
 NBasis=   174 RedAO= T  NBF=   174
 NBsUse=   174 1.00D-06 NBFU=   174
 Harris functional with IExCor=  205 diagonalized for initial guess.
 ExpMin= 1.61D-01 ExpMax= 5.48D+03 ExpMxC= 8.25D+02 IAcc=1 IRadAn=         1 AccDes= 0.00D+00
 HarFok:  IExCor=  205 AccDes= 0.00D+00 IRadAn=         1 IDoV= 1
 ScaDFX=  1.000000  1.000000  1.000000  1.000000
 FoFCou: FMM=F IPFlag=           0 FMFlag=      100000 FMFlg1=           0
         NFxFlg=           0 DoJE=T BraDBF=F KetDBF=T FulRan=T
         Omega=  0.000000  0.000000  1.000000  0.000000  0.000000 ICntrl=     500 IOpCl=  0
         NMat0=    1 NMatS0=    1 NMatT0=    0 NMatD0=    1 NMtDS0=    0 NMtDT0=    0
         I1Cent=           4 NGrid=           0.
 Petite list used in FoFCou.
 Initial guess orbital symmetries:
       Occupied  (A) (A) (A) (A) (A) (A) (A) (A) (A) (A) (A) (A)
                 (A) (A) (A) (A) (A) (A) (A) (A) (A) (A) (A) (A)
                 (A) (A) (A) (A) (A) (A) (A) (A) (A) (A) (A) (A)
                 (A) (A) (A)
       Virtual   (A) (A) (A) (A) (A) (A) (A) (A) (A) (A) (A) (A)
                 (A) (A) (A) (A) (A) (A) (A) (A) (A) (A) (A) (A)
                 (A) (A) (A) (A) (A) (A) (A) (A) (A) (A) (A) (A)
                 (A) (A) (A) (A) (A) (A) (A) (A) (A) (A) (A) (A)
                 (A) (A) (A) (A) (A) (A) (A) (A) (A) (A) (A) (A)
                 (A) (A) (A) (A) (A) (A) (A) (A) (A) (A) (A) (A)
                 (A) (A) (A) (A) (A) (A) (A) (A) (A) (A) (A) (A)
                 (A) (A) (A) (A) (A) (A) (A) (A) (A) (A) (A) (A)
                 (A) (A) (A) (A) (A) (A) (A) (A) (A) (A) (A) (A)
                 (A) (A) (A) (A) (A) (A) (A) (A) (A) (A) (A) (A)
                 (A) (A) (A) (A) (A) (A) (A) (A) (A) (A) (A) (A)
                 (A) (A) (A)
 The electronic state of the initial guess is 1-A.
 Requested convergence on RMS density matrix=1.00D-08 within 128 cycles.
 Requested convergence on MAX density matrix=1.00D-06.
 Requested convergence on             energy=1.00D-06.
 No special actions if energy rises.
 Integral accuracy reduced to 1.0D-05 until final iterations.
 Initial convergence to 1.0D-05 achieved.  Increase integral accuracy.
 SCF Done:  E(RHF) =  -492.805488838     A.U. after   15 cycles
             Convg  =    0.6056D-08             -V/T =  2.0014

 **********************************************************************

            Population analysis using the SCF density.

 **********************************************************************

 Orbital symmetries:
       Occupied  (A) (A) (A) (A) (A) (A) (A) (A) (A) (A) (A) (A)
                 (A) (A) (A) (A) (A) (A) (A) (A) (A) (A) (A) (A)
                 (A) (A) (A) (A) (A) (A) (A) (A) (A) (A) (A) (A)
                 (A) (A) (A)
       Virtual   (A) (A) (A) (A) (A) (A) (A) (A) (A) (A) (A) (A)
                 (A) (A) (A) (A) (A) (A) (A) (A) (A) (A) (A) (A)
                 (A) (A) (A) (A) (A) (A) (A) (A) (A) (A) (A) (A)
                 (A) (A) (A) (A) (A) (A) (A) (A) (A) (A) (A) (A)
                 (A) (A) (A) (A) (A) (A) (A) (A) (A) (A) (A) (A)
                 (A) (A) (A) (A) (A) (A) (A) (A) (A) (A) (A) (A)
                 (A) (A) (A) (A) (A) (A) (A) (A) (A) (A) (A) (A)
                 (A) (A) (A) (A) (A) (A) (A) (A) (A) (A) (A) (A)
                 (A) (A) (A) (A) (A) (A) (A) (A) (A) (A) (A) (A)
                 (A) (A) (A) (A) (A) (A) (A) (A) (A) (A) (A) (A)
                 (A) (A) (A) (A) (A) (A) (A) (A) (A) (A) (A) (A)
                 (A) (A) (A)
 The electronic state is 1-A.
 Alpha  occ. eigenvalues --  -20.52531 -20.49536 -15.60887 -15.54997 -11.36548
 Alpha  occ. eigenvalues --  -11.32585 -11.28459 -11.24579 -11.23534 -11.22914
 Alpha  occ. eigenvalues --   -1.39773  -1.35079  -1.25639  -1.20541  -1.06327
 Alpha  occ. eigenvalues --   -0.99857  -0.93576  -0.88611  -0.82345  -0.76497
 Alpha  occ. eigenvalues --   -0.71933  -0.70308  -0.64468  -0.64060  -0.61500
 Alpha  occ. eigenvalues --   -0.60536  -0.58958  -0.57617  -0.57258  -0.56765
 Alpha  occ. eigenvalues --   -0.54195  -0.53630  -0.51710  -0.50956  -0.49972
 Alpha  occ. eigenvalues --   -0.42779  -0.42660  -0.37988  -0.33548
 Alpha virt. eigenvalues --    0.18315   0.19151   0.22341   0.25277   0.25549
 Alpha virt. eigenvalues --    0.28449   0.29177   0.29752   0.31120   0.31553
 Alpha virt. eigenvalues --    0.32112   0.34314   0.34483   0.36618   0.37786
 Alpha virt. eigenvalues --    0.38983   0.40309   0.45276   0.46883   0.51334
 Alpha virt. eigenvalues --    0.54035   0.58919   0.64758   0.70040   0.72193
 Alpha virt. eigenvalues --    0.72997   0.74903   0.75594   0.77527   0.79669
 Alpha virt. eigenvalues --    0.80813   0.80957   0.82664   0.89381   0.90843
 Alpha virt. eigenvalues --    0.92325   0.93616   0.96110   0.97609   0.99782
 Alpha virt. eigenvalues --    1.01262   1.01599   1.05738   1.08995   1.10456
 Alpha virt. eigenvalues --    1.12287   1.13559   1.14080   1.15249   1.15889
 Alpha virt. eigenvalues --    1.16364   1.18504   1.19037   1.19912   1.21330
 Alpha virt. eigenvalues --    1.21952   1.23978   1.24589   1.25982   1.28960
 Alpha virt. eigenvalues --    1.32241   1.37355   1.38715   1.41405   1.42591
 Alpha virt. eigenvalues --    1.49500   1.50466   1.56393   1.58565   1.60317
 Alpha virt. eigenvalues --    1.64424   1.68272   1.71011   1.73495   1.75720
 Alpha virt. eigenvalues --    1.82309   1.85081   1.93108   1.97998   2.00136
 Alpha virt. eigenvalues --    2.04054   2.07415   2.08145   2.11924   2.14474
 Alpha virt. eigenvalues --    2.15521   2.17981   2.19253   2.20421   2.21977
 Alpha virt. eigenvalues --    2.25279   2.30651   2.31608   2.33271   2.35572
 Alpha virt. eigenvalues --    2.37145   2.43312   2.45645   2.48542   2.50196
 Alpha virt. eigenvalues --    2.54549   2.55286   2.60669   2.63747   2.64335
 Alpha virt. eigenvalues --    2.66440   2.68907   2.71291   2.72754   2.76879
 Alpha virt. eigenvalues --    2.80253   2.84808   2.87768   2.93547   2.97082
 Alpha virt. eigenvalues --    3.04330   3.06245   3.09424   3.12634   3.26818
 Alpha virt. eigenvalues --    3.30401   3.36079   3.39740   3.53618   3.58384
 Alpha virt. eigenvalues --    4.37212   4.49188   4.52773   4.61487   4.64906
 Alpha virt. eigenvalues --    4.70337   4.76545   4.88638   4.91384   5.11219
          Condensed to atoms (all electrons):
              1          2          3          4          5          6
     1  H    0.452033   0.385843  -0.018535  -0.017694  -0.030340   0.003343
     2  C    0.385843   5.241220   0.374688   0.375384   0.379216  -0.063986
     3  H   -0.018535   0.374688   0.513075  -0.023666  -0.034936   0.001184
     4  H   -0.017694   0.375384  -0.023666   0.505862  -0.036316   0.001117
     5  C   -0.030340   0.379216  -0.034936  -0.036316   4.184628   0.553071
     6  O    0.003343  -0.063986   0.001184   0.001117   0.553071   8.393836
     7  N    0.003721  -0.117790   0.003252   0.003815   0.266089  -0.104933
     8  H   -0.000011  -0.000711   0.000527   0.000395  -0.018785   0.002478
     9  C   -0.000067   0.003568  -0.000216  -0.000095  -0.028401   0.013978
    10  H    0.000001  -0.000031  -0.000004   0.000002   0.003374   0.000143
    11  C    0.000005  -0.000194   0.000037  -0.000001  -0.002161  -0.004989
    12  H    0.000001   0.000084  -0.000014   0.000000   0.004493   0.002437
    13  H    0.000000   0.000004   0.000000   0.000000   0.000043   0.000109
    14  H    0.000000  -0.000035   0.000005   0.000000  -0.000272   0.000052
    15  C    0.000005  -0.000352   0.000014  -0.000005  -0.007817   0.002502
    16  O    0.000000  -0.000005   0.000000  -0.000001  -0.000284  -0.000003
    17  N    0.000011  -0.000349   0.000002   0.000035   0.012803  -0.149858
    18  H    0.000003   0.000117  -0.000012   0.000001  -0.002762   0.000030
    19  C   -0.000001   0.000010   0.000000  -0.000001  -0.000132   0.004524
    20  H    0.000000  -0.000001   0.000000   0.000000  -0.000015  -0.000152
    21  H    0.000000   0.000000   0.000000   0.000000   0.000021  -0.000191
    22  H    0.000000   0.000006   0.000000  -0.000001  -0.000134   0.002563
              7          8          9         10         11         12
     1  H    0.003721  -0.000011  -0.000067   0.000001   0.000005   0.000001
     2  C   -0.117790  -0.000711   0.003568  -0.000031  -0.000194   0.000084
     3  H    0.003252   0.000527  -0.000216  -0.000004   0.000037  -0.000014
     4  H    0.003815   0.000395  -0.000095   0.000002  -0.000001   0.000000
     5  C    0.266089  -0.018785  -0.028401   0.003374  -0.002161   0.004493
     6  O   -0.104933   0.002478   0.013978   0.000143  -0.004989   0.002437
     7  N    7.391968   0.326811   0.154264  -0.032642  -0.075900  -0.005687
     8  H    0.326811   0.311419  -0.020948  -0.003506   0.001603  -0.000083
     9  C    0.154264  -0.020948   5.108275   0.409160   0.333440  -0.028829
    10  H   -0.032642  -0.003506   0.409160   0.462586  -0.037820   0.003610
    11  C   -0.075900   0.001603   0.333440  -0.037820   5.177724   0.387160
    12  H   -0.005687  -0.000083  -0.028829   0.003610   0.387160   0.519123
    13  H    0.004880  -0.000079  -0.040001  -0.001344   0.388375  -0.023519
    14  H    0.001133   0.000480  -0.038417  -0.003617   0.385403  -0.024187
    15  C   -0.039331   0.002375   0.369398  -0.034677  -0.076924  -0.008834
    16  O    0.001589  -0.000113  -0.065954   0.004724   0.001358  -0.000001
    17  N    0.005369  -0.000209  -0.125626   0.003912   0.006652  -0.000961
    18  H    0.000632  -0.000044  -0.000995  -0.000093  -0.000734   0.002868
    19  C   -0.000286   0.000005   0.004473  -0.000066  -0.000191   0.000210
    20  H   -0.000011   0.000000   0.000548  -0.000010  -0.000056  -0.000009
    21  H   -0.000001   0.000000  -0.000021   0.000004  -0.000038   0.000023
    22  H    0.000009   0.000000  -0.000179   0.000000   0.000015  -0.000004
             13         14         15         16         17         18
     1  H    0.000000   0.000000   0.000005   0.000000   0.000011   0.000003
     2  C    0.000004  -0.000035  -0.000352  -0.000005  -0.000349   0.000117
     3  H    0.000000   0.000005   0.000014   0.000000   0.000002  -0.000012
     4  H    0.000000   0.000000  -0.000005  -0.000001   0.000035   0.000001
     5  C    0.000043  -0.000272  -0.007817  -0.000284   0.012803  -0.002762
     6  O    0.000109   0.000052   0.002502  -0.000003  -0.149858   0.000030
     7  N    0.004880   0.001133  -0.039331   0.001589   0.005369   0.000632
     8  H   -0.000079   0.000480   0.002375  -0.000113  -0.000209  -0.000044
     9  C   -0.040001  -0.038417   0.369398  -0.065954  -0.125626  -0.000995
    10  H   -0.001344  -0.003617  -0.034677   0.004724   0.003912  -0.000093
    11  C    0.388375   0.385403  -0.076924   0.001358   0.006652  -0.000734
    12  H   -0.023519  -0.024187  -0.008834  -0.000001  -0.000961   0.002868
    13  H    0.509939  -0.021818   0.000685   0.000193  -0.000565  -0.000251
    14  H   -0.021818   0.530184   0.005488  -0.000077   0.000128   0.000074
    15  C    0.000685   0.005488   4.182164   0.603395   0.290454  -0.017405
    16  O    0.000193  -0.000077   0.603395   8.219132  -0.108595   0.002264
    17  N   -0.000565   0.000128   0.290454  -0.108595   7.411314   0.318471
    18  H   -0.000251   0.000074  -0.017405   0.002264   0.318471   0.285917
    19  C   -0.000049   0.000004  -0.027939  -0.005934   0.207741  -0.020936
    20  H   -0.000001   0.000001  -0.002036   0.011108  -0.033635   0.002152
    21  H    0.000008  -0.000002   0.000592   0.000501  -0.047713  -0.001967
    22  H    0.000001   0.000001   0.001466   0.000458  -0.052438  -0.000222
             19         20         21         22
     1  H   -0.000001   0.000000   0.000000   0.000000
     2  C    0.000010  -0.000001   0.000000   0.000006
     3  H    0.000000   0.000000   0.000000   0.000000
     4  H   -0.000001   0.000000   0.000000  -0.000001
     5  C   -0.000132  -0.000015   0.000021  -0.000134
     6  O    0.004524  -0.000152  -0.000191   0.002563
     7  N   -0.000286  -0.000011  -0.000001   0.000009
     8  H    0.000005   0.000000   0.000000   0.000000
     9  C    0.004473   0.000548  -0.000021  -0.000179
    10  H   -0.000066  -0.000010   0.000004   0.000000
    11  C   -0.000191  -0.000056  -0.000038   0.000015
    12  H    0.000210  -0.000009   0.000023  -0.000004
    13  H   -0.000049  -0.000001   0.000008   0.000001
    14  H    0.000004   0.000001  -0.000002   0.000001
    15  C   -0.027939  -0.002036   0.000592   0.001466
    16  O   -0.005934   0.011108   0.000501   0.000458
    17  N    0.207741  -0.033635  -0.047713  -0.052438
    18  H   -0.020936   0.002152  -0.001967  -0.000222
    19  C    4.923825   0.397675   0.401607   0.400861
    20  H    0.397675   0.450216  -0.023387  -0.024298
    21  H    0.401607  -0.023387   0.554663  -0.039330
    22  H    0.400861  -0.024298  -0.039330   0.542683
 Mulliken atomic charges:
              1
     1  H    0.221684
     2  C   -0.576686
     3  H    0.184601
     4  H    0.191168
     5  C    0.758618
     6  O   -0.657255
     7  N   -0.786948
     8  H    0.398393
     9  C   -0.047354
    10  H    0.226295
    11  C   -0.482765
    12  H    0.172120
    13  H    0.183390
    14  H    0.165473
    15  C    0.756782
    16  O   -0.663754
    17  N   -0.736942
    18  H    0.432892
    19  C   -0.285399
    20  H    0.221911
    21  H    0.155230
    22  H    0.168547
 Sum of Mulliken atomic charges =   0.00000
 Mulliken charges with hydrogens summed into heavy atoms:
              1
     2  C    0.020767
     5  C    0.758618
     6  O   -0.657255
     7  N   -0.388554
     9  C    0.178941
    11  C    0.038217
    15  C    0.756782
    16  O   -0.663754
    17  N   -0.304050
    19  C    0.260289
 Sum of Mulliken charges with hydrogens summed into heavy atoms =   0.00000
 Electronic spatial extent (au):  <R**2>=           1509.5307
 Charge=              0.0000 electrons
 Dipole moment (field-independent basis, Debye):
    X=              4.3990    Y=              1.6119    Z=             -1.6449  Tot=              4.9654
 Quadrupole moment (field-independent basis, Debye-Ang):
   XX=            -56.3824   YY=            -57.5313   ZZ=            -64.6520
   XY=              5.0035   XZ=              9.6480   YZ=             -1.4006
 Traceless Quadrupole moment (field-independent basis, Debye-Ang):
   XX=              3.1395   YY=              1.9906   ZZ=             -5.1301
   XY=              5.0035   XZ=              9.6480   YZ=             -1.4006
 Octapole moment (field-independent basis, Debye-Ang**2):
  XXX=             27.3581  YYY=              5.8959  ZZZ=             -6.7484  XYY=              0.3274
  XXY=             -8.8250  XXZ=             -5.4535  XZZ=             10.8540  YZZ=             -3.3297
  YYZ=              5.3698  XYZ=              4.4030
 Hexadecapole moment (field-independent basis, Debye-Ang**3):
 XXXX=          -1076.2668 YYYY=           -547.7048 ZZZZ=           -295.4308 XXXY=             15.7109
 XXXZ=             22.0504 YYYX=              4.7476 YYYZ=             12.1806 ZZZX=             18.2507
 ZZZY=              6.2689 XXYY=           -259.1298 XXZZ=           -246.4500 YYZZ=           -142.5848
 XXYZ=             -2.2573 YYXZ=              6.9112 ZZXY=             10.9236
 N-N= 5.833127015834D+02 E-N=-2.322426377813D+03  KE= 4.921031699923D+02
 Calling FoFJK, ICntrl=      2127 FMM=F ISym2X=0 I1Cent= 0 IOpClX= 0 NMat=1 NMatS=1 NMatT=0.
 ***** Axes restored to original set *****
 -------------------------------------------------------------------
 Center     Atomic                   Forces (Hartrees/Bohr)
 Number     Number              X              Y              Z
 -------------------------------------------------------------------
      1        1           0.008614621   -0.000437965    0.004203477
      2        6           0.008239196    0.002021050    0.004820407
      3        1          -0.003688203    0.002018388    0.002510895
      4        1          -0.001416944   -0.003733887   -0.003577742
      5        6          -0.028345452    0.024007679   -0.036581817
      6        8          -0.048834638   -0.075778836    0.013260844
      7        7           0.000883929   -0.012913126    0.016486845
      8        1           0.000157285    0.012609678   -0.009422555
      9        6           0.013494490    0.001260281   -0.012620533
     10        1          -0.009596055    0.005540504   -0.002577034
     11        6           0.002655255   -0.009132857   -0.001984725
     12        1           0.008848026   -0.008547341    0.002990619
     13        1          -0.003024506   -0.003099316   -0.002849332
     14        1           0.001510755    0.003702332   -0.003082601
     15        6           0.000168050    0.036994262    0.029982365
     16        8          -0.004045628   -0.022353012   -0.022238056
     17        7           0.050275035    0.027990351   -0.000148614
     18        1           0.003970105    0.023624651    0.024238960
     19        6           0.001679397   -0.001856928    0.002321859
     20        1          -0.001598451   -0.004701095   -0.008286535
     21        1          -0.003642585    0.001975510    0.002333697
     22        1           0.003696317    0.000809679    0.000219575
 -------------------------------------------------------------------
 Cartesian Forces:  Max     0.075778836 RMS     0.017675662

 GradGradGradGradGradGradGradGradGradGradGradGradGradGradGradGradGradGrad
 Berny optimization.
 Internal  Forces:  Max     0.066885750 RMS     0.017652139
 Search for a local minimum.
 Step number   1 out of a maximum of  109
 All quantities printed in internal units (Hartrees-Bohrs-Radians)
 Mixed Optimization -- RFO/linear search
 Second derivative matrix not updated -- first step.
     Eigenvalues ---    0.00370   0.00435   0.01044   0.01062   0.01273
     Eigenvalues ---    0.01425   0.01780   0.02551   0.02943   0.03676
     Eigenvalues ---    0.05248   0.05844   0.05844   0.06018   0.07165
     Eigenvalues ---    0.07465   0.07685   0.07686   0.07731   0.15494
     Eigenvalues ---    0.16000   0.16000   0.16000   0.16000   0.16000
     Eigenvalues ---    0.16000   0.16000   0.16000   0.16000   0.16000
     Eigenvalues ---    0.16010   0.17275   0.22000   0.24315   0.25000
     Eigenvalues ---    0.25000   0.25000   0.29427   0.29887   0.30113
     Eigenvalues ---    0.34807   0.34810   0.34811   0.34811   0.34811
     Eigenvalues ---    0.34813   0.34816   0.34818   0.34818   0.34821
     Eigenvalues ---    0.37641   0.38382   0.45911   0.45961   0.58084
     Eigenvalues ---    0.58337   0.90505   0.914921000.000001000.00000
     Eigenvalues --- 1000.000001000.000001000.000001000.000001000.00000
     Eigenvalues --- 1000.000001000.000001000.000001000.000001000.00000
     Eigenvalues --- 1000.000001000.000001000.000001000.000001000.00000
     Eigenvalues --- 1000.000001000.000001000.000001000.000001000.00000
     Eigenvalues --- 1000.000001000.000001000.000001000.000001000.00000
     Eigenvalues --- 1000.000001000.000001000.000001000.000001000.00000
     Eigenvalues --- 1000.000001000.000001000.000001000.000001000.00000
     Eigenvalues --- 1000.000001000.000001000.000001000.00000
 RFO step:  Lambda=-1.05364938D-01 EMin= 3.69625305D-03
 Linear search not attempted -- first point.
 Maximum step size (   0.300) exceeded in Quadratic search.
    -- Step size scaled by   0.378
 Iteration  1 RMS(Cart)=  0.09491571 RMS(Int)=  0.00352559
 Iteration  2 RMS(Cart)=  0.00543463 RMS(Int)=  0.00083272
 Iteration  3 RMS(Cart)=  0.00008835 RMS(Int)=  0.00083217
 Iteration  4 RMS(Cart)=  0.00000047 RMS(Int)=  0.00083217
 Iteration  1 RMS(Cart)=  0.00015913 RMS(Int)=  0.00009133
 Iteration  2 RMS(Cart)=  0.00010392 RMS(Int)=  0.00010131
 Iteration  3 RMS(Cart)=  0.00007021 RMS(Int)=  0.00011537
 Iteration  4 RMS(Cart)=  0.00004844 RMS(Int)=  0.00012623
 Iteration  5 RMS(Cart)=  0.00003381 RMS(Int)=  0.00013380
 Iteration  6 RMS(Cart)=  0.00002372 RMS(Int)=  0.00013896
 Iteration  7 RMS(Cart)=  0.00001668 RMS(Int)=  0.00014247
 Iteration  8 RMS(Cart)=  0.00001173 RMS(Int)=  0.00014486
 Iteration  9 RMS(Cart)=  0.00000824 RMS(Int)=  0.00014650
 Iteration 10 RMS(Cart)=  0.00000579 RMS(Int)=  0.00014762
 Iteration 11 RMS(Cart)=  0.00000406 RMS(Int)=  0.00014839
 Iteration 12 RMS(Cart)=  0.00000285 RMS(Int)=  0.00014893
 Iteration 13 RMS(Cart)=  0.00000200 RMS(Int)=  0.00014930
 Iteration 14 RMS(Cart)=  0.00000140 RMS(Int)=  0.00014955
 Iteration 15 RMS(Cart)=  0.00000098 RMS(Int)=  0.00014973
 Variable       Old X    -DE/DX   Delta X   Delta X   Delta X     New X
                                 (Linear)    (Quad)   (Total)
    R1        2.05990  -0.00868   0.00000  -0.00724  -0.00724   2.05266
    R2        2.05971  -0.00312   0.00000  -0.00260  -0.00260   2.05711
    R3        2.05982  -0.00314   0.00000  -0.00262  -0.00262   2.05720
    R4        2.89121  -0.00955   0.00000  -0.00903  -0.00903   2.88217
    R5        2.32246  -0.03241   0.00000  -0.01253  -0.01160   2.31085
    R6        2.52282   0.01761   0.00000   0.01016   0.00953   2.53235
    R7        3.29804   0.06689   0.00000   0.14065   0.14229   3.44033
    R8        1.90875  -0.01559   0.00000  -0.01043  -0.01043   1.89832
    R9        2.73817   0.01565   0.00000   0.01394   0.01233   2.75050
   R10        2.05975  -0.00850   0.00000  -0.00709  -0.00709   2.05266
   R11        2.88188   0.01367   0.00000   0.01279   0.01279   2.89467
   R12        2.87618   0.03189   0.00000   0.03048   0.02966   2.90583
   R13        2.05972  -0.00919   0.00000  -0.00766  -0.00766   2.05206
   R14        2.05984  -0.00417   0.00000  -0.00348  -0.00348   2.05636
   R15        2.05966  -0.00344   0.00000  -0.00287  -0.00287   2.05679
   R16        2.32253  -0.03097   0.00000  -0.01148  -0.01148   2.31105
   R17        2.52281  -0.02250   0.00000  -0.01215  -0.01243   2.51038
   R18        1.90870  -0.01826   0.00000  -0.01259  -0.01189   1.89681
   R19        2.73813  -0.00344   0.00000  -0.00266  -0.00266   2.73547
   R20        2.05984  -0.00964   0.00000  -0.00804  -0.00804   2.05180
   R21        2.05979  -0.00323   0.00000  -0.00269  -0.00269   2.05711
   R22        2.05982  -0.00337   0.00000  -0.00281  -0.00281   2.05701
    A1        1.91117   0.00052   0.00000   0.00037   0.00038   1.91155
    A2        1.91119   0.00030   0.00000   0.00024   0.00027   1.91145
    A3        1.93906  -0.00801   0.00000  -0.01169  -0.01167   1.92739
    A4        1.91010  -0.00453   0.00000  -0.00585  -0.00590   1.90420
    A5        1.89606   0.00535   0.00000   0.00772   0.00770   1.90376
    A6        1.89600   0.00640   0.00000   0.00930   0.00929   1.90529
    A7        2.10314   0.00642   0.00000   0.00520   0.00603   2.10917
    A8        2.03513  -0.00872   0.00000  -0.01091  -0.01008   2.02505
    A9        2.14492   0.00230   0.00000   0.00571   0.00342   2.14834
   A10        2.09431  -0.01190   0.00000  -0.01826  -0.01616   2.07815
   A11        2.12766   0.02034   0.00000   0.03161   0.02675   2.15441
   A12        2.06121  -0.00844   0.00000  -0.01335  -0.01125   2.04996
   A13        1.91114   0.00886   0.00000  -0.00778  -0.00704   1.90409
   A14        1.93905  -0.03278   0.00000  -0.02179  -0.02192   1.91713
   A15        1.93900   0.01869   0.00000   0.04127   0.03924   1.97824
   A16        1.89609   0.00173   0.00000  -0.00444  -0.00503   1.89106
   A17        1.89608  -0.03186   0.00000  -0.02709  -0.02641   1.86967
   A18        1.88137   0.03506   0.00000   0.01901   0.01996   1.90133
   A19        1.91115   0.01057   0.00000   0.01543   0.01539   1.92653
   A20        1.91106   0.00221   0.00000   0.00331   0.00329   1.91435
   A21        1.91110   0.00242   0.00000   0.00290   0.00288   1.91398
   A22        1.91011  -0.00483   0.00000  -0.00579  -0.00584   1.90426
   A23        1.91023  -0.00699   0.00000  -0.01030  -0.01033   1.89990
   A24        1.91015  -0.00339   0.00000  -0.00558  -0.00558   1.90457
   A25        2.10309  -0.02539   0.00000  -0.02829  -0.02747   2.07563
   A26        2.03509   0.03416   0.00000   0.03891   0.03659   2.07167
   A27        2.14501  -0.00877   0.00000  -0.01062  -0.00975   2.13526
   A28        2.09435  -0.02068   0.00000  -0.02649  -0.02788   2.06647
   A29        2.12759   0.01265   0.00000   0.01413   0.01402   2.14161
   A30        2.06125   0.00803   0.00000   0.01236   0.01219   2.07344
   A31        1.91113  -0.00195   0.00000  -0.00286  -0.00286   1.90827
   A32        1.91123   0.00494   0.00000   0.00717   0.00717   1.91840
   A33        1.91113   0.00160   0.00000   0.00225   0.00224   1.91337
   A34        1.91020  -0.00135   0.00000  -0.00185  -0.00185   1.90836
   A35        1.91008  -0.00032   0.00000  -0.00071  -0.00071   1.90937
   A36        1.91003  -0.00294   0.00000  -0.00400  -0.00401   1.90602
    D1       -0.00001  -0.00575   0.00000  -0.01838  -0.01838  -0.01839
    D2        3.14159   0.00596   0.00000   0.01872   0.01871  -3.12289
    D3        2.10336  -0.00660   0.00000  -0.02017  -0.02019   2.08317
    D4       -1.03823   0.00511   0.00000   0.01692   0.01689  -1.02133
    D5       -2.10337  -0.00531   0.00000  -0.01746  -0.01743  -2.12080
    D6        1.03823   0.00640   0.00000   0.01964   0.01966   1.05789
    D7        0.00003   0.01711   0.00000   0.00797   0.00800   0.00802
    D8        3.14152   0.00386   0.00000   0.04834   0.04827  -3.09340
    D9       -3.14156   0.02912   0.00000   0.04604   0.04600  -3.09556
   D10       -0.00007   0.01587   0.00000   0.08640   0.08627   0.08620
   D11        2.87982   0.02632   0.00000  -0.01269  -0.01289   2.86693
   D12       -1.30893   0.01353   0.00000  -0.03703  -0.03688  -1.34580
   D13        0.78543   0.04840   0.00000   0.00000   0.00000   0.78543
   D14       -0.26187   0.01332   0.00000   0.02694   0.02678  -0.23510
   D15        1.83257   0.00052   0.00000   0.00260   0.00279   1.83535
   D16       -2.35627   0.03540   0.00000   0.03963   0.03967  -2.31660
   D17        1.04724   0.00970   0.00000   0.02066   0.01963   1.06687
   D18        3.14157   0.01161   0.00000   0.02507   0.02406  -3.11756
   D19       -1.04726   0.01030   0.00000   0.02204   0.02101  -1.02625
   D20       -3.13259   0.00150   0.00000  -0.00533  -0.00525  -3.13785
   D21       -1.03826   0.00341   0.00000  -0.00092  -0.00083  -1.03909
   D22        1.05609   0.00210   0.00000  -0.00395  -0.00387   1.05222
   D23       -1.08102  -0.01611   0.00000  -0.02938  -0.02845  -1.10947
   D24        1.01331  -0.01420   0.00000  -0.02498  -0.02402   0.98929
   D25        3.10766  -0.01551   0.00000  -0.02800  -0.02707   3.08059
   D26        1.83260   0.02125   0.00000   0.03736   0.03725   1.86985
   D27       -1.30895   0.02496   0.00000   0.00000   0.00000  -1.30895
   D28       -0.27071   0.01932   0.00000   0.03897   0.03941  -0.23130
   D29        2.87092   0.02303   0.00000   0.00161   0.00217   2.87309
   D30       -2.32229   0.01521   0.00000   0.04838   0.04896  -2.27333
   D31        0.81934   0.01892   0.00000   0.01102   0.01172   0.83105
   D32       -0.00009   0.03411   0.00000   0.12154   0.12200   0.12190
   D33       -3.14153   0.01288   0.00000   0.05812   0.05899  -3.08254
   D34        3.14154   0.03792   0.00000   0.08319   0.08341  -3.05824
   D35        0.00010   0.01669   0.00000   0.01978   0.02041   0.02051
   D36       -0.00017   0.01018   0.00000   0.03066   0.03115   0.03098
   D37        2.09437   0.01036   0.00000   0.03103   0.03152   2.12589
   D38       -2.09449   0.01078   0.00000   0.03190   0.03240  -2.06208
   D39        3.14158  -0.01066   0.00000  -0.03160  -0.03209   3.10949
   D40       -1.04707  -0.01048   0.00000  -0.03122  -0.03172  -1.07879
   D41        1.04726  -0.01006   0.00000  -0.03035  -0.03084   1.01642
         Item               Value     Threshold  Converged?
 Maximum Force            0.071464     0.000450     NO 
 RMS     Force            0.014875     0.000300     NO 
 Maximum Displacement     0.316623     0.001800     NO 
 RMS     Displacement     0.094810     0.001200     NO 
 Predicted change in Energy=-3.694789D-02
 GradGradGradGradGradGradGradGradGradGradGradGradGradGradGradGradGradGrad

                          Input orientation:                          
 ---------------------------------------------------------------------
 Center     Atomic      Atomic             Coordinates (Angstroms)
 Number     Number       Type             X           Y           Z
 ---------------------------------------------------------------------
      1          1           0        0.477702    3.853783   -1.385743
      2          6           0        1.227533    3.509050   -0.679494
      3          1           0        1.433406    2.454353   -0.853357
      4          1           0        0.856755    3.636987    0.336015
      5          6           0        2.519302    4.302928   -0.844618
      6          8           0        2.614536    5.175447   -1.696092
      7          7           0        3.531670    3.952767   -0.039470
      8          1           0        3.398971    3.199997    0.612334
      9          6           0        4.814999    4.639183   -0.019657
     10          1           0        5.351809    4.363035    0.883367
     11          6           0        5.652505    4.210827   -1.228578
     12          1           0        5.146433    4.475517   -2.152167
     13          1           0        6.620589    4.706833   -1.198099
     14          1           0        5.803163    3.133124   -1.206394
     15          6           0        4.686483    6.171504   -0.019286
     16          8           0        4.936281    6.785775    1.008280
     17          7           0        4.349105    6.783630   -1.148983
     18          1           0        4.085776    6.220349   -1.936945
     19          6           0        4.273132    8.224498   -1.265285
     20          1           0        4.559354    8.677001   -0.320720
     21          1           0        4.945756    8.569264   -2.048680
     22          1           0        3.254641    8.518149   -1.512927
 ---------------------------------------------------------------------
                    Distance matrix (angstroms):
                    1          2          3          4          5
     1  H    0.000000
     2  C    1.086220   0.000000
     3  H    1.776291   1.088577   0.000000
     4  H    1.776270   1.088625   1.773628   0.000000
     5  C    2.159323   1.525180   2.143940   2.145096   0.000000
     6  O    2.531634   2.394603   3.083768   3.096145   1.222852
     7  N    3.339007   2.432193   2.703770   2.719537   1.340063
     8  H    3.599105   2.545481   2.562748   2.594258   2.028049
     9  C    4.614671   3.818703   4.111412   4.098609   2.462489
    10  H    5.400473   4.492379   4.691818   4.586093   3.318530
    11  C    5.189486   4.513796   4.585498   5.077053   3.157985
    12  H    4.771897   4.296580   4.422509   5.029466   2.939607
    13  H    6.204672   5.548755   5.665632   6.059691   4.136260
    14  H    5.376993   4.621183   4.436231   5.205753   3.504721
    15  C    4.995284   4.414619   5.009530   4.606173   2.978157
    16  O    5.848662   5.228796   5.873418   5.197051   3.929319
    17  N    4.860846   4.548352   5.227939   4.929817   3.097532
    18  H    4.350018   4.135441   4.732015   4.718759   2.706201
    19  C    5.789901   5.643959   6.444247   5.939787   4.316434
    20  H    6.407619   6.159339   6.984025   6.288266   4.854770
    21  H    6.529836   6.426944   7.152450   6.836232   5.053619
    22  H    5.429906   5.467618   6.365655   5.744057   4.330757
                    6          7          8          9         10
     6  O    0.000000
     7  N    2.253992   0.000000
     8  H    3.137924   1.004549   0.000000
     9  C    2.817809   1.455504   2.115610   0.000000
    10  H    3.847893   2.081550   2.289037   1.086221   0.000000
    11  C    3.221539   2.445100   3.080446   1.531795   2.138668
    12  H    2.666160   2.710021   3.510418   2.164308   3.044552
    13  H    4.063994   3.384147   3.990870   2.157187   2.461808
    14  H    3.818144   2.682016   3.015358   2.157087   2.466476
    15  C    2.845482   2.501358   3.299467   1.537701   2.127910
    16  O    3.911174   3.331163   3.921466   2.383112   2.461287
    17  N    2.427820   3.148493   4.104561   2.468013   3.315893
    18  H    1.820543   3.008218   4.011615   2.589951   3.606468
    19  C    3.497607   4.505561   5.434632   3.834018   4.548752
    20  H    4.234955   4.842894   5.675795   4.057089   4.548419
    21  H    4.132421   5.229590   6.188907   4.424881   5.143359
    22  H    3.408364   4.805262   5.728901   4.439702   5.235009
                   11         12         13         14         15
    11  C    0.000000
    12  H    1.085903   0.000000
    13  H    1.088181   1.771126   0.000000
    14  H    1.088409   1.768558   1.773362   0.000000
    15  C    2.497967   2.763531   2.697336   3.447891   0.000000
    16  O    3.485236   3.920444   3.467996   4.358684   1.222956
    17  N    2.885222   2.639980   3.078171   3.929857   1.328435
    18  H    2.644731   2.053230   3.043337   3.607504   2.010136
    19  C    4.244240   3.950199   4.229543   5.316630   2.436834
    20  H    4.686779   4.620749   4.558587   5.750309   2.526765
    21  H    4.490884   4.099969   4.294988   5.567424   3.151970
    22  H    4.937979   4.508923   5.094591   5.965520   3.128559
                   16         17         18         19         20
    16  O    0.000000
    17  N    2.235747   0.000000
    18  H    3.117277   1.003748   0.000000
    19  C    2.771063   1.447549   2.121990   0.000000
    20  H    2.342019   2.077276   2.978522   1.085764   0.000000
    21  H    3.539199   2.086608   2.503887   1.088574   1.773910
    22  H    3.490777   2.082994   2.480013   1.088523   1.774505
                   21         22
    21  H    0.000000
    22  H    1.774687   0.000000
 Stoichiometry    C6H12N2O2
 Framework group  C1[X(C6H12N2O2)]
 Deg. of freedom    60
 Full point group                 C1      NOp   1
 Largest Abelian subgroup         C1      NOp   1
 Largest concise Abelian subgroup C1      NOp   1
                         Standard orientation:                         
 ---------------------------------------------------------------------
 Center     Atomic      Atomic             Coordinates (Angstroms)
 Number     Number       Type             X           Y           Z
 ---------------------------------------------------------------------
      1          1           0       -3.257934   -1.912836   -0.015728
      2          6           0       -3.058533   -0.919665   -0.407807
      3          1           0       -3.790798   -0.218360   -0.011627
      4          1           0       -3.131989   -0.935857   -1.493830
      5          6           0       -1.660519   -0.459953   -0.007316
      6          8           0       -0.940188   -1.169498    0.680460
      7          7           0       -1.305172    0.765929   -0.415618
      8          1           0       -1.960269    1.312844   -0.945572
      9          6           0        0.009558    1.341931   -0.174378
     10          1           0        0.146006    2.200967   -0.825005
     11          6           0        0.110683    1.816518    1.278528
     12          1           0       -0.017595    0.980317    1.959334
     13          1           0        1.085627    2.268643    1.449425
     14          1           0       -0.664350    2.554305    1.477598
     15          6           0        1.163841    0.367740   -0.462662
     16          8           0        1.850260    0.542439   -1.459622
     17          7           0        1.405884   -0.609009    0.404584
     18          1           0        0.762786   -0.743970    1.163347
     19          6           0        2.512872   -1.529905    0.256514
     20          1           0        3.087410   -1.262603   -0.625155
     21          1           0        3.155416   -1.481468    1.133888
     22          1           0        2.132727   -2.543951    0.146593
 ---------------------------------------------------------------------
 Rotational constants (GHZ):      1.9101638      0.9914382      0.8390416
 Standard basis: 6-31G(d) (6D, 7F)
 There are   174 symmetry adapted basis functions of A   symmetry.
 Integral buffers will be    131072 words long.
 Raffenetti 1 integral format.
 Two-electron integral symmetry is turned on.
   174 basis functions,   328 primitive gaussians,   174 cartesian basis functions
    39 alpha electrons       39 beta electrons
       nuclear repulsion energy       576.6577531655 Hartrees.
 NAtoms=   22 NActive=   22 NUniq=   22 SFac= 7.50D-01 NAtFMM=   80 NAOKFM=F Big=F
 One-electron integrals computed using PRISM.
 NBasis=   174 RedAO= T  NBF=   174
 NBsUse=   174 1.00D-06 NBFU=   174
 Initial guess read from the read-write file.
 B after Tr=     0.000000    0.000000    0.000000
         Rot=    1.000000    0.000000    0.000000    0.000000 Ang=   0.00 deg.
 Initial guess orbital symmetries:
       Occupied  (A) (A) (A) (A) (A) (A) (A) (A) (A) (A) (A) (A)
                 (A) (A) (A) (A) (A) (A) (A) (A) (A) (A) (A) (A)
                 (A) (A) (A) (A) (A) (A) (A) (A) (A) (A) (A) (A)
                 (A) (A) (A)
       Virtual   (A) (A) (A) (A) (A) (A) (A) (A) (A) (A) (A) (A)
                 (A) (A) (A) (A) (A) (A) (A) (A) (A) (A) (A) (A)
                 (A) (A) (A) (A) (A) (A) (A) (A) (A) (A) (A) (A)
                 (A) (A) (A) (A) (A) (A) (A) (A) (A) (A) (A) (A)
                 (A) (A) (A) (A) (A) (A) (A) (A) (A) (A) (A) (A)
                 (A) (A) (A) (A) (A) (A) (A) (A) (A) (A) (A) (A)
                 (A) (A) (A) (A) (A) (A) (A) (A) (A) (A) (A) (A)
                 (A) (A) (A) (A) (A) (A) (A) (A) (A) (A) (A) (A)
                 (A) (A) (A) (A) (A) (A) (A) (A) (A) (A) (A) (A)
                 (A) (A) (A) (A) (A) (A) (A) (A) (A) (A) (A) (A)
                 (A) (A) (A) (A) (A) (A) (A) (A) (A) (A) (A) (A)
                 (A) (A) (A)
 Harris functional with IExCor=  205 diagonalized for initial guess.
 ExpMin= 1.61D-01 ExpMax= 5.48D+03 ExpMxC= 8.25D+02 IAcc=1 IRadAn=         1 AccDes= 0.00D+00
 HarFok:  IExCor=  205 AccDes= 0.00D+00 IRadAn=         1 IDoV= 1
 ScaDFX=  1.000000  1.000000  1.000000  1.000000
 FoFCou: FMM=F IPFlag=           0 FMFlag=      100000 FMFlg1=           0
         NFxFlg=           0 DoJE=T BraDBF=F KetDBF=T FulRan=T
         Omega=  0.000000  0.000000  1.000000  0.000000  0.000000 ICntrl=     500 IOpCl=  0
         NMat0=    1 NMatS0=    1 NMatT0=    0 NMatD0=    1 NMtDS0=    0 NMtDT0=    0
         I1Cent=           4 NGrid=           0.
 Petite list used in FoFCou.
 Requested convergence on RMS density matrix=1.00D-08 within 128 cycles.
 Requested convergence on MAX density matrix=1.00D-06.
 Requested convergence on             energy=1.00D-06.
 No special actions if energy rises.
 Integral accuracy reduced to 1.0D-05 until final iterations.
 Initial convergence to 1.0D-05 achieved.  Increase integral accuracy.
 SCF Done:  E(RHF) =  -492.832619203     A.U. after   16 cycles
             Convg  =    0.4114D-08             -V/T =  2.0016
 Calling FoFJK, ICntrl=      2127 FMM=F ISym2X=0 I1Cent= 0 IOpClX= 0 NMat=1 NMatS=1 NMatT=0.
 ***** Axes restored to original set *****
 -------------------------------------------------------------------
 Center     Atomic                   Forces (Hartrees/Bohr)
 Number     Number              X              Y              Z
 -------------------------------------------------------------------
      1        1           0.005749427    0.000003288    0.002622019
      2        6           0.006171906    0.002809288    0.003908760
      3        1          -0.002704394    0.001551725    0.001669981
      4        1          -0.001006681   -0.002932690   -0.002528879
      5        6          -0.015368482    0.011200075   -0.031439061
      6        8          -0.020462576   -0.042088000    0.015214916
      7        7          -0.001164062   -0.003000165    0.015905081
      8        1          -0.000452028    0.009199897   -0.005335097
      9        6           0.008811284    0.001146761   -0.021628161
     10        1          -0.008669591    0.004416962   -0.001029629
     11        6           0.003378271   -0.003946436    0.001104986
     12        1           0.004369678   -0.004159868    0.001791719
     13        1          -0.001434974   -0.002271684   -0.002252998
     14        1           0.001081381    0.002660736   -0.001500819
     15        6           0.003328404    0.021894679    0.037112225
     16        8          -0.002508600   -0.016756276   -0.014778758
     17        7           0.021755144    0.008137834   -0.011329541
     18        1           0.000608832    0.014317751    0.014042910
     19        6          -0.000381586   -0.000877196    0.002026962
     20        1          -0.001692044   -0.003131931   -0.005552263
     21        1          -0.002475451    0.000777718    0.001801300
     22        1           0.003066142    0.001047533    0.000174348
 -------------------------------------------------------------------
 Cartesian Forces:  Max     0.042088000 RMS     0.011364352

 GradGradGradGradGradGradGradGradGradGradGradGradGradGradGradGradGradGrad
 Berny optimization.
 Using GEDIIS/GDIIS optimizer.
 Internal  Forces:  Max     0.030505193 RMS     0.008313134
 Search for a local minimum.
 Step number   2 out of a maximum of  109
 All quantities printed in internal units (Hartrees-Bohrs-Radians)
 Mixed Optimization -- RFO/linear search
 Update second derivatives using D2CorX and points    1    2
 DE= -2.71D-02 DEPred=-3.69D-02 R= 7.34D-01
 SS=  1.41D+00  RLast= 3.00D-01 DXNew= 5.0454D-01 8.9893D-01
 Trust test= 7.34D-01 RLast= 3.00D-01 DXMaxT set to 5.05D-01
 Use linear search instead of GDIIS.
 Linear search step of   0.593 exceeds DXMaxT=   0.505 but not scaled.
 Quartic linear search produced a step of  2.00000.
 Iteration  1 RMS(Cart)=  0.14353594 RMS(Int)=  0.01113458
 Iteration  2 RMS(Cart)=  0.01781564 RMS(Int)=  0.00474785
 Iteration  3 RMS(Cart)=  0.00101970 RMS(Int)=  0.00473350
 Iteration  4 RMS(Cart)=  0.00002545 RMS(Int)=  0.00473350
 Iteration  5 RMS(Cart)=  0.00000094 RMS(Int)=  0.00473350
 Iteration  1 RMS(Cart)=  0.00067083 RMS(Int)=  0.00042006
 Iteration  2 RMS(Cart)=  0.00036093 RMS(Int)=  0.00046910
 Iteration  3 RMS(Cart)=  0.00019797 RMS(Int)=  0.00052875
 Iteration  4 RMS(Cart)=  0.00011185 RMS(Int)=  0.00056777
 Iteration  5 RMS(Cart)=  0.00006577 RMS(Int)=  0.00059065
 Iteration  6 RMS(Cart)=  0.00004047 RMS(Int)=  0.00060370
 Iteration  7 RMS(Cart)=  0.00002599 RMS(Int)=  0.00061111
 Iteration  8 RMS(Cart)=  0.00001726 RMS(Int)=  0.00061535
 Iteration  9 RMS(Cart)=  0.00001172 RMS(Int)=  0.00061780
 Iteration 10 RMS(Cart)=  0.00000807 RMS(Int)=  0.00061924
 Iteration 11 RMS(Cart)=  0.00000559 RMS(Int)=  0.00062010
 Iteration 12 RMS(Cart)=  0.00000389 RMS(Int)=  0.00062062
 Iteration 13 RMS(Cart)=  0.00000271 RMS(Int)=  0.00062094
 Iteration 14 RMS(Cart)=  0.00000189 RMS(Int)=  0.00062114
 Iteration 15 RMS(Cart)=  0.00000131 RMS(Int)=  0.00062127
 Iteration 16 RMS(Cart)=  0.00000091 RMS(Int)=  0.00062136
 Variable       Old X    -DE/DX   Delta X   Delta X   Delta X     New X
                                 (Linear)    (Quad)   (Total)
    R1        2.05266  -0.00567  -0.01448   0.00000  -0.01447   2.03818
    R2        2.05711  -0.00228  -0.00520   0.00000  -0.00520   2.05192
    R3        2.05720  -0.00236  -0.00524   0.00000  -0.00524   2.05197
    R4        2.88217  -0.00708  -0.01807   0.00000  -0.01807   2.86410
    R5        2.31085  -0.02500  -0.02321   0.00000  -0.01890   2.29195
    R6        2.53235   0.00789   0.01906   0.00000   0.01571   2.54806
    R7        3.44033   0.03051   0.28458   0.00000   0.29339   3.73372
    R8        1.89832  -0.01030  -0.02086   0.00000  -0.02086   1.87747
    R9        2.75050   0.00681   0.02466   0.00000   0.01621   2.76672
   R10        2.05266  -0.00626  -0.01417   0.00000  -0.01417   2.03849
   R11        2.89467   0.00688   0.02558   0.00000   0.02558   2.92025
   R12        2.90583   0.00813   0.05931   0.00000   0.05323   2.95906
   R13        2.05206  -0.00457  -0.01532   0.00000  -0.01532   2.03674
   R14        2.05636  -0.00238  -0.00696   0.00000  -0.00696   2.04940
   R15        2.05679  -0.00252  -0.00573   0.00000  -0.00573   2.05106
   R16        2.31105  -0.02135  -0.02295   0.00000  -0.02295   2.28810
   R17        2.51038  -0.00219  -0.02486   0.00000  -0.02674   2.48364
   R18        1.89681  -0.00609  -0.02378   0.00000  -0.01747   1.87934
   R19        2.73547  -0.00197  -0.00532   0.00000  -0.00532   2.73015
   R20        2.05180  -0.00658  -0.01608   0.00000  -0.01608   2.03572
   R21        2.05711  -0.00258  -0.00538   0.00000  -0.00538   2.05173
   R22        2.05701  -0.00263  -0.00562   0.00000  -0.00562   2.05139
    A1        1.91155   0.00024   0.00077   0.00000   0.00088   1.91243
    A2        1.91145   0.00014   0.00053   0.00000   0.00068   1.91213
    A3        1.92739  -0.00552  -0.02334   0.00000  -0.02321   1.90417
    A4        1.90420  -0.00332  -0.01179   0.00000  -0.01205   1.89215
    A5        1.90376   0.00375   0.01541   0.00000   0.01533   1.91909
    A6        1.90529   0.00473   0.01859   0.00000   0.01853   1.92382
    A7        2.10917   0.00538   0.01205   0.00000   0.01608   2.12524
    A8        2.02505  -0.00378  -0.02016   0.00000  -0.01623   2.00882
    A9        2.14834  -0.00172   0.00684   0.00000  -0.00482   2.14352
   A10        2.07815  -0.00531  -0.03233   0.00000  -0.02154   2.05660
   A11        2.15441   0.00973   0.05350   0.00000   0.02789   2.18230
   A12        2.04996  -0.00422  -0.02250   0.00000  -0.01148   2.03848
   A13        1.90409   0.00252  -0.01408   0.00000  -0.01024   1.89386
   A14        1.91713  -0.01088  -0.04384   0.00000  -0.04356   1.87357
   A15        1.97824   0.00411   0.07848   0.00000   0.06619   2.04443
   A16        1.89106   0.00057  -0.01007   0.00000  -0.01335   1.87771
   A17        1.86967  -0.01490  -0.05282   0.00000  -0.04850   1.82117
   A18        1.90133   0.01843   0.03992   0.00000   0.04483   1.94616
   A19        1.92653   0.00494   0.03077   0.00000   0.03052   1.95705
   A20        1.91435   0.00257   0.00657   0.00000   0.00640   1.92075
   A21        1.91398   0.00114   0.00577   0.00000   0.00569   1.91967
   A22        1.90426  -0.00295  -0.01168   0.00000  -0.01201   1.89225
   A23        1.89990  -0.00341  -0.02066   0.00000  -0.02081   1.87909
   A24        1.90457  -0.00242  -0.01116   0.00000  -0.01115   1.89342
   A25        2.07563  -0.01021  -0.05493   0.00000  -0.04875   2.02688
   A26        2.07167   0.00309   0.07318   0.00000   0.05690   2.12857
   A27        2.13526   0.00718  -0.01951   0.00000  -0.01296   2.12229
   A28        2.06647  -0.01149  -0.05576   0.00000  -0.06459   2.00188
   A29        2.14161   0.00660   0.02804   0.00000   0.02794   2.16954
   A30        2.07344   0.00437   0.02439   0.00000   0.02350   2.09694
   A31        1.90827  -0.00145  -0.00572   0.00000  -0.00570   1.90257
   A32        1.91840   0.00226   0.01433   0.00000   0.01431   1.93271
   A33        1.91337   0.00244   0.00448   0.00000   0.00445   1.91782
   A34        1.90836  -0.00052  -0.00369   0.00000  -0.00367   1.90468
   A35        1.90937  -0.00062  -0.00142   0.00000  -0.00141   1.90796
   A36        1.90602  -0.00212  -0.00803   0.00000  -0.00809   1.89792
    D1       -0.01839  -0.00151  -0.03676   0.00000  -0.03644  -0.05483
    D2       -3.12289   0.00179   0.03742   0.00000   0.03707  -3.08582
    D3        2.08317  -0.00225  -0.04039   0.00000  -0.04020   2.04296
    D4       -1.02133   0.00106   0.03379   0.00000   0.03330  -0.98803
    D5       -2.12080  -0.00126  -0.03486   0.00000  -0.03436  -2.15516
    D6        1.05789   0.00204   0.03932   0.00000   0.03915   1.09704
    D7        0.00802   0.00758   0.01599   0.00000   0.01586   0.02389
    D8       -3.09340   0.00174   0.09653   0.00000   0.09528  -2.99812
    D9       -3.09556   0.01080   0.09200   0.00000   0.08974  -3.00582
   D10        0.08620   0.00496   0.17254   0.00000   0.16916   0.25536
   D11        2.86693   0.00987  -0.02577   0.00000  -0.02685   2.84008
   D12       -1.34580   0.00564  -0.07375   0.00000  -0.07273  -1.41854
   D13        0.78543   0.02433   0.00000   0.00000   0.00000   0.78543
   D14       -0.23510   0.00416   0.05356   0.00000   0.05205  -0.18304
   D15        1.83535  -0.00008   0.00558   0.00000   0.00617   1.84153
   D16       -2.31660   0.01862   0.07933   0.00000   0.07890  -2.23770
   D17        1.06687   0.00347   0.03927   0.00000   0.03322   1.10009
   D18       -3.11756   0.00457   0.04812   0.00000   0.04221  -3.07535
   D19       -1.02625   0.00388   0.04203   0.00000   0.03598  -0.99027
   D20       -3.13785   0.00055  -0.01051   0.00000  -0.01003   3.13531
   D21       -1.03909   0.00165  -0.00165   0.00000  -0.00104  -1.04013
   D22        1.05222   0.00096  -0.00775   0.00000  -0.00727   1.04495
   D23       -1.10947  -0.00689  -0.05690   0.00000  -0.05146  -1.16093
   D24        0.98929  -0.00580  -0.04804   0.00000  -0.04247   0.94682
   D25        3.08059  -0.00649  -0.05414   0.00000  -0.04870   3.03190
   D26        1.86985   0.00643   0.07449   0.00000   0.07309   1.94294
   D27       -1.30895   0.00844   0.00001   0.00000   0.00000  -1.30895
   D28       -0.23130   0.01093   0.07883   0.00000   0.08065  -0.15065
   D29        2.87309   0.01293   0.00434   0.00000   0.00756   2.88065
   D30       -2.27333   0.00874   0.09792   0.00000   0.10079  -2.17254
   D31        0.83105   0.01075   0.02343   0.00000   0.02770   0.85876
   D32        0.12190   0.01522   0.24399   0.00000   0.24375   0.36565
   D33       -3.08254   0.00560   0.11798   0.00000   0.12190  -2.96064
   D34       -3.05824   0.01691   0.16683   0.00000   0.16601  -2.89222
   D35        0.02051   0.00729   0.04082   0.00000   0.04416   0.06467
   D36        0.03098   0.00513   0.06230   0.00000   0.06460   0.09559
   D37        2.12589   0.00497   0.06305   0.00000   0.06531   2.19120
   D38       -2.06208   0.00529   0.06480   0.00000   0.06713  -1.99496
   D39        3.10949  -0.00508  -0.06418   0.00000  -0.06647   3.04302
   D40       -1.07879  -0.00523  -0.06344   0.00000  -0.06577  -1.14456
   D41        1.01642  -0.00491  -0.06168   0.00000  -0.06395   0.95247
         Item               Value     Threshold  Converged?
 Maximum Force            0.031676     0.000450     NO 
 RMS     Force            0.007081     0.000300     NO 
 Maximum Displacement     0.540900     0.001800     NO 
 RMS     Displacement     0.154643     0.001200     NO 
 Predicted change in Energy=-8.636868D-03
 GradGradGradGradGradGradGradGradGradGradGradGradGradGradGradGradGradGrad

                          Input orientation:                          
 ---------------------------------------------------------------------
 Center     Atomic      Atomic             Coordinates (Angstroms)
 Number     Number       Type             X           Y           Z
 ---------------------------------------------------------------------
      1          1           0        0.462584    3.622949   -1.388084
      2          6           0        1.209997    3.373564   -0.651556
      3          1           0        1.436742    2.313176   -0.707979
      4          1           0        0.828162    3.590268    0.341581
      5          6           0        2.461450    4.185152   -0.920419
      6          8           0        2.547454    4.928873   -1.874613
      7          7           0        3.502533    3.917517   -0.106394
      8          1           0        3.384167    3.209715    0.580680
      9          6           0        4.749723    4.682810   -0.057574
     10          1           0        5.259588    4.448286    0.863662
     11          6           0        5.638583    4.189989   -1.221660
     12          1           0        5.192246    4.383522   -2.183413
     13          1           0        6.604081    4.682656   -1.186605
     14          1           0        5.795574    3.119064   -1.140940
     15          6           0        4.629786    6.244049   -0.048030
     16          8           0        4.948606    6.797118    0.980819
     17          7           0        4.325246    6.924981   -1.130126
     18          1           0        3.869376    6.396875   -1.838872
     19          6           0        4.408894    8.363283   -1.237568
     20          1           0        4.845586    8.757742   -0.335247
     21          1           0        5.023503    8.650345   -2.085305
     22          1           0        3.416019    8.782063   -1.368856
 ---------------------------------------------------------------------
                    Distance matrix (angstroms):
                    1          2          3          4          5
     1  H    0.000000
     2  C    1.078561   0.000000
     3  H    1.768341   1.085827   0.000000
     4  H    1.768179   1.085854   1.761508   0.000000
     5  C    2.128438   1.515618   2.144633   2.148060   0.000000
     6  O    2.507754   2.388231   3.071903   3.107949   1.212849
     7  N    3.312218   2.418430   2.683898   2.731306   1.348376
     8  H    3.547174   2.504449   2.501377   2.595217   2.013997
     9  C    4.612279   3.820549   4.124807   4.090430   2.495668
    10  H    5.363095   4.455345   4.652193   4.543820   3.328928
    11  C    5.209626   4.539156   4.630525   5.093480   3.191386
    12  H    4.855998   4.384622   4.535091   5.103928   3.015253
    13  H    6.235507   5.576391   5.704814   6.073706   4.180879
    14  H    5.362440   4.618634   4.453799   5.205294   3.507357
    15  C    5.102106   4.505428   5.107135   4.652602   3.114772
    16  O    5.984266   5.325651   5.940619   5.260282   4.077133
    17  N    5.088233   4.748301   5.458059   5.051320   3.320297
    18  H    4.416346   4.197907   4.886024   4.677650   2.778044
    19  C    6.169828   5.955975   6.761505   6.172279   4.620595
    20  H    6.832661   6.504377   7.300107   6.580317   5.189904
    21  H    6.823694   6.666549   7.410910   7.006785   5.278164
    22  H    5.944712   5.884973   6.797117   6.047920   4.716342
                    6          7          8          9         10
     6  O    0.000000
     7  N    2.249803   0.000000
     8  H    3.111922   0.993512   0.000000
     9  C    2.865688   1.464083   2.107634   0.000000
    10  H    3.883914   2.076047   2.265246   1.078722   0.000000
    11  C    3.244592   2.425030   3.048238   1.545329   2.135163
    12  H    2.718030   2.717774   3.505307   2.191938   3.048507
    13  H    4.121917   3.372224   3.957359   2.171026   2.462962
    14  H    3.789982   2.639290   2.964300   2.170896   2.464252
    15  C    3.066301   2.585896   3.339764   1.565868   2.110118
    16  O    4.172453   3.400773   3.934087   2.363918   2.372224
    17  N    2.774753   3.281726   4.197105   2.521483   3.313941
    18  H    1.975800   3.046846   4.030837   2.624129   3.610177
    19  C    3.958024   4.676096   5.560158   3.880004   4.523942
    20  H    4.723483   5.028313   5.809928   4.085506   4.492237
    21  H    4.474881   5.350616   6.276571   4.464076   5.139012
    22  H    3.982119   5.026440   5.903623   4.505785   5.211958
                   11         12         13         14         15
    11  C    0.000000
    12  H    1.077794   0.000000
    13  H    1.084498   1.753962   0.000000
    14  H    1.085376   1.746313   1.760849   0.000000
    15  C    2.571817   2.887521   2.762633   3.509850   0.000000
    16  O    3.481969   3.987125   3.450981   4.329815   1.210810
    17  N    3.035361   2.884461   3.197546   4.080072   1.314285
    18  H    2.895064   2.433574   3.292812   3.865410   1.951588
    19  C    4.350721   4.164944   4.285844   5.425316   2.440276
    20  H    4.720058   4.761269   4.519230   5.774626   2.539235
    21  H    4.584646   4.271285   4.364452   5.664184   3.177383
    22  H    5.103784   4.813071   5.196354   6.146852   3.107946
                   16         17         18         19         20
    16  O    0.000000
    17  N    2.204771   0.000000
    18  H    3.045585   0.994502   0.000000
    19  C    2.768646   1.444733   2.125889   0.000000
    20  H    2.363618   2.064364   2.964383   1.077256   0.000000
    21  H    3.583459   2.092082   2.543789   1.085729   1.762354
    22  H    3.436539   2.081451   2.472968   1.085548   1.764256
                   21         22
    21  H    0.000000
    22  H    1.764839   0.000000
 Stoichiometry    C6H12N2O2
 Framework group  C1[X(C6H12N2O2)]
[...]
    13  H    6.312567   5.688439   5.866567   6.204973   4.281084
    14  H    5.423626   4.805690   4.719142   5.505370   3.641236
    15  C    5.190944   4.469255   4.981824   4.551649   3.143091
    16  O    6.058279   5.244641   5.702581   5.130006   4.090011
    17  N    5.176325   4.698023   5.408107   4.841654   3.304140
    18  H    4.483609   4.159390   4.921170   4.452632   2.751750
    19  C    6.143525   5.740599   6.558475   5.696331   4.489717
    20  H    7.084207   6.594075   7.333615   6.536874   5.299817
    21  H    6.379319   6.147679   7.029139   6.186855   4.904784
    22  H    6.007855   5.595089   6.466593   5.353042   4.550345
                    6          7          8          9         10
     6  O    0.000000
     7  N    2.257484   0.000000
     8  H    3.094627   0.994926   0.000000
     9  C    2.944329   1.468607   2.077728   0.000000
    10  H    3.922628   2.036415   2.152599   1.078579   0.000000
    11  C    3.410078   2.468231   3.155775   1.531193   2.142326
    12  H    2.900509   2.744729   3.610339   2.171254   3.047722
    13  H    4.282593   3.408807   4.037053   2.165065   2.502172
    14  H    3.957101   2.702180   3.156063   2.153815   2.449464
    15  C    3.166170   2.560064   3.194350   1.541844   2.073500
    16  O    4.247214   3.386316   3.759409   2.364801   2.361813
    17  N    2.820680   3.220893   4.055615   2.482223   3.293264
    18  H    2.008083   2.987684   3.925171   2.613425   3.607794
    19  C    3.897013   4.543287   5.304351   3.828386   4.487880
    20  H    4.814010   5.124565   5.825180   4.157151   4.633730
    21  H    4.079150   5.160164   6.007694   4.543390   5.326697
    22  H    4.063893   4.712990   5.358169   4.219768   4.795172
                   11         12         13         14         15
    11  C    0.000000
    12  H    1.082318   0.000000
    13  H    1.084773   1.758618   0.000000
    14  H    1.084287   1.755952   1.761038   0.000000
    15  C    2.540363   2.878466   2.714441   3.470684   0.000000
    16  O    3.449173   3.973186   3.395550   4.285180   1.204237
    17  N    2.991890   2.840677   3.149986   4.036155   1.344173
    18  H    2.928519   2.468466   3.336170   3.893707   2.001961
    19  C    4.370048   4.197762   4.338330   5.435789   2.417011
    20  H    4.616200   4.604873   4.336377   5.684019   2.686441
    21  H    4.841965   4.441721   4.819740   5.906574   3.292660
    22  H    5.048745   4.938212   5.136572   6.067177   2.788595
                   16         17         18         19         20
    16  O    0.000000
    17  N    2.239933   0.000000
    18  H    3.082738   0.996258   0.000000
    19  C    2.735059   1.447276   2.107051   0.000000
    20  H    2.647778   2.080819   2.930676   1.080449   0.000000
    21  H    3.776741   2.063051   2.322648   1.081866   1.760507
    22  H    2.880819   2.110887   2.669201   1.085307   1.754765
                   21         22
    21  H    0.000000
    22  H    1.764324   0.000000
 Stoichiometry    C6H12N2O2
 Framework group  C1[X(C6H12N2O2)]
 Deg. of freedom    60
 Full point group                 C1      NOp   1
 Largest Abelian subgroup         C1      NOp   1
 Largest concise Abelian subgroup C1      NOp   1
                         Standard orientation:                         
 ---------------------------------------------------------------------
 Center     Atomic      Atomic             Coordinates (Angstroms)
 Number     Number       Type             X           Y           Z
 ---------------------------------------------------------------------
      1          1           0        3.589691   -1.545449   -0.108213
      2          6           0        3.086252   -0.860781    0.558253
      3          1           0        3.733866   -0.019123    0.775181
      4          1           0        2.874628   -1.377452    1.489558
      5          6           0        1.780900   -0.432612   -0.077053
      6          8           0        1.249242   -1.101682   -0.925420
      7          7           0        1.291689    0.750804    0.364048
      8          1           0        1.779021    1.143380    1.137526
      9          6           0       -0.066244    1.283271    0.192867
     10          1           0       -0.180874    2.018405    0.973745
     11          6           0       -0.211043    1.970358   -1.167830
     12          1           0       -0.040262    1.273558   -1.978210
     13          1           0       -1.205223    2.389936   -1.278707
     14          1           0        0.513472    2.772773   -1.250819
     15          6           0       -1.227349    0.304163    0.458318
     16          8           0       -1.908576    0.475947    1.436380
     17          7           0       -1.494280   -0.638549   -0.461923
     18          1           0       -0.744801   -0.907119   -1.060824
     19          6           0       -2.552466   -1.597526   -0.226948
     20          1           0       -3.478745   -1.081380   -0.019650
     21          1           0       -2.675232   -2.197375   -1.118881
     22          1           0       -2.333036   -2.251297    0.611100
 ---------------------------------------------------------------------
 Rotational constants (GHZ):      1.8544230      0.9307457      0.7943269

 **********************************************************************

            Population analysis using the SCF density.

 **********************************************************************

 Orbital symmetries:
       Occupied  (A) (A) (A) (A) (A) (A) (A) (A) (A) (A) (A) (A)
                 (A) (A) (A) (A) (A) (A) (A) (A) (A) (A) (A) (A)
                 (A) (A) (A) (A) (A) (A) (A) (A) (A) (A) (A) (A)
                 (A) (A) (A)
       Virtual   (A) (A) (A) (A) (A) (A) (A) (A) (A) (A) (A) (A)
                 (A) (A) (A) (A) (A) (A) (A) (A) (A) (A) (A) (A)
                 (A) (A) (A) (A) (A) (A) (A) (A) (A) (A) (A) (A)
                 (A) (A) (A) (A) (A) (A) (A) (A) (A) (A) (A) (A)
                 (A) (A) (A) (A) (A) (A) (A) (A) (A) (A) (A) (A)
                 (A) (A) (A) (A) (A) (A) (A) (A) (A) (A) (A) (A)
                 (A) (A) (A) (A) (A) (A) (A) (A) (A) (A) (A) (A)
                 (A) (A) (A) (A) (A) (A) (A) (A) (A) (A) (A) (A)
                 (A) (A) (A) (A) (A) (A) (A) (A) (A) (A) (A) (A)
                 (A) (A) (A) (A) (A) (A) (A) (A) (A) (A) (A) (A)
                 (A) (A) (A) (A) (A) (A) (A) (A) (A) (A) (A) (A)
                 (A) (A) (A)
 The electronic state is 1-A.
 Alpha  occ. eigenvalues --  -20.54073 -20.51680 -15.60150 -15.56551 -11.36600
 Alpha  occ. eigenvalues --  -11.33661 -11.28559 -11.24446 -11.24362 -11.22288
 Alpha  occ. eigenvalues --   -1.40804  -1.38327  -1.25080  -1.21864  -1.06055
 Alpha  occ. eigenvalues --   -1.00124  -0.94540  -0.88635  -0.81030  -0.76593
 Alpha  occ. eigenvalues --   -0.72177  -0.70448  -0.65055  -0.63687  -0.62781
 Alpha  occ. eigenvalues --   -0.61665  -0.60499  -0.58205  -0.57726  -0.56727
 Alpha  occ. eigenvalues --   -0.54571  -0.53887  -0.52510  -0.51569  -0.50946
 Alpha  occ. eigenvalues --   -0.44038  -0.43010  -0.39019  -0.37371
 Alpha virt. eigenvalues --    0.18450   0.19267   0.21495   0.25459   0.26043
 Alpha virt. eigenvalues --    0.27819   0.29158   0.30297   0.31315   0.32454
 Alpha virt. eigenvalues --    0.32642   0.33770   0.34147   0.36005   0.37514
 Alpha virt. eigenvalues --    0.39212   0.40889   0.45548   0.46689   0.48842
 Alpha virt. eigenvalues --    0.54824   0.60833   0.64090   0.70044   0.71359
 Alpha virt. eigenvalues --    0.72701   0.74178   0.76330   0.76990   0.77950
 Alpha virt. eigenvalues --    0.79228   0.81136   0.82790   0.88643   0.89576
 Alpha virt. eigenvalues --    0.92487   0.93568   0.95507   0.96478   0.99397
 Alpha virt. eigenvalues --    1.01060   1.02131   1.06402   1.08233   1.10057
 Alpha virt. eigenvalues --    1.10705   1.12102   1.13442   1.14064   1.15958
 Alpha virt. eigenvalues --    1.16897   1.17697   1.18639   1.19678   1.20515
 Alpha virt. eigenvalues --    1.22852   1.23363   1.23591   1.25008   1.29701
 Alpha virt. eigenvalues --    1.33571   1.34469   1.36659   1.38425   1.40208
 Alpha virt. eigenvalues --    1.45672   1.47873   1.52677   1.55929   1.59805
 Alpha virt. eigenvalues --    1.65901   1.66951   1.68466   1.69677   1.74592
 Alpha virt. eigenvalues --    1.80588   1.86254   1.91769   1.95257   1.96803
 Alpha virt. eigenvalues --    1.99085   2.02851   2.07761   2.08848   2.11749
 Alpha virt. eigenvalues --    2.13318   2.14843   2.18556   2.19516   2.21938
 Alpha virt. eigenvalues --    2.22353   2.26288   2.29155   2.32638   2.33297
 Alpha virt. eigenvalues --    2.36318   2.39762   2.41684   2.43872   2.50932
 Alpha virt. eigenvalues --    2.52570   2.55697   2.56875   2.61547   2.63898
 Alpha virt. eigenvalues --    2.66511   2.69125   2.70325   2.75434   2.77250
 Alpha virt. eigenvalues --    2.79289   2.84039   2.85851   2.94384   2.96175
 Alpha virt. eigenvalues --    3.02473   3.05362   3.08522   3.12771   3.27250
 Alpha virt. eigenvalues --    3.29378   3.37936   3.39666   3.51964   3.57074
 Alpha virt. eigenvalues --    4.35355   4.42367   4.50297   4.57186   4.64594
 Alpha virt. eigenvalues --    4.66867   4.73784   4.81689   4.88969   5.07049
          Condensed to atoms (all electrons):
              1          2          3          4          5          6
     1  H    0.459294   0.384133  -0.020556  -0.017240  -0.032073   0.003219
     2  C    0.384133   5.265801   0.377505   0.375376   0.374854  -0.071153
     3  H   -0.020556   0.377505   0.514347  -0.023780  -0.037296   0.002016
     4  H   -0.017240   0.375376  -0.023780   0.487670  -0.026652   0.000294
     5  C   -0.032073   0.374854  -0.037296  -0.026652   4.145035   0.584466
     6  O    0.003219  -0.071153   0.002016   0.000294   0.584466   8.195318
     7  N    0.004074  -0.117965   0.005072   0.000243   0.271241  -0.101350
     8  H    0.000109   0.000056   0.000308  -0.000007  -0.022507   0.002691
     9  C   -0.000079   0.003575   0.000121  -0.000195  -0.020885   0.010351
    10  H    0.000001  -0.000047  -0.000017   0.000004   0.003027   0.000062
    11  C    0.000009  -0.000181  -0.000007  -0.000002  -0.002331  -0.002365
    12  H   -0.000001   0.000056  -0.000006   0.000000   0.002158   0.002581
    13  H    0.000000   0.000003   0.000000   0.000000   0.000051   0.000043
    14  H    0.000000  -0.000015   0.000002   0.000000   0.000014  -0.000007
    15  C   -0.000002  -0.000245   0.000006   0.000026  -0.003046   0.000517
    16  O    0.000000  -0.000004   0.000000   0.000000  -0.000196   0.000022
    17  N    0.000002  -0.000060   0.000000   0.000011   0.004319  -0.021525
    18  H   -0.000002   0.000405  -0.000008  -0.000018  -0.002248   0.025956
    19  C    0.000000   0.000002   0.000000   0.000000  -0.000046   0.000485
    20  H    0.000000   0.000000   0.000000   0.000000   0.000004  -0.000009
    21  H    0.000000   0.000000   0.000000   0.000000   0.000009  -0.000014
    22  H    0.000000   0.000000   0.000000  -0.000001  -0.000039   0.000057
              7          8          9         10         11         12
     1  H    0.004074   0.000109  -0.000079   0.000001   0.000009  -0.000001
     2  C   -0.117965   0.000056   0.003575  -0.000047  -0.000181   0.000056
     3  H    0.005072   0.000308   0.000121  -0.000017  -0.000007  -0.000006
     4  H    0.000243  -0.000007  -0.000195   0.000004  -0.000002   0.000000
     5  C    0.271241  -0.022507  -0.020885   0.003027  -0.002331   0.002158
     6  O   -0.101350   0.002691   0.010351   0.000062  -0.002365   0.002581
     7  N    7.401335   0.330104   0.147359  -0.036901  -0.067112  -0.004291
     8  H    0.330104   0.326103  -0.026310  -0.005111   0.003102  -0.000060
     9  C    0.147359  -0.026310   5.092000   0.413448   0.328906  -0.027362
    10  H   -0.036901  -0.005111   0.413448   0.475738  -0.034607   0.003315
    11  C   -0.067112   0.003102   0.328906  -0.034607   5.138600   0.388059
    12  H   -0.004291  -0.000060  -0.027362   0.003315   0.388059   0.497178
    13  H    0.004425  -0.000094  -0.038606  -0.001104   0.387947  -0.023369
    14  H    0.000031   0.000042  -0.034910  -0.004179   0.387676  -0.024734
    15  C   -0.034532   0.001820   0.385245  -0.048032  -0.059862  -0.005325
    16  O    0.002017  -0.000053  -0.070748   0.008007   0.000688   0.000007
    17  N    0.004844  -0.000111  -0.123982   0.004724   0.009390   0.001396
    18  H   -0.000671  -0.000029   0.000421  -0.000037  -0.000949   0.001122
    19  C   -0.000189   0.000003   0.004606  -0.000123  -0.000229  -0.000009
    20  H   -0.000002   0.000000   0.000108   0.000001  -0.000049  -0.000002
    21  H   -0.000002   0.000000   0.000015   0.000001  -0.000015   0.000002
    22  H    0.000008   0.000000  -0.000196  -0.000001   0.000014   0.000001
             13         14         15         16         17         18
     1  H    0.000000   0.000000  -0.000002   0.000000   0.000002  -0.000002
     2  C    0.000003  -0.000015  -0.000245  -0.000004  -0.000060   0.000405
     3  H    0.000000   0.000002   0.000006   0.000000   0.000000  -0.000008
     4  H    0.000000   0.000000   0.000026   0.000000   0.000011  -0.000018
     5  C    0.000051   0.000014  -0.003046  -0.000196   0.004319  -0.002248
     6  O    0.000043  -0.000007   0.000517   0.000022  -0.021525   0.025956
     7  N    0.004425   0.000031  -0.034532   0.002017   0.004844  -0.000671
     8  H   -0.000094   0.000042   0.001820  -0.000053  -0.000111  -0.000029
     9  C   -0.038606  -0.034910   0.385245  -0.070748  -0.123982   0.000421
    10  H   -0.001104  -0.004179  -0.048032   0.008007   0.004724  -0.000037
    11  C    0.387947   0.387676  -0.059862   0.000688   0.009390  -0.000949
    12  H   -0.023369  -0.024734  -0.005325   0.000007   0.001396   0.001122
    13  H    0.517283  -0.024858  -0.000031   0.000355  -0.000431   0.000117
    14  H   -0.024858   0.527176   0.004415  -0.000088   0.000025  -0.000012
    15  C   -0.000031   0.004415   4.176434   0.612918   0.281875  -0.016168
    16  O    0.000355  -0.000088   0.612918   8.165429  -0.114253   0.002253
    17  N   -0.000431   0.000025   0.281875  -0.114253   7.359449   0.298495
    18  H    0.000117  -0.000012  -0.016168   0.002253   0.298495   0.265934
    19  C   -0.000034   0.000004  -0.034847   0.008066   0.212918  -0.019412
    20  H    0.000006   0.000000  -0.003229   0.003163  -0.039443   0.002000
    21  H    0.000000   0.000000   0.004899   0.000448  -0.038284  -0.004064
    22  H    0.000000   0.000000  -0.003663   0.001904  -0.048408   0.001384
             19         20         21         22
     1  H    0.000000   0.000000   0.000000   0.000000
     2  C    0.000002   0.000000   0.000000   0.000000
     3  H    0.000000   0.000000   0.000000   0.000000
     4  H    0.000000   0.000000   0.000000  -0.000001
     5  C   -0.000046   0.000004   0.000009  -0.000039
     6  O    0.000485  -0.000009  -0.000014   0.000057
     7  N   -0.000189  -0.000002  -0.000002   0.000008
     8  H    0.000003   0.000000   0.000000   0.000000
     9  C    0.004606   0.000108   0.000015  -0.000196
    10  H   -0.000123   0.000001   0.000001  -0.000001
    11  C   -0.000229  -0.000049  -0.000015   0.000014
    12  H   -0.000009  -0.000002   0.000002   0.000001
    13  H   -0.000034   0.000006   0.000000   0.000000
    14  H    0.000004   0.000000   0.000000   0.000000
    15  C   -0.034847  -0.003229   0.004899  -0.003663
    16  O    0.008066   0.003163   0.000448   0.001904
    17  N    0.212918  -0.039443  -0.038284  -0.048408
    18  H   -0.019412   0.002000  -0.004064   0.001384
    19  C    4.897601   0.403589   0.398074   0.404528
    20  H    0.403589   0.500160  -0.025415  -0.034554
    21  H    0.398074  -0.025415   0.527739  -0.032332
    22  H    0.404528  -0.034554  -0.032332   0.539933
 Mulliken atomic charges:
              1
     1  H    0.219112
     2  C   -0.592096
     3  H    0.182292
     4  H    0.204270
     5  C    0.762141
     6  O   -0.631656
     7  N   -0.807738
     8  H    0.389942
     9  C   -0.042882
    10  H    0.221830
    11  C   -0.476680
    12  H    0.189285
    13  H    0.178296
    14  H    0.169420
    15  C    0.740828
    16  O   -0.619931
    17  N   -0.790952
    18  H    0.445533
    19  C   -0.274987
    20  H    0.193671
    21  H    0.168938
    22  H    0.171365
 Sum of Mulliken atomic charges =   0.00000
 Mulliken charges with hydrogens summed into heavy atoms:
              1
     2  C    0.013578
     5  C    0.762141
     6  O   -0.631656
     7  N   -0.417796
     9  C    0.178948
    11  C    0.060320
    15  C    0.740828
    16  O   -0.619931
    17  N   -0.345419
    19  C    0.258987
 Sum of Mulliken charges with hydrogens summed into heavy atoms =   0.00000
 Electronic spatial extent (au):  <R**2>=           1636.9445
 Charge=              0.0000 electrons
 Dipole moment (field-independent basis, Debye):
    X=              3.3359    Y=              0.7833    Z=              0.0076  Tot=              3.4267
 Quadrupole moment (field-independent basis, Debye-Ang):
   XX=            -57.4456   YY=            -57.8049   ZZ=            -64.7885
   XY=              4.9353   XZ=             10.9696   YZ=             -1.7300
 Traceless Quadrupole moment (field-independent basis, Debye-Ang):
   XX=              2.5674   YY=              2.2081   ZZ=             -4.7755
   XY=              4.9353   XZ=             10.9696   YZ=             -1.7300
 Octapole moment (field-independent basis, Debye-Ang**2):
  XXX=             24.6116  YYY=              1.8262  ZZZ=             -2.9749  XYY=             -4.5770
  XXY=            -11.5357  XXZ=             -3.1430  XZZ=             11.3694  YZZ=             -1.3850
  YYZ=              4.6499  XYZ=              1.2243
 Hexadecapole moment (field-independent basis, Debye-Ang**3):
 XXXX=          -1199.6230 YYYY=           -563.2137 ZZZZ=           -298.0560 XXXY=              8.5452
 XXXZ=             27.9052 YYYX=              7.7062 YYYZ=             10.1891 ZZZX=             16.1346
 ZZZY=              6.5781 XXYY=           -288.2936 XXZZ=           -278.2912 YYZZ=           -139.2290
 XXYZ=             -0.1532 YYXZ=             10.6804 ZZXY=             12.1718
 N-N= 5.678697159902D+02 E-N=-2.291133089533D+03  KE= 4.921165975434D+02
 1\1\GINC-RODAN\FOpt\RHF\6-31G(d)\C6H12N2O2\STEBOSS\09-Feb-2017\0\\# HF
 /6-31G* Opt=(ModRedundant) geom=nocrowd\\Phi Psi fixed scan\\0,1\H,0.5
 632830515,3.424438046,-1.5693699761\C,1.1826859832,3.4855007025,-0.686
 7551311\H,1.3482443951,2.4917484977,-0.2868836572\H,0.6599408788,4.072
 1734528,0.0626555328\C,2.4768630469,4.1831708429,-1.0462659535\O,2.551
 0993029,4.90813861,-2.0048866777\N,3.5215133871,3.9058633235,-0.230069
 8639\H,3.2915160578,3.3740776079,0.5787460253\C,4.7904526164,4.6358175
 09,-0.112742408\H,5.1776067122,4.3729681832,0.8590368759\C,5.780182435
 7,4.1777011894,-1.187505386\H,5.3957558557,4.3697023007,-2.1808657267\
 H,6.7270129123,4.6958415305,-1.0789923482\H,5.9567587504,3.1122337489,
 -1.0911798054\C,4.695962075,6.1734674577,-0.0496010928\O,4.9541793832,
 6.7204434522,0.9917093652\N,4.4277303651,6.8464545007,-1.1818297095\H,
 3.9467372061,6.347977857,-1.8978586849\C,4.2943534416,8.2872369593,-1.
 1507970978\H,5.1791999473,8.7303819163,-0.7171613311\H,4.1837081907,8.
 6428299234,-2.166546064\H,3.4351140049,8.6058323883,-0.5693368852\\Ver
 sion=EM64L-G09RevA.02\State=1-A\HF=-492.8516645\RMSD=9.720e-09\RMSF=2.
 723e-03\Dipole=-0.5711942,-1.2209732,-0.0219525\Quadrupole=1.4275341,3
 .9218062,-5.3493403,0.4619058,-4.7605154,-6.7239172\PG=C01 [X(C6H12N2O
 2)]\\@


 THERE IS MORE TO LIFE THAN INCREASING ITS SPEED.

                                       -- GANDHI
 Job cpu time:  0 days  0 hours 22 minutes 38.9 seconds.
 File lengths (MBytes):  RWF=     25 Int=      0 D2E=      0 Chk=      3 Scr=      1
 Normal termination of Gaussian 09 at Thu Feb  9 17:52:05 2017.
