 Entering Gaussian System, Link 0=/home/steboss/local/g09/g09
 Initial command:
 /home/steboss/local//g09/l1.exe /tmp/Gau-24564.inp -scrdir=/tmp/
 Entering Link 1 = /home/steboss/local//g09/l1.exe PID=     24566.
  
 Copyright (c) 1988,1990,1992,1993,1995,1998,2003,2009, Gaussian, Inc.
                  All Rights Reserved.
  
 This is part of the Gaussian(R) 09 program.  It is based on
 the Gaussian(R) 03 system (copyright 2003, Gaussian, Inc.),
 the Gaussian(R) 98 system (copyright 1998, Gaussian, Inc.),
 the Gaussian(R) 94 system (copyright 1995, Gaussian, Inc.),
 the Gaussian 92(TM) system (copyright 1992, Gaussian, Inc.),
 the Gaussian 90(TM) system (copyright 1990, Gaussian, Inc.),
 the Gaussian 88(TM) system (copyright 1988, Gaussian, Inc.),
 the Gaussian 86(TM) system (copyright 1986, Carnegie Mellon
 University), and the Gaussian 82(TM) system (copyright 1983,
 Carnegie Mellon University). Gaussian is a federally registered
 trademark of Gaussian, Inc.
  
 This software contains proprietary and confidential information,
 including trade secrets, belonging to Gaussian, Inc.
  
 This software is provided under written license and may be
 used, copied, transmitted, or stored only in accord with that
 written license.
  
 The following legend is applicable only to US Government
 contracts under FAR:
  
                    RESTRICTED RIGHTS LEGEND
  
 Use, reproduction and disclosure by the US Government is
 subject to restrictions as set forth in subparagraphs (a)
 and (c) of the Commercial Computer Software - Restricted
 Rights clause in FAR 52.227-19.
  
 Gaussian, Inc.
 340 Quinnipiac St., Bldg. 40, Wallingford CT 06492
  
  
 ---------------------------------------------------------------
 Warning -- This program may not be used in any manner that
 competes with the business of Gaussian, Inc. or will provide
 assistance to any competitor of Gaussian, Inc.  The licensee
 of this program is prohibited from giving any competitor of
 Gaussian, Inc. access to this program.  By using this program,
 the user acknowledges that Gaussian, Inc. is engaged in the
 business of creating and licensing software in the field of
 computational chemistry and represents and warrants to the
 licensee that it is not a competitor of Gaussian, Inc. and that
 it will not use this program in any manner prohibited above.
 ---------------------------------------------------------------
  

 Cite this work as:
 Gaussian 09, Revision A.02,
 M. J. Frisch, G. W. Trucks, H. B. Schlegel, G. E. Scuseria, 
 M. A. Robb, J. R. Cheeseman, G. Scalmani, V. Barone, B. Mennucci, 
 G. A. Petersson, H. Nakatsuji, M. Caricato, X. Li, H. P. Hratchian, 
 A. F. Izmaylov, J. Bloino, G. Zheng, J. L. Sonnenberg, M. Hada, 
 M. Ehara, K. Toyota, R. Fukuda, J. Hasegawa, M. Ishida, T. Nakajima, 
 Y. Honda, O. Kitao, H. Nakai, T. Vreven, J. A. Montgomery, Jr., 
 J. E. Peralta, F. Ogliaro, M. Bearpark, J. J. Heyd, E. Brothers, 
 K. N. Kudin, V. N. Staroverov, R. Kobayashi, J. Normand, 
 K. Raghavachari, A. Rendell, J. C. Burant, S. S. Iyengar, J. Tomasi, 
 M. Cossi, N. Rega, J. M. Millam, M. Klene, J. E. Knox, J. B. Cross, 
 V. Bakken, C. Adamo, J. Jaramillo, R. Gomperts, R. E. Stratmann, 
 O. Yazyev, A. J. Austin, R. Cammi, C. Pomelli, J. W. Ochterski, 
 R. L. Martin, K. Morokuma, V. G. Zakrzewski, G. A. Voth, 
 P. Salvador, J. J. Dannenberg, S. Dapprich, A. D. Daniels, 
 O. Farkas, J. B. Foresman, J. V. Ortiz, J. Cioslowski, 
 and D. J. Fox, Gaussian, Inc., Wallingford CT, 2009.
 
 ******************************************
 Gaussian 09:  EM64L-G09RevA.02 11-Jun-2009
                19-Mar-2017 
 ******************************************
 %nproc=8
 Will use up to    8 processors via shared memory.
 %mem=4096MB
 %chk=IPolQout.solv.chk
 ----------------------------------------------------------------------
 #MP2/cc-pvTZ density=MP2, charge, maxdisk=16GB, pop=(minimal, MK), 5d,
  punch=mo
 ----------------------------------------------------------------------
 1/18=10,28=-2,30=1,38=1,125=101/1;
 2/12=2,17=6,18=5,40=1/2;
 3/5=16,6=1,8=1,11=9,16=1,25=1,30=1,71=1/1,2,3;
 4//1;
 5/5=2,38=5/2;
 8/6=4,10=1/1;
 9/15=1,16=-3/6;
 10/5=1,13=10/2;
 6/7=2,8=2,9=2,10=2,15=8,20=1,22=2/1,2;
 99/5=1,9=1,10=32/99;
 -----------------
 Generated by mdgx
 -----------------
 Symbolic Z-matrix:
 Charge =  0 Multiplicity = 1
 H                    -3.70273  -1.57425   0.32814 
 C                    -3.29628  -0.58303   0.52909 
 H                    -3.09317  -0.56184   1.59979 
 H                    -3.99501   0.2284    0.32551 
 C                    -2.04733  -0.41505  -0.32319 
 O                    -1.76915  -1.24941  -1.13184 
 N                    -1.32026   0.62604  -0.02534 
 H                    -1.68763   1.31189   0.61868 
 C                     0.08287   0.91814  -0.29863 
 H                     0.21516   0.73109  -1.36428 
 C                     0.28326   2.32436   0.0098 
 H                     0.14016   2.49146   1.07737 
 H                     1.22411   2.74545  -0.34458 
 H                    -0.50895   2.87257  -0.50007 
 C                     1.12155  -0.06116   0.29648 
 O                     0.79619  -0.75583   1.2878 
 N                     2.33071  -0.08474  -0.35775 
 H                     2.61962   0.76492  -0.82113 
 C                     3.50814  -1.02218  -0.10408 
 H                     3.97589  -1.39637  -1.01473 
 H                     4.33546  -0.45987   0.32889 
 H                     3.27431  -1.86716   0.54356 
 
 Background charge distribution read from input stream:
 Point Charges:
 XYZ=    5.7901   -2.6047   -2.3643 Q=   -0.0198 A=    0.0000 R=    0.0000 C=    0.0000
 XYZ=    5.6380   -2.3667   -3.2789 Q=    0.0099 A=    0.0000 R=    0.0000 C=    0.0000
 XYZ=    6.3500   -1.9064   -2.0250 Q=    0.0099 A=    0.0000 R=    0.0000 C=    0.0000
 XYZ=    4.7728   -3.9321    1.9402 Q=    0.0099 A=    0.0000 R=    0.0000 C=    0.0000
 XYZ=    6.4810   -1.5016    1.2236 Q=   -0.0198 A=    0.0000 R=    0.0000 C=    0.0000
 XYZ=    5.7800   -0.9536    1.5764 Q=    0.0099 A=    0.0000 R=    0.0000 C=    0.0000
 XYZ=    6.2423   -2.3917    1.4823 Q=    0.0099 A=    0.0000 R=    0.0000 C=    0.0000
 XYZ=    5.3999   -3.9709   -0.7579 Q=    0.0099 A=    0.0000 R=    0.0000 C=    0.0000
 XYZ=    7.1128   -0.9319   -0.3813 Q=    0.0099 A=    0.0000 R=    0.0000 C=    0.0000
 XYZ=   -1.0451    0.6768    2.9335 Q=   -0.0198 A=    0.0000 R=    0.0000 C=    0.0000
 XYZ=   -0.2082    0.2998    2.6619 Q=    0.0099 A=    0.0000 R=    0.0000 C=    0.0000
 XYZ=   -1.6101   -0.0803    3.0878 Q=    0.0099 A=    0.0000 R=    0.0000 C=    0.0000
 XYZ=    2.3411   -4.2776    1.7822 Q=   -0.0198 A=    0.0000 R=    0.0000 C=    0.0000
 XYZ=    2.1844   -4.0064    0.8777 Q=    0.0099 A=    0.0000 R=    0.0000 C=    0.0000
 XYZ=   -2.4257   -1.7301    4.0207 Q=   -0.0198 A=    0.0000 R=    0.0000 C=    0.0000
 XYZ=   -3.3760   -1.8027    3.9324 Q=    0.0099 A=    0.0000 R=    0.0000 C=    0.0000
 XYZ=    1.3452   -3.4153   -0.6390 Q=   -0.0198 A=    0.0000 R=    0.0000 C=    0.0000
 XYZ=    0.9070   -3.0536    0.1314 Q=    0.0099 A=    0.0000 R=    0.0000 C=    0.0000
 XYZ=    1.7832   -1.6144    3.8695 Q=   -0.0198 A=    0.0000 R=    0.0000 C=    0.0000
 XYZ=    2.5316   -1.1890    3.4509 Q=    0.0099 A=    0.0000 R=    0.0000 C=    0.0000
 XYZ=    1.0782   -1.5468    3.2256 Q=    0.0099 A=    0.0000 R=    0.0000 C=    0.0000
 XYZ=   -2.1726    1.9331    2.5472 Q=    0.0099 A=    0.0000 R=    0.0000 C=    0.0000
 XYZ=   -2.0203   -3.4897    0.7648 Q=   -0.0198 A=    0.0000 R=    0.0000 C=    0.0000
 XYZ=    1.6978    4.8689   -1.7377 Q=   -0.0198 A=    0.0000 R=    0.0000 C=    0.0000
 XYZ=    1.7220    3.9783   -1.3878 Q=    0.0099 A=    0.0000 R=    0.0000 C=    0.0000
 XYZ=    5.0126    0.3790    2.9126 Q=   -0.0198 A=    0.0000 R=    0.0000 C=    0.0000
 XYZ=    4.5780    1.0904    2.4423 Q=    0.0099 A=    0.0000 R=    0.0000 C=    0.0000
 XYZ=    4.5902    2.3906   -1.4397 Q=   -0.0198 A=    0.0000 R=    0.0000 C=    0.0000
 XYZ=    3.5827    2.1937    1.2102 Q=   -0.0198 A=    0.0000 R=    0.0000 C=    0.0000
 XYZ=    3.9145    2.0479    0.3243 Q=    0.0099 A=    0.0000 R=    0.0000 C=    0.0000
 XYZ=   -2.4069    5.1327   -0.2577 Q=    0.0099 A=    0.0000 R=    0.0000 C=    0.0000
 XYZ=   -5.1422    1.4580    2.3731 Q=   -0.0198 A=    0.0000 R=    0.0000 C=    0.0000
 XYZ=   -4.7157    1.8930    1.6348 Q=    0.0099 A=    0.0000 R=    0.0000 C=    0.0000
 XYZ=   -5.1105   -1.0109    3.3415 Q=   -0.0198 A=    0.0000 R=    0.0000 C=    0.0000
 XYZ=   -5.2095   -0.2846    2.7259 Q=    0.0099 A=    0.0000 R=    0.0000 C=    0.0000
 XYZ=   -4.6946   -1.4450   -2.3012 Q=    0.0099 A=    0.0000 R=    0.0000 C=    0.0000
 XYZ=   -2.6655   -0.2540   -3.2648 Q=    0.0099 A=    0.0000 R=    0.0000 C=    0.0000
 XYZ=   -5.4894   -2.9022   -0.9580 Q=   -0.0198 A=    0.0000 R=    0.0000 C=    0.0000
 XYZ=   -5.4828   -3.2083   -0.0511 Q=    0.0099 A=    0.0000 R=    0.0000 C=    0.0000
 XYZ=   -0.5840   -3.2403   -2.4319 Q=   -0.0198 A=    0.0000 R=    0.0000 C=    0.0000
 XYZ=   -1.0643   -2.4179   -2.3358 Q=    0.0099 A=    0.0000 R=    0.0000 C=    0.0000
 XYZ=   -0.1375    0.6702   -3.9754 Q=    0.0099 A=    0.0000 R=    0.0000 C=    0.0000
 XYZ=   -4.5046   -3.4656    2.2365 Q=   -0.0198 A=    0.0000 R=    0.0000 C=    0.0000
 XYZ=   -3.6186   -3.2675    1.9331 Q=    0.0099 A=    0.0000 R=    0.0000 C=    0.0000
 XYZ=   -4.8763   -2.6132    2.4632 Q=    0.0099 A=    0.0000 R=    0.0000 C=    0.0000
 XYZ=   -2.5335    2.6056    1.9695 Q=   -0.0198 A=    0.0000 R=    0.0000 C=    0.0000
 XYZ=   -2.2640    3.4332    2.3678 Q=    0.0099 A=    0.0000 R=    0.0000 C=    0.0000
 XYZ=   -1.7989   -3.0603   -0.0616 Q=    0.0099 A=    0.0000 R=    0.0000 C=    0.0000
 XYZ=    0.8058    0.8239   -3.9235 Q=   -0.0198 A=    0.0000 R=    0.0000 C=    0.0000
 XYZ=    5.6414   -3.2562   -2.2995 Q=   -0.0198 A=    0.0000 R=    0.0000 C=    0.0000
 XYZ=    4.9734   -2.8229   -2.8307 Q=    0.0099 A=    0.0000 R=    0.0000 C=    0.0000
 XYZ=    6.1625   -2.5391   -1.9382 Q=    0.0099 A=    0.0000 R=    0.0000 C=    0.0000
 XYZ=    6.1333   -1.0663    1.6799 Q=    0.0099 A=    0.0000 R=    0.0000 C=    0.0000
 XYZ=    4.9851   -4.2621    0.1026 Q=   -0.0198 A=    0.0000 R=    0.0000 C=    0.0000
 XYZ=    5.1823   -3.9940   -0.7949 Q=    0.0099 A=    0.0000 R=    0.0000 C=    0.0000
 XYZ=    6.7647   -1.6752   -0.2623 Q=    0.0099 A=    0.0000 R=    0.0000 C=    0.0000
 XYZ=    0.0393    0.0997    3.2106 Q=    0.0099 A=    0.0000 R=    0.0000 C=    0.0000
 XYZ=   -1.3519   -0.2990    3.6539 Q=    0.0099 A=    0.0000 R=    0.0000 C=    0.0000
 XYZ=    2.3533   -4.1837    0.9597 Q=    0.0099 A=    0.0000 R=    0.0000 C=    0.0000
 XYZ=   -2.3589   -1.7213    3.9203 Q=   -0.0198 A=    0.0000 R=    0.0000 C=    0.0000
 XYZ=   -3.2933   -1.5258    3.8496 Q=    0.0099 A=    0.0000 R=    0.0000 C=    0.0000
 XYZ=    1.1282   -3.3855   -0.2058 Q=   -0.0198 A=    0.0000 R=    0.0000 C=    0.0000
 XYZ=    1.1713   -2.4313   -0.1443 Q=    0.0099 A=    0.0000 R=    0.0000 C=    0.0000
 XYZ=    2.6004   -1.0695    3.4494 Q=   -0.0198 A=    0.0000 R=    0.0000 C=    0.0000
 XYZ=    2.2297   -1.3004    2.5976 Q=    0.0099 A=    0.0000 R=    0.0000 C=    0.0000
 XYZ=    2.7885   -0.1333    3.3828 Q=    0.0099 A=    0.0000 R=    0.0000 C=    0.0000
 XYZ=   -1.6591   -3.4268    1.3157 Q=   -0.0198 A=    0.0000 R=    0.0000 C=    0.0000
 XYZ=   -1.1722   -2.6080    1.2216 Q=    0.0099 A=    0.0000 R=    0.0000 C=    0.0000
 XYZ=   -1.7583   -3.7507    0.4204 Q=    0.0099 A=    0.0000 R=    0.0000 C=    0.0000
 XYZ=    1.8649    4.7675   -2.1372 Q=   -0.0198 A=    0.0000 R=    0.0000 C=    0.0000
 XYZ=    1.8994    3.8300   -2.3275 Q=    0.0099 A=    0.0000 R=    0.0000 C=    0.0000
 XYZ=    5.2947    0.2820    2.7693 Q=   -0.0198 A=    0.0000 R=    0.0000 C=    0.0000
 XYZ=    4.7406    0.9556    2.3750 Q=    0.0099 A=    0.0000 R=    0.0000 C=    0.0000
 XYZ=    3.6955    2.2999   -1.1564 Q=   -0.0198 A=    0.0000 R=    0.0000 C=    0.0000
 XYZ=    4.3160    1.9828   -1.8126 Q=    0.0099 A=    0.0000 R=    0.0000 C=    0.0000
 XYZ=    3.9177    3.2241   -1.0435 Q=    0.0099 A=    0.0000 R=    0.0000 C=    0.0000
 XYZ=    3.9114    2.1635    1.6627 Q=   -0.0198 A=    0.0000 R=    0.0000 C=    0.0000
 XYZ=    3.7999    2.0531    0.7184 Q=    0.0099 A=    0.0000 R=    0.0000 C=    0.0000
 XYZ=   -5.1738    1.2609    2.6307 Q=   -0.0198 A=    0.0000 R=    0.0000 C=    0.0000
 XYZ=   -5.0187   -1.2836    3.6872 Q=   -0.0198 A=    0.0000 R=    0.0000 C=    0.0000
 XYZ=   -4.9448   -0.4020    3.3218 Q=    0.0099 A=    0.0000 R=    0.0000 C=    0.0000
 XYZ=   -3.9047   -1.0815   -2.9876 Q=   -0.0198 A=    0.0000 R=    0.0000 C=    0.0000
 XYZ=   -3.9037   -1.4495   -2.1039 Q=    0.0099 A=    0.0000 R=    0.0000 C=    0.0000
 XYZ=   -2.2259    4.9337    0.1081 Q=    0.0099 A=    0.0000 R=    0.0000 C=    0.0000
 XYZ=   -2.1465   -0.5589   -3.5923 Q=    0.0099 A=    0.0000 R=    0.0000 C=    0.0000
 XYZ=   -5.6412   -2.6804   -1.0839 Q=   -0.0198 A=    0.0000 R=    0.0000 C=    0.0000
 XYZ=   -6.0758   -1.8319   -1.1697 Q=    0.0099 A=    0.0000 R=    0.0000 C=    0.0000
 XYZ=   -5.6730   -2.8720   -0.1466 Q=    0.0099 A=    0.0000 R=    0.0000 C=    0.0000
 XYZ=   -1.1345   -4.0388   -1.2982 Q=   -0.0198 A=    0.0000 R=    0.0000 C=    0.0000
 XYZ=   -1.0656   -3.2115   -1.7747 Q=    0.0099 A=    0.0000 R=    0.0000 C=    0.0000
 XYZ=   -6.3727   -0.1015   -0.9370 Q=   -0.0198 A=    0.0000 R=    0.0000 C=    0.0000
 XYZ=   -6.0746    0.7876   -1.1288 Q=    0.0099 A=    0.0000 R=    0.0000 C=    0.0000
 XYZ=   -4.4151   -3.6229    2.1639 Q=   -0.0198 A=    0.0000 R=    0.0000 C=    0.0000
 XYZ=   -3.4838   -3.6480    1.9442 Q=    0.0099 A=    0.0000 R=    0.0000 C=    0.0000
 XYZ=   -4.5638   -2.7301    2.4752 Q=    0.0099 A=    0.0000 R=    0.0000 C=    0.0000
 XYZ=   -4.2894    1.5291    2.3815 Q=    0.0099 A=    0.0000 R=    0.0000 C=    0.0000
 XYZ=   -2.7279    2.7292    1.8030 Q=   -0.0198 A=    0.0000 R=    0.0000 C=    0.0000
 XYZ=   -2.6427    3.6383    1.5159 Q=    0.0099 A=    0.0000 R=    0.0000 C=    0.0000
 XYZ=   -2.1325    2.6568    2.5490 Q=    0.0099 A=    0.0000 R=    0.0000 C=    0.0000
 XYZ=    5.2060   -3.1152   -2.6516 Q=   -0.0198 A=    0.0000 R=    0.0000 C=    0.0000
 XYZ=    5.8295   -2.4554   -2.3481 Q=    0.0099 A=    0.0000 R=    0.0000 C=    0.0000
 XYZ=    6.3936   -1.2417    1.8785 Q=    0.0099 A=    0.0000 R=    0.0000 C=    0.0000
 XYZ=    4.2100   -4.3739    0.0653 Q=    0.0099 A=    0.0000 R=    0.0000 C=    0.0000
 XYZ=    4.9541   -3.8037   -1.1230 Q=    0.0099 A=    0.0000 R=    0.0000 C=    0.0000
 XYZ=   -0.2202    0.2464    3.2111 Q=    0.0099 A=    0.0000 R=    0.0000 C=    0.0000
 XYZ=    1.1953   -3.2841   -0.4923 Q=   -0.0198 A=    0.0000 R=    0.0000 C=    0.0000
 XYZ=    1.1649   -2.3737   -0.1981 Q=    0.0099 A=    0.0000 R=    0.0000 C=    0.0000
 XYZ=    2.9266   -0.8093    3.1538 Q=   -0.0198 A=    0.0000 R=    0.0000 C=    0.0000
 XYZ=    2.5820   -0.5027    2.3150 Q=    0.0099 A=    0.0000 R=    0.0000 C=    0.0000
 XYZ=   -1.5508    3.0147    3.1128 Q=    0.0099 A=    0.0000 R=    0.0000 C=    0.0000
 XYZ=   -0.8749   -2.8634    2.0393 Q=    0.0099 A=    0.0000 R=    0.0000 C=    0.0000
 XYZ=   -1.8071   -3.5534    1.0667 Q=    0.0099 A=    0.0000 R=    0.0000 C=    0.0000
 XYZ=    2.4743    4.3331   -1.8586 Q=    0.0099 A=    0.0000 R=    0.0000 C=    0.0000
 XYZ=    5.9817    0.4780    1.9850 Q=   -0.0198 A=    0.0000 R=    0.0000 C=    0.0000
 XYZ=    5.2443    0.9629    1.6144 Q=    0.0099 A=    0.0000 R=    0.0000 C=    0.0000
 XYZ=    4.0278    2.3235   -1.3045 Q=   -0.0198 A=    0.0000 R=    0.0000 C=    0.0000
 XYZ=    4.8026    1.8991   -1.6732 Q=    0.0099 A=    0.0000 R=    0.0000 C=    0.0000
 XYZ=    4.3316    3.1935   -1.0457 Q=    0.0099 A=    0.0000 R=    0.0000 C=    0.0000
 XYZ=    1.0141    5.1936    1.0314 Q=   -0.0198 A=    0.0000 R=    0.0000 C=    0.0000
 XYZ=    3.3402    2.8025    0.8724 Q=    0.0099 A=    0.0000 R=    0.0000 C=    0.0000
 XYZ=   -5.0013    1.3243    2.9210 Q=   -0.0198 A=    0.0000 R=    0.0000 C=    0.0000
 XYZ=   -4.1680    1.7947    2.9476 Q=    0.0099 A=    0.0000 R=    0.0000 C=    0.0000
 XYZ=   -5.0271   -3.0960   -1.5154 Q=    0.0099 A=    0.0000 R=    0.0000 C=    0.0000
 XYZ=   -5.1044   -0.4656    3.4081 Q=    0.0099 A=    0.0000 R=    0.0000 C=    0.0000
 XYZ=   -5.0405   -0.2926   -2.0055 Q=    0.0099 A=    0.0000 R=    0.0000 C=    0.0000
 XYZ=   -0.8335    4.9905    0.9960 Q=    0.0099 A=    0.0000 R=    0.0000 C=    0.0000
 XYZ=   -1.8092    5.5200   -0.0329 Q=    0.0099 A=    0.0000 R=    0.0000 C=    0.0000
 XYZ=   -1.1226    0.0156   -3.6035 Q=   -0.0198 A=    0.0000 R=    0.0000 C=    0.0000
 XYZ=   -1.5915   -0.2261   -2.8049 Q=    0.0099 A=    0.0000 R=    0.0000 C=    0.0000
 XYZ=   -6.2153   -2.7144   -0.3161 Q=   -0.0198 A=    0.0000 R=    0.0000 C=    0.0000
 XYZ=   -6.3583   -1.7687   -0.3537 Q=    0.0099 A=    0.0000 R=    0.0000 C=    0.0000
 XYZ=   -5.8648   -2.8690    0.5611 Q=    0.0099 A=    0.0000 R=    0.0000 C=    0.0000
 XYZ=   -1.5438   -3.9486   -0.7375 Q=   -0.0198 A=    0.0000 R=    0.0000 C=    0.0000
 XYZ=   -2.0854   -3.2870   -1.1679 Q=    0.0099 A=    0.0000 R=    0.0000 C=    0.0000
 XYZ=   -6.5985   -0.0945   -1.0189 Q=   -0.0198 A=    0.0000 R=    0.0000 C=    0.0000
 XYZ=   -4.7346   -3.4129    1.9419 Q=   -0.0198 A=    0.0000 R=    0.0000 C=    0.0000
 XYZ=   -3.7847   -3.3889    2.0572 Q=    0.0099 A=    0.0000 R=    0.0000 C=    0.0000
 XYZ=   -5.0597   -2.6925    2.4819 Q=    0.0099 A=    0.0000 R=    0.0000 C=    0.0000
 XYZ=   -1.9914    2.8450    2.2802 Q=   -0.0198 A=    0.0000 R=    0.0000 C=    0.0000
 XYZ=   -2.0607    3.7052    1.8662 Q=    0.0099 A=    0.0000 R=    0.0000 C=    0.0000
 XYZ=    6.6492    0.6647   -0.8205 Q=   -0.0198 A=    0.0000 R=    0.0000 C=    0.0000
 XYZ=    6.4415   -0.2667   -0.7457 Q=    0.0099 A=    0.0000 R=    0.0000 C=    0.0000
 XYZ=    6.2247   -1.0873    1.9143 Q=    0.0099 A=    0.0000 R=    0.0000 C=    0.0000
 XYZ=    5.5042   -3.9414   -0.6269 Q=    0.0099 A=    0.0000 R=    0.0000 C=    0.0000
 XYZ=    0.0446   -0.0108    3.1890 Q=    0.0099 A=    0.0000 R=    0.0000 C=    0.0000
 XYZ=   -0.3978    5.2373    1.3355 Q=    0.0099 A=    0.0000 R=    0.0000 C=    0.0000
 XYZ=    0.6710   -3.1796   -0.3630 Q=   -0.0198 A=    0.0000 R=    0.0000 C=    0.0000
 XYZ=   -0.1811   -3.2176   -0.7973 Q=    0.0099 A=    0.0000 R=    0.0000 C=    0.0000
 XYZ=    0.7176   -2.2935   -0.0039 Q=    0.0099 A=    0.0000 R=    0.0000 C=    0.0000
 XYZ=    2.9792   -0.1672    3.1517 Q=   -0.0198 A=    0.0000 R=    0.0000 C=    0.0000
 XYZ=    2.3804    0.0215    2.4291 Q=    0.0099 A=    0.0000 R=    0.0000 C=    0.0000
 XYZ=    1.7381   -2.0135    3.5528 Q=    0.0099 A=    0.0000 R=    0.0000 C=    0.0000
 XYZ=   -0.6418   -2.7566    1.6778 Q=    0.0099 A=    0.0000 R=    0.0000 C=    0.0000
 XYZ=    2.7169    3.3675   -2.4297 Q=    0.0099 A=    0.0000 R=    0.0000 C=    0.0000
 XYZ=    5.8195    0.7166    2.1629 Q=   -0.0198 A=    0.0000 R=    0.0000 C=    0.0000
 XYZ=    5.3588    1.4397    1.7373 Q=    0.0099 A=    0.0000 R=    0.0000 C=    0.0000
 XYZ=    4.4090    2.2946   -1.2192 Q=   -0.0198 A=    0.0000 R=    0.0000 C=    0.0000
 XYZ=    5.2111    1.7855   -1.1024 Q=    0.0099 A=    0.0000 R=    0.0000 C=    0.0000
 XYZ=    2.2569    5.2896    0.4043 Q=    0.0099 A=    0.0000 R=    0.0000 C=    0.0000
 XYZ=    2.8267    3.2965    1.3301 Q=    0.0099 A=    0.0000 R=    0.0000 C=    0.0000
 XYZ=   -4.6591    1.3819    2.8769 Q=   -0.0198 A=    0.0000 R=    0.0000 C=    0.0000
 XYZ=   -5.2832   -3.1928   -1.5011 Q=    0.0099 A=    0.0000 R=    0.0000 C=    0.0000
 XYZ=   -4.5186   -1.0700    4.1057 Q=   -0.0198 A=    0.0000 R=    0.0000 C=    0.0000
 XYZ=   -4.5391   -0.3161    3.5162 Q=    0.0099 A=    0.0000 R=    0.0000 C=    0.0000
 XYZ=   -1.3039    5.2281    1.0269 Q=   -0.0198 A=    0.0000 R=    0.0000 C=    0.0000
 XYZ=   -1.2328    5.1182    0.0787 Q=    0.0099 A=    0.0000 R=    0.0000 C=    0.0000
 XYZ=   -0.9809    0.5149   -3.5715 Q=   -0.0198 A=    0.0000 R=    0.0000 C=    0.0000
 XYZ=   -1.3035   -0.3585   -3.7938 Q=    0.0099 A=    0.0000 R=    0.0000 C=    0.0000
 XYZ=   -1.7612    1.0692   -3.5858 Q=    0.0099 A=    0.0000 R=    0.0000 C=    0.0000
 XYZ=   -1.9949   -3.9906   -0.9621 Q=   -0.0198 A=    0.0000 R=    0.0000 C=    0.0000
 XYZ=   -2.4290   -3.3912   -1.5691 Q=    0.0099 A=    0.0000 R=    0.0000 C=    0.0000
 XYZ=   -1.3980    4.7543   -1.7451 Q=   -0.0198 A=    0.0000 R=    0.0000 C=    0.0000
 XYZ=   -2.2945    4.5005   -1.9646 Q=    0.0099 A=    0.0000 R=    0.0000 C=    0.0000
 XYZ=   -0.8724    4.4355   -2.4788 Q=    0.0099 A=    0.0000 R=    0.0000 C=    0.0000
 XYZ=   -4.1445   -3.3368    2.1073 Q=   -0.0198 A=    0.0000 R=    0.0000 C=    0.0000
 XYZ=   -3.2415   -3.1651    1.8400 Q=    0.0099 A=    0.0000 R=    0.0000 C=    0.0000
 XYZ=   -4.3460   -2.6400    2.7319 Q=    0.0099 A=    0.0000 R=    0.0000 C=    0.0000
 XYZ=   -3.9474    1.5803    2.2684 Q=    0.0099 A=    0.0000 R=    0.0000 C=    0.0000
 XYZ=   -2.6659    3.2262    2.2097 Q=   -0.0198 A=    0.0000 R=    0.0000 C=    0.0000
 XYZ=   -2.2648    4.0299    1.8790 Q=    0.0099 A=    0.0000 R=    0.0000 C=    0.0000
 XYZ=    2.0066    3.4201   -3.0692 Q=   -0.0198 A=    0.0000 R=    0.0000 C=    0.0000
 XYZ=    0.8525    0.8999   -3.9339 Q=    0.0099 A=    0.0000 R=    0.0000 C=    0.0000
 XYZ=    6.2327    0.3372   -1.1513 Q=   -0.0198 A=    0.0000 R=    0.0000 C=    0.0000
 XYZ=    6.4682   -0.5903   -1.1746 Q=    0.0099 A=    0.0000 R=    0.0000 C=    0.0000
 XYZ=    6.6368    0.6668   -0.3486 Q=    0.0099 A=    0.0000 R=    0.0000 C=    0.0000
 XYZ=    6.2133   -1.9551    1.4482 Q=   -0.0198 A=    0.0000 R=    0.0000 C=    0.0000
 XYZ=    5.7524   -1.1587    1.7118 Q=    0.0099 A=    0.0000 R=    0.0000 C=    0.0000
 XYZ=    4.2950   -4.6625    0.3671 Q=    0.0099 A=    0.0000 R=    0.0000 C=    0.0000
 XYZ=    4.8165   -4.2628   -0.9964 Q=    0.0099 A=    0.0000 R=    0.0000 C=    0.0000
 XYZ=   -0.2524   -0.1570    3.8504 Q=   -0.0198 A=    0.0000 R=    0.0000 C=    0.0000
 XYZ=    0.1505   -0.5947    3.1006 Q=    0.0099 A=    0.0000 R=    0.0000 C=    0.0000
 XYZ=    1.0010   -2.6617   -0.6265 Q=    0.0099 A=    0.0000 R=    0.0000 C=    0.0000
 XYZ=    1.1212    2.7125    3.3736 Q=    0.0099 A=    0.0000 R=    0.0000 C=    0.0000
 XYZ=    2.8861   -0.2766    3.1556 Q=   -0.0198 A=    0.0000 R=    0.0000 C=    0.0000
 XYZ=    2.1767   -0.5228    2.5620 Q=    0.0099 A=    0.0000 R=    0.0000 C=    0.0000
 XYZ=   -1.1040   -2.7179    1.9639 Q=    0.0099 A=    0.0000 R=    0.0000 C=    0.0000
 XYZ=   -1.8347   -3.7037    1.0778 Q=    0.0099 A=    0.0000 R=    0.0000 C=    0.0000
 XYZ=    2.8917    3.2277   -2.4700 Q=    0.0099 A=    0.0000 R=    0.0000 C=    0.0000
 XYZ=    5.5272    1.0507    2.6257 Q=   -0.0198 A=    0.0000 R=    0.0000 C=    0.0000
 XYZ=    4.8538    1.6364    2.2796 Q=    0.0099 A=    0.0000 R=    0.0000 C=    0.0000
 XYZ=    4.0711    1.9609   -1.7764 Q=   -0.0198 A=    0.0000 R=    0.0000 C=    0.0000
 XYZ=    4.7451    1.2934   -1.6484 Q=    0.0099 A=    0.0000 R=    0.0000 C=    0.0000
 XYZ=    4.5342    2.7921   -1.6719 Q=    0.0099 A=    0.0000 R=    0.0000 C=    0.0000
 XYZ=    1.5211    5.0352    1.3776 Q=   -0.0198 A=    0.0000 R=    0.0000 C=    0.0000
 XYZ=    2.3373    5.1957    0.9041 Q=    0.0099 A=    0.0000 R=    0.0000 C=    0.0000
 XYZ=    3.4517    2.3294    0.8149 Q=    0.0099 A=    0.0000 R=    0.0000 C=    0.0000
 XYZ=    3.2615    0.5129    2.7657 Q=    0.0099 A=    0.0000 R=    0.0000 C=    0.0000
 XYZ=   -4.2382   -0.7067    4.1721 Q=   -0.0198 A=    0.0000 R=    0.0000 C=    0.0000
 XYZ=   -4.2671    0.2149    3.9150 Q=    0.0099 A=    0.0000 R=    0.0000 C=    0.0000
 XYZ=   -4.1020   -1.2503   -2.9628 Q=    0.0099 A=    0.0000 R=    0.0000 C=    0.0000
 XYZ=   -1.3265    5.3112    1.0151 Q=   -0.0198 A=    0.0000 R=    0.0000 C=    0.0000
 XYZ=   -0.4570    4.9124    0.9804 Q=    0.0099 A=    0.0000 R=    0.0000 C=    0.0000
 XYZ=   -1.5643    5.4473    0.0980 Q=    0.0099 A=    0.0000 R=    0.0000 C=    0.0000
 XYZ=   -0.9451    0.5078   -3.7631 Q=   -0.0198 A=    0.0000 R=    0.0000 C=    0.0000
 XYZ=   -1.1997    0.0257   -2.9763 Q=    0.0099 A=    0.0000 R=    0.0000 C=    0.0000
 XYZ=   -6.3536   -2.6214   -0.3998 Q=   -0.0198 A=    0.0000 R=    0.0000 C=    0.0000
 XYZ=   -6.4088   -1.6680   -0.3342 Q=    0.0099 A=    0.0000 R=    0.0000 C=    0.0000
 XYZ=   -1.9694   -3.7697   -1.3945 Q=    0.0099 A=    0.0000 R=    0.0000 C=    0.0000
 XYZ=   -4.4772   -3.1515    2.6817 Q=   -0.0198 A=    0.0000 R=    0.0000 C=    0.0000
 XYZ=   -3.6289   -3.1216    2.2394 Q=    0.0099 A=    0.0000 R=    0.0000 C=    0.0000
 XYZ=   -4.6157   -2.2576    2.9949 Q=    0.0099 A=    0.0000 R=    0.0000 C=    0.0000
 XYZ=   -2.1899    4.0205    1.8310 Q=    0.0099 A=    0.0000 R=    0.0000 C=    0.0000
 XYZ=    0.9261    0.6059   -4.0671 Q=    0.0099 A=    0.0000 R=    0.0000 C=    0.0000
 XYZ=    6.6333   -0.5293   -1.4794 Q=    0.0099 A=    0.0000 R=    0.0000 C=    0.0000
 XYZ=    5.8658   -2.7913   -2.5216 Q=    0.0099 A=    0.0000 R=    0.0000 C=    0.0000
 XYZ=    4.3258   -3.5412    2.6638 Q=    0.0099 A=    0.0000 R=    0.0000 C=    0.0000
 XYZ=    6.4460   -1.7828    1.4879 Q=   -0.0198 A=    0.0000 R=    0.0000 C=    0.0000
 XYZ=    6.1077   -0.9677    1.8585 Q=    0.0099 A=    0.0000 R=    0.0000 C=    0.0000
 XYZ=    5.0455   -3.9876   -1.1499 Q=    0.0099 A=    0.0000 R=    0.0000 C=    0.0000
 XYZ=    6.7043   -2.2939   -0.2033 Q=    0.0099 A=    0.0000 R=    0.0000 C=    0.0000
 XYZ=   -0.3102    0.0812    3.2646 Q=    0.0099 A=    0.0000 R=    0.0000 C=    0.0000
 XYZ=    1.5065   -3.2871   -0.8503 Q=   -0.0198 A=    0.0000 R=    0.0000 C=    0.0000
 XYZ=    1.2421   -2.3933   -0.6322 Q=    0.0099 A=    0.0000 R=    0.0000 C=    0.0000
 XYZ=    2.6693   -0.9202    2.8665 Q=    0.0099 A=    0.0000 R=    0.0000 C=    0.0000
 XYZ=   -0.8838   -3.0680    2.1546 Q=    0.0099 A=    0.0000 R=    0.0000 C=    0.0000
 XYZ=   -1.6262   -3.5975    0.9465 Q=    0.0099 A=    0.0000 R=    0.0000 C=    0.0000
 XYZ=    2.5580    3.8666   -2.1586 Q=    0.0099 A=    0.0000 R=    0.0000 C=    0.0000
 XYZ=    5.6340    0.7621    2.1643 Q=   -0.0198 A=    0.0000 R=    0.0000 C=    0.0000
 XYZ=    4.7981    1.1332    1.8817 Q=    0.0099 A=    0.0000 R=    0.0000 C=    0.0000
 XYZ=    3.7235    2.3623   -0.9205 Q=   -0.0198 A=    0.0000 R=    0.0000 C=    0.0000
 XYZ=    4.5653    1.9543   -1.1234 Q=    0.0099 A=    0.0000 R=    0.0000 C=    0.0000
 XYZ=    3.9207    3.2963   -0.8506 Q=    0.0099 A=    0.0000 R=    0.0000 C=    0.0000
 XYZ=    0.8588    5.0240    1.6292 Q=   -0.0198 A=    0.0000 R=    0.0000 C=    0.0000
 XYZ=    1.6326    5.2082    1.0967 Q=    0.0099 A=    0.0000 R=    0.0000 C=    0.0000
 XYZ=    3.4626    2.5123    0.8712 Q=    0.0099 A=    0.0000 R=    0.0000 C=    0.0000
 XYZ=    2.0895    2.6520    3.1720 Q=    0.0099 A=    0.0000 R=    0.0000 C=    0.0000
 XYZ=   -2.1944    5.2973    0.0224 Q=    0.0099 A=    0.0000 R=    0.0000 C=    0.0000
 XYZ=   -6.2886    1.1378   -1.0538 Q=    0.0099 A=    0.0000 R=    0.0000 C=    0.0000
 XYZ=   -4.1359   -0.9005    4.0712 Q=   -0.0198 A=    0.0000 R=    0.0000 C=    0.0000
 XYZ=   -3.9407   -0.0004    3.8104 Q=    0.0099 A=    0.0000 R=    0.0000 C=    0.0000
 XYZ=   -3.5402   -1.7153   -2.9667 Q=    0.0099 A=    0.0000 R=    0.0000 C=    0.0000
 XYZ=   -4.5149   -0.7132   -2.3864 Q=    0.0099 A=    0.0000 R=    0.0000 C=    0.0000
 XYZ=   -0.9946    4.9662    0.8838 Q=    0.0099 A=    0.0000 R=    0.0000 C=    0.0000
 XYZ=   -1.1609    0.4307   -3.2957 Q=   -0.0198 A=    0.0000 R=    0.0000 C=    0.0000
 XYZ=   -1.4098   -0.2160   -2.6354 Q=    0.0099 A=    0.0000 R=    0.0000 C=    0.0000
 XYZ=   -6.1348   -1.7293   -0.7685 Q=    0.0099 A=    0.0000 R=    0.0000 C=    0.0000
 XYZ=   -1.1777   -3.9165   -0.7498 Q=   -0.0198 A=    0.0000 R=    0.0000 C=    0.0000
 XYZ=   -1.5451   -3.0856   -1.0513 Q=    0.0099 A=    0.0000 R=    0.0000 C=    0.0000
 XYZ=   -6.4781    0.2006   -1.0084 Q=   -0.0198 A=    0.0000 R=    0.0000 C=    0.0000
 XYZ=    0.5153    0.8626   -3.7280 Q=    0.0099 A=    0.0000 R=    0.0000 C=    0.0000
 XYZ=   -3.8622   -3.2913    2.2127 Q=    0.0099 A=    0.0000 R=    0.0000 C=    0.0000
 XYZ=   -4.6605   -2.4491    3.1845 Q=    0.0099 A=    0.0000 R=    0.0000 C=    0.0000
 XYZ=    1.9494    3.9237   -2.8952 Q=   -0.0198 A=    0.0000 R=    0.0000 C=    0.0000
 XYZ=    1.4060    1.0080   -4.0471 Q=   -0.0198 A=    0.0000 R=    0.0000 C=    0.0000
 XYZ=    6.6610    0.1293   -1.4239 Q=    0.0099 A=    0.0000 R=    0.0000 C=    0.0000
 XYZ=    5.4227   -3.0948   -2.9986 Q=   -0.0198 A=    0.0000 R=    0.0000 C=    0.0000
 XYZ=    6.0497   -2.5914   -2.4793 Q=    0.0099 A=    0.0000 R=    0.0000 C=    0.0000
 XYZ=    4.0612   -4.6400    0.1666 Q=    0.0099 A=    0.0000 R=    0.0000 C=    0.0000
 XYZ=   -1.1629    0.2502    3.2903 Q=    0.0099 A=    0.0000 R=    0.0000 C=    0.0000
 XYZ=    1.1761   -3.5381    0.3976 Q=    0.0099 A=    0.0000 R=    0.0000 C=    0.0000
 XYZ=    2.5944   -0.4814    3.1939 Q=   -0.0198 A=    0.0000 R=    0.0000 C=    0.0000
 XYZ=    2.1117   -0.8721    2.4655 Q=    0.0099 A=    0.0000 R=    0.0000 C=    0.0000
 XYZ=    2.3951    0.4533    3.1394 Q=    0.0099 A=    0.0000 R=    0.0000 C=    0.0000
 XYZ=   -1.8741    3.1094    2.5249 Q=   -0.0198 A=    0.0000 R=    0.0000 C=    0.0000
 XYZ=   -1.3084   -2.9379    1.7889 Q=   -0.0198 A=    0.0000 R=    0.0000 C=    0.0000
 XYZ=   -0.9354   -2.0655    1.6621 Q=    0.0099 A=    0.0000 R=    0.0000 C=    0.0000
 XYZ=   -1.2917   -3.3345    0.9178 Q=    0.0099 A=    0.0000 R=    0.0000 C=    0.0000
 XYZ=    2.0882    3.7209   -1.6487 Q=    0.0099 A=    0.0000 R=    0.0000 C=    0.0000
 XYZ=    5.9408    0.2172    2.5679 Q=   -0.0198 A=    0.0000 R=    0.0000 C=    0.0000
 XYZ=    5.2433    0.3888    1.9352 Q=    0.0099 A=    0.0000 R=    0.0000 C=    0.0000
 XYZ=    4.1468    2.2916   -1.1912 Q=   -0.0198 A=    0.0000 R=    0.0000 C=    0.0000
 XYZ=    4.9747    1.8258   -1.3090 Q=    0.0099 A=    0.0000 R=    0.0000 C=    0.0000
 XYZ=    4.2612    3.1094   -1.6753 Q=    0.0099 A=    0.0000 R=    0.0000 C=    0.0000
 XYZ=    3.7910    2.0416    1.6448 Q=   -0.0198 A=    0.0000 R=    0.0000 C=    0.0000
 XYZ=    4.0153    1.9070    0.7240 Q=    0.0099 A=    0.0000 R=    0.0000 C=    0.0000
 XYZ=   -4.2789    1.6864    2.7721 Q=   -0.0198 A=    0.0000 R=    0.0000 C=    0.0000
 XYZ=   -6.1995    0.2810    2.0339 Q=    0.0099 A=    0.0000 R=    0.0000 C=    0.0000
 XYZ=   -4.6664   -3.7332   -1.3974 Q=    0.0099 A=    0.0000 R=    0.0000 C=    0.0000
 XYZ=   -4.0671   -0.5715    4.1526 Q=   -0.0198 A=    0.0000 R=    0.0000 C=    0.0000
 XYZ=   -4.2196    0.2502    3.6859 Q=    0.0099 A=    0.0000 R=    0.0000 C=    0.0000
 XYZ=   -3.9262   -1.3795   -3.1579 Q=   -0.0198 A=    0.0000 R=    0.0000 C=    0.0000
 XYZ=   -3.4994   -1.4761   -2.3066 Q=    0.0099 A=    0.0000 R=    0.0000 C=    0.0000
 XYZ=   -0.8445    5.4350    0.9219 Q=    0.0099 A=    0.0000 R=    0.0000 C=    0.0000
 XYZ=   -1.1057   -0.0690   -3.4371 Q=    0.0099 A=    0.0000 R=    0.0000 C=    0.0000
 XYZ=   -6.1118   -2.5214   -0.9480 Q=   -0.0198 A=    0.0000 R=    0.0000 C=    0.0000
 XYZ=   -6.1712   -1.5672   -0.9957 Q=    0.0099 A=    0.0000 R=    0.0000 C=    0.0000
 XYZ=   -1.3680   -3.9709   -0.7931 Q=   -0.0198 A=    0.0000 R=    0.0000 C=    0.0000
 XYZ=   -1.7508   -3.2639   -1.3126 Q=    0.0099 A=    0.0000 R=    0.0000 C=    0.0000
 XYZ=   -6.6140    0.0630   -0.9509 Q=   -0.0198 A=    0.0000 R=    0.0000 C=    0.0000
 XYZ=   -6.1242    0.8714   -1.1021 Q=    0.0099 A=    0.0000 R=    0.0000 C=    0.0000
 XYZ=   -4.4256   -3.4145    2.2574 Q=   -0.0198 A=    0.0000 R=    0.0000 C=    0.0000
 XYZ=   -3.5100   -3.6071    2.0556 Q=    0.0099 A=    0.0000 R=    0.0000 C=    0.0000
 XYZ=   -4.3974   -2.5795    2.7246 Q=    0.0099 A=    0.0000 R=    0.0000 C=    0.0000
 XYZ=   -3.4584    2.1745    2.7032 Q=    0.0099 A=    0.0000 R=    0.0000 C=    0.0000
 XYZ=   -1.7443    3.7249    1.8034 Q=    0.0099 A=    0.0000 R=    0.0000 C=    0.0000
 XYZ=    1.8053    3.6555   -2.5608 Q=   -0.0198 A=    0.0000 R=    0.0000 C=    0.0000
 XYZ=    1.7378    2.7147   -2.7237 Q=    0.0099 A=    0.0000 R=    0.0000 C=    0.0000
 XYZ=    1.7663    1.2076   -3.5109 Q=   -0.0198 A=    0.0000 R=    0.0000 C=    0.0000
 XYZ=    0.8162    1.1240   -3.5917 Q=    0.0099 A=    0.0000 R=    0.0000 C=    0.0000
 XYZ=    4.6044   -2.6276   -2.9520 Q=   -0.0198 A=    0.0000 R=    0.0000 C=    0.0000
 XYZ=    4.4583   -1.8446   -3.4828 Q=    0.0099 A=    0.0000 R=    0.0000 C=    0.0000
 XYZ=    5.2764   -2.3679   -2.3218 Q=    0.0099 A=    0.0000 R=    0.0000 C=    0.0000
 XYZ=    4.7000   -4.1575   -0.1434 Q=   -0.0198 A=    0.0000 R=    0.0000 C=    0.0000
 XYZ=    3.8880   -3.6573   -0.0616 Q=    0.0099 A=    0.0000 R=    0.0000 C=    0.0000
 XYZ=    6.6779   -2.1027   -1.1543 Q=   -0.0198 A=    0.0000 R=    0.0000 C=    0.0000
 XYZ=   -3.6773   -0.7123    4.0617 Q=   -0.0198 A=    0.0000 R=    0.0000 C=    0.0000
 XYZ=   -0.9658   -3.6376   -0.7558 Q=   -0.0198 A=    0.0000 R=    0.0000 C=    0.0000
 XYZ=    1.7664   -3.9574   -0.3030 Q=   -0.0198 A=    0.0000 R=    0.0000 C=    0.0000
 XYZ=    1.6807   -3.8154    0.6397 Q=    0.0099 A=    0.0000 R=    0.0000 C=    0.0000
 XYZ=    2.7565   -0.1592    3.0340 Q=   -0.0198 A=    0.0000 R=    0.0000 C=    0.0000
 XYZ=    2.1329   -0.4927    2.3889 Q=    0.0099 A=    0.0000 R=    0.0000 C=    0.0000
 XYZ=   -0.3468   -3.0586    1.7959 Q=   -0.0198 A=    0.0000 R=    0.0000 C=    0.0000
 XYZ=   -0.0111   -2.1642    1.7350 Q=    0.0099 A=    0.0000 R=    0.0000 C=    0.0000
 XYZ=   -0.7098   -3.2378    0.9286 Q=    0.0099 A=    0.0000 R=    0.0000 C=    0.0000
 XYZ=    2.2353    3.2714   -2.9841 Q=    0.0099 A=    0.0000 R=    0.0000 C=    0.0000
 XYZ=    2.4337    4.3365   -1.9271 Q=    0.0099 A=    0.0000 R=    0.0000 C=    0.0000
 XYZ=    4.5478    2.2777   -1.6311 Q=   -0.0198 A=    0.0000 R=    0.0000 C=    0.0000
 XYZ=    4.2439    1.5697   -2.1992 Q=    0.0099 A=    0.0000 R=    0.0000 C=    0.0000
 XYZ=    4.2447    2.2454    1.4108 Q=   -0.0198 A=    0.0000 R=    0.0000 C=    0.0000
 XYZ=    4.2001    2.4805    0.4840 Q=    0.0099 A=    0.0000 R=    0.0000 C=    0.0000
 XYZ=    2.0066    0.2800   -3.3941 Q=    0.0099 A=    0.0000 R=    0.0000 C=    0.0000
 XYZ=    3.0321    0.6884    2.6849 Q=    0.0099 A=    0.0000 R=    0.0000 C=    0.0000
 XYZ=   -4.4531   -3.9260   -1.3122 Q=    0.0099 A=    0.0000 R=    0.0000 C=    0.0000
 XYZ=   -3.8199    0.1649    3.7062 Q=    0.0099 A=    0.0000 R=    0.0000 C=    0.0000
 XYZ=   -3.3931   -1.7052   -3.5430 Q=   -0.0198 A=    0.0000 R=    0.0000 C=    0.0000
 XYZ=   -2.7323   -1.1223   -3.9168 Q=    0.0099 A=    0.0000 R=    0.0000 C=    0.0000
 XYZ=   -2.9097   -2.4983   -3.3116 Q=    0.0099 A=    0.0000 R=    0.0000 C=    0.0000
 XYZ=   -1.1978    0.8402   -3.5691 Q=    0.0099 A=    0.0000 R=    0.0000 C=    0.0000
 XYZ=   -6.0603   -2.8424   -0.6897 Q=   -0.0198 A=    0.0000 R=    0.0000 C=    0.0000
 XYZ=   -5.8039   -1.9221   -0.7503 Q=    0.0099 A=    0.0000 R=    0.0000 C=    0.0000
 XYZ=   -1.3068   -2.7651   -0.9524 Q=    0.0099 A=    0.0000 R=    0.0000 C=    0.0000
 XYZ=   -1.6523   -4.2354   -1.0516 Q=    0.0099 A=    0.0000 R=    0.0000 C=    0.0000
 XYZ=   -6.1482    0.0182   -0.6495 Q=   -0.0198 A=    0.0000 R=    0.0000 C=    0.0000
 XYZ=   -5.6689    0.6907   -1.1334 Q=    0.0099 A=    0.0000 R=    0.0000 C=    0.0000
 XYZ=   -4.0148   -3.3806    2.6068 Q=   -0.0198 A=    0.0000 R=    0.0000 C=    0.0000
 XYZ=   -4.3828   -3.4393    1.7251 Q=    0.0099 A=    0.0000 R=    0.0000 C=    0.0000
 XYZ=   -4.2672   -2.5099    2.9141 Q=    0.0099 A=    0.0000 R=    0.0000 C=    0.0000
 XYZ=   -2.3891    3.3480    2.5437 Q=   -0.0198 A=    0.0000 R=    0.0000 C=    0.0000
 XYZ=   -1.9251    3.9724    1.9859 Q=    0.0099 A=    0.0000 R=    0.0000 C=    0.0000
 XYZ=    1.8098    1.2014   -3.2250 Q=   -0.0198 A=    0.0000 R=    0.0000 C=    0.0000
 XYZ=    0.9590    1.3445   -3.6395 Q=    0.0099 A=    0.0000 R=    0.0000 C=    0.0000
 XYZ=    3.6858   -4.2942   -0.1775 Q=    0.0099 A=    0.0000 R=    0.0000 C=    0.0000
 XYZ=    4.8295   -2.6820   -3.3845 Q=   -0.0198 A=    0.0000 R=    0.0000 C=    0.0000
 XYZ=    4.3319   -1.8658   -3.4359 Q=    0.0099 A=    0.0000 R=    0.0000 C=    0.0000
 XYZ=    5.5947   -2.4630   -2.8528 Q=    0.0099 A=    0.0000 R=    0.0000 C=    0.0000
 XYZ=    4.3037   -3.4722    2.8354 Q=    0.0099 A=    0.0000 R=    0.0000 C=    0.0000
 XYZ=    6.0606   -2.4015    1.6925 Q=    0.0099 A=    0.0000 R=    0.0000 C=    0.0000
 XYZ=    4.6369   -4.2989   -0.2851 Q=   -0.0198 A=    0.0000 R=    0.0000 C=    0.0000
 XYZ=    4.7917   -3.7739   -1.0703 Q=    0.0099 A=    0.0000 R=    0.0000 C=    0.0000
 XYZ=    6.7399   -2.2965   -1.5510 Q=   -0.0198 A=    0.0000 R=    0.0000 C=    0.0000
 XYZ=    6.6576   -2.1694   -0.6059 Q=    0.0099 A=    0.0000 R=    0.0000 C=    0.0000
 XYZ=    0.0253    0.6473    3.6695 Q=    0.0099 A=    0.0000 R=    0.0000 C=    0.0000
 XYZ=   -3.2738   -0.9467    4.1899 Q=   -0.0198 A=    0.0000 R=    0.0000 C=    0.0000
 XYZ=   -3.8330   -0.1933    4.3795 Q=    0.0099 A=    0.0000 R=    0.0000 C=    0.0000
 XYZ=   -2.4160   -0.5666    4.0004 Q=    0.0099 A=    0.0000 R=    0.0000 C=    0.0000
 XYZ=    1.6592   -4.0723   -0.1916 Q=   -0.0198 A=    0.0000 R=    0.0000 C=    0.0000
 XYZ=    1.1976   -3.7973    0.6006 Q=    0.0099 A=    0.0000 R=    0.0000 C=    0.0000
 XYZ=   -3.7014   -2.4227    3.5139 Q=    0.0099 A=    0.0000 R=    0.0000 C=    0.0000
 XYZ=   -1.5813    2.5718    2.6378 Q=    0.0099 A=    0.0000 R=    0.0000 C=    0.0000
 XYZ=   -0.6595   -3.0203    2.1079 Q=   -0.0198 A=    0.0000 R=    0.0000 C=    0.0000
 XYZ=   -0.1159   -2.2525    1.9312 Q=    0.0099 A=    0.0000 R=    0.0000 C=    0.0000
 XYZ=   -1.5576   -2.7088    1.9957 Q=    0.0099 A=    0.0000 R=    0.0000 C=    0.0000
 XYZ=    4.4388    1.4828   -1.4802 Q=   -0.0198 A=    0.0000 R=    0.0000 C=    0.0000
 XYZ=    5.1571    1.0723   -1.9615 Q=    0.0099 A=    0.0000 R=    0.0000 C=    0.0000
 XYZ=    3.7705    1.6508   -2.1446 Q=    0.0099 A=    0.0000 R=    0.0000 C=    0.0000
 XYZ=    4.6403    1.8908    1.2526 Q=   -0.0198 A=    0.0000 R=    0.0000 C=    0.0000
 XYZ=    4.6575    1.8857    0.2956 Q=    0.0099 A=    0.0000 R=    0.0000 C=    0.0000
 XYZ=    2.0346    1.2578   -3.2946 Q=   -0.0198 A=    0.0000 R=    0.0000 C=    0.0000
 XYZ=    2.0999    0.3032   -3.3178 Q=    0.0099 A=    0.0000 R=    0.0000 C=    0.0000
 XYZ=    2.0859    2.9444    3.0378 Q=    0.0099 A=    0.0000 R=    0.0000 C=    0.0000
 XYZ=    3.4864    0.6237    2.7170 Q=    0.0099 A=    0.0000 R=    0.0000 C=    0.0000
 XYZ=   -1.8353    5.2679    0.6767 Q=   -0.0198 A=    0.0000 R=    0.0000 C=    0.0000
 XYZ=   -4.5078   -3.7925   -1.4030 Q=    0.0099 A=    0.0000 R=    0.0000 C=    0.0000
 XYZ=   -3.9560   -1.3955   -3.0295 Q=   -0.0198 A=    0.0000 R=    0.0000 C=    0.0000
 XYZ=   -3.0637   -1.1289   -3.2509 Q=    0.0099 A=    0.0000 R=    0.0000 C=    0.0000
 XYZ=   -3.8488   -2.2195   -2.5543 Q=    0.0099 A=    0.0000 R=    0.0000 C=    0.0000
 XYZ=   -1.7705    5.5709   -0.2289 Q=    0.0099 A=    0.0000 R=    0.0000 C=    0.0000
 XYZ=   -5.9488   -2.9001   -0.4255 Q=   -0.0198 A=    0.0000 R=    0.0000 C=    0.0000
 XYZ=   -5.8903   -1.9471   -0.4941 Q=    0.0099 A=    0.0000 R=    0.0000 C=    0.0000
 XYZ=   -0.7987   -3.9669   -1.4643 Q=   -0.0198 A=    0.0000 R=    0.0000 C=    0.0000
 XYZ=   -1.3559   -3.1948   -1.3666 Q=    0.0099 A=    0.0000 R=    0.0000 C=    0.0000
 XYZ=   -6.1170   -0.3866   -1.2653 Q=   -0.0198 A=    0.0000 R=    0.0000 C=    0.0000
 XYZ=   -5.6648   -0.3129   -2.1057 Q=    0.0099 A=    0.0000 R=    0.0000 C=    0.0000
 XYZ=   -4.9337   -2.6604    2.6678 Q=    0.0099 A=    0.0000 R=    0.0000 C=    0.0000
 XYZ=   -3.7597    2.0172    2.6358 Q=    0.0099 A=    0.0000 R=    0.0000 C=    0.0000
 XYZ=   -2.1092    2.4901    1.8436 Q=   -0.0198 A=    0.0000 R=    0.0000 C=    0.0000
 XYZ=   -2.0800    3.3603    1.4459 Q=    0.0099 A=    0.0000 R=    0.0000 C=    0.0000
 XYZ=    1.1322    1.4425   -3.5551 Q=    0.0099 A=    0.0000 R=    0.0000 C=    0.0000
 XYZ=    4.6976   -2.7069   -3.1970 Q=   -0.0198 A=    0.0000 R=    0.0000 C=    0.0000
 XYZ=    4.2830   -1.9369   -3.5863 Q=    0.0099 A=    0.0000 R=    0.0000 C=    0.0000
 XYZ=    5.5932   -2.4269   -3.0081 Q=    0.0099 A=    0.0000 R=    0.0000 C=    0.0000
 XYZ=    4.4860   -4.0519   -0.8375 Q=   -0.0198 A=    0.0000 R=    0.0000 C=    0.0000
 XYZ=    3.5606   -4.1018   -0.5977 Q=    0.0099 A=    0.0000 R=    0.0000 C=    0.0000
 XYZ=    4.4804   -3.8513   -1.7734 Q=    0.0099 A=    0.0000 R=    0.0000 C=    0.0000
 XYZ=    1.5557   -2.2284   -2.5279 Q=   -0.0198 A=    0.0000 R=    0.0000 C=    0.0000
 XYZ=    0.6185   -2.2922   -2.3442 Q=    0.0099 A=    0.0000 R=    0.0000 C=    0.0000
 XYZ=   -0.3364   -0.0870    3.2050 Q=    0.0099 A=    0.0000 R=    0.0000 C=    0.0000
 XYZ=   -2.3636   -1.2663    4.3380 Q=    0.0099 A=    0.0000 R=    0.0000 C=    0.0000
 XYZ=   -0.7681   -3.6882   -0.6228 Q=   -0.0198 A=    0.0000 R=    0.0000 C=    0.0000
 XYZ=    1.8992   -3.7856   -0.4787 Q=   -0.0198 A=    0.0000 R=    0.0000 C=    0.0000
 XYZ=    1.0332   -3.6888   -0.0825 Q=    0.0099 A=    0.0000 R=    0.0000 C=    0.0000
 XYZ=    1.9757   -3.0388   -1.0726 Q=    0.0099 A=    0.0000 R=    0.0000 C=    0.0000
 XYZ=    1.3958    2.3192    3.7894 Q=   -0.0198 A=    0.0000 R=    0.0000 C=    0.0000
 XYZ=    1.5766    3.1497    3.3491 Q=    0.0099 A=    0.0000 R=    0.0000 C=    0.0000
 XYZ=    2.6672    0.2933    3.2501 Q=    0.0099 A=    0.0000 R=    0.0000 C=    0.0000
 XYZ=   -1.0561   -2.8358    1.9774 Q=   -0.0198 A=    0.0000 R=    0.0000 C=    0.0000
 XYZ=   -0.2056   -2.4294    1.8110 Q=    0.0099 A=    0.0000 R=    0.0000 C=    0.0000
 XYZ=   -1.3246   -3.1859    1.1280 Q=    0.0099 A=    0.0000 R=    0.0000 C=    0.0000
 XYZ=    4.9930    2.3502   -1.2281 Q=   -0.0198 A=    0.0000 R=    0.0000 C=    0.0000
 XYZ=    4.4888   -1.9618    2.9933 Q=    0.0099 A=    0.0000 R=    0.0000 C=    0.0000
 XYZ=    4.3098    1.9515    1.3797 Q=   -0.0198 A=    0.0000 R=    0.0000 C=    0.0000
 XYZ=    4.4719    1.9582    0.4363 Q=    0.0099 A=    0.0000 R=    0.0000 C=    0.0000
 XYZ=    1.8007    0.4563   -3.2273 Q=   -0.0198 A=    0.0000 R=    0.0000 C=    0.0000
 XYZ=    1.7304   -0.4235   -2.8568 Q=    0.0099 A=    0.0000 R=    0.0000 C=    0.0000
 XYZ=    3.5802    0.0686    3.0705 Q=   -0.0198 A=    0.0000 R=    0.0000 C=    0.0000
 XYZ=    3.9011    0.7874    2.5260 Q=    0.0099 A=    0.0000 R=    0.0000 C=    0.0000
 XYZ=   -4.3858    1.8252    2.6005 Q=   -0.0198 A=    0.0000 R=    0.0000 C=    0.0000
 XYZ=   -5.7606    0.6834    2.1245 Q=    0.0099 A=    0.0000 R=    0.0000 C=    0.0000
 XYZ=   -4.8929   -3.4989   -1.2281 Q=    0.0099 A=    0.0000 R=    0.0000 C=    0.0000
 XYZ=   -2.6794   -1.0903   -3.9705 Q=    0.0099 A=    0.0000 R=    0.0000 C=    0.0000
 XYZ=   -1.6625    5.3186    0.2688 Q=   -0.0198 A=    0.0000 R=    0.0000 C=    0.0000
 XYZ=   -0.7345    5.2683    0.0400 Q=    0.0099 A=    0.0000 R=    0.0000 C=    0.0000
 XYZ=   -1.3046    0.4210   -3.8228 Q=    0.0099 A=    0.0000 R=    0.0000 C=    0.0000
 XYZ=   -6.2123   -2.4677   -0.1963 Q=   -0.0198 A=    0.0000 R=    0.0000 C=    0.0000
 XYZ=   -5.8131   -1.5978   -0.2052 Q=    0.0099 A=    0.0000 R=    0.0000 C=    0.0000
 XYZ=   -0.9871   -3.0304   -1.2828 Q=    0.0099 A=    0.0000 R=    0.0000 C=    0.0000
 XYZ=   -5.7439   -0.2050   -1.7760 Q=   -0.0198 A=    0.0000 R=    0.0000 C=    0.0000
 XYZ=   -4.6291   -2.5156    2.8813 Q=   -0.0198 A=    0.0000 R=    0.0000 C=    0.0000
 XYZ=   -5.2989   -1.8322    2.8584 Q=    0.0099 A=    0.0000 R=    0.0000 C=    0.0000
 XYZ=   -3.8909   -2.1122    3.3379 Q=    0.0099 A=    0.0000 R=    0.0000 C=    0.0000
 XYZ=   -3.6576    2.3128    2.2156 Q=    0.0099 A=    0.0000 R=    0.0000 C=    0.0000
 XYZ=   -2.2149    3.4407    2.2556 Q=   -0.0198 A=    0.0000 R=    0.0000 C=    0.0000
 XYZ=   -1.9994    4.0811    1.5775 Q=    0.0099 A=    0.0000 R=    0.0000 C=    0.0000
 XYZ=    1.7681    3.2629   -3.0185 Q=    0.0099 A=    0.0000 R=    0.0000 C=    0.0000
 XYZ=    0.9845    0.5778   -3.7125 Q=    0.0099 A=    0.0000 R=    0.0000 C=    0.0000
 XYZ=    5.1435   -2.3844   -3.1146 Q=   -0.0198 A=    0.0000 R=    0.0000 C=    0.0000
 XYZ=    5.1170   -1.5826   -3.6367 Q=    0.0099 A=    0.0000 R=    0.0000 C=    0.0000
 XYZ=    5.9215   -2.2872   -2.5656 Q=    0.0099 A=    0.0000 R=    0.0000 C=    0.0000
 XYZ=    4.5716   -4.1761   -1.2419 Q=   -0.0198 A=    0.0000 R=    0.0000 C=    0.0000
 XYZ=    3.8083   -3.6636   -0.9755 Q=    0.0099 A=    0.0000 R=    0.0000 C=    0.0000
 XYZ=    4.8428   -3.7873   -2.0734 Q=    0.0099 A=    0.0000 R=    0.0000 C=    0.0000
 XYZ=    0.2097   -1.4743    4.0809 Q=    0.0099 A=    0.0000 R=    0.0000 C=    0.0000
 XYZ=    0.4343    0.0020    3.8340 Q=    0.0099 A=    0.0000 R=    0.0000 C=    0.0000
 XYZ=    2.8364   -3.6778    2.1469 Q=   -0.0198 A=    0.0000 R=    0.0000 C=    0.0000
 XYZ=    2.3626   -3.4793    1.3392 Q=    0.0099 A=    0.0000 R=    0.0000 C=    0.0000
 XYZ=    1.4319   -3.9694   -0.2768 Q=   -0.0198 A=    0.0000 R=    0.0000 C=    0.0000
 XYZ=    1.4174   -3.3991   -1.0454 Q=    0.0099 A=    0.0000 R=    0.0000 C=    0.0000
 XYZ=    1.4128    2.9295    3.5772 Q=   -0.0198 A=    0.0000 R=    0.0000 C=    0.0000
 XYZ=    0.5376    3.2679    3.7663 Q=    0.0099 A=    0.0000 R=    0.0000 C=    0.0000
 XYZ=    2.3990   -0.1669    3.2955 Q=   -0.0198 A=    0.0000 R=    0.0000 C=    0.0000
 XYZ=    1.9243   -0.3193    2.4784 Q=    0.0099 A=    0.0000 R=    0.0000 C=    0.0000
 XYZ=   -1.8086    3.7895    2.7409 Q=    0.0099 A=    0.0000 R=    0.0000 C=    0.0000
 XYZ=   -0.8281   -2.9704    2.0644 Q=   -0.0198 A=    0.0000 R=    0.0000 C=    0.0000
 XYZ=   -0.2065   -2.2533    1.9399 Q=    0.0099 A=    0.0000 R=    0.0000 C=    0.0000
 XYZ=    2.0039    3.1549   -2.7644 Q=    0.0099 A=    0.0000 R=    0.0000 C=    0.0000
 XYZ=    2.8889    4.2764   -2.2643 Q=    0.0099 A=    0.0000 R=    0.0000 C=    0.0000
 XYZ=    5.4048    1.1061    2.4419 Q=    0.0099 A=    0.0000 R=    0.0000 C=    0.0000
 XYZ=    1.8763    5.3628    0.3603 Q=    0.0099 A=    0.0000 R=    0.0000 C=    0.0000
 XYZ=    5.1509   -2.0614    2.7166 Q=   -0.0198 A=    0.0000 R=    0.0000 C=    0.0000
 XYZ=    4.3055   -2.5096    2.6891 Q=    0.0099 A=    0.0000 R=    0.0000 C=    0.0000
 XYZ=    4.9284   -1.1305    2.7226 Q=    0.0099 A=    0.0000 R=    0.0000 C=    0.0000
 XYZ=    3.9505    1.8583    1.4875 Q=   -0.0198 A=    0.0000 R=    0.0000 C=    0.0000
 XYZ=    4.0911    2.0854    0.5683 Q=    0.0099 A=    0.0000 R=    0.0000 C=    0.0000
 XYZ=    2.7227    0.1117   -3.3516 Q=   -0.0198 A=    0.0000 R=    0.0000 C=    0.0000
 XYZ=    2.4923   -0.7514   -3.0076 Q=    0.0099 A=    0.0000 R=    0.0000 C=    0.0000
 XYZ=    1.8727    3.6664    3.1750 Q=    0.0099 A=    0.0000 R=    0.0000 C=    0.0000
 XYZ=   -5.9288    1.8437   -1.0082 Q=    0.0099 A=    0.0000 R=    0.0000 C=    0.0000
 XYZ=   -4.3284    1.5748    2.8791 Q=   -0.0198 A=    0.0000 R=    0.0000 C=    0.0000
 XYZ=   -6.0599   -0.3220    2.3673 Q=   -0.0198 A=    0.0000 R=    0.0000 C=    0.0000
 XYZ=   -5.4996    0.4520    2.4238 Q=    0.0099 A=    0.0000 R=    0.0000 C=    0.0000
 XYZ=    0.3614   -1.9530   -2.6417 Q=    0.0099 A=    0.0000 R=    0.0000 C=    0.0000
 XYZ=   -5.3197   -3.6462   -0.8149 Q=    0.0099 A=    0.0000 R=    0.0000 C=    0.0000
 XYZ=   -1.6955    5.3884    0.2928 Q=   -0.0198 A=    0.0000 R=    0.0000 C=    0.0000
 XYZ=   -0.7643    5.5974    0.3671 Q=    0.0099 A=    0.0000 R=    0.0000 C=    0.0000
 XYZ=   -0.0344    0.6333   -3.8421 Q=   -0.0198 A=    0.0000 R=    0.0000 C=    0.0000
 XYZ=   -0.8677    1.0612   -4.0392 Q=    0.0099 A=    0.0000 R=    0.0000 C=    0.0000
 XYZ=   -6.3195   -1.2503   -0.5855 Q=    0.0099 A=    0.0000 R=    0.0000 C=    0.0000
 XYZ=   -1.4513   -3.8478   -0.5368 Q=   -0.0198 A=    0.0000 R=    0.0000 C=    0.0000
 XYZ=   -1.6669   -2.9684   -0.8474 Q=    0.0099 A=    0.0000 R=    0.0000 C=    0.0000
 XYZ=   -4.4695   -2.7178    2.9649 Q=   -0.0198 A=    0.0000 R=    0.0000 C=    0.0000
 XYZ=   -4.7903   -1.9845    2.4399 Q=    0.0099 A=    0.0000 R=    0.0000 C=    0.0000
 XYZ=   -3.7121    1.2338    3.5272 Q=    0.0099 A=    0.0000 R=    0.0000 C=    0.0000
 XYZ=   -2.3842    3.5220    2.0245 Q=   -0.0198 A=    0.0000 R=    0.0000 C=    0.0000
 XYZ=    1.9078    0.4455   -3.7265 Q=    0.0099 A=    0.0000 R=    0.0000 C=    0.0000
 XYZ=    5.0598   -2.6244   -3.1368 Q=   -0.0198 A=    0.0000 R=    0.0000 C=    0.0000
 XYZ=    4.8126   -1.7172   -3.3162 Q=    0.0099 A=    0.0000 R=    0.0000 C=    0.0000
 XYZ=    5.6731   -2.5652   -2.4043 Q=    0.0099 A=    0.0000 R=    0.0000 C=    0.0000
 XYZ=    4.1575   -4.0803   -1.6264 Q=    0.0099 A=    0.0000 R=    0.0000 C=    0.0000
 XYZ=    3.9108   -2.9741    3.0395 Q=    0.0099 A=    0.0000 R=    0.0000 C=    0.0000
 XYZ=    1.2198   -3.2178   -1.0024 Q=    0.0099 A=    0.0000 R=    0.0000 C=    0.0000
 XYZ=    2.1405   -0.3138    2.9258 Q=    0.0099 A=    0.0000 R=    0.0000 C=    0.0000
 XYZ=   -0.9454   -2.7613    2.1710 Q=   -0.0198 A=    0.0000 R=    0.0000 C=    0.0000
 XYZ=   -0.4000   -2.0517    1.8314 Q=    0.0099 A=    0.0000 R=    0.0000 C=    0.0000
 XYZ=   -1.4886   -3.0227    1.4275 Q=    0.0099 A=    0.0000 R=    0.0000 C=    0.0000
 XYZ=    2.4106    4.0053   -2.3767 Q=   -0.0198 A=    0.0000 R=    0.0000 C=    0.0000
 XYZ=    3.0190    3.2667   -2.4002 Q=    0.0099 A=    0.0000 R=    0.0000 C=    0.0000
 XYZ=    2.6890    4.5209   -1.6198 Q=    0.0099 A=    0.0000 R=    0.0000 C=    0.0000
 XYZ=    5.7555    1.2228    2.3151 Q=    0.0099 A=    0.0000 R=    0.0000 C=    0.0000
 XYZ=    4.5851    2.2048   -1.3936 Q=   -0.0198 A=    0.0000 R=    0.0000 C=    0.0000
 XYZ=    1.3516    5.1793    1.5236 Q=    0.0099 A=    0.0000 R=    0.0000 C=    0.0000
 XYZ=    4.5232   -2.2739    2.8140 Q=   -0.0198 A=    0.0000 R=    0.0000 C=    0.0000
 XYZ=    3.9916   -1.4779    2.8254 Q=    0.0099 A=    0.0000 R=    0.0000 C=    0.0000
 XYZ=    4.0988    1.7449    1.5484 Q=   -0.0198 A=    0.0000 R=    0.0000 C=    0.0000
 XYZ=    4.0296    1.6717    0.5965 Q=    0.0099 A=    0.0000 R=    0.0000 C=    0.0000
 XYZ=    2.5482   -0.3664   -2.9566 Q=    0.0099 A=    0.0000 R=    0.0000 C=    0.0000
 XYZ=   -4.7006    1.9146    2.4969 Q=   -0.0198 A=    0.0000 R=    0.0000 C=    0.0000
 XYZ=    0.4087   -2.0015   -2.8111 Q=    0.0099 A=    0.0000 R=    0.0000 C=    0.0000
 XYZ=   -3.2785   -1.1653   -2.7582 Q=    0.0099 A=    0.0000 R=    0.0000 C=    0.0000
 XYZ=   -0.2755    0.8197   -4.0490 Q=   -0.0198 A=    0.0000 R=    0.0000 C=    0.0000
 XYZ=   -1.1854    1.0875   -3.9203 Q=    0.0099 A=    0.0000 R=    0.0000 C=    0.0000
 XYZ=   -2.3363   -3.6367   -0.7108 Q=    0.0099 A=    0.0000 R=    0.0000 C=    0.0000
 XYZ=   -5.9000    0.5637   -1.8114 Q=    0.0099 A=    0.0000 R=    0.0000 C=    0.0000
 XYZ=   -4.4725   -3.0960    2.7062 Q=   -0.0198 A=    0.0000 R=    0.0000 C=    0.0000
 XYZ=   -5.2586   -2.6780    2.3548 Q=    0.0099 A=    0.0000 R=    0.0000 C=    0.0000
 XYZ=   -4.1628   -2.4936    3.3825 Q=    0.0099 A=    0.0000 R=    0.0000 C=    0.0000
 XYZ=    2.9476   -4.4886    1.2797 Q=    0.0099 A=    0.0000 R=    0.0000 C=    0.0000
 XYZ=    6.6616    0.4042   -1.0466 Q=   -0.0198 A=    0.0000 R=    0.0000 C=    0.0000
 XYZ=    6.7375   -0.5330   -1.2262 Q=    0.0099 A=    0.0000 R=    0.0000 C=    0.0000
 XYZ=    7.0152    0.5082   -0.1632 Q=    0.0099 A=    0.0000 R=    0.0000 C=    0.0000
 XYZ=    4.8268   -2.4603   -3.0508 Q=   -0.0198 A=    0.0000 R=    0.0000 C=    0.0000
 XYZ=    4.4069   -1.6010   -3.0906 Q=    0.0099 A=    0.0000 R=    0.0000 C=    0.0000
 XYZ=    5.5686   -2.3373   -2.4585 Q=    0.0099 A=    0.0000 R=    0.0000 C=    0.0000
 XYZ=   -1.4098   -3.6583    0.0116 Q=   -0.0198 A=    0.0000 R=    0.0000 C=    0.0000
 XYZ=    1.7111   -3.7040    0.2081 Q=   -0.0198 A=    0.0000 R=    0.0000 C=    0.0000
 XYZ=    1.2232   -3.5354    1.0142 Q=    0.0099 A=    0.0000 R=    0.0000 C=    0.0000
 XYZ=    1.0948   -3.4932   -0.4933 Q=    0.0099 A=    0.0000 R=    0.0000 C=    0.0000
 XYZ=    2.1937   -0.7620    3.7425 Q=   -0.0198 A=    0.0000 R=    0.0000 C=    0.0000
 XYZ=    1.4972   -0.2511    4.1550 Q=    0.0099 A=    0.0000 R=    0.0000 C=    0.0000
 XYZ=    1.8949   -0.8912    2.8423 Q=    0.0099 A=    0.0000 R=    0.0000 C=    0.0000
 XYZ=   -1.6554    3.9799    2.8039 Q=    0.0099 A=    0.0000 R=    0.0000 C=    0.0000
 XYZ=   -1.1024   -2.3168    2.4231 Q=   -0.0198 A=    0.0000 R=    0.0000 C=    0.0000
 XYZ=   -0.6724   -1.4651    2.5002 Q=    0.0099 A=    0.0000 R=    0.0000 C=    0.0000
 XYZ=   -0.8956   -2.6100    1.5357 Q=    0.0099 A=    0.0000 R=    0.0000 C=    0.0000
 XYZ=    2.7855    3.8208   -2.1987 Q=    0.0099 A=    0.0000 R=    0.0000 C=    0.0000
 XYZ=    4.3626    1.9516   -1.4772 Q=   -0.0198 A=    0.0000 R=    0.0000 C=    0.0000
 XYZ=    4.4229    2.0293   -0.5251 Q=    0.0099 A=    0.0000 R=    0.0000 C=    0.0000
 XYZ=    5.1141    1.4115   -1.7216 Q=    0.0099 A=    0.0000 R=    0.0000 C=    0.0000
 XYZ=    0.4236    5.4469    1.2956 Q=   -0.0198 A=    0.0000 R=    0.0000 C=    0.0000
 XYZ=    0.7707    5.0969    2.1162 Q=    0.0099 A=    0.0000 R=    0.0000 C=    0.0000
 XYZ=    3.9584    1.8974    1.7910 Q=   -0.0198 A=    0.0000 R=    0.0000 C=    0.0000
 XYZ=    2.3522   -0.8991   -3.0177 Q=    0.0099 A=    0.0000 R=    0.0000 C=    0.0000
 XYZ=   -4.3367    1.8720    2.2682 Q=   -0.0198 A=    0.0000 R=    0.0000 C=    0.0000
 XYZ=   -0.0970   -2.1376   -2.4946 Q=    0.0099 A=    0.0000 R=    0.0000 C=    0.0000
 XYZ=   -4.0356   -1.4761   -3.0593 Q=   -0.0198 A=    0.0000 R=    0.0000 C=    0.0000
 XYZ=   -3.1053   -1.3587   -2.8671 Q=    0.0099 A=    0.0000 R=    0.0000 C=    0.0000
 XYZ=   -4.4800   -0.8577   -2.4793 Q=    0.0099 A=    0.0000 R=    0.0000 C=    0.0000
 XYZ=    0.1446    0.7006   -4.1113 Q=   -0.0198 A=    0.0000 R=    0.0000 C=    0.0000
 XYZ=   -0.6322    1.2360   -3.9492 Q=    0.0099 A=    0.0000 R=    0.0000 C=    0.0000
 XYZ=   -0.1762   -0.2008   -4.0859 Q=    0.0099 A=    0.0000 R=    0.0000 C=    0.0000
 XYZ=   -5.7191   -1.9251   -1.4904 Q=    0.0099 A=    0.0000 R=    0.0000 C=    0.0000
 XYZ=   -1.7114   -3.0041   -0.6187 Q=    0.0099 A=    0.0000 R=    0.0000 C=    0.0000
 XYZ=   -1.3602    5.1385   -2.2695 Q=    0.0099 A=    0.0000 R=    0.0000 C=    0.0000
 XYZ=   -5.8969    0.1088   -1.6751 Q=   -0.0198 A=    0.0000 R=    0.0000 C=    0.0000
 XYZ=   -3.5509   -3.8743    2.1950 Q=    0.0099 A=    0.0000 R=    0.0000 C=    0.0000
 XYZ=   -3.5268    2.3809    2.3043 Q=    0.0099 A=    0.0000 R=    0.0000 C=    0.0000
 XYZ=    3.5052   -4.5741    1.4877 Q=    0.0099 A=    0.0000 R=    0.0000 C=    0.0000
 XYZ=    7.0243    0.4631   -0.5634 Q=   -0.0198 A=    0.0000 R=    0.0000 C=    0.0000
 XYZ=    6.6358   -0.4113   -0.5924 Q=    0.0099 A=    0.0000 R=    0.0000 C=    0.0000
 XYZ=    5.1479   -2.4721   -3.0047 Q=   -0.0198 A=    0.0000 R=    0.0000 C=    0.0000
 XYZ=    4.5855   -1.7005   -3.0730 Q=    0.0099 A=    0.0000 R=    0.0000 C=    0.0000
 XYZ=    5.9637   -2.1412   -2.6290 Q=    0.0099 A=    0.0000 R=    0.0000 C=    0.0000
 XYZ=    0.4783   -2.0183   -2.1105 Q=   -0.0198 A=    0.0000 R=    0.0000 C=    0.0000
 XYZ=   -1.4053   -3.8003   -0.0279 Q=   -0.0198 A=    0.0000 R=    0.0000 C=    0.0000
 XYZ=    1.5519   -4.0220   -0.1323 Q=   -0.0198 A=    0.0000 R=    0.0000 C=    0.0000
 XYZ=    1.4970   -3.2774   -0.7314 Q=    0.0099 A=    0.0000 R=    0.0000 C=    0.0000
 XYZ=    1.7737   -1.1535    3.9108 Q=   -0.0198 A=    0.0000 R=    0.0000 C=    0.0000
 XYZ=    1.0103   -0.6795    4.2408 Q=    0.0099 A=    0.0000 R=    0.0000 C=    0.0000
 XYZ=    1.6931   -1.1040    2.9583 Q=    0.0099 A=    0.0000 R=    0.0000 C=    0.0000
 XYZ=   -1.3954    4.1997    2.5417 Q=    0.0099 A=    0.0000 R=    0.0000 C=    0.0000
 XYZ=   -1.1418   -2.3758    2.4837 Q=   -0.0198 A=    0.0000 R=    0.0000 C=    0.0000
 XYZ=   -0.6713   -1.5709    2.2671 Q=    0.0099 A=    0.0000 R=    0.0000 C=    0.0000
 XYZ=   -1.2234   -2.8376    1.6492 Q=    0.0099 A=    0.0000 R=    0.0000 C=    0.0000
 XYZ=    2.7044    4.1085   -2.1900 Q=    0.0099 A=    0.0000 R=    0.0000 C=    0.0000
 XYZ=    2.8489    4.9709   -0.7322 Q=   -0.0198 A=    0.0000 R=    0.0000 C=    0.0000
 XYZ=    4.0603    1.9434   -1.6232 Q=   -0.0198 A=    0.0000 R=    0.0000 C=    0.0000
 XYZ=    4.5912    2.3569   -0.9425 Q=    0.0099 A=    0.0000 R=    0.0000 C=    0.0000
 XYZ=    4.3951    1.0482   -1.6772 Q=    0.0099 A=    0.0000 R=    0.0000 C=    0.0000
 XYZ=    1.1536    5.0919    0.7970 Q=    0.0099 A=    0.0000 R=    0.0000 C=    0.0000
 XYZ=    4.3854    2.1149    1.5717 Q=   -0.0198 A=    0.0000 R=    0.0000 C=    0.0000
 XYZ=    3.6175    1.5505    1.4824 Q=    0.0099 A=    0.0000 R=    0.0000 C=    0.0000
 XYZ=    2.5071   -0.5049   -3.5076 Q=   -0.0198 A=    0.0000 R=    0.0000 C=    0.0000
 XYZ=    2.2549   -1.1797   -2.8774 Q=    0.0099 A=    0.0000 R=    0.0000 C=    0.0000
 XYZ=   -4.4422    2.6834    1.7704 Q=   -0.0198 A=    0.0000 R=    0.0000 C=    0.0000
 XYZ=   -3.6336    3.1586    1.5793 Q=    0.0099 A=    0.0000 R=    0.0000 C=    0.0000
 XYZ=   -0.4495   -1.8001   -2.0215 Q=    0.0099 A=    0.0000 R=    0.0000 C=    0.0000
 XYZ=   -3.5375   -1.5646   -2.6834 Q=    0.0099 A=    0.0000 R=    0.0000 C=    0.0000
 XYZ=   -4.9411   -1.4205   -2.1355 Q=    0.0099 A=    0.0000 R=    0.0000 C=    0.0000
 XYZ=   -0.8547    0.6300   -4.0272 Q=    0.0099 A=    0.0000 R=    0.0000 C=    0.0000
 XYZ=   -1.5410   -2.9915   -0.5217 Q=    0.0099 A=    0.0000 R=    0.0000 C=    0.0000
 XYZ=   -2.2494    5.0337   -1.4166 Q=   -0.0198 A=    0.0000 R=    0.0000 C=    0.0000
 XYZ=   -2.8104    4.2647   -1.5167 Q=    0.0099 A=    0.0000 R=    0.0000 C=    0.0000
 XYZ=   -1.3955    4.7516   -1.7444 Q=    0.0099 A=    0.0000 R=    0.0000 C=    0.0000
 XYZ=   -6.2922   -0.3125   -0.4791 Q=   -0.0198 A=    0.0000 R=    0.0000 C=    0.0000
 XYZ=   -5.9955    0.5101   -0.8685 Q=    0.0099 A=    0.0000 R=    0.0000 C=    0.0000
 XYZ=   -2.1606    4.1074    1.9740 Q=   -0.0198 A=    0.0000 R=    0.0000 C=    0.0000
 XYZ=   -2.0007    4.7187    1.2551 Q=    0.0099 A=    0.0000 R=    0.0000 C=    0.0000
 XYZ=   -5.3740   -0.4861    2.4949 Q=    0.0099 A=    0.0000 R=    0.0000 C=    0.0000
 XYZ=   -3.0973    0.1600   -3.2626 Q=    0.0099 A=    0.0000 R=    0.0000 C=    0.0000
 XYZ=    1.7049   -0.0044   -3.6566 Q=    0.0099 A=    0.0000 R=    0.0000 C=    0.0000
 XYZ=    6.9978    0.0259   -0.7564 Q=   -0.0198 A=    0.0000 R=    0.0000 C=    0.0000
 XYZ=    6.6172   -0.8309   -0.5636 Q=    0.0099 A=    0.0000 R=    0.0000 C=    0.0000
 XYZ=    5.1981   -2.1768   -3.0593 Q=   -0.0198 A=    0.0000 R=    0.0000 C=    0.0000
 XYZ=    4.7619   -1.7964   -3.8217 Q=    0.0099 A=    0.0000 R=    0.0000 C=    0.0000
 XYZ=    5.5832   -3.7964   -0.7457 Q=    0.0099 A=    0.0000 R=    0.0000 C=    0.0000
 XYZ=    3.0473   -4.1202    1.8670 Q=    0.0099 A=    0.0000 R=    0.0000 C=    0.0000
 XYZ=   -1.7254   -3.7720    0.2242 Q=   -0.0198 A=    0.0000 R=    0.0000 C=    0.0000
 XYZ=    1.6681   -4.2054    0.3447 Q=   -0.0198 A=    0.0000 R=    0.0000 C=    0.0000
 XYZ=    1.5143   -3.5445   -0.3305 Q=    0.0099 A=    0.0000 R=    0.0000 C=    0.0000
 XYZ=    1.7322   -0.9573    3.9721 Q=   -0.0198 A=    0.0000 R=    0.0000 C=    0.0000
 XYZ=    1.5096   -0.6752    3.0849 Q=    0.0099 A=    0.0000 R=    0.0000 C=    0.0000
 XYZ=   -0.3938   -2.0350    2.4945 Q=    0.0099 A=    0.0000 R=    0.0000 C=    0.0000
 XYZ=    2.2752    2.4005   -3.0499 Q=    0.0099 A=    0.0000 R=    0.0000 C=    0.0000
 XYZ=    2.4011    3.7817   -2.4438 Q=    0.0099 A=    0.0000 R=    0.0000 C=    0.0000
 XYZ=    4.7697    1.8341   -1.3923 Q=   -0.0198 A=    0.0000 R=    0.0000 C=    0.0000
 XYZ=    4.3842    1.8187   -0.5162 Q=    0.0099 A=    0.0000 R=    0.0000 C=    0.0000
 XYZ=    5.5342    1.2618   -1.3276 Q=    0.0099 A=    0.0000 R=    0.0000 C=    0.0000
 XYZ=    1.6458    5.1332    0.4478 Q=    0.0099 A=    0.0000 R=    0.0000 C=    0.0000
 XYZ=    3.7445    2.1661    1.5704 Q=   -0.0198 A=    0.0000 R=    0.0000 C=    0.0000
 XYZ=    3.4487    1.5893    2.2747 Q=    0.0099 A=    0.0000 R=    0.0000 C=    0.0000
 XYZ=    1.7904   -0.9399   -2.8991 Q=    0.0099 A=    0.0000 R=    0.0000 C=    0.0000
 XYZ=   -6.6727    0.4187    0.2126 Q=    0.0099 A=    0.0000 R=    0.0000 C=    0.0000
 XYZ=   -4.9181    2.0656    2.0461 Q=   -0.0198 A=    0.0000 R=    0.0000 C=    0.0000
 XYZ=   -4.0488    2.4572    1.9613 Q=    0.0099 A=    0.0000 R=    0.0000 C=    0.0000
 XYZ=    0.0391   -2.4876   -2.1484 Q=    0.0099 A=    0.0000 R=    0.0000 C=    0.0000
 XYZ=   -3.7515   -1.7579   -3.2957 Q=    0.0099 A=    0.0000 R=    0.0000 C=    0.0000
 XYZ=   -4.8961   -2.0027   -2.3361 Q=    0.0099 A=    0.0000 R=    0.0000 C=    0.0000
 XYZ=   -6.0481   -2.6179   -1.0925 Q=   -0.0198 A=    0.0000 R=    0.0000 C=    0.0000
 XYZ=   -6.3444   -1.7657   -0.7729 Q=    0.0099 A=    0.0000 R=    0.0000 C=    0.0000
 XYZ=   -1.8085   -3.0175   -0.3589 Q=    0.0099 A=    0.0000 R=    0.0000 C=    0.0000
 XYZ=   -2.0845    4.8419   -0.7781 Q=   -0.0198 A=    0.0000 R=    0.0000 C=    0.0000
 XYZ=   -2.7808    4.2039   -0.9341 Q=    0.0099 A=    0.0000 R=    0.0000 C=    0.0000
 XYZ=   -1.4593    4.6923   -1.4873 Q=    0.0099 A=    0.0000 R=    0.0000 C=    0.0000
 XYZ=   -2.4893    3.4630    1.8401 Q=   -0.0198 A=    0.0000 R=    0.0000 C=    0.0000
 XYZ=   -2.2591    3.8918    1.0159 Q=    0.0099 A=    0.0000 R=    0.0000 C=    0.0000
 XYZ=   -1.8092    3.7418    2.4532 Q=    0.0099 A=    0.0000 R=    0.0000 C=    0.0000
 XYZ=   -5.9073   -0.8851    2.1668 Q=    0.0099 A=    0.0000 R=    0.0000 C=    0.0000
 XYZ=   -2.9254    0.0907   -3.0081 Q=    0.0099 A=    0.0000 R=    0.0000 C=    0.0000
 XYZ=    1.7706    3.0789   -2.6013 Q=   -0.0198 A=    0.0000 R=    0.0000 C=    0.0000
 XYZ=   -0.3287    4.7381   -2.8246 Q=   -0.0198 A=    0.0000 R=    0.0000 C=    0.0000
 XYZ=    0.2241    3.9969   -2.5771 Q=    0.0099 A=    0.0000 R=    0.0000 C=    0.0000
 XYZ=    3.5343   -3.9651    2.1510 Q=   -0.0198 A=    0.0000 R=    0.0000 C=    0.0000
 XYZ=    7.0802   -0.6813   -0.7704 Q=    0.0099 A=    0.0000 R=    0.0000 C=    0.0000
 XYZ=    5.0011   -2.2503   -2.8857 Q=   -0.0198 A=    0.0000 R=    0.0000 C=    0.0000
 XYZ=    5.9353   -2.0422   -2.8705 Q=    0.0099 A=    0.0000 R=    0.0000 C=    0.0000
 XYZ=    4.5922   -1.4865   -3.2927 Q=    0.0099 A=    0.0000 R=    0.0000 C=    0.0000
 XYZ=    0.6328   -2.7307   -1.6863 Q=   -0.0198 A=    0.0000 R=    0.0000 C=    0.0000
 XYZ=    0.1373   -1.9699   -1.3831 Q=    0.0099 A=    0.0000 R=    0.0000 C=    0.0000
 XYZ=   -0.0310   -3.4025   -1.8419 Q=    0.0099 A=    0.0000 R=    0.0000 C=    0.0000
 XYZ=    2.6597   -3.7617    1.8194 Q=    0.0099 A=    0.0000 R=    0.0000 C=    0.0000
 XYZ=   -1.3494   -3.7833    0.2756 Q=   -0.0198 A=    0.0000 R=    0.0000 C=    0.0000
 XYZ=    1.3505   -3.7866   -0.1443 Q=    0.0099 A=    0.0000 R=    0.0000 C=    0.0000
 XYZ=    1.3216   -1.4121   -2.9028 Q=    0.0099 A=    0.0000 R=    0.0000 C=    0.0000
 XYZ=    0.9220    2.9748    3.7946 Q=    0.0099 A=    0.0000 R=    0.0000 C=    0.0000
 XYZ=    2.0804   -0.7353    3.9661 Q=   -0.0198 A=    0.0000 R=    0.0000 C=    0.0000
 XYZ=    1.7743   -0.4887    3.0933 Q=    0.0099 A=    0.0000 R=    0.0000 C=    0.0000
 XYZ=   -1.6417    2.5329    2.8658 Q=    0.0099 A=    0.0000 R=    0.0000 C=    0.0000
 XYZ=    2.8024    3.0740   -2.4674 Q=    0.0099 A=    0.0000 R=    0.0000 C=    0.0000
 XYZ=    3.0421    4.5323   -0.8834 Q=   -0.0198 A=    0.0000 R=    0.0000 C=    0.0000
 XYZ=    4.9535    2.0221   -0.9208 Q=   -0.0198 A=    0.0000 R=    0.0000 C=    0.0000
 XYZ=    4.5059    2.2077   -0.0953 Q=    0.0099 A=    0.0000 R=    0.0000 C=    0.0000
 XYZ=    5.7948    1.6487   -0.6584 Q=    0.0099 A=    0.0000 R=    0.0000 C=    0.0000
 XYZ=    1.5584    5.2612    0.2600 Q=    0.0099 A=    0.0000 R=    0.0000 C=    0.0000
 XYZ=    1.7351   -0.7089   -3.4036 Q=   -0.0198 A=    0.0000 R=    0.0000 C=    0.0000
 XYZ=   -3.7886   -1.5101   -3.2822 Q=    0.0099 A=    0.0000 R=    0.0000 C=    0.0000
 XYZ=   -4.9302   -1.5521   -2.2892 Q=    0.0099 A=    0.0000 R=    0.0000 C=    0.0000
 XYZ=   -1.1151    0.2401   -3.4742 Q=    0.0099 A=    0.0000 R=    0.0000 C=    0.0000
 XYZ=   -6.2017   -2.2168   -0.7004 Q=    0.0099 A=    0.0000 R=    0.0000 C=    0.0000
 XYZ=   -1.4865   -3.0832   -0.3626 Q=    0.0099 A=    0.0000 R=    0.0000 C=    0.0000
 XYZ=   -2.0665    4.8020   -1.0381 Q=   -0.0198 A=    0.0000 R=    0.0000 C=    0.0000
 XYZ=   -2.7873    4.1740   -1.0854 Q=    0.0099 A=    0.0000 R=    0.0000 C=    0.0000
 XYZ=   -1.2931    4.2986   -1.2921 Q=    0.0099 A=    0.0000 R=    0.0000 C=    0.0000
 XYZ=   -6.4846   -0.1434    0.2204 Q=    0.0099 A=    0.0000 R=    0.0000 C=    0.0000
 XYZ=    1.0177   -0.3138   -3.8990 Q=    0.0099 A=    0.0000 R=    0.0000 C=    0.0000
 XYZ=   -2.2581    2.3724    2.1513 Q=   -0.0198 A=    0.0000 R=    0.0000 C=    0.0000
 XYZ=   -2.2870    3.1990    1.6696 Q=    0.0099 A=    0.0000 R=    0.0000 C=    0.0000
 XYZ=    1.9994    2.8741   -2.9485 Q=   -0.0198 A=    0.0000 R=    0.0000 C=    0.0000
 XYZ=    6.6899    0.1930   -0.9195 Q=   -0.0198 A=    0.0000 R=    0.0000 C=    0.0000
 XYZ=    7.0946   -0.3891   -0.2763 Q=    0.0099 A=    0.0000 R=    0.0000 C=    0.0000
 XYZ=    0.3081   -2.7314   -2.0491 Q=   -0.0198 A=    0.0000 R=    0.0000 C=    0.0000
 XYZ=    2.9294   -3.9425    2.0167 Q=    0.0099 A=    0.0000 R=    0.0000 C=    0.0000
 XYZ=    3.6255   -1.9036    3.4674 Q=    0.0099 A=    0.0000 R=    0.0000 C=    0.0000
 XYZ=    1.4988   -3.8853    0.0821 Q=   -0.0198 A=    0.0000 R=    0.0000 C=    0.0000
 XYZ=    1.3202   -3.4525   -0.7528 Q=    0.0099 A=    0.0000 R=    0.0000 C=    0.0000
 XYZ=    1.8972    2.5800    3.5046 Q=   -0.0198 A=    0.0000 R=    0.0000 C=    0.0000
 XYZ=    0.9821    2.8506    3.5791 Q=    0.0099 A=    0.0000 R=    0.0000 C=    0.0000
 XYZ=    1.9540   -1.3269    3.5089 Q=   -0.0198 A=    0.0000 R=    0.0000 C=    0.0000
 XYZ=    1.2473   -1.3641    4.1535 Q=    0.0099 A=    0.0000 R=    0.0000 C=    0.0000
 XYZ=    1.5309   -1.0192    2.7073 Q=    0.0099 A=    0.0000 R=    0.0000 C=    0.0000
 XYZ=   -2.0722    1.9414    2.8977 Q=    0.0099 A=    0.0000 R=    0.0000 C=    0.0000
 XYZ=   -1.4207   -2.1578    3.2369 Q=    0.0099 A=    0.0000 R=    0.0000 C=    0.0000
 XYZ=    2.5454    2.1408   -2.8650 Q=   -0.0198 A=    0.0000 R=    0.0000 C=    0.0000
 XYZ=    2.9884    1.6388   -3.5490 Q=    0.0099 A=    0.0000 R=    0.0000 C=    0.0000
 XYZ=    3.2216    2.2955   -2.2054 Q=    0.0099 A=    0.0000 R=    0.0000 C=    0.0000
 XYZ=    2.9755    4.8569   -0.7315 Q=   -0.0198 A=    0.0000 R=    0.0000 C=    0.0000
 XYZ=    3.2136    3.9812   -0.4270 Q=    0.0099 A=    0.0000 R=    0.0000 C=    0.0000
 XYZ=    4.9085    2.4188   -1.1048 Q=   -0.0198 A=    0.0000 R=    0.0000 C=    0.0000
 XYZ=    4.5702    2.4993   -0.2130 Q=    0.0099 A=    0.0000 R=    0.0000 C=    0.0000
 XYZ=    5.5081    1.6736   -1.0672 Q=    0.0099 A=    0.0000 R=    0.0000 C=    0.0000
 XYZ=    2.9624    2.1102    1.8275 Q=    0.0099 A=    0.0000 R=    0.0000 C=    0.0000
 XYZ=   -5.4228    2.3016   -0.9420 Q=    0.0099 A=    0.0000 R=    0.0000 C=    0.0000
 XYZ=   -6.8796    0.0637   -0.3797 Q=    0.0099 A=    0.0000 R=    0.0000 C=    0.0000
 XYZ=   -5.2676    0.9467    2.9253 Q=    0.0099 A=    0.0000 R=    0.0000 C=    0.0000
 XYZ=   -0.3429   -2.1629   -1.6376 Q=    0.0099 A=    0.0000 R=    0.0000 C=    0.0000
 XYZ=   -0.1924   -3.4898   -2.3502 Q=    0.0099 A=    0.0000 R=    0.0000 C=    0.0000
 XYZ=   -0.6256    0.7385   -4.0317 Q=   -0.0198 A=    0.0000 R=    0.0000 C=    0.0000
 XYZ=   -6.2791   -2.1773   -0.8851 Q=    0.0099 A=    0.0000 R=    0.0000 C=    0.0000
 XYZ=   -1.9693   -3.0779    0.2121 Q=    0.0099 A=    0.0000 R=    0.0000 C=    0.0000
 XYZ=   -2.2312    4.7395   -1.5713 Q=   -0.0198 A=    0.0000 R=    0.0000 C=    0.0000
 XYZ=   -2.9535    4.1237   -1.6950 Q=    0.0099 A=    0.0000 R=    0.0000 C=    0.0000
 XYZ=   -1.4581    4.2672   -1.8803 Q=    0.0099 A=    0.0000 R=    0.0000 C=    0.0000
 XYZ=    0.8138   -0.5666   -3.9895 Q=    0.0099 A=    0.0000 R=    0.0000 C=    0.0000
 XYZ=   -2.4856    2.1651    2.0639 Q=   -0.0198 A=    0.0000 R=    0.0000 C=    0.0000
 XYZ=   -2.2552    3.0831    1.9209 Q=    0.0099 A=    0.0000 R=    0.0000 C=    0.0000
 XYZ=    6.2372    0.0460   -1.3039 Q=   -0.0198 A=    0.0000 R=    0.0000 C=    0.0000
 XYZ=    6.7666   -0.7450   -1.2023 Q=    0.0099 A=    0.0000 R=    0.0000 C=    0.0000
 XYZ=    3.1622   -4.1089    1.8778 Q=    0.0099 A=    0.0000 R=    0.0000 C=    0.0000
 XYZ=   -1.2468   -3.4874    0.5442 Q=   -0.0198 A=    0.0000 R=    0.0000 C=    0.0000
 XYZ=    1.6519   -3.7094   -0.0481 Q=    0.0099 A=    0.0000 R=    0.0000 C=    0.0000
 XYZ=    1.1636    2.9025    3.5608 Q=    0.0099 A=    0.0000 R=    0.0000 C=    0.0000
 XYZ=    1.9602   -1.5225    3.4756 Q=   -0.0198 A=    0.0000 R=    0.0000 C=    0.0000
 XYZ=    1.1615   -1.7195    3.9651 Q=    0.0099 A=    0.0000 R=    0.0000 C=    0.0000
 XYZ=    1.6551   -1.3182    2.5917 Q=    0.0099 A=    0.0000 R=    0.0000 C=    0.0000
 XYZ=   -2.0606   -2.8903    3.1424 Q=   -0.0198 A=    0.0000 R=    0.0000 C=    0.0000
 XYZ=   -1.9032   -2.9456    2.1998 Q=    0.0099 A=    0.0000 R=    0.0000 C=    0.0000
 XYZ=    2.9338    1.8715   -2.8571 Q=   -0.0198 A=    0.0000 R=    0.0000 C=    0.0000
 XYZ=    3.3738    1.3637   -3.5389 Q=    0.0099 A=    0.0000 R=    0.0000 C=    0.0000
 XYZ=    3.6106    2.0239   -2.1976 Q=    0.0099 A=    0.0000 R=    0.0000 C=    0.0000
 XYZ=    2.6646    4.8984   -0.5267 Q=   -0.0198 A=    0.0000 R=    0.0000 C=    0.0000
 XYZ=    2.9500    4.2466    0.1136 Q=    0.0099 A=    0.0000 R=    0.0000 C=    0.0000
 XYZ=    6.3601   -0.0301    2.3284 Q=   -0.0198 A=    0.0000 R=    0.0000 C=    0.0000
 XYZ=    5.7083   -0.6421    2.6703 Q=    0.0099 A=    0.0000 R=    0.0000 C=    0.0000
 XYZ=    4.7324    2.4481   -0.9476 Q=   -0.0198 A=    0.0000 R=    0.0000 C=    0.0000
 XYZ=    4.2042    2.6299   -0.1703 Q=    0.0099 A=    0.0000 R=    0.0000 C=    0.0000
 XYZ=    5.1769    1.6242   -0.7478 Q=    0.0099 A=    0.0000 R=    0.0000 C=    0.0000
 XYZ=    3.6637    2.8444    1.3692 Q=   -0.0198 A=    0.0000 R=    0.0000 C=    0.0000
 XYZ=    3.0024    2.5659    2.0027 Q=    0.0099 A=    0.0000 R=    0.0000 C=    0.0000
 XYZ=   -4.5463    1.9274    2.3334 Q=    0.0099 A=    0.0000 R=    0.0000 C=    0.0000
 XYZ=    0.3502   -2.3641   -2.7720 Q=   -0.0198 A=    0.0000 R=    0.0000 C=    0.0000
 XYZ=   -0.2849   -2.0851   -2.1124 Q=    0.0099 A=    0.0000 R=    0.0000 C=    0.0000
 XYZ=    0.0064    1.9794   -3.8742 Q=    0.0099 A=    0.0000 R=    0.0000 C=    0.0000
 XYZ=   -5.6897   -2.1600   -0.7185 Q=    0.0099 A=    0.0000 R=    0.0000 C=    0.0000
 XYZ=   -1.5833   -2.6963    0.1233 Q=    0.0099 A=    0.0000 R=    0.0000 C=    0.0000
 XYZ=   -2.0270    4.3439   -1.6878 Q=   -0.0198 A=    0.0000 R=    0.0000 C=    0.0000
 XYZ=   -2.8293    3.9172   -1.3870 Q=    0.0099 A=    0.0000 R=    0.0000 C=    0.0000
 XYZ=   -1.5801    3.6752   -2.2067 Q=    0.0099 A=    0.0000 R=    0.0000 C=    0.0000
 XYZ=   -6.4561   -0.4986    0.1716 Q=   -0.0198 A=    0.0000 R=    0.0000 C=    0.0000
 XYZ=   -6.2907    0.3730   -0.1878 Q=    0.0099 A=    0.0000 R=    0.0000 C=    0.0000
 XYZ=   -2.6963    2.5069    1.9889 Q=   -0.0198 A=    0.0000 R=    0.0000 C=    0.0000
 XYZ=   -2.2612    3.0739    1.3522 Q=    0.0099 A=    0.0000 R=    0.0000 C=    0.0000
 XYZ=   -2.2990    2.7400    2.8280 Q=    0.0099 A=    0.0000 R=    0.0000 C=    0.0000
 XYZ=    0.6070    3.2872   -2.8107 Q=   -0.0198 A=    0.0000 R=    0.0000 C=    0.0000
 XYZ=    1.5593    3.2057   -2.8614 Q=    0.0099 A=    0.0000 R=    0.0000 C=    0.0000
 XYZ=    0.4447    4.2296   -2.8530 Q=    0.0099 A=    0.0000 R=    0.0000 C=    0.0000
 XYZ=    6.7121    0.2399    1.3104 Q=   -0.0198 A=    0.0000 R=    0.0000 C=    0.0000
 XYZ=    6.8890   -0.3887    0.6105 Q=    0.0099 A=    0.0000 R=    0.0000 C=    0.0000
 XYZ=    3.5768   -3.3971   -2.6366 Q=   -0.0198 A=    0.0000 R=    0.0000 C=    0.0000
 XYZ=    3.8948   -2.5623   -2.9804 Q=    0.0099 A=    0.0000 R=    0.0000 C=    0.0000
 XYZ=    6.5700   -0.8702   -1.8513 Q=   -0.0198 A=    0.0000 R=    0.0000 C=    0.0000
 XYZ=    5.7040   -1.4184   -3.2060 Q=    0.0099 A=    0.0000 R=    0.0000 C=    0.0000
 XYZ=    6.0088   -3.5518   -0.9072 Q=    0.0099 A=    0.0000 R=    0.0000 C=    0.0000
 XYZ=    3.0402   -4.3130    2.0498 Q=    0.0099 A=    0.0000 R=    0.0000 C=    0.0000
 XYZ=   -1.1025   -3.5277   -0.2053 Q=    0.0099 A=    0.0000 R=    0.0000 C=    0.0000
 XYZ=    1.2633   -3.6862    1.2349 Q=   -0.0198 A=    0.0000 R=    0.0000 C=    0.0000
 XYZ=    1.1729   -2.7755    1.5154 Q=    0.0099 A=    0.0000 R=    0.0000 C=    0.0000
 XYZ=    1.6846   -1.7512    3.5565 Q=   -0.0198 A=    0.0000 R=    0.0000 C=    0.0000
 XYZ=    1.3005   -1.1790    2.8922 Q=    0.0099 A=    0.0000 R=    0.0000 C=    0.0000
 XYZ=    2.7559    1.8153   -2.5129 Q=   -0.0198 A=    0.0000 R=    0.0000 C=    0.0000
 XYZ=    2.7884    1.2584   -3.2908 Q=    0.0099 A=    0.0000 R=    0.0000 C=    0.0000
 XYZ=    3.5100    1.5415   -1.9907 Q=    0.0099 A=    0.0000 R=    0.0000 C=    0.0000
 XYZ=    2.3823    4.9939   -0.4760 Q=   -0.0198 A=    0.0000 R=    0.0000 C=    0.0000
 XYZ=    3.0326    4.2969   -0.5627 Q=    0.0099 A=    0.0000 R=    0.0000 C=    0.0000
 XYZ=    6.2970   -0.2791    1.9993 Q=    0.0099 A=    0.0000 R=    0.0000 C=    0.0000
 XYZ=    4.8065    1.6164   -1.0148 Q=   -0.0198 A=    0.0000 R=    0.0000 C=    0.0000
 XYZ=    4.9749    2.2836   -0.3495 Q=    0.0099 A=    0.0000 R=    0.0000 C=    0.0000
 XYZ=    5.6245    1.1224   -1.0710 Q=    0.0099 A=    0.0000 R=    0.0000 C=    0.0000
 XYZ=    4.7437   -1.2229    2.7543 Q=   -0.0198 A=    0.0000 R=    0.0000 C=    0.0000
 XYZ=    4.7463   -2.0407    2.2569 Q=    0.0099 A=    0.0000 R=    0.0000 C=    0.0000
 XYZ=    3.9033   -1.2239    3.2125 Q=    0.0099 A=    0.0000 R=    0.0000 C=    0.0000
 XYZ=    3.4920    3.0106    1.2850 Q=   -0.0198 A=    0.0000 R=    0.0000 C=    0.0000
 XYZ=    2.9600    2.4706    1.8695 Q=    0.0099 A=    0.0000 R=    0.0000 C=    0.0000
 XYZ=   -6.2981    0.6727    0.0727 Q=    0.0099 A=    0.0000 R=    0.0000 C=    0.0000
 XYZ=    0.0552   -2.1924   -3.0323 Q=   -0.0198 A=    0.0000 R=    0.0000 C=    0.0000
 XYZ=   -0.6942   -1.9814   -2.4753 Q=    0.0099 A=    0.0000 R=    0.0000 C=    0.0000
 XYZ=   -0.4728    0.9237   -4.2139 Q=   -0.0198 A=    0.0000 R=    0.0000 C=    0.0000
 XYZ=   -0.1316    1.7900   -3.9916 Q=    0.0099 A=    0.0000 R=    0.0000 C=    0.0000
 XYZ=   -1.3104    0.8708   -3.7537 Q=    0.0099 A=    0.0000 R=    0.0000 C=    0.0000
 XYZ=   -5.8533   -2.6981   -0.9771 Q=   -0.0198 A=    0.0000 R=    0.0000 C=    0.0000
 XYZ=   -5.7330   -2.0272   -0.3050 Q=    0.0099 A=    0.0000 R=    0.0000 C=    0.0000
 XYZ=   -1.8115    4.3580   -2.4364 Q=   -0.0198 A=    0.0000 R=    0.0000 C=    0.0000
 XYZ=   -0.9715    3.9147   -2.5555 Q=    0.0099 A=    0.0000 R=    0.0000 C=    0.0000
 XYZ=   -6.4242   -0.2761    0.0879 Q=   -0.0198 A=    0.0000 R=    0.0000 C=    0.0000
 XYZ=   -2.3714    2.7555    1.7721 Q=   -0.0198 A=    0.0000 R=    0.0000 C=    0.0000
 XYZ=   -2.2222    3.5345    1.2362 Q=    0.0099 A=    0.0000 R=    0.0000 C=    0.0000
 XYZ=   -2.2172    3.0494    2.6699 Q=    0.0099 A=    0.0000 R=    0.0000 C=    0.0000
 XYZ=   -5.5342   -0.3921    3.0934 Q=   -0.0198 A=    0.0000 R=    0.0000 C=    0.0000
 XYZ=   -5.3350   -0.5563    2.1717 Q=    0.0099 A=    0.0000 R=    0.0000 C=    0.0000
 XYZ=    1.3648    2.9231   -3.0927 Q=    0.0099 A=    0.0000 R=    0.0000 C=    0.0000
 XYZ=    4.5551   -1.8966   -3.5606 Q=   -0.0198 A=    0.0000 R=    0.0000 C=    0.0000
 XYZ=    5.4130   -1.5611   -3.3006 Q=    0.0099 A=    0.0000 R=    0.0000 C=    0.0000
 XYZ=    4.0614   -1.1180   -3.8182 Q=    0.0099 A=    0.0000 R=    0.0000 C=    0.0000
 XYZ=    5.1874   -3.7231   -1.2199 Q=   -0.0198 A=    0.0000 R=    0.0000 C=    0.0000
 XYZ=    5.7164   -3.0909   -1.7065 Q=    0.0099 A=    0.0000 R=    0.0000 C=    0.0000
 XYZ=    4.3007   -3.6064   -1.5612 Q=    0.0099 A=    0.0000 R=    0.0000 C=    0.0000
 XYZ=    2.8078   -3.9853    2.1934 Q=    0.0099 A=    0.0000 R=    0.0000 C=    0.0000
 XYZ=   -1.6231   -3.6680    0.4832 Q=   -0.0198 A=    0.0000 R=    0.0000 C=    0.0000
 XYZ=    1.0490   -3.4271    1.1406 Q=   -0.0198 A=    0.0000 R=    0.0000 C=    0.0000
 XYZ=    0.1072   -3.5947    1.1088 Q=    0.0099 A=    0.0000 R=    0.0000 C=    0.0000
 XYZ=    1.1486   -2.5491    0.7726 Q=    0.0099 A=    0.0000 R=    0.0000 C=    0.0000
 XYZ=    1.6125    2.7595    3.1277 Q=    0.0099 A=    0.0000 R=    0.0000 C=    0.0000
 XYZ=    1.4898   -1.2224    3.8997 Q=   -0.0198 A=    0.0000 R=    0.0000 C=    0.0000
 XYZ=    1.1517   -1.1437    3.0077 Q=    0.0099 A=    0.0000 R=    0.0000 C=    0.0000
 XYZ=   -1.7768    3.6989    2.5262 Q=    0.0099 A=    0.0000 R=    0.0000 C=    0.0000
 XYZ=    3.1088    2.4786   -2.3674 Q=   -0.0198 A=    0.0000 R=    0.0000 C=    0.0000
 XYZ=    3.1198    1.7813   -3.0230 Q=    0.0099 A=    0.0000 R=    0.0000 C=    0.0000
 XYZ=    4.0281    2.5974   -2.1285 Q=    0.0099 A=    0.0000 R=    0.0000 C=    0.0000
 XYZ=    6.6100    0.0414    1.9047 Q=    0.0099 A=    0.0000 R=    0.0000 C=    0.0000
 XYZ=    4.2084   -1.1446    2.8769 Q=    0.0099 A=    0.0000 R=    0.0000 C=    0.0000
 XYZ=   -0.0451   -2.3045   -2.8518 Q=   -0.0198 A=    0.0000 R=    0.0000 C=    0.0000
 XYZ=   -0.6788   -2.0691   -2.1740 Q=    0.0099 A=    0.0000 R=    0.0000 C=    0.0000
 XYZ=   -0.2550    1.1388   -4.1806 Q=   -0.0198 A=    0.0000 R=    0.0000 C=    0.0000
 XYZ=   -0.1471    2.0402   -3.8771 Q=    0.0099 A=    0.0000 R=    0.0000 C=    0.0000
 XYZ=   -0.9920    0.8013   -3.6714 Q=    0.0099 A=    0.0000 R=    0.0000 C=    0.0000
 XYZ=   -5.7924   -2.6695   -1.2910 Q=   -0.0198 A=    0.0000 R=    0.0000 C=    0.0000
 XYZ=   -5.9628   -2.2107   -0.4684 Q=    0.0099 A=    0.0000 R=    0.0000 C=    0.0000
 XYZ=   -1.8347   -3.0645   -0.2290 Q=    0.0099 A=    0.0000 R=    0.0000 C=    0.0000
 XYZ=   -2.4003    4.1710   -2.2587 Q=   -0.0198 A=    0.0000 R=    0.0000 C=    0.0000
 XYZ=   -1.5191    3.8181   -2.1356 Q=    0.0099 A=    0.0000 R=    0.0000 C=    0.0000
 XYZ=   -6.5685   -0.3494    0.2215 Q=   -0.0198 A=    0.0000 R=    0.0000 C=    0.0000
 XYZ=   -6.4046    0.4119   -0.3350 Q=    0.0099 A=    0.0000 R=    0.0000 C=    0.0000
 XYZ=   -2.4520    3.6057    1.8541 Q=   -0.0198 A=    0.0000 R=    0.0000 C=    0.0000
 XYZ=   -5.8065   -0.4650    2.1752 Q=    0.0099 A=    0.0000 R=    0.0000 C=    0.0000
 XYZ=    0.7102    3.5433   -2.9647 Q=   -0.0198 A=    0.0000 R=    0.0000 C=    0.0000
 XYZ=    1.5802    3.2818   -2.6629 Q=    0.0099 A=    0.0000 R=    0.0000 C=    0.0000
 XYZ=    3.0351   -2.8811   -3.2941 Q=    0.0099 A=    0.0000 R=    0.0000 C=    0.0000
 XYZ=    4.4680   -1.8113   -3.5995 Q=   -0.0198 A=    0.0000 R=    0.0000 C=    0.0000
 XYZ=    5.2974   -1.6821   -3.1393 Q=    0.0099 A=    0.0000 R=    0.0000 C=    0.0000
[...]
 Alpha virt. eigenvalues --    0.71217   0.72929   0.73137   0.73778   0.76234
 Alpha virt. eigenvalues --    0.78118   0.78849   0.80451   0.81932   0.82768
 Alpha virt. eigenvalues --    0.83436   0.85131   0.87925   0.89253   0.91512
 Alpha virt. eigenvalues --    0.92801   0.94791   0.95693   0.99329   0.99654
 Alpha virt. eigenvalues --    1.00472   1.02119   1.03391   1.04296   1.04463
 Alpha virt. eigenvalues --    1.05149   1.06759   1.08039   1.08372   1.09422
 Alpha virt. eigenvalues --    1.12047   1.13862   1.15040   1.16998   1.17327
 Alpha virt. eigenvalues --    1.18262   1.18867   1.19587   1.20659   1.22401
 Alpha virt. eigenvalues --    1.23359   1.25458   1.26547   1.27650   1.28471
 Alpha virt. eigenvalues --    1.28745   1.30590   1.30895   1.33213   1.34306
 Alpha virt. eigenvalues --    1.36313   1.37620   1.38620   1.38684   1.40945
 Alpha virt. eigenvalues --    1.42748   1.43311   1.44010   1.46705   1.47461
 Alpha virt. eigenvalues --    1.48252   1.48978   1.50267   1.51347   1.51474
 Alpha virt. eigenvalues --    1.52502   1.53125   1.54899   1.55379   1.57984
 Alpha virt. eigenvalues --    1.61618   1.62368   1.64727   1.65342   1.66390
 Alpha virt. eigenvalues --    1.68215   1.68460   1.71063   1.73220   1.74008
 Alpha virt. eigenvalues --    1.75296   1.77181   1.78316   1.79308   1.84548
 Alpha virt. eigenvalues --    1.86493   1.87824   1.91667   1.94366   1.95696
 Alpha virt. eigenvalues --    1.97848   2.01801   2.02287   2.08091   2.10506
 Alpha virt. eigenvalues --    2.11633   2.15066   2.18077   2.23087   2.27626
 Alpha virt. eigenvalues --    2.33733   2.37899   2.40553   2.41696   2.44011
 Alpha virt. eigenvalues --    2.46977   2.48730   2.51177   2.52164   2.56718
 Alpha virt. eigenvalues --    2.59201   2.60682   2.61722   2.63284   2.68169
 Alpha virt. eigenvalues --    2.69815   2.73474   2.74319   2.79030   2.80202
 Alpha virt. eigenvalues --    2.81119   2.83568   2.85290   2.85870   2.87884
 Alpha virt. eigenvalues --    2.91249   2.92784   2.93255   2.95348   2.98371
 Alpha virt. eigenvalues --    2.99468   3.01575   3.02684   3.03558   3.04888
 Alpha virt. eigenvalues --    3.05632   3.06510   3.06775   3.08076   3.08962
 Alpha virt. eigenvalues --    3.09122   3.09778   3.10652   3.13023   3.13368
 Alpha virt. eigenvalues --    3.14181   3.16894   3.19158   3.19932   3.21528
 Alpha virt. eigenvalues --    3.22064   3.23881   3.24497   3.25805   3.27650
 Alpha virt. eigenvalues --    3.29128   3.29995   3.30371   3.31871   3.32911
 Alpha virt. eigenvalues --    3.34617   3.35395   3.37349   3.38824   3.40024
 Alpha virt. eigenvalues --    3.41070   3.41291   3.43288   3.44988   3.45713
 Alpha virt. eigenvalues --    3.47796   3.48937   3.50248   3.52620   3.53935
 Alpha virt. eigenvalues --    3.54809   3.55455   3.56511   3.58629   3.59336
 Alpha virt. eigenvalues --    3.61681   3.62100   3.62348   3.62913   3.64668
 Alpha virt. eigenvalues --    3.65851   3.67358   3.68480   3.69907   3.71050
 Alpha virt. eigenvalues --    3.71378   3.72464   3.73467   3.74062   3.74689
 Alpha virt. eigenvalues --    3.75770   3.76986   3.78536   3.79678   3.80874
 Alpha virt. eigenvalues --    3.81323   3.83871   3.86196   3.87292   3.90798
 Alpha virt. eigenvalues --    3.91085   3.92567   3.95496   3.96182   3.97258
 Alpha virt. eigenvalues --    3.99263   4.00391   4.02126   4.02881   4.04497
 Alpha virt. eigenvalues --    4.05953   4.06769   4.08233   4.10954   4.12143
 Alpha virt. eigenvalues --    4.12419   4.14140   4.15907   4.16000   4.18517
 Alpha virt. eigenvalues --    4.19760   4.22190   4.23137   4.23781   4.24167
 Alpha virt. eigenvalues --    4.26569   4.28978   4.29216   4.30144   4.31202
 Alpha virt. eigenvalues --    4.33275   4.34316   4.36178   4.37008   4.37642
 Alpha virt. eigenvalues --    4.38362   4.39641   4.41513   4.42609   4.43358
 Alpha virt. eigenvalues --    4.46973   4.48050   4.48992   4.50143   4.52782
 Alpha virt. eigenvalues --    4.53728   4.54053   4.54973   4.57694   4.58089
 Alpha virt. eigenvalues --    4.59700   4.60148   4.63234   4.63776   4.65957
 Alpha virt. eigenvalues --    4.67305   4.69433   4.71932   4.75293   4.77268
 Alpha virt. eigenvalues --    4.78136   4.81440   4.85325   4.88281   4.88420
 Alpha virt. eigenvalues --    4.89390   4.92618   4.96667   5.00753   5.02236
 Alpha virt. eigenvalues --    5.04051   5.06959   5.10301   5.11565   5.12247
 Alpha virt. eigenvalues --    5.14189   5.14650   5.18759   5.19927   5.21974
 Alpha virt. eigenvalues --    5.23679   5.25615   5.27602   5.30039   5.31591
 Alpha virt. eigenvalues --    5.33405   5.35243   5.35443   5.37649   5.39538
 Alpha virt. eigenvalues --    5.41192   5.43341   5.44315   5.48304   5.49160
 Alpha virt. eigenvalues --    5.49661   5.51659   5.52550   5.54222   5.56220
 Alpha virt. eigenvalues --    5.57246   5.58299   5.59456   5.60718   5.62688
 Alpha virt. eigenvalues --    5.64091   5.65831   5.66593   5.67478   5.68835
 Alpha virt. eigenvalues --    5.70814   5.72087   5.73673   5.74690   5.77049
 Alpha virt. eigenvalues --    5.78039   5.78668   5.80724   5.88294   5.92426
 Alpha virt. eigenvalues --    5.98739   5.99203   6.01206   6.01827   6.06327
 Alpha virt. eigenvalues --    6.09902   6.12356   6.14479   6.18143   6.20015
 Alpha virt. eigenvalues --    6.23969   6.24639   6.26592   6.30109   6.31878
 Alpha virt. eigenvalues --    6.32754   6.35827   6.41185   6.41794   6.53722
 Alpha virt. eigenvalues --    6.57863   6.63807   6.71724   6.78441   6.80648
 Alpha virt. eigenvalues --    6.84736   6.89575   6.89950   6.95693   6.99457
 Alpha virt. eigenvalues --    7.07598   7.20460   7.32101   7.34011   7.46740
 Alpha virt. eigenvalues --    7.51153   7.52888   7.55152   7.61170   9.64268
 Alpha virt. eigenvalues --   10.47074  12.71087  12.72797  13.40081  13.61973
 Alpha virt. eigenvalues --   13.67129  14.19933  14.82768  14.98091
          Condensed to atoms (all electrons):
              1          2          3          4          5          6
     1  H    0.557621   0.373649  -0.028830  -0.013523  -0.040560   0.007047
     2  C    0.373649   5.177137   0.361660   0.358212   0.321972  -0.102511
     3  H   -0.028830   0.361660   0.577250  -0.027619  -0.025813   0.002095
     4  H   -0.013523   0.358212  -0.027619   0.549159  -0.019383   0.001338
     5  C   -0.040560   0.321972  -0.025813  -0.019383   4.646309   0.733158
     6  O    0.007047  -0.102511   0.002095   0.001338   0.733158   7.948174
     7  N    0.008357  -0.112075   0.004442   0.003191   0.295205  -0.166309
     8  H    0.000449  -0.006386  -0.001084  -0.000263  -0.023498   0.004308
     9  C   -0.000396   0.008200  -0.000731  -0.000378  -0.068338  -0.001288
    10  H   -0.000058   0.001632  -0.000019  -0.000192  -0.002974   0.014241
    11  C    0.000002   0.000235  -0.000076  -0.000050   0.003950   0.001086
    12  H    0.000003  -0.000173   0.000110  -0.000004  -0.000548  -0.000028
    13  H   -0.000002   0.000040  -0.000003  -0.000002   0.000051   0.000045
    14  H    0.000005  -0.000109  -0.000060   0.000070  -0.000202  -0.000187
    15  C    0.000016  -0.000464   0.000185   0.000082   0.008237   0.004034
    16  O   -0.000006  -0.001219   0.001601   0.000017   0.020737  -0.001777
    17  N    0.000001  -0.000074   0.000029   0.000001  -0.000660  -0.000934
    18  H    0.000000  -0.000004   0.000000   0.000000  -0.000053  -0.000064
    19  C    0.000000  -0.000002   0.000000   0.000000  -0.000068  -0.000025
    20  H    0.000000   0.000000   0.000000   0.000000   0.000007  -0.000001
    21  H    0.000000   0.000000   0.000000   0.000000  -0.000004   0.000000
    22  H    0.000000   0.000001  -0.000001   0.000000  -0.000043   0.000005
              7          8          9         10         11         12
     1  H    0.008357   0.000449  -0.000396  -0.000058   0.000002   0.000003
     2  C   -0.112075  -0.006386   0.008200   0.001632   0.000235  -0.000173
     3  H    0.004442  -0.001084  -0.000731  -0.000019  -0.000076   0.000110
     4  H    0.003191  -0.000263  -0.000378  -0.000192  -0.000050  -0.000004
     5  C    0.295205  -0.023498  -0.068338  -0.002974   0.003950  -0.000548
     6  O   -0.166309   0.004308  -0.001288   0.014241   0.001086  -0.000028
     7  N    6.652877   0.336620   0.255833  -0.054439  -0.065574  -0.006224
     8  H    0.336620   0.487294  -0.035742   0.004650  -0.002103   0.004003
     9  C    0.255833  -0.035742   5.392620   0.353888   0.258764  -0.044180
    10  H   -0.054439   0.004650   0.353888   0.589536  -0.013559   0.009378
    11  C   -0.065574  -0.002103   0.258764  -0.013559   5.089972   0.385604
    12  H   -0.006224   0.004003  -0.044180   0.009378   0.385604   0.582482
    13  H    0.005014   0.000467  -0.033327  -0.004832   0.377593  -0.023477
    14  H    0.007994  -0.001748  -0.051721  -0.014050   0.388925  -0.037096
    15  C   -0.034332  -0.001396   0.173970  -0.069038  -0.046047  -0.010887
    16  O   -0.010443   0.000201  -0.099322   0.004746   0.000579   0.004923
    17  N    0.003601   0.000054  -0.080378   0.016663   0.002447   0.001754
    18  H    0.000188  -0.000003   0.002088  -0.000044  -0.001537   0.000052
    19  C   -0.000087   0.000010   0.007267  -0.001258  -0.000251  -0.000086
    20  H    0.000002   0.000000   0.000060  -0.000177  -0.000010   0.000000
    21  H    0.000004  -0.000001  -0.000267   0.000162   0.000032   0.000013
    22  H    0.000000   0.000000   0.001703  -0.000308  -0.000066  -0.000035
             13         14         15         16         17         18
     1  H   -0.000002   0.000005   0.000016  -0.000006   0.000001   0.000000
     2  C    0.000040  -0.000109  -0.000464  -0.001219  -0.000074  -0.000004
     3  H   -0.000003  -0.000060   0.000185   0.001601   0.000029   0.000000
     4  H   -0.000002   0.000070   0.000082   0.000017   0.000001   0.000000
     5  C    0.000051  -0.000202   0.008237   0.020737  -0.000660  -0.000053
     6  O    0.000045  -0.000187   0.004034  -0.001777  -0.000934  -0.000064
     7  N    0.005014   0.007994  -0.034332  -0.010443   0.003601   0.000188
     8  H    0.000467  -0.001748  -0.001396   0.000201   0.000054  -0.000003
     9  C   -0.033327  -0.051721   0.173970  -0.099322  -0.080378   0.002088
    10  H   -0.004832  -0.014050  -0.069038   0.004746   0.016663  -0.000044
    11  C    0.377593   0.388925  -0.046047   0.000579   0.002447  -0.001537
    12  H   -0.023477  -0.037096  -0.010887   0.004923   0.001754   0.000052
    13  H    0.553000  -0.021471   0.002632  -0.000273  -0.001044   0.000436
    14  H   -0.021471   0.580238   0.010205  -0.000718  -0.000643  -0.000051
    15  C    0.002632   0.010205   4.806164   0.682090   0.322213  -0.014333
    16  O   -0.000273  -0.000718   0.682090   7.948487  -0.116137   0.003441
    17  N   -0.001044  -0.000643   0.322213  -0.116137   6.520392   0.337251
    18  H    0.000436  -0.000051  -0.014333   0.003441   0.337251   0.468259
    19  C    0.000063   0.000055  -0.042515  -0.001847   0.269605  -0.027100
    20  H    0.000018   0.000001   0.001728   0.000198  -0.027143  -0.002327
    21  H   -0.000020  -0.000007  -0.000367  -0.000097  -0.030879  -0.003576
    22  H    0.000001   0.000007  -0.002229   0.013128  -0.028825   0.004325
             19         20         21         22
     1  H    0.000000   0.000000   0.000000   0.000000
     2  C   -0.000002   0.000000   0.000000   0.000001
     3  H    0.000000   0.000000   0.000000  -0.000001
     4  H    0.000000   0.000000   0.000000   0.000000
     5  C   -0.000068   0.000007  -0.000004  -0.000043
     6  O   -0.000025  -0.000001   0.000000   0.000005
     7  N   -0.000087   0.000002   0.000004   0.000000
     8  H    0.000010   0.000000  -0.000001   0.000000
     9  C    0.007267   0.000060  -0.000267   0.001703
    10  H   -0.001258  -0.000177   0.000162  -0.000308
    11  C   -0.000251  -0.000010   0.000032  -0.000066
    12  H   -0.000086   0.000000   0.000013  -0.000035
    13  H    0.000063   0.000018  -0.000020   0.000001
    14  H    0.000055   0.000001  -0.000007   0.000007
    15  C   -0.042515   0.001728  -0.000367  -0.002229
    16  O   -0.001847   0.000198  -0.000097   0.013128
    17  N    0.269605  -0.027143  -0.030879  -0.028825
    18  H   -0.027100  -0.002327  -0.003576   0.004325
    19  C    4.913498   0.383196   0.390602   0.377538
    20  H    0.383196   0.579286  -0.050689  -0.024711
    21  H    0.390602  -0.050689   0.576157  -0.026760
    22  H    0.377538  -0.024711  -0.026760   0.542455
 Mulliken atomic charges:
              1
     1  H    0.136225
     2  C   -0.379721
     3  H    0.136864
     4  H    0.149345
     5  C    0.152518
     6  O   -0.442409
     7  N   -0.123842
     8  H    0.234166
     9  C   -0.038325
    10  H    0.166051
    11  C   -0.379916
    12  H    0.134419
    13  H    0.145089
    14  H    0.140564
    15  C    0.210050
    16  O   -0.448308
    17  N   -0.187294
    18  H    0.233050
    19  C   -0.268597
    20  H    0.140561
    21  H    0.145695
    22  H    0.143815
 Sum of Mulliken atomic charges =   0.00000
 Mulliken charges with hydrogens summed into heavy atoms:
              1
     2  C    0.042713
     5  C    0.152518
     6  O   -0.442409
     7  N    0.110324
     9  C    0.127726
    11  C    0.040155
    15  C    0.210050
    16  O   -0.448308
    17  N    0.045756
    19  C    0.161474
 Sum of Mulliken charges with hydrogens summed into heavy atoms =   0.00000
 Electronic spatial extent (au):  <R**2>=           1857.8017
 Charge=              0.0000 electrons
 Dipole moment (field-independent basis, Debye):
    X=              3.3637    Y=              7.0304    Z=             -0.1912  Tot=              7.7960
 Quadrupole moment (field-independent basis, Debye-Ang):
   XX=            -40.5619   YY=            -59.8760   ZZ=            -67.7812
   XY=             -5.0410   XZ=            -11.4697   YZ=             -1.7224
 Traceless Quadrupole moment (field-independent basis, Debye-Ang):
   XX=             15.5111   YY=             -3.8029   ZZ=            -11.7082
   XY=             -5.0410   XZ=            -11.4697   YZ=             -1.7224
 Octapole moment (field-independent basis, Debye-Ang**2):
  XXX=             43.6973  YYY=             12.7265  ZZZ=             -1.7988  XYY=             10.3462
  XXY=              4.3199  XXZ=              3.6228  XZZ=              2.9001  YZZ=             10.8742
  YYZ=              3.8052  XYZ=              4.8109
 Hexadecapole moment (field-independent basis, Debye-Ang**3):
 XXXX=          -1406.8109 YYYY=           -519.6307 ZZZZ=           -233.3524 XXXY=            -47.0746
 XXXZ=            -51.1209 YYYX=            -13.8307 YYYZ=             -8.6487 ZZZX=            -18.0600
 ZZZY=              0.4765 XXYY=           -344.1356 XXZZ=           -325.2157 YYZZ=           -131.8288
 XXYZ=            -14.5735 YYXZ=            -17.8631 ZZXY=             -5.4784
 N-N= 5.564034258782D+02 E-N=-2.266094657040D+03  KE= 4.946653391992D+02
 Merz-Kollman atomic radii used.

 **********************************************************************

          Electrostatic Properties Using The MP2 Density

 **********************************************************************

       Atomic Center    1 is at  -3.702727 -1.574252  0.328141
       Atomic Center    2 is at  -3.296278 -0.583032  0.529092
       Atomic Center    3 is at  -3.093172 -0.561843  1.599793
       Atomic Center    4 is at  -3.995011  0.228404  0.325514
       Atomic Center    5 is at  -2.047332 -0.415054 -0.323187
       Atomic Center    6 is at  -1.769148 -1.249408 -1.131844
       Atomic Center    7 is at  -1.320255  0.626044 -0.025337
       Atomic Center    8 is at  -1.687631  1.311886  0.618679
       Atomic Center    9 is at   0.082867  0.918143 -0.298634
       Atomic Center   10 is at   0.215163  0.731094 -1.364284
       Atomic Center   11 is at   0.283262  2.324364  0.009801
       Atomic Center   12 is at   0.140163  2.491456  1.077369
       Atomic Center   13 is at   1.224112  2.745451 -0.344580
       Atomic Center   14 is at  -0.508952  2.872574 -0.500066
       Atomic Center   15 is at   1.121551 -0.061164  0.296477
       Atomic Center   16 is at   0.796189 -0.755830  1.287799
       Atomic Center   17 is at   2.330710 -0.084740 -0.357752
       Atomic Center   18 is at   2.619617  0.764916 -0.821127
       Atomic Center   19 is at   3.508142 -1.022177 -0.104078
       Atomic Center   20 is at   3.975893 -1.396371 -1.014730
       Atomic Center   21 is at   4.335458 -0.459871  0.328888
       Atomic Center   22 is at   3.274311 -1.867156  0.543559
    1039 points will be used for fitting atomic charges
 Fitting point charges to electrostatic potential
 Charges from ESP fit, RMS=   0.00162 RRMS=   0.04788:
 Charge=   0.00000 Dipole=     3.3390     7.0217    -0.1840 Tot=     7.7774
              1
     1  H    0.158485
     2  C   -0.566657
     3  H    0.152837
     4  H    0.161691
     5  C    0.811807
     6  O   -0.705788
     7  N   -0.619082
     8  H    0.369282
     9  C    0.216824
    10  H    0.052450
    11  C   -0.520277
    12  H    0.151689
    13  H    0.153274
    14  H    0.163701
    15  C    0.640135
    16  O   -0.644068
    17  N   -0.636801
    18  H    0.399805
    19  C    0.069273
    20  H    0.064085
    21  H    0.058068
    22  H    0.069265
 -----------------------------------------------------------------

              Electrostatic Properties (Atomic Units)

 -----------------------------------------------------------------
    Center     Electric         -------- Electric Field --------
               Potential          X             Y             Z
 -----------------------------------------------------------------
    1 Atom     -1.124889
    2 Atom    -14.776605
    3 Atom     -1.101936
    4 Atom     -1.086044
    5 Atom    -14.692448
    6 Atom    -22.446905
    7 Atom    -18.350982
    8 Atom     -0.980708
    9 Atom    -14.699215
   10 Atom     -1.096091
   11 Atom    -14.733485
   12 Atom     -1.073392
   13 Atom     -1.058305
   14 Atom     -1.072197
   15 Atom    -14.654215
   16 Atom    -22.421991
   17 Atom    -18.320234
   18 Atom     -0.961221
   19 Atom    -14.706030
   20 Atom     -1.080002
   21 Atom     -1.079266
   22 Atom     -1.094459
 -----------------------------------------------------------------

 Test job not archived.
 1\1\GINC-TACHIKOMA\SP\RMP2-FC\CC-pVTZ\C6H12N2O2\STEBOSS\19-Mar-2017\0\
 \#MP2/cc-pvTZ density=MP2, charge, maxdisk=16GB, pop=(minimal, MK), 5d
 , punch=mo\\Generated by mdgx\\0,1\H,0,-3.7027273,-1.5742518,0.3281407
 \C,0,-3.296278,-0.5830317,0.5290923\H,0,-3.093172,-0.561843,1.5997929\
 H,0,-3.9950107,0.2284043,0.325514\C,0,-2.0473323,-0.4150543,-0.3231872
 \O,0,-1.7691476,-1.2494078,-1.131844\N,0,-1.3202554,0.6260437,-0.02533
 7\H,0,-1.6876307,1.3118854,0.6186789\C,0,0.0828665,0.918143,-0.2986335
 \H,0,0.2151632,0.7310939,-1.3642836\C,0,0.2832616,2.3243641,0.0098007\
 H,0,0.1401632,2.4914559,1.077369\H,0,1.2241123,2.7454509,-0.3445803\H,
 0,-0.5089518,2.8725739,-0.5000661\C,0,1.1215509,-0.0611645,0.2964774\O
 ,0,0.7961891,-0.7558299,1.287799\N,0,2.3307095,-0.0847404,-0.357752\H,
 0,2.6196165,0.7649162,-0.8211269\C,0,3.5081418,-1.0221768,-0.104078\H,
 0,3.9758929,-1.3963707,-1.0147303\H,0,4.3354583,-0.4598708,0.3288879\H
 ,0,3.2743108,-1.8671557,0.5435591\\Version=EM64L-G09RevA.02\State=1-A\
 HF=-492.4383331\MP2=-494.3136188\RMSD=8.416e-09\Dipole=1.323367,2.7659
 623,-0.0752334\Quadrupole=11.5321513,-2.8273837,-8.7047676,-3.7478421,
 -8.5274684,-1.2805728\PG=C01 [X(C6H12N2O2)]\\@


 I DON'T PRETEND TO UNDERSTAND THE UNIVERSE --
 IT'S A GREAT DEAL BIGGER THAN I AM.
       -- ATTR. TO WILLIAM ALLINGHAM (1828-89)
 Job cpu time:  0 days  2 hours 39 minutes 12.5 seconds.
 File lengths (MBytes):  RWF=  12852 Int=      0 D2E=      0 Chk=     14 Scr=      1
 Normal termination of Gaussian 09 at Sun Mar 19 20:34:31 2017.
