 Entering Gaussian System, Link 0=g09
 Initial command:
 /home/steboss/Software/g09/l1.exe /tmp/Gau-8494.inp -scrdir=/tmp/
 Entering Link 1 = /home/steboss/Software/g09/l1.exe PID=      8496.
  
 Copyright (c) 1988,1990,1992,1993,1995,1998,2003,2009, Gaussian, Inc.
                  All Rights Reserved.
  
 This is part of the Gaussian(R) 09 program.  It is based on
 the Gaussian(R) 03 system (copyright 2003, Gaussian, Inc.),
 the Gaussian(R) 98 system (copyright 1998, Gaussian, Inc.),
 the Gaussian(R) 94 system (copyright 1995, Gaussian, Inc.),
 the Gaussian 92(TM) system (copyright 1992, Gaussian, Inc.),
 the Gaussian 90(TM) system (copyright 1990, Gaussian, Inc.),
 the Gaussian 88(TM) system (copyright 1988, Gaussian, Inc.),
 the Gaussian 86(TM) system (copyright 1986, Carnegie Mellon
 University), and the Gaussian 82(TM) system (copyright 1983,
 Carnegie Mellon University). Gaussian is a federally registered
 trademark of Gaussian, Inc.
  
 This software contains proprietary and confidential information,
 including trade secrets, belonging to Gaussian, Inc.
  
 This software is provided under written license and may be
 used, copied, transmitted, or stored only in accord with that
 written license.
  
 The following legend is applicable only to US Government
 contracts under FAR:
  
                    RESTRICTED RIGHTS LEGEND
  
 Use, reproduction and disclosure by the US Government is
 subject to restrictions as set forth in subparagraphs (a)
 and (c) of the Commercial Computer Software - Restricted
 Rights clause in FAR 52.227-19.
  
 Gaussian, Inc.
 340 Quinnipiac St., Bldg. 40, Wallingford CT 06492
  
  
 ---------------------------------------------------------------
 Warning -- This program may not be used in any manner that
 competes with the business of Gaussian, Inc. or will provide
 assistance to any competitor of Gaussian, Inc.  The licensee
 of this program is prohibited from giving any competitor of
 Gaussian, Inc. access to this program.  By using this program,
 the user acknowledges that Gaussian, Inc. is engaged in the
 business of creating and licensing software in the field of
 computational chemistry and represents and warrants to the
 licensee that it is not a competitor of Gaussian, Inc. and that
 it will not use this program in any manner prohibited above.
 ---------------------------------------------------------------
  

 Cite this work as:
 Gaussian 09, Revision A.02,
 M. J. Frisch, G. W. Trucks, H. B. Schlegel, G. E. Scuseria, 
 M. A. Robb, J. R. Cheeseman, G. Scalmani, V. Barone, B. Mennucci, 
 G. A. Petersson, H. Nakatsuji, M. Caricato, X. Li, H. P. Hratchian, 
 A. F. Izmaylov, J. Bloino, G. Zheng, J. L. Sonnenberg, M. Hada, 
 M. Ehara, K. Toyota, R. Fukuda, J. Hasegawa, M. Ishida, T. Nakajima, 
 Y. Honda, O. Kitao, H. Nakai, T. Vreven, J. A. Montgomery, Jr., 
 J. E. Peralta, F. Ogliaro, M. Bearpark, J. J. Heyd, E. Brothers, 
 K. N. Kudin, V. N. Staroverov, R. Kobayashi, J. Normand, 
 K. Raghavachari, A. Rendell, J. C. Burant, S. S. Iyengar, J. Tomasi, 
 M. Cossi, N. Rega, J. M. Millam, M. Klene, J. E. Knox, J. B. Cross, 
 V. Bakken, C. Adamo, J. Jaramillo, R. Gomperts, R. E. Stratmann, 
 O. Yazyev, A. J. Austin, R. Cammi, C. Pomelli, J. W. Ochterski, 
 R. L. Martin, K. Morokuma, V. G. Zakrzewski, G. A. Voth, 
 P. Salvador, J. J. Dannenberg, S. Dapprich, A. D. Daniels, 
 O. Farkas, J. B. Foresman, J. V. Ortiz, J. Cioslowski, 
 and D. J. Fox, Gaussian, Inc., Wallingford CT, 2009.
 
 ******************************************
 Gaussian 09:  EM64L-G09RevA.02 11-Jun-2009
                27-Dec-2016 
 ******************************************
 %chk=structure_150.chk
 -------------------------------------------------------------------
 # HF/6-31G* Opt=(ModRedundant, maxcycles=1000, calcfc) geom=nocrowd
 -------------------------------------------------------------------
 1/6=1000,10=4,18=120,19=15,38=1/1,3;
 2/9=110,12=1,17=6,18=5,40=1/2;
 3/5=1,6=6,7=1,11=9,16=1,25=1,30=1,71=2/1,2,3;
 4//1;
 5/5=2,38=5/2;
 8/6=4,10=90,11=11/1;
 11/6=1,8=1,9=11,15=111,16=1/1,2,10;
 10/6=1,7=6,13=1/2;
 6/7=2,8=2,9=2,10=2,28=1/1;
 7/10=1,18=20,25=1/1,2,3,16;
 1/6=1000,10=4,18=20,19=15/3(2);
 2/9=110,12=1/2;
 99//99;
 2/9=110,12=1/2;
 3/5=1,6=6,7=1,11=9,16=1,25=1,30=1,71=1/1,2,3;
 4/5=5,16=3/1;
 5/5=2,38=5/2;
 7//1,2,3,16;
 1/6=1000,18=20,19=15/3(-5);
 2/9=110,12=1/2;
 6/7=2,8=2,9=2,10=2,19=2,28=1/1;
 99/9=1/99;
 ------------------
 Phi Psi fixed scan
 ------------------
 Symbolic Z-matrix:
 Charge =  0 Multiplicity = 1
 H                     7.7691    1.        3.3308 
 C                     7.7691    2.09      3.3308 
 H                     8.7966    2.4538    3.3308 
 H                     7.2553    2.4538    4.2206 
 C                     7.0554    2.6408    2.0946 
 O                     6.5738    1.8774    1.2605 
 N                     6.9914    3.9696    1.9838 
 H                     7.4025    4.5561    2.6959 
 C                     6.3424    4.6139    0.8598 
 H                     6.8359    4.3155   -0.0652 
 C                     4.8714    4.2208    0.7761 
 H                     4.3618    4.5213    1.6916 
 H                     4.4096    4.7189   -0.0764 
 H                     4.7897    3.1409    0.6532 
 C                     6.4127    6.1294    0.9815 
 O                     6.9688    6.6527    1.9446 
 N                     5.846     6.8349    0. 
 H                     5.4006    6.3592   -0.7716 
 C                     5.8461    8.2839    0. 
 H                     5.3323    8.6477   -0.8898 
 C                     5.1347    8.8329    1.2322 
 H                     5.6431    8.4846    2.1312 
 H                     5.1499    9.9224    1.2058 
 H                     4.1019    8.4846    1.2414 
 C                     7.266     8.8318    0. 
 O                     8.1781    8.2008    0.5295 
 N                     7.4515    10.0115  -0.5968 
 H                     6.67      10.4926  -1.0184 
 C                     8.7559    10.639   -0.6638 
 H                     9.127     10.8154   0.3458 
 C                     9.754     9.7533   -1.402 
 H                     9.4006    9.5752   -2.4177 
 H                     10.724    10.2493  -1.4371 
 H                     9.8517    8.8016   -0.8798 
 C                     8.6859    11.9714  -1.396 
 O                     7.6167    12.3837  -1.8403 
 N                     9.8314    12.6456  -1.5211 
 H                     10.6854   12.2655  -1.1388 
 C                     9.8966    13.9257  -2.197 
 H                     8.9033    14.2009  -2.5517 
 H                     10.2576   14.6853  -1.5037 
 H                     10.5779   13.8551  -3.0449 
 
 The following ModRedundant input section has been read:
 D   15   17   19   25 F                                                       
 D   17   19   25   27 F                                                       

 GradGradGradGradGradGradGradGradGradGradGradGradGradGradGradGradGradGrad
 Berny optimization.
 Initialization pass.
                           ----------------------------
                           !    Initial Parameters    !
                           ! (Angstroms and Degrees)  !
 --------------------------                            --------------------------
 ! Name  Definition              Value          Derivative Info.                !
 --------------------------------------------------------------------------------
 ! R1    R(1,2)                  1.09           calculate D2E/DX2 analytically  !
 ! R2    R(2,3)                  1.09           calculate D2E/DX2 analytically  !
 ! R3    R(2,4)                  1.09           calculate D2E/DX2 analytically  !
 ! R4    R(2,5)                  1.53           calculate D2E/DX2 analytically  !
 ! R5    R(5,6)                  1.229          calculate D2E/DX2 analytically  !
 ! R6    R(5,7)                  1.3349         calculate D2E/DX2 analytically  !
 ! R7    R(7,8)                  1.01           calculate D2E/DX2 analytically  !
 ! R8    R(7,9)                  1.449          calculate D2E/DX2 analytically  !
 ! R9    R(9,10)                 1.0901         calculate D2E/DX2 analytically  !
 ! R10   R(9,11)                 1.5249         calculate D2E/DX2 analytically  !
 ! R11   R(9,15)                 1.522          calculate D2E/DX2 analytically  !
 ! R12   R(11,12)                1.09           calculate D2E/DX2 analytically  !
 ! R13   R(11,13)                1.09           calculate D2E/DX2 analytically  !
 ! R14   R(11,14)                1.0899         calculate D2E/DX2 analytically  !
 ! R15   R(15,16)                1.2291         calculate D2E/DX2 analytically  !
 ! R16   R(15,17)                1.335          calculate D2E/DX2 analytically  !
 ! R17   R(17,18)                1.01           calculate D2E/DX2 analytically  !
 ! R18   R(17,19)                1.449          calculate D2E/DX2 analytically  !
 ! R19   R(19,20)                1.09           calculate D2E/DX2 analytically  !
 ! R20   R(19,21)                1.5251         calculate D2E/DX2 analytically  !
 ! R21   R(19,25)                1.5219         calculate D2E/DX2 analytically  !
 ! R22   R(21,22)                1.0899         calculate D2E/DX2 analytically  !
 ! R23   R(21,23)                1.0899         calculate D2E/DX2 analytically  !
 ! R24   R(21,24)                1.09           calculate D2E/DX2 analytically  !
 ! R25   R(25,26)                1.229          calculate D2E/DX2 analytically  !
 ! R26   R(25,27)                1.335          calculate D2E/DX2 analytically  !
 ! R27   R(27,28)                1.0099         calculate D2E/DX2 analytically  !
 ! R28   R(27,29)                1.449          calculate D2E/DX2 analytically  !
 ! R29   R(29,30)                1.09           calculate D2E/DX2 analytically  !
 ! R30   R(29,31)                1.525          calculate D2E/DX2 analytically  !
 ! R31   R(29,35)                1.5219         calculate D2E/DX2 analytically  !
 ! R32   R(31,32)                1.0901         calculate D2E/DX2 analytically  !
 ! R33   R(31,33)                1.09           calculate D2E/DX2 analytically  !
 ! R34   R(31,34)                1.0899         calculate D2E/DX2 analytically  !
 ! R35   R(35,36)                1.2291         calculate D2E/DX2 analytically  !
 ! R36   R(35,37)                1.3351         calculate D2E/DX2 analytically  !
 ! R37   R(37,38)                1.0099         calculate D2E/DX2 analytically  !
 ! R38   R(37,39)                1.4491         calculate D2E/DX2 analytically  !
 ! R39   R(39,40)                1.09           calculate D2E/DX2 analytically  !
 ! R40   R(39,41)                1.0899         calculate D2E/DX2 analytically  !
 ! R41   R(39,42)                1.09           calculate D2E/DX2 analytically  !
 ! A1    A(1,2,3)              109.4972         calculate D2E/DX2 analytically  !
 ! A2    A(1,2,4)              109.4974         calculate D2E/DX2 analytically  !
 ! A3    A(1,2,5)              111.1            calculate D2E/DX2 analytically  !
 ! A4    A(3,2,4)              109.4481         calculate D2E/DX2 analytically  !
 ! A5    A(3,2,5)              108.6367         calculate D2E/DX2 analytically  !
 ! A6    A(4,2,5)              108.6348         calculate D2E/DX2 analytically  !
 ! A7    A(2,5,6)              120.4994         calculate D2E/DX2 analytically  !
 ! A8    A(2,5,7)              116.6003         calculate D2E/DX2 analytically  !
 ! A9    A(6,5,7)              122.9003         calculate D2E/DX2 analytically  !
 ! A10   A(5,7,8)              119.9996         calculate D2E/DX2 analytically  !
 ! A11   A(5,7,9)              121.9007         calculate D2E/DX2 analytically  !
 ! A12   A(8,7,9)              118.0998         calculate D2E/DX2 analytically  !
 ! A13   A(7,9,10)             109.4963         calculate D2E/DX2 analytically  !
 ! A14   A(7,9,11)             111.1004         calculate D2E/DX2 analytically  !
 ! A15   A(7,9,15)             111.102          calculate D2E/DX2 analytically  !
 ! A16   A(10,9,11)            108.6374         calculate D2E/DX2 analytically  !
 ! A17   A(10,9,15)            108.634          calculate D2E/DX2 analytically  !
 ! A18   A(11,9,15)            107.7959         calculate D2E/DX2 analytically  !
 ! A19   A(9,11,12)            109.5007         calculate D2E/DX2 analytically  !
 ! A20   A(9,11,13)            109.5005         calculate D2E/DX2 analytically  !
 ! A21   A(9,11,14)            109.5061         calculate D2E/DX2 analytically  !
 ! A22   A(12,11,13)           109.441          calculate D2E/DX2 analytically  !
 ! A23   A(12,11,14)           109.4392         calculate D2E/DX2 analytically  !
 ! A24   A(13,11,14)           109.4397         calculate D2E/DX2 analytically  !
 ! A25   A(9,15,16)            120.4974         calculate D2E/DX2 analytically  !
 ! A26   A(9,15,17)            116.6034         calculate D2E/DX2 analytically  !
 ! A27   A(16,15,17)           122.8992         calculate D2E/DX2 analytically  !
 ! A28   A(15,17,18)           119.9987         calculate D2E/DX2 analytically  !
 ! A29   A(15,17,19)           121.8998         calculate D2E/DX2 analytically  !
 ! A30   A(18,17,19)           118.1015         calculate D2E/DX2 analytically  !
 ! A31   A(17,19,20)           109.4954         calculate D2E/DX2 analytically  !
 ! A32   A(17,19,21)           111.0974         calculate D2E/DX2 analytically  !
 ! A33   A(17,19,25)           111.1042         calculate D2E/DX2 analytically  !
 ! A34   A(20,19,21)           108.6349         calculate D2E/DX2 analytically  !
 ! A35   A(20,19,25)           108.6399         calculate D2E/DX2 analytically  !
 ! A36   A(21,19,25)           107.7944         calculate D2E/DX2 analytically  !
 ! A37   A(19,21,22)           109.4996         calculate D2E/DX2 analytically  !
 ! A38   A(19,21,23)           109.4977         calculate D2E/DX2 analytically  !
 ! A39   A(19,21,24)           109.4988         calculate D2E/DX2 analytically  !
 ! A40   A(22,21,23)           109.4452         calculate D2E/DX2 analytically  !
 ! A41   A(22,21,24)           109.4447         calculate D2E/DX2 analytically  !
 ! A42   A(23,21,24)           109.4412         calculate D2E/DX2 analytically  !
 ! A43   A(19,25,26)           120.5009         calculate D2E/DX2 analytically  !
 ! A44   A(19,25,27)           116.5995         calculate D2E/DX2 analytically  !
 ! A45   A(26,25,27)           122.8996         calculate D2E/DX2 analytically  !
 ! A46   A(25,27,28)           120.0031         calculate D2E/DX2 analytically  !
 ! A47   A(25,27,29)           121.8985         calculate D2E/DX2 analytically  !
 ! A48   A(28,27,29)           118.0984         calculate D2E/DX2 analytically  !
 ! A49   A(27,29,30)           109.4952         calculate D2E/DX2 analytically  !
 ! A50   A(27,29,31)           111.1026         calculate D2E/DX2 analytically  !
 ! A51   A(27,29,35)           111.0976         calculate D2E/DX2 analytically  !
 ! A52   A(30,29,31)           108.634          calculate D2E/DX2 analytically  !
 ! A53   A(30,29,35)           108.6378         calculate D2E/DX2 analytically  !
 ! A54   A(31,29,35)           107.7989         calculate D2E/DX2 analytically  !
 ! A55   A(29,31,32)           109.4963         calculate D2E/DX2 analytically  !
 ! A56   A(29,31,33)           109.4957         calculate D2E/DX2 analytically  !
 ! A57   A(29,31,34)           109.504          calculate D2E/DX2 analytically  !
 ! A58   A(32,31,33)           109.4414         calculate D2E/DX2 analytically  !
 ! A59   A(32,31,34)           109.44           calculate D2E/DX2 analytically  !
 ! A60   A(33,31,34)           109.4499         calculate D2E/DX2 analytically  !
 ! A61   A(29,35,36)           120.5047         calculate D2E/DX2 analytically  !
 ! A62   A(29,35,37)           116.5977         calculate D2E/DX2 analytically  !
 ! A63   A(36,35,37)           122.8976         calculate D2E/DX2 analytically  !
 ! A64   A(35,37,38)           120.0009         calculate D2E/DX2 analytically  !
 ! A65   A(35,37,39)           121.8996         calculate D2E/DX2 analytically  !
 ! A66   A(38,37,39)           118.0995         calculate D2E/DX2 analytically  !
 ! A67   A(37,39,40)           109.5002         calculate D2E/DX2 analytically  !
 ! A68   A(37,39,41)           109.5035         calculate D2E/DX2 analytically  !
 ! A69   A(37,39,42)           109.4964         calculate D2E/DX2 analytically  !
 ! A70   A(40,39,41)           109.4418         calculate D2E/DX2 analytically  !
 ! A71   A(40,39,42)           109.4389         calculate D2E/DX2 analytically  !
 ! A72   A(41,39,42)           109.4465         calculate D2E/DX2 analytically  !
 ! D1    D(1,2,5,6)              0.0022         calculate D2E/DX2 analytically  !
 ! D2    D(1,2,5,7)            179.9987         calculate D2E/DX2 analytically  !
 ! D3    D(3,2,5,6)            120.5114         calculate D2E/DX2 analytically  !
 ! D4    D(3,2,5,7)            -59.4921         calculate D2E/DX2 analytically  !
 ! D5    D(4,2,5,6)           -120.5061         calculate D2E/DX2 analytically  !
 ! D6    D(4,2,5,7)             59.4904         calculate D2E/DX2 analytically  !
 ! D7    D(2,5,7,8)              0.0002         calculate D2E/DX2 analytically  !
 ! D8    D(2,5,7,9)           -179.997          calculate D2E/DX2 analytically  !
 ! D9    D(6,5,7,8)            179.9966         calculate D2E/DX2 analytically  !
 ! D10   D(6,5,7,9)             -0.0006         calculate D2E/DX2 analytically  !
 ! D11   D(5,7,9,10)           -60.0013         calculate D2E/DX2 analytically  !
 ! D12   D(5,7,9,11)            59.9987         calculate D2E/DX2 analytically  !
 ! D13   D(5,7,9,15)          -179.9979         calculate D2E/DX2 analytically  !
 ! D14   D(8,7,9,10)           120.0015         calculate D2E/DX2 analytically  !
 ! D15   D(8,7,9,11)          -119.9986         calculate D2E/DX2 analytically  !
 ! D16   D(8,7,9,15)             0.0048         calculate D2E/DX2 analytically  !
 ! D17   D(7,9,11,12)           60.0013         calculate D2E/DX2 analytically  !
 ! D18   D(7,9,11,13)         -179.9997         calculate D2E/DX2 analytically  !
 ! D19   D(7,9,11,14)          -59.999          calculate D2E/DX2 analytically  !
 ! D20   D(10,9,11,12)        -179.4899         calculate D2E/DX2 analytically  !
 ! D21   D(10,9,11,13)         -59.4908         calculate D2E/DX2 analytically  !
 ! D22   D(10,9,11,14)          60.5099         calculate D2E/DX2 analytically  !
 ! D23   D(15,9,11,12)         -61.9473         calculate D2E/DX2 analytically  !
 ! D24   D(15,9,11,13)          58.0517         calculate D2E/DX2 analytically  !
 ! D25   D(15,9,11,14)         178.0524         calculate D2E/DX2 analytically  !
 ! D26   D(7,9,15,16)           -0.0008         calculate D2E/DX2 analytically  !
 ! D27   D(7,9,15,17)          179.9993         calculate D2E/DX2 analytically  !
 ! D28   D(10,9,15,16)        -120.5084         calculate D2E/DX2 analytically  !
 ! D29   D(10,9,15,17)          59.4916         calculate D2E/DX2 analytically  !
 ! D30   D(11,9,15,16)         121.9468         calculate D2E/DX2 analytically  !
 ! D31   D(11,9,15,17)         -58.0532         calculate D2E/DX2 analytically  !
 ! D32   D(9,15,17,18)          -0.0073         calculate D2E/DX2 analytically  !
 ! D33   D(9,15,17,19)        -179.9972         calculate D2E/DX2 analytically  !
 ! D34   D(16,15,17,18)        179.9928         calculate D2E/DX2 analytically  !
 ! D35   D(16,15,17,19)          0.0029         calculate D2E/DX2 analytically  !
 ! D36   D(15,17,19,20)       -179.9987         calculate D2E/DX2 analytically  !
 ! D37   D(15,17,19,21)        -60.0044         calculate D2E/DX2 analytically  !
 ! D38   D(15,17,19,25)         59.9965         frozen, calculate D2E/DX2 analyt!
 ! D39   D(18,17,19,20)          0.0113         calculate D2E/DX2 analytically  !
 ! D40   D(18,17,19,21)        120.0055         calculate D2E/DX2 analytically  !
 ! D41   D(18,17,19,25)       -119.9935         calculate D2E/DX2 analytically  !
 ! D42   D(17,19,21,22)         60.0039         calculate D2E/DX2 analytically  !
 ! D43   D(17,19,21,23)       -179.9943         calculate D2E/DX2 analytically  !
 ! D44   D(17,19,21,24)        -59.998          calculate D2E/DX2 analytically  !
 ! D45   D(20,19,21,22)       -179.4919         calculate D2E/DX2 analytically  !
 ! D46   D(20,19,21,23)        -59.4901         calculate D2E/DX2 analytically  !
 ! D47   D(20,19,21,24)         60.5062         calculate D2E/DX2 analytically  !
 ! D48   D(25,19,21,22)        -61.9445         calculate D2E/DX2 analytically  !
 ! D49   D(25,19,21,23)         58.0573         calculate D2E/DX2 analytically  !
 ! D50   D(25,19,21,24)        178.0536         calculate D2E/DX2 analytically  !
 ! D51   D(17,19,25,26)        -30.0019         calculate D2E/DX2 analytically  !
 ! D52   D(17,19,25,27)        150.0033         frozen, calculate D2E/DX2 analyt!
 ! D53   D(20,19,25,26)       -150.5136         calculate D2E/DX2 analytically  !
 ! D54   D(20,19,25,27)         29.4916         calculate D2E/DX2 analytically  !
 ! D55   D(21,19,25,26)         91.9422         calculate D2E/DX2 analytically  !
 ! D56   D(21,19,25,27)        -88.0526         calculate D2E/DX2 analytically  !
 ! D57   D(19,25,27,28)         -0.0047         calculate D2E/DX2 analytically  !
 ! D58   D(19,25,27,29)       -179.9949         calculate D2E/DX2 analytically  !
 ! D59   D(26,25,27,28)       -179.9994         calculate D2E/DX2 analytically  !
 ! D60   D(26,25,27,29)          0.0104         calculate D2E/DX2 analytically  !
 ! D61   D(25,27,29,30)        -60.0053         calculate D2E/DX2 analytically  !
 ! D62   D(25,27,29,31)         59.991          calculate D2E/DX2 analytically  !
 ! D63   D(25,27,29,35)        179.9968         calculate D2E/DX2 analytically  !
 ! D64   D(28,27,29,30)        120.0044         calculate D2E/DX2 analytically  !
 ! D65   D(28,27,29,31)       -119.9993         calculate D2E/DX2 analytically  !
 ! D66   D(28,27,29,35)          0.0065         calculate D2E/DX2 analytically  !
 ! D67   D(27,29,31,32)         60.0039         calculate D2E/DX2 analytically  !
 ! D68   D(27,29,31,33)        179.9978         calculate D2E/DX2 analytically  !
 ! D69   D(27,29,31,34)        -59.9933         calculate D2E/DX2 analytically  !
 ! D70   D(30,29,31,32)       -179.4894         calculate D2E/DX2 analytically  !
 ! D71   D(30,29,31,33)        -59.4956         calculate D2E/DX2 analytically  !
 ! D72   D(30,29,31,34)         60.5133         calculate D2E/DX2 analytically  !
 ! D73   D(35,29,31,32)        -61.9425         calculate D2E/DX2 analytically  !
 ! D74   D(35,29,31,33)         58.0514         calculate D2E/DX2 analytically  !
 ! D75   D(35,29,31,34)        178.0603         calculate D2E/DX2 analytically  !
 ! D76   D(27,29,35,36)         -0.0049         calculate D2E/DX2 analytically  !
 ! D77   D(27,29,35,37)        179.9973         calculate D2E/DX2 analytically  !
 ! D78   D(30,29,35,36)       -120.5109         calculate D2E/DX2 analytically  !
 ! D79   D(30,29,35,37)         59.4914         calculate D2E/DX2 analytically  !
 ! D80   D(31,29,35,36)        121.9446         calculate D2E/DX2 analytically  !
 ! D81   D(31,29,35,37)        -58.0531         calculate D2E/DX2 analytically  !
 ! D82   D(29,35,37,38)         -0.0062         calculate D2E/DX2 analytically  !
 ! D83   D(29,35,37,39)       -179.9986         calculate D2E/DX2 analytically  !
 ! D84   D(36,35,37,38)        179.9961         calculate D2E/DX2 analytically  !
 ! D85   D(36,35,37,39)          0.0037         calculate D2E/DX2 analytically  !
 ! D86   D(35,37,39,40)         -0.0043         calculate D2E/DX2 analytically  !
 ! D87   D(35,37,39,41)        119.9972         calculate D2E/DX2 analytically  !
 ! D88   D(35,37,39,42)       -119.9979         calculate D2E/DX2 analytically  !
 ! D89   D(38,37,39,40)       -179.9968         calculate D2E/DX2 analytically  !
 ! D90   D(38,37,39,41)        -59.9953         calculate D2E/DX2 analytically  !
 ! D91   D(38,37,39,42)         60.0096         calculate D2E/DX2 analytically  !
 --------------------------------------------------------------------------------
 Trust Radius=3.00D-01 FncErr=1.00D-07 GrdErr=1.00D-07
 Number of steps in this run= 252 maximum allowed number of steps= 252.
 GradGradGradGradGradGradGradGradGradGradGradGradGradGradGradGradGradGrad

                          Input orientation:                          
 ---------------------------------------------------------------------
 Center     Atomic      Atomic             Coordinates (Angstroms)
 Number     Number       Type             X           Y           Z
 ---------------------------------------------------------------------
      1          1           0        7.769100    1.000000    3.330800
      2          6           0        7.769100    2.090000    3.330800
      3          1           0        8.796600    2.453800    3.330800
      4          1           0        7.255300    2.453800    4.220600
      5          6           0        7.055400    2.640800    2.094600
      6          8           0        6.573800    1.877400    1.260500
      7          7           0        6.991400    3.969600    1.983800
      8          1           0        7.402500    4.556100    2.695900
      9          6           0        6.342400    4.613900    0.859800
     10          1           0        6.835900    4.315500   -0.065200
     11          6           0        4.871400    4.220800    0.776100
     12          1           0        4.361800    4.521300    1.691600
     13          1           0        4.409600    4.718900   -0.076400
     14          1           0        4.789700    3.140900    0.653200
     15          6           0        6.412700    6.129400    0.981500
     16          8           0        6.968800    6.652700    1.944600
     17          7           0        5.846000    6.834900    0.000000
     18          1           0        5.400600    6.359200   -0.771600
     19          6           0        5.846100    8.283900    0.000000
     20          1           0        5.332300    8.647700   -0.889800
     21          6           0        5.134700    8.832900    1.232200
     22          1           0        5.643100    8.484600    2.131200
     23          1           0        5.149900    9.922400    1.205800
     24          1           0        4.101900    8.484600    1.241400
     25          6           0        7.266000    8.831800    0.000000
     26          8           0        8.178100    8.200800    0.529500
     27          7           0        7.451500   10.011500   -0.596800
     28          1           0        6.670000   10.492600   -1.018400
     29          6           0        8.755900   10.639000   -0.663800
     30          1           0        9.127000   10.815400    0.345800
     31          6           0        9.754000    9.753300   -1.402000
     32          1           0        9.400600    9.575200   -2.417700
     33          1           0       10.724000   10.249300   -1.437100
     34          1           0        9.851700    8.801600   -0.879800
     35          6           0        8.685900   11.971400   -1.396000
     36          8           0        7.616700   12.383700   -1.840300
     37          7           0        9.831400   12.645600   -1.521100
     38          1           0       10.685400   12.265500   -1.138800
     39          6           0        9.896600   13.925700   -2.197000
     40          1           0        8.903300   14.200900   -2.551700
     41          1           0       10.257600   14.685300   -1.503700
     42          1           0       10.577900   13.855100   -3.044900
 ---------------------------------------------------------------------
                    Distance matrix (angstroms):
                    1          2          3          4          5
     1  H    0.000000
     2  C    1.090000   0.000000
     3  H    1.780250   1.090003   0.000000
     4  H    1.780244   1.089993   1.779705   0.000000
     5  C    2.174806   1.530013   2.143580   2.143550   0.000000
     6  O    2.546510   2.400017   3.091799   3.091742   1.229000
     7  N    3.352275   2.439697   2.714923   2.714879   1.334946
     8  H    3.630887   2.572769   2.601207   2.601162   2.037257
     9  C    4.604518   3.809381   4.098167   4.098097   2.434384
    10  H    4.836964   4.166117   4.340863   4.691472   2.741813
    11  C    5.029583   4.411742   5.005594   4.546411   3.000783
    12  H    5.166839   4.495319   5.160328   4.363799   3.309708
    13  H    6.060154   5.459521   5.998788   5.629644   4.003998
    14  H    4.542006   4.141347   4.867946   4.390630   2.731507
    15  C    5.802566   4.865777   4.971139   4.971094   3.717847
    16  O    5.874951   4.835314   4.784680   4.784665   4.015637
    17  N    6.988462   6.107914   6.244542   6.244488   4.841536
    18  H    7.152657   6.376954   6.604139   6.604099   4.977948
    19  C    8.236951   7.290854   7.334149   7.334124   6.139571
    20  H    9.068560   8.170366   8.257072   8.257028   6.925212
    21  C    8.526342   7.537300   7.648957   7.356657   6.540254
    22  H    7.872620   6.844693   6.910438   6.582958   6.012148
    23  H    9.538609   8.527738   8.578696   8.324765   7.579089
    24  H    8.592624   7.661910   7.923153   7.429005   6.603114
    25  C    8.525516   7.536525   7.356348   7.648037   6.539127
    26  O    7.737318   6.734719   6.423226   6.892299   5.884182
    27  N    9.835347   8.847433   8.622886   8.964634   7.856701
    28  H   10.499191   9.525085   9.384044   9.613116   8.455180
    29  C   10.480502   9.487676   9.108018   9.649179   8.629697
    30  H   10.348729   9.321305   8.884579   9.403919   8.612428
    31  C   10.146895   9.223090   8.752069   9.546718   8.372354
    32  H   10.451847   9.577853   9.171936   9.969136   8.599228
    33  H   10.817294   9.901438   9.339034  10.237738   9.155370
    34  H    9.106664   8.192188   7.690055   8.546926   7.390657
    35  C   11.981435  10.992053  10.627305  11.143497  10.094697
    36  O   12.504084  11.520580  11.257680  11.639074  10.522481
    37  N   12.783349  11.798928  11.335102  11.978155  10.994339
    38  H   12.465698  11.490123  10.945974  11.694367  10.782700
    39  C   14.218177  13.235053  12.781669  13.407705  12.403194
    40  H   14.496688  13.511629  13.138095  13.659221  12.595188
    41  H   14.725911  13.718841  13.233159  13.834414  12.971963
    42  H   14.621645  13.673203  13.183786  13.921810  12.828990
                    6          7          8          9         10
     6  O    0.000000
     7  N    2.252744   0.000000
     8  H    3.150008   1.009986   0.000000
     9  C    2.775345   1.449034   2.120947   0.000000
    10  H    2.787563   2.083801   2.828886   1.090050   0.000000
    11  C    2.936721   2.452762   3.194452   1.524918   2.139162
    12  H    3.474046   2.702693   3.202450   2.150173   3.041360
    13  H    3.813815   3.386970   4.082842   2.150165   2.459632
    14  H    2.268977   2.702725   3.605848   2.150184   2.466317
    15  C    4.264188   2.450354   2.528665   1.522003   2.136566
    16  O    4.840197   2.683482   2.268982   2.392880   3.085363
    17  N    5.166755   3.668426   3.857914   2.432799   2.707680
    18  H    5.058889   3.979078   4.391165   2.567981   2.595341
    19  C    6.569753   4.884707   4.856619   3.801903   4.090496
    20  H    7.211246   5.735400   5.821010   4.511424   4.659263
    21  C    7.102872   5.259651   5.057307   4.404223   4.998423
    22  H    6.728998   4.714325   4.341369   4.133739   4.860899
    23  H    8.170221   6.279509   6.007644   5.451784   5.991274
    24  H    7.054484   5.411616   5.333164   4.488628   5.153965
    25  C    7.101527   5.258503   5.056493   4.402610   4.537202
    26  O    6.564566   4.628855   4.310300   4.042863   4.153399
    27  N    8.389488   6.586026   6.372257   5.699638   5.753779
    28  H    8.912032   7.187909   7.040924   6.180135   6.252414
    29  C    9.232016   7.389462   7.079615   6.666946   6.635614
    30  H    9.340415   7.355869   6.904760   6.817389   6.904112
    31  C    8.901257   7.248916   7.023761   6.570250   6.314429
    32  H    8.987551   7.523310   7.438594   6.686486   6.306852
    33  H    9.725735   8.066566   7.779883   7.498793   7.225608
    34  H    7.954248   6.303154   6.066999   5.733954   5.466600
    35  C   10.649263   8.850039   8.566063   8.044466   7.987887
    36  O   11.003860   9.263467   9.049548   8.323711   8.297980
    37  N   11.588934   9.778696   9.440480   9.074691   8.971245
    38  H   11.426921   9.603032   9.215053   9.022363   8.897964
    39  C   12.967530  11.182272  10.860498  10.425257  10.308657
    40  H   13.108321  11.353661  11.082052  10.493194  10.400863
    41  H   13.610786  11.732730  11.330884  11.061104  11.014085
    42  H   13.342960  11.656497  11.380305  10.889716  10.671698
                   11         12         13         14         15
    11  C    0.000000
    12  H    1.090015   0.000000
    13  H    1.090009   1.779650   0.000000
    14  H    1.089937   1.779572   1.779572   0.000000
    15  C    2.461818   2.701188   2.668534   3.416583   0.000000
    16  O    3.417399   3.376881   3.791244   4.330003   1.229086
    17  N    2.895806   3.227554   2.558620   3.897188   1.334999
    18  H    2.692245   3.244123   2.038619   3.572213   2.037281
    19  C    4.249842   4.384269   3.844294   5.290851   2.434389
    20  H    4.752378   4.963131   4.116851   5.744572   3.318262
    21  C    4.642071   4.404352   4.377579   5.731765   3.000841
    22  H    4.540023   4.188404   4.536024   5.609626   2.731494
    23  H    5.724548   5.479871   5.410036   6.813505   4.003976
    24  H    4.357594   3.997246   4.001471   5.419795   3.309730
    25  C    5.253357   5.465922   5.008074   6.240599   2.999071
    26  O    5.180297   5.427093   5.166462   6.090907   2.758920
    27  N    6.486446   6.702635   6.126629   7.473475   4.317504
    28  H    6.766880   6.951857   6.271554   7.770281   4.806591
    29  C    7.639106   7.891912   7.367696   8.584098   5.341731
    30  H    7.860282   8.008371   7.720067   8.820693   5.452535
    31  C    7.693664   8.125270   7.460899   8.520091   5.475218
    32  H    7.706076   8.235154   7.346796   8.490644   5.688202
    33  H    8.688728   9.114622   8.503439   9.492872   6.435100
    34  H    6.966285   7.421056   6.850572   7.747093   4.736223
    35  C    8.907313   9.150689   8.522138   9.866982   6.704395
    36  O    9.000842   9.213361   8.493880   9.981925   6.966236
    37  N   10.042708  10.307386   9.711624  10.976595   7.772476
    38  H   10.108741  10.390944   9.872463  11.010398   7.771960
    39  C   11.325946  11.584384  10.925625  12.268495   9.111680
    40  H   11.266449  11.503281  10.780945  12.227702   9.156184
    41  H   11.988094  12.176917  11.643256  12.954664   9.703757
    42  H   11.831480  12.173502  11.416219  12.726873   9.656460
                   16         17         18         19         20
    16  O    0.000000
    17  N    2.252853   0.000000
    18  H    3.150101   1.009969   0.000000
    19  C    2.775381   1.449000   2.120921   0.000000
    20  H    3.833012   2.083717   2.292568   1.089993   0.000000
    21  C    2.936785   2.452808   3.194544   1.525060   2.139212
    22  H    2.268955   2.702719   3.605881   2.150233   3.041322
    23  H    3.813812   3.386911   4.082812   2.150193   2.459608
    24  H    3.474113   2.702678   3.202517   2.150253   2.466272
    25  C    2.935690   2.450308   3.191995   1.521943   2.136547
    26  O    2.421059   2.754041   3.577549   2.392802   3.211341
    27  N    4.239487   3.608959   4.192379   2.432711   2.537087
    28  H    4.859371   3.885213   4.330968   2.567938   2.282463
    29  C    5.088032   4.835217   5.439333   3.801850   3.967038
    30  H    4.953994   5.170002   5.915434   4.158410   4.541517
    31  C    5.345165   5.074951   5.556025   4.404137   4.586516
    32  H    5.786564   5.098009   5.390019   4.488563   4.443625
    33  H    6.202657   6.125216   6.626791   5.451785   5.651114
    34  H    4.572321   4.548361   5.078318   4.133629   4.522031
    35  C    6.511268   6.033032   6.532982   4.859109   4.748669
    36  O    6.898522   6.108295   6.507520   4.830123   4.481030
    37  N    7.491355   7.208425   7.727390   6.100884   6.051747
    38  H    7.404323   7.362613   7.933998   6.369366   6.465768
    39  C    8.866870   8.456572   8.916148   7.284454   7.099218
    40  H    8.996351   8.373542   8.770970   7.132218   6.808229
    41  H    9.339681   9.129738   9.666973   7.918356   7.815886
    42  H    9.476037   8.996972   9.389401   7.918309   7.699207
                   21         22         23         24         25
    21  C    0.000000
    22  H    1.089947   0.000000
    23  H    1.089926   1.779573   0.000000
    24  H    1.089988   1.779618   1.779562   0.000000
    25  C    2.461861   2.701179   2.668565   3.416599   0.000000
    26  O    3.186789   3.012011   3.548420   4.147620   1.229007
    27  N    3.178349   3.611609   2.924836   4.114635   1.335018
    28  H    3.190133   3.873831   2.753706   3.966598   2.037305
    29  C    4.468770   4.705634   4.124579   5.470918   2.434421
    30  H    4.544719   4.556077   4.165858   5.611271   2.741818
    31  C    5.396673   5.567100   5.294049   6.367370   3.000818
    32  H    5.663098   6.000059   5.596316   6.531052   3.309748
    33  H    6.353867   6.454648   6.177570   7.358039   4.004039
    34  H    5.168328   5.184489   5.264299   6.136789   2.731447
    35  C    5.419284   5.818724   4.844694   6.334565   3.717798
    36  O    5.311192   5.905158   4.628372   6.087173   4.015680
    37  N    6.646528   6.942267   6.063682   7.600822   4.841497
    38  H    6.943677   7.100204   6.452056   7.956320   4.977897
    39  C    7.769924   8.150530   7.080722   8.660642   6.139600
    40  H    7.572032   8.076790   6.819999   8.373598   6.165968
    41  H    8.244989   8.541358   7.491008   9.158433   6.743460
    42  H    8.552456   8.943519   7.937113   9.442098   6.743415
                   26         27         28         29         30
    26  O    0.000000
    27  N    2.252806   0.000000
    28  H    3.150033   1.009924   0.000000
    29  C    2.775362   1.449036   2.120885   0.000000
    30  H    2.787524   2.083759   2.828797   1.090011   0.000000
    31  C    2.936734   2.452860   3.194490   1.524994   2.139156
    32  H    3.474114   2.702781   3.202474   2.150226   3.041362
    33  H    3.813853   3.387021   4.082820   2.150181   2.459596
    34  H    2.268926   2.702759   3.605816   2.150226   2.466308
    35  C    4.264134   2.450239   2.528494   1.521942   2.136533
    36  O    4.840225   2.683452   2.268925   2.392887   3.085386
    37  N    5.166683   3.668343   3.857793   2.432716   2.707605
    38  H    5.058811   3.978993   4.391026   2.567897   2.595272
    39  C    6.569743   4.884682   4.856565   3.801881   4.090487
    40  H    6.783871   4.845661   4.592399   4.033984   4.461744
    41  H    7.106825   5.526398   5.539415   4.396940   4.435655
    42  H    7.106791   5.526376   5.539385   4.396888   4.779303
                   31         32         33         34         35
    31  C    0.000000
    32  H    1.090072   0.000000
    33  H    1.090022   1.779712   0.000000
    34  H    1.089941   1.779630   1.779698   0.000000
    35  C    2.461878   2.701193   2.668552   3.416604   0.000000
    36  O    3.417479   3.376886   3.791246   4.330038   1.229058
    37  N    2.895786   3.227512   2.558524   3.897180   1.335053
    38  H    2.692198   3.244073   2.038513   3.572218   2.037314
    39  C    4.249857   4.384242   3.844211   5.290882   2.434478
    40  H    4.671900   4.654284   4.491372   5.731244   2.520630
    41  H    4.958687   5.261461   4.460948   5.930593   3.138008
    42  H    4.494741   4.482963   3.950716   5.545529   3.137971
                   36         37         38         39         40
    36  O    0.000000
    37  N    2.252860   0.000000
    38  H    3.150078   1.009923   0.000000
    39  C    2.775418   1.449051   2.120909   0.000000
    40  H    2.337444   2.083858   2.986292   1.090042   0.000000
    41  H    3.519235   2.083825   2.484270   1.089944   1.779628
    42  H    3.519202   2.083775   2.484271   1.089995   1.779637
                   41         42
    41  H    0.000000
    42  H    1.779641   0.000000
 Stoichiometry    C12H22N4O4
 Framework group  C1[X(C12H22N4O4)]
 Deg. of freedom   120
 Full point group                 C1      NOp   1
 Largest Abelian subgroup         C1      NOp   1
 Largest concise Abelian subgroup C1      NOp   1
                         Standard orientation:                         
 ---------------------------------------------------------------------
 Center     Atomic      Atomic             Coordinates (Angstroms)
 Number     Number       Type             X           Y           Z
 ---------------------------------------------------------------------
      1          1           0       -7.071381   -2.189290    0.497313
      2          6           0       -6.084433   -1.931602    0.881540
      3          1           0       -5.502631   -2.841422    1.029328
      4          1           0       -6.189228   -1.409354    1.832518
      5          6           0       -5.333131   -1.023939   -0.094489
      6          8           0       -5.853948   -0.679805   -1.153150
      7          7           0       -4.107330   -0.640084    0.269032
      8          1           0       -3.721778   -0.949250    1.149848
      9          6           0       -3.294311    0.219195   -0.567832
     10          1           0       -3.123102   -0.265476   -1.529076
     11          6           0       -3.982613    1.557722   -0.812696
     12          1           0       -4.152587    2.059153    0.140094
     13          1           0       -3.349963    2.182176   -1.443514
     14          1           0       -4.937945    1.390128   -1.309905
     15          6           0       -1.946947    0.500901    0.081587
     16          8           0       -1.669882    0.018853    1.177724
     17          7           0       -1.107622    1.285001   -0.598812
     18          1           0       -1.380680    1.657731   -1.496893
     19          6           0        0.204409    1.627464   -0.088034
     20          1           0        0.715593    2.273152   -0.802081
     21          6           0        0.100250    2.361254    1.244824
     22          1           0       -0.401411    1.723826    1.972840
     23          1           0        1.099617    2.605924    1.604464
     24          1           0       -0.472004    3.279237    1.111007
     25          6           0        1.049295    0.380863    0.132114
     26          8           0        0.518723   -0.689024    0.422447
     27          7           0        2.369601    0.521372   -0.006886
     28          1           0        2.759178    1.421762   -0.246621
     29          6           0        3.281381   -0.589824    0.176437
     30          1           0        3.182804   -0.977811    1.190278
     31          6           0        2.980108   -1.715341   -0.807459
     32          1           0        3.083604   -1.344487   -1.827269
     33          1           0        3.679636   -2.535746   -0.647005
     34          1           0        1.961633   -2.071244   -0.652497
     35          6           0        4.724055   -0.156199   -0.040279
     36          8           0        4.988523    1.008332   -0.330978
     37          7           0        5.659198   -1.098322    0.102124
     38          1           0        5.392484   -2.042375    0.342071
     39          6           0        7.068240   -0.812000   -0.077781
     40          1           0        7.196200    0.240345   -0.331533
     41          1           0        7.604727   -1.030383    0.845511
     42          1           0        7.465157   -1.430175   -0.883017
 ---------------------------------------------------------------------
 Rotational constants (GHZ):      0.9525713      0.1094173      0.1034912
 Standard basis: 6-31G(d) (6D, 7F)
 There are   344 symmetry adapted basis functions of A   symmetry.
 Integral buffers will be    131072 words long.
 Raffenetti 1 integral format.
 Two-electron integral symmetry is turned on.
   344 basis functions,   648 primitive gaussians,   344 cartesian basis functions
    77 alpha electrons       77 beta electrons
       nuclear repulsion energy      1612.8883428315 Hartrees.
 NAtoms=   42 NActive=   42 NUniq=   42 SFac= 7.50D-01 NAtFMM=   80 NAOKFM=F Big=F
 One-electron integrals computed using PRISM.
 NBasis=   344 RedAO= T  NBF=   344
 NBsUse=   344 1.00D-06 NBFU=   344
 Harris functional with IExCor=  205 diagonalized for initial guess.
 ExpMin= 1.61D-01 ExpMax= 5.48D+03 ExpMxC= 8.25D+02 IAcc=1 IRadAn=         1 AccDes= 0.00D+00
 HarFok:  IExCor=  205 AccDes= 0.00D+00 IRadAn=         1 IDoV= 1
 ScaDFX=  1.000000  1.000000  1.000000  1.000000
 FoFCou: FMM=F IPFlag=           0 FMFlag=      100000 FMFlg1=           0
         NFxFlg=           0 DoJE=T BraDBF=F KetDBF=T FulRan=T
         Omega=  0.000000  0.000000  1.000000  0.000000  0.000000 ICntrl=     500 IOpCl=  0
         NMat0=    1 NMatS0=    1 NMatT0=    0 NMatD0=    1 NMtDS0=    0 NMtDT0=    0
         I1Cent=           4 NGrid=           0.
 Petite list used in FoFCou.
 Initial guess orbital symmetries:
       Occupied  (A) (A) (A) (A) (A) (A) (A) (A) (A) (A) (A) (A)
                 (A) (A) (A) (A) (A) (A) (A) (A) (A) (A) (A) (A)
                 (A) (A) (A) (A) (A) (A) (A) (A) (A) (A) (A) (A)
                 (A) (A) (A) (A) (A) (A) (A) (A) (A) (A) (A) (A)
                 (A) (A) (A) (A) (A) (A) (A) (A) (A) (A) (A) (A)
                 (A) (A) (A) (A) (A) (A) (A) (A) (A) (A) (A) (A)
                 (A) (A) (A) (A) (A)
       Virtual   (A) (A) (A) (A) (A) (A) (A) (A) (A) (A) (A) (A)
                 (A) (A) (A) (A) (A) (A) (A) (A) (A) (A) (A) (A)
                 (A) (A) (A) (A) (A) (A) (A) (A) (A) (A) (A) (A)
                 (A) (A) (A) (A) (A) (A) (A) (A) (A) (A) (A) (A)
                 (A) (A) (A) (A) (A) (A) (A) (A) (A) (A) (A) (A)
                 (A) (A) (A) (A) (A) (A) (A) (A) (A) (A) (A) (A)
                 (A) (A) (A) (A) (A) (A) (A) (A) (A) (A) (A) (A)
                 (A) (A) (A) (A) (A) (A) (A) (A) (A) (A) (A) (A)
                 (A) (A) (A) (A) (A) (A) (A) (A) (A) (A) (A) (A)
                 (A) (A) (A) (A) (A) (A) (A) (A) (A) (A) (A) (A)
                 (A) (A) (A) (A) (A) (A) (A) (A) (A) (A) (A) (A)
                 (A) (A) (A) (A) (A) (A) (A) (A) (A) (A) (A) (A)
                 (A) (A) (A) (A) (A) (A) (A) (A) (A) (A) (A) (A)
                 (A) (A) (A) (A) (A) (A) (A) (A) (A) (A) (A) (A)
                 (A) (A) (A) (A) (A) (A) (A) (A) (A) (A) (A) (A)
                 (A) (A) (A) (A) (A) (A) (A) (A) (A) (A) (A) (A)
                 (A) (A) (A) (A) (A) (A) (A) (A) (A) (A) (A) (A)
                 (A) (A) (A) (A) (A) (A) (A) (A) (A) (A) (A) (A)
                 (A) (A) (A) (A) (A) (A) (A) (A) (A) (A) (A) (A)
                 (A) (A) (A) (A) (A) (A) (A) (A) (A) (A) (A) (A)
                 (A) (A) (A) (A) (A) (A) (A) (A) (A) (A) (A) (A)
                 (A) (A) (A) (A) (A) (A) (A) (A) (A) (A) (A) (A)
                 (A) (A) (A)
 The electronic state of the initial guess is 1-A.
 Requested convergence on RMS density matrix=1.00D-08 within 128 cycles.
 Requested convergence on MAX density matrix=1.00D-06.
 Requested convergence on             energy=1.00D-06.
 No special actions if energy rises.
 Integral accuracy reduced to 1.0D-05 until final iterations.
 Initial convergence to 1.0D-05 achieved.  Increase integral accuracy.
 SCF Done:  E(RHF) =  -984.518979772     A.U. after   15 cycles
             Convg  =    0.4062D-08             -V/T =  2.0019
 Range of M.O.s used for correlation:     1   344
 NBasis=   344 NAE=    77 NBE=    77 NFC=     0 NFV=     0
 NROrb=    344 NOA=    77 NOB=    77 NVA=   267 NVB=   267
 Symmetrizing basis deriv contribution to polar:
 IMax=3 JMax=2 DiffMx= 0.00D+00
 G2DrvN: will do    43 centers at a time, making    1 passes doing MaxLOS=2.
 Calling FoFCou, ICntrl=  3107 FMM=F I1Cent=   0 AccDes= 0.00D+00.
 FoFDir/FoFCou used for L=0 through L=2.
 End of G2Drv Frequency-dependent properties file   721 does not exist.
 End of G2Drv Frequency-dependent properties file   722 does not exist.
          IDoAtm=111111111111111111111111111111111111111111
          Differentiating once with respect to nuclear coordinates.
          There are   129 degrees of freedom in the 1st order CPHF.  IDoFFX=5.
    123 vectors produced by pass  0 Test12= 2.06D-10 1.00D-07 XBig12= 9.76D-02 6.81D-02.
 AX will form   123 AO Fock derivatives at one time.
    123 vectors produced by pass  1 Test12= 2.06D-10 1.00D-07 XBig12= 7.09D-03 3.00D-02.
    123 vectors produced by pass  2 Test12= 2.06D-10 1.00D-07 XBig12= 1.00D-04 1.63D-03.
    123 vectors produced by pass  3 Test12= 2.06D-10 1.00D-07 XBig12= 1.22D-06 1.64D-04.
    123 vectors produced by pass  4 Test12= 2.06D-10 1.00D-07 XBig12= 7.27D-09 1.33D-05.
     39 vectors produced by pass  5 Test12= 2.06D-10 1.00D-07 XBig12= 3.77D-11 8.30D-07.
 Inverted reduced A of dimension   654 with in-core refinement.
 End of Minotr Frequency-dependent properties file   721 does not exist.
 End of Minotr Frequency-dependent properties file   722 does not exist.

 **********************************************************************

            Population analysis using the SCF density.

 **********************************************************************

 Orbital symmetries:
       Occupied  (A) (A) (A) (A) (A) (A) (A) (A) (A) (A) (A) (A)
                 (A) (A) (A) (A) (A) (A) (A) (A) (A) (A) (A) (A)
                 (A) (A) (A) (A) (A) (A) (A) (A) (A) (A) (A) (A)
                 (A) (A) (A) (A) (A) (A) (A) (A) (A) (A) (A) (A)
                 (A) (A) (A) (A) (A) (A) (A) (A) (A) (A) (A) (A)
                 (A) (A) (A) (A) (A) (A) (A) (A) (A) (A) (A) (A)
                 (A) (A) (A) (A) (A)
       Virtual   (A) (A) (A) (A) (A) (A) (A) (A) (A) (A) (A) (A)
                 (A) (A) (A) (A) (A) (A) (A) (A) (A) (A) (A) (A)
                 (A) (A) (A) (A) (A) (A) (A) (A) (A) (A) (A) (A)
                 (A) (A) (A) (A) (A) (A) (A) (A) (A) (A) (A) (A)
                 (A) (A) (A) (A) (A) (A) (A) (A) (A) (A) (A) (A)
                 (A) (A) (A) (A) (A) (A) (A) (A) (A) (A) (A) (A)
                 (A) (A) (A) (A) (A) (A) (A) (A) (A) (A) (A) (A)
                 (A) (A) (A) (A) (A) (A) (A) (A) (A) (A) (A) (A)
                 (A) (A) (A) (A) (A) (A) (A) (A) (A) (A) (A) (A)
                 (A) (A) (A) (A) (A) (A) (A) (A) (A) (A) (A) (A)
                 (A) (A) (A) (A) (A) (A) (A) (A) (A) (A) (A) (A)
                 (A) (A) (A) (A) (A) (A) (A) (A) (A) (A) (A) (A)
                 (A) (A) (A) (A) (A) (A) (A) (A) (A) (A) (A) (A)
                 (A) (A) (A) (A) (A) (A) (A) (A) (A) (A) (A) (A)
                 (A) (A) (A) (A) (A) (A) (A) (A) (A) (A) (A) (A)
                 (A) (A) (A) (A) (A) (A) (A) (A) (A) (A) (A) (A)
                 (A) (A) (A) (A) (A) (A) (A) (A) (A) (A) (A) (A)
                 (A) (A) (A) (A) (A) (A) (A) (A) (A) (A) (A) (A)
                 (A) (A) (A) (A) (A) (A) (A) (A) (A) (A) (A) (A)
                 (A) (A) (A) (A) (A) (A) (A) (A) (A) (A) (A) (A)
                 (A) (A) (A) (A) (A) (A) (A) (A) (A) (A) (A) (A)
                 (A) (A) (A) (A) (A) (A) (A) (A) (A) (A) (A) (A)
                 (A) (A) (A)
 The electronic state is 1-A.
 Alpha  occ. eigenvalues --  -20.53378 -20.51534 -20.50979 -20.50687 -15.60518
 Alpha  occ. eigenvalues --  -15.59881 -15.59154 -15.57897 -11.36233 -11.34830
 Alpha  occ. eigenvalues --  -11.34441 -11.34008 -11.29212 -11.28864 -11.27775
 Alpha  occ. eigenvalues --  -11.26998 -11.22746 -11.22424 -11.22176 -11.21652
 Alpha  occ. eigenvalues --   -1.39338  -1.38644  -1.36643  -1.36026  -1.24845
 Alpha  occ. eigenvalues --   -1.24707  -1.23879  -1.22772  -1.07971  -1.05467
 Alpha  occ. eigenvalues --   -1.02565  -0.97816  -0.96412  -0.91077  -0.89600
 Alpha  occ. eigenvalues --   -0.86907  -0.81904  -0.80020  -0.78238  -0.77241
 Alpha  occ. eigenvalues --   -0.74799  -0.72450  -0.68499  -0.68047  -0.66128
 Alpha  occ. eigenvalues --   -0.65973  -0.64697  -0.63488  -0.62786  -0.62525
 Alpha  occ. eigenvalues --   -0.61103  -0.60547  -0.59609  -0.58688  -0.57740
 Alpha  occ. eigenvalues --   -0.57120  -0.56623  -0.55909  -0.55353  -0.55010
 Alpha  occ. eigenvalues --   -0.54505  -0.54385  -0.53422  -0.52846  -0.52360
 Alpha  occ. eigenvalues --   -0.51773  -0.50536  -0.49049  -0.48081  -0.43832
 Alpha  occ. eigenvalues --   -0.42810  -0.40526  -0.40358  -0.40132  -0.38791
 Alpha  occ. eigenvalues --   -0.38051  -0.36462
 Alpha virt. eigenvalues --    0.17843   0.19047   0.19434   0.20419   0.21325
 Alpha virt. eigenvalues --    0.21767   0.23833   0.24574   0.25890   0.27813
 Alpha virt. eigenvalues --    0.28669   0.28918   0.29577   0.29800   0.30155
 Alpha virt. eigenvalues --    0.30820   0.31529   0.31875   0.32138   0.32768
 Alpha virt. eigenvalues --    0.33420   0.33630   0.34477   0.35097   0.35926
 Alpha virt. eigenvalues --    0.36189   0.36686   0.37719   0.38346   0.39177
 Alpha virt. eigenvalues --    0.40997   0.41828   0.42968   0.43606   0.44977
 Alpha virt. eigenvalues --    0.47892   0.50836   0.52621   0.54012   0.54946
 Alpha virt. eigenvalues --    0.57336   0.59510   0.61588   0.62321   0.64128
 Alpha virt. eigenvalues --    0.70640   0.71230   0.72554   0.73148   0.73419
 Alpha virt. eigenvalues --    0.74649   0.75538   0.76372   0.76611   0.77256
 Alpha virt. eigenvalues --    0.77976   0.78257   0.78825   0.79578   0.81867
 Alpha virt. eigenvalues --    0.82896   0.83853   0.85234   0.85608   0.87669
 Alpha virt. eigenvalues --    0.88934   0.90218   0.91876   0.92541   0.93126
 Alpha virt. eigenvalues --    0.93637   0.93929   0.96477   0.97096   0.98553
 Alpha virt. eigenvalues --    0.99209   0.99383   0.99910   1.00589   1.01386
 Alpha virt. eigenvalues --    1.02104   1.04661   1.05816   1.06020   1.07685
 Alpha virt. eigenvalues --    1.09784   1.10071   1.10558   1.11725   1.12112
 Alpha virt. eigenvalues --    1.13123   1.14027   1.14460   1.14951   1.15046
 Alpha virt. eigenvalues --    1.15454   1.15732   1.16526   1.17058   1.17386
 Alpha virt. eigenvalues --    1.17849   1.19245   1.19692   1.19863   1.20253
 Alpha virt. eigenvalues --    1.20949   1.21483   1.21859   1.22571   1.23584
 Alpha virt. eigenvalues --    1.24369   1.25145   1.25328   1.26858   1.28310
 Alpha virt. eigenvalues --    1.30973   1.32441   1.34029   1.35036   1.35802
 Alpha virt. eigenvalues --    1.37367   1.37941   1.39397   1.42285   1.46319
 Alpha virt. eigenvalues --    1.46973   1.48599   1.50736   1.52214   1.54627
 Alpha virt. eigenvalues --    1.55355   1.56841   1.58649   1.60682   1.61827
 Alpha virt. eigenvalues --    1.63064   1.63456   1.64975   1.66718   1.69585
 Alpha virt. eigenvalues --    1.70271   1.72629   1.73206   1.74582   1.76568
 Alpha virt. eigenvalues --    1.77372   1.79640   1.80149   1.84064   1.85973
 Alpha virt. eigenvalues --    1.92688   1.93125   1.94945   1.99052   1.99435
 Alpha virt. eigenvalues --    2.01245   2.02099   2.03301   2.04546   2.06337
 Alpha virt. eigenvalues --    2.07982   2.08578   2.09711   2.11824   2.12782
 Alpha virt. eigenvalues --    2.13416   2.14129   2.14278   2.14935   2.15497
 Alpha virt. eigenvalues --    2.16121   2.16988   2.18097   2.19480   2.20777
 Alpha virt. eigenvalues --    2.21681   2.22813   2.24453   2.25511   2.27183
 Alpha virt. eigenvalues --    2.28587   2.29682   2.30446   2.33125   2.34598
 Alpha virt. eigenvalues --    2.35730   2.36686   2.37070   2.38082   2.39184
 Alpha virt. eigenvalues --    2.40040   2.42460   2.46124   2.46679   2.48396
 Alpha virt. eigenvalues --    2.50983   2.52305   2.52718   2.53419   2.57980
 Alpha virt. eigenvalues --    2.58464   2.58794   2.61309   2.61497   2.62693
 Alpha virt. eigenvalues --    2.63516   2.64091   2.66290   2.67640   2.68003
 Alpha virt. eigenvalues --    2.68840   2.71365   2.74159   2.76285   2.77841
 Alpha virt. eigenvalues --    2.78947   2.79937   2.80344   2.82564   2.85230
 Alpha virt. eigenvalues --    2.88102   2.91414   2.93101   2.95382   2.97615
 Alpha virt. eigenvalues --    3.00011   3.00188   3.01333   3.03928   3.06919
 Alpha virt. eigenvalues --    3.08112   3.09023   3.13268   3.18374   3.20007
 Alpha virt. eigenvalues --    3.23906   3.27086   3.30490   3.34190   3.36097
 Alpha virt. eigenvalues --    3.36796   3.41046   3.42811   3.52893   3.56679
 Alpha virt. eigenvalues --    3.61350   3.63462   4.39798   4.42258   4.44470
 Alpha virt. eigenvalues --    4.47382   4.48965   4.52109   4.54138   4.63239
 Alpha virt. eigenvalues --    4.64704   4.65784   4.70900   4.72095   4.73616
 Alpha virt. eigenvalues --    4.83957   4.85751   4.87709   4.98220   5.01723
 Alpha virt. eigenvalues --    5.05675   5.11747
          Condensed to atoms (all electrons):
              1          2          3          4          5          6
     1  H    0.461776   0.385472  -0.018913  -0.019051  -0.030931   0.003586
     2  C    0.385472   5.244918   0.374850   0.374651   0.378038  -0.067405
     3  H   -0.018913   0.374850   0.509429  -0.023539  -0.034279   0.001259
     4  H   -0.019051   0.374651  -0.023539   0.513687  -0.035246   0.001193
     5  C   -0.030931   0.378038  -0.034279  -0.035246   4.184405   0.586037
     6  O    0.003586  -0.067405   0.001259   0.001193   0.586037   8.215561
     7  N    0.003881  -0.119842   0.003476   0.003703   0.250708  -0.107757
     8  H   -0.000017  -0.001261   0.000623   0.000469  -0.017367   0.001993
     9  C   -0.000076   0.004604  -0.000240  -0.000093  -0.030603   0.014508
    10  H    0.000002  -0.000011  -0.000003  -0.000002  -0.001708   0.002867
    11  C    0.000006  -0.000500   0.000008   0.000030  -0.003995  -0.015814
    12  H    0.000000  -0.000042   0.000000   0.000002   0.000073  -0.000023
    13  H    0.000000   0.000007   0.000000  -0.000001   0.000283   0.000274
    14  H    0.000001   0.000301  -0.000005  -0.000026   0.000438   0.011232
    15  C    0.000000   0.000004  -0.000011  -0.000006   0.004126   0.000561
    16  O    0.000000  -0.000040  -0.000001  -0.000002   0.000326  -0.000003
    17  N    0.000000   0.000000   0.000000   0.000000  -0.000080  -0.000002
    18  H    0.000000   0.000000   0.000000   0.000000   0.000000   0.000001
    19  C    0.000000   0.000000   0.000000   0.000000   0.000001   0.000000
    20  H    0.000000   0.000000   0.000000   0.000000   0.000000   0.000000
    21  C    0.000000   0.000000   0.000000   0.000000   0.000000   0.000000
    22  H    0.000000   0.000000   0.000000   0.000000   0.000000   0.000000
    23  H    0.000000   0.000000   0.000000   0.000000   0.000000   0.000000
    24  H    0.000000   0.000000   0.000000   0.000000   0.000000   0.000000
    25  C    0.000000   0.000000   0.000000   0.000000   0.000000   0.000000
    26  O    0.000000   0.000000   0.000000   0.000000   0.000000   0.000000
    27  N    0.000000   0.000000   0.000000   0.000000   0.000000   0.000000
    28  H    0.000000   0.000000   0.000000   0.000000   0.000000   0.000000
    29  C    0.000000   0.000000   0.000000   0.000000   0.000000   0.000000
    30  H    0.000000   0.000000   0.000000   0.000000   0.000000   0.000000
    31  C    0.000000   0.000000   0.000000   0.000000   0.000000   0.000000
    32  H    0.000000   0.000000   0.000000   0.000000   0.000000   0.000000
    33  H    0.000000   0.000000   0.000000   0.000000   0.000000   0.000000
    34  H    0.000000   0.000000   0.000000   0.000000   0.000000   0.000000
    35  C    0.000000   0.000000   0.000000   0.000000   0.000000   0.000000
    36  O    0.000000   0.000000   0.000000   0.000000   0.000000   0.000000
    37  N    0.000000   0.000000   0.000000   0.000000   0.000000   0.000000
    38  H    0.000000   0.000000   0.000000   0.000000   0.000000   0.000000
    39  C    0.000000   0.000000   0.000000   0.000000   0.000000   0.000000
    40  H    0.000000   0.000000   0.000000   0.000000   0.000000   0.000000
    41  H    0.000000   0.000000   0.000000   0.000000   0.000000   0.000000
    42  H    0.000000   0.000000   0.000000   0.000000   0.000000   0.000000
              7          8          9         10         11         12
     1  H    0.003881  -0.000017  -0.000076   0.000002   0.000006   0.000000
     2  C   -0.119842  -0.001261   0.004604  -0.000011  -0.000500  -0.000042
     3  H    0.003476   0.000623  -0.000240  -0.000003   0.000008   0.000000
     4  H    0.003703   0.000469  -0.000093  -0.000002   0.000030   0.000002
     5  C    0.250708  -0.017367  -0.030603  -0.001708  -0.003995   0.000073
     6  O   -0.107757   0.001993   0.014508   0.002867  -0.015814  -0.000023
     7  N    7.410616   0.310425   0.200503  -0.040492  -0.063506   0.001760
     8  H    0.310425   0.286604  -0.027400   0.002393   0.003019   0.000248
     9  C    0.200503  -0.027400   5.011487   0.406467   0.334806  -0.041925
    10  H   -0.040492   0.002393   0.406467   0.502734  -0.047683   0.004532
    11  C   -0.063506   0.003019   0.334806  -0.047683   5.215392   0.384565
    12  H    0.001760   0.000248  -0.041925   0.004532   0.384565   0.526971
    13  H    0.004945  -0.000077  -0.042258   0.000331   0.376898  -0.024522
    14  H   -0.005699  -0.000198  -0.026546  -0.003831   0.387217  -0.020306
    15  C   -0.037480  -0.004787   0.381955  -0.039981  -0.066248  -0.002770
    16  O   -0.006442   0.021119  -0.069678   0.000536  -0.000078   0.000572
    17  N    0.002678   0.000783  -0.116248   0.002656   0.003467   0.000237
    18  H    0.000018  -0.000023   0.000634   0.000428   0.000240  -0.000012
    19  C   -0.000047  -0.000025   0.003983  -0.000294  -0.000050  -0.000074
    20  H    0.000000   0.000000  -0.000016   0.000001  -0.000003   0.000001
    21  C    0.000002   0.000008  -0.000315   0.000004   0.000021   0.000036
    22  H   -0.000004  -0.000001   0.000333  -0.000003  -0.000049  -0.000004
    23  H    0.000000   0.000000   0.000005   0.000000   0.000000   0.000000
    24  H    0.000000   0.000000  -0.000065   0.000000   0.000036   0.000020
    25  C   -0.000002   0.000000  -0.000318   0.000011   0.000012   0.000002
    26  O   -0.000002   0.000029  -0.000519   0.000089   0.000000   0.000000
    27  N    0.000000   0.000000   0.000000   0.000000   0.000000   0.000000
    28  H    0.000000   0.000000   0.000000   0.000000   0.000000   0.000000
    29  C    0.000000   0.000000   0.000000   0.000000   0.000000   0.000000
    30  H    0.000000   0.000000   0.000000   0.000000   0.000000   0.000000
    31  C    0.000000   0.000000   0.000000   0.000000   0.000000   0.000000
    32  H    0.000000   0.000000   0.000000   0.000000   0.000000   0.000000
    33  H    0.000000   0.000000   0.000000   0.000000   0.000000   0.000000
    34  H    0.000000   0.000000   0.000000   0.000000   0.000000   0.000000
    35  C    0.000000   0.000000   0.000000   0.000000   0.000000   0.000000
    36  O    0.000000   0.000000   0.000000   0.000000   0.000000   0.000000
    37  N    0.000000   0.000000   0.000000   0.000000   0.000000   0.000000
    38  H    0.000000   0.000000   0.000000   0.000000   0.000000   0.000000
    39  C    0.000000   0.000000   0.000000   0.000000   0.000000   0.000000
    40  H    0.000000   0.000000   0.000000   0.000000   0.000000   0.000000
    41  H    0.000000   0.000000   0.000000   0.000000   0.000000   0.000000
    42  H    0.000000   0.000000   0.000000   0.000000   0.000000   0.000000
             13         14         15         16         17         18
     1  H    0.000000   0.000001   0.000000   0.000000   0.000000   0.000000
     2  C    0.000007   0.000301   0.000004  -0.000040   0.000000   0.000000
     3  H    0.000000  -0.000005  -0.000011  -0.000001   0.000000   0.000000
     4  H   -0.000001  -0.000026  -0.000006  -0.000002   0.000000   0.000000
     5  C    0.000283   0.000438   0.004126   0.000326  -0.000080   0.000000
     6  O    0.000274   0.011232   0.000561  -0.000003  -0.000002   0.000001
     7  N    0.004945  -0.005699  -0.037480  -0.006442   0.002678   0.000018
     8  H   -0.000077  -0.000198  -0.004787   0.021119   0.000783  -0.000023
     9  C   -0.042258  -0.026546   0.381955  -0.069678  -0.116248   0.000634
    10  H    0.000331  -0.003831  -0.039981   0.000536   0.002656   0.000428
    11  C    0.376898   0.387217  -0.066248  -0.000078   0.003467   0.000240
    12  H   -0.024522  -0.020306  -0.002770   0.000572   0.000237  -0.000012
    13  H    0.574618  -0.020431  -0.007191   0.000026   0.000467   0.002955
    14  H   -0.020431   0.427355   0.004239  -0.000053   0.000041  -0.000088
    15  C   -0.007191   0.004239   4.182218   0.567901   0.255385  -0.016996
    16  O    0.000026  -0.000053   0.567901   8.243265  -0.104012   0.002499
    17  N    0.000467   0.000041   0.255385  -0.104012   7.399941   0.322898
    18  H    0.002955  -0.000088  -0.016996   0.002499   0.322898   0.310579
    19  C    0.000181   0.000002  -0.033897   0.015775   0.200445  -0.023308
    20  H   -0.000017   0.000000   0.003027   0.000063  -0.037331  -0.003537
    21  C   -0.000014  -0.000001  -0.002365  -0.014205  -0.062974   0.002778
    22  H   -0.000002   0.000000   0.001420   0.008375  -0.004850  -0.000130
    23  H    0.000000   0.000000   0.000272   0.000313   0.004618  -0.000090
    24  H    0.000018   0.000000  -0.000505   0.000093   0.000818   0.000058
    25  C    0.000002   0.000000  -0.002019   0.001547  -0.055802   0.001954
    26  O    0.000000   0.000000   0.010891  -0.042366   0.003911   0.000066
    27  N    0.000000   0.000000   0.000250  -0.000085   0.002103  -0.000067
    28  H    0.000000   0.000000  -0.000003   0.000002   0.000023  -0.000004
    29  C    0.000000   0.000000  -0.000008   0.000011  -0.000095   0.000001
    30  H    0.000000   0.000000  -0.000001  -0.000001  -0.000002   0.000000
    31  C    0.000000   0.000000   0.000003  -0.000001   0.000009   0.000000
    32  H    0.000000   0.000000   0.000000   0.000000  -0.000001   0.000000
    33  H    0.000000   0.000000   0.000000   0.000000   0.000000   0.000000
    34  H    0.000000   0.000000  -0.000001   0.000005  -0.000008   0.000001
    35  C    0.000000   0.000000   0.000000   0.000000   0.000000   0.000000
    36  O    0.000000   0.000000   0.000000   0.000000   0.000000   0.000000
    37  N    0.000000   0.000000   0.000000   0.000000   0.000000   0.000000
    38  H    0.000000   0.000000   0.000000   0.000000   0.000000   0.000000
    39  C    0.000000   0.000000   0.000000   0.000000   0.000000   0.000000
    40  H    0.000000   0.000000   0.000000   0.000000   0.000000   0.000000
    41  H    0.000000   0.000000   0.000000   0.000000   0.000000   0.000000
    42  H    0.000000   0.000000   0.000000   0.000000   0.000000   0.000000
             19         20         21         22         23         24
     1  H    0.000000   0.000000   0.000000   0.000000   0.000000   0.000000
     2  C    0.000000   0.000000   0.000000   0.000000   0.000000   0.000000
     3  H    0.000000   0.000000   0.000000   0.000000   0.000000   0.000000
     4  H    0.000000   0.000000   0.000000   0.000000   0.000000   0.000000
     5  C    0.000001   0.000000   0.000000   0.000000   0.000000   0.000000
     6  O    0.000000   0.000000   0.000000   0.000000   0.000000   0.000000
     7  N   -0.000047   0.000000   0.000002  -0.000004   0.000000   0.000000
     8  H   -0.000025   0.000000   0.000008  -0.000001   0.000000   0.000000
     9  C    0.003983  -0.000016  -0.000315   0.000333   0.000005  -0.000065
    10  H   -0.000294   0.000001   0.000004  -0.000003   0.000000   0.000000
    11  C   -0.000050  -0.000003   0.000021  -0.000049   0.000000   0.000036
    12  H   -0.000074   0.000001   0.000036  -0.000004   0.000000   0.000020
    13  H    0.000181  -0.000017  -0.000014  -0.000002   0.000000   0.000018
    14  H    0.000002   0.000000  -0.000001   0.000000   0.000000   0.000000
    15  C   -0.033897   0.003027  -0.002365   0.001420   0.000272  -0.000505
    16  O    0.015775   0.000063  -0.014205   0.008375   0.000313   0.000093
    17  N    0.200445  -0.037331  -0.062974  -0.004850   0.004618   0.000818
    18  H   -0.023308  -0.003537   0.002778  -0.000130  -0.000090   0.000058
    19  C    5.062208   0.414802   0.333856  -0.029095  -0.040611  -0.039463
    20  H    0.414802   0.508007  -0.036073   0.003300  -0.001618  -0.003730
    21  C    0.333856  -0.036073   5.183440   0.389762   0.382400   0.387448
    22  H   -0.029095   0.003300   0.389762   0.429449  -0.020190  -0.020557
    23  H   -0.040611  -0.001618   0.382400  -0.020190   0.532363  -0.022417
    24  H   -0.039463  -0.003730   0.387448  -0.020557  -0.022417   0.522841
    25  C    0.364811  -0.049833  -0.060872  -0.004894  -0.003115   0.005440
    26  O   -0.079838   0.001990   0.000326   0.001368  -0.000112  -0.000079
    27  N   -0.109394   0.006976  -0.000653   0.000376   0.002688  -0.000091
    28  H   -0.000577   0.001431   0.000471  -0.000005   0.000373  -0.000028
    29  C    0.005047   0.000017  -0.000392  -0.000007  -0.000021   0.000007
    30  H   -0.000042   0.000001   0.000043   0.000001  -0.000021  -0.000001
    31  C   -0.000636   0.000012  -0.000003   0.000000   0.000004   0.000000
    32  H   -0.000020   0.000001   0.000001   0.000000   0.000000   0.000000
    33  H    0.000009   0.000000   0.000000   0.000000   0.000000   0.000000
    34  H    0.000300  -0.000021  -0.000004  -0.000001   0.000000   0.000000
    35  C    0.000017  -0.000031  -0.000005   0.000000  -0.000007   0.000000
    36  O   -0.000056  -0.000018   0.000001   0.000000  -0.000006   0.000000
    37  N    0.000000   0.000000   0.000000   0.000000   0.000000   0.000000
    38  H    0.000000   0.000000   0.000000   0.000000   0.000000   0.000000
    39  C    0.000000   0.000000   0.000000   0.000000   0.000000   0.000000
    40  H    0.000000   0.000000   0.000000   0.000000   0.000000   0.000000
    41  H    0.000000   0.000000   0.000000   0.000000   0.000000   0.000000
    42  H    0.000000   0.000000   0.000000   0.000000   0.000000   0.000000
             25         26         27         28         29         30
     1  H    0.000000   0.000000   0.000000   0.000000   0.000000   0.000000
     2  C    0.000000   0.000000   0.000000   0.000000   0.000000   0.000000
     3  H    0.000000   0.000000   0.000000   0.000000   0.000000   0.000000
     4  H    0.000000   0.000000   0.000000   0.000000   0.000000   0.000000
     5  C    0.000000   0.000000   0.000000   0.000000   0.000000   0.000000
     6  O    0.000000   0.000000   0.000000   0.000000   0.000000   0.000000
     7  N   -0.000002  -0.000002   0.000000   0.000000   0.000000   0.000000
     8  H    0.000000   0.000029   0.000000   0.000000   0.000000   0.000000
     9  C   -0.000318  -0.000519   0.000000   0.000000   0.000000   0.000000
    10  H    0.000011   0.000089   0.000000   0.000000   0.000000   0.000000
    11  C    0.000012   0.000000   0.000000   0.000000   0.000000   0.000000
    12  H    0.000002   0.000000   0.000000   0.000000   0.000000   0.000000
    13  H    0.000002   0.000000   0.000000   0.000000   0.000000   0.000000
    14  H    0.000000   0.000000   0.000000   0.000000   0.000000   0.000000
    15  C   -0.002019   0.010891   0.000250  -0.000003  -0.000008  -0.000001
    16  O    0.001547  -0.042366  -0.000085   0.000002   0.000011  -0.000001
    17  N   -0.055802   0.003911   0.002103   0.000023  -0.000095  -0.000002
    18  H    0.001954   0.000066  -0.000067  -0.000004   0.000001   0.000000
    19  C    0.364811  -0.079838  -0.109394  -0.000577   0.005047  -0.000042
    20  H   -0.049833   0.001990   0.006976   0.001431   0.000017   0.000001
    21  C   -0.060872   0.000326  -0.000653   0.000471  -0.000392   0.000043
    22  H   -0.004894   0.001368   0.000376  -0.000005  -0.000007   0.000001
    23  H   -0.003115  -0.000112   0.002688   0.000373  -0.000021  -0.000021
    24  H    0.005440  -0.000079  -0.000091  -0.000028   0.000007  -0.000001
    25  C    4.223293   0.580053   0.251498  -0.018072  -0.032310  -0.000904
    26  O    0.580053   8.229923  -0.103044   0.001937   0.014059   0.002864
    27  N    0.251498  -0.103044   7.430731   0.309050   0.193636  -0.041364
    28  H   -0.018072   0.001937   0.309050   0.289638  -0.026937   0.002393
    29  C   -0.032310   0.014059   0.193636  -0.026937   5.040900   0.404413
    30  H   -0.000904   0.002864  -0.041364   0.002393   0.404413   0.495407
    31  C   -0.005104  -0.015506  -0.062367   0.003048   0.335510  -0.045077
    32  H    0.000002   0.000008   0.001662   0.000259  -0.042761   0.004479
    33  H    0.000330   0.000262   0.004865  -0.000078  -0.042302   0.000177
    34  H    0.000715   0.011054  -0.005573  -0.000199  -0.026497  -0.003977
    35  C    0.003957   0.000453  -0.036900  -0.005723   0.377064  -0.037051
    36  O    0.000439  -0.000003  -0.006070   0.021929  -0.079195   0.001005
    37  N   -0.000087  -0.000001   0.002838   0.000736  -0.116284   0.001952
    38  H    0.000002   0.000001   0.000014  -0.000022   0.001127   0.000468
    39  C    0.000001   0.000000  -0.000050  -0.000010   0.003626  -0.000214
    40  H    0.000000   0.000000  -0.000004  -0.000010   0.000583  -0.000017
    41  H    0.000000   0.000000   0.000000   0.000000  -0.000107   0.000010
    42  H    0.000000   0.000000   0.000001   0.000000  -0.000006  -0.000002
             31         32         33         34         35         36
     1  H    0.000000   0.000000   0.000000   0.000000   0.000000   0.000000
     2  C    0.000000   0.000000   0.000000   0.000000   0.000000   0.000000
     3  H    0.000000   0.000000   0.000000   0.000000   0.000000   0.000000
     4  H    0.000000   0.000000   0.000000   0.000000   0.000000   0.000000
     5  C    0.000000   0.000000   0.000000   0.000000   0.000000   0.000000
     6  O    0.000000   0.000000   0.000000   0.000000   0.000000   0.000000
     7  N    0.000000   0.000000   0.000000   0.000000   0.000000   0.000000
     8  H    0.000000   0.000000   0.000000   0.000000   0.000000   0.000000
     9  C    0.000000   0.000000   0.000000   0.000000   0.000000   0.000000
    10  H    0.000000   0.000000   0.000000   0.000000   0.000000   0.000000
    11  C    0.000000   0.000000   0.000000   0.000000   0.000000   0.000000
    12  H    0.000000   0.000000   0.000000   0.000000   0.000000   0.000000
    13  H    0.000000   0.000000   0.000000   0.000000   0.000000   0.000000
    14  H    0.000000   0.000000   0.000000   0.000000   0.000000   0.000000
    15  C    0.000003   0.000000   0.000000  -0.000001   0.000000   0.000000
    16  O   -0.000001   0.000000   0.000000   0.000005   0.000000   0.000000
    17  N    0.000009  -0.000001   0.000000  -0.000008   0.000000   0.000000
    18  H    0.000000   0.000000   0.000000   0.000001   0.000000   0.000000
    19  C   -0.000636  -0.000020   0.000009   0.000300   0.000017  -0.000056
    20  H    0.000012   0.000001   0.000000  -0.000021  -0.000031  -0.000018
    21  C   -0.000003   0.000001   0.000000  -0.000004  -0.000005   0.000001
    22  H    0.000000   0.000000   0.000000  -0.000001   0.000000   0.000000
    23  H    0.000004   0.000000   0.000000   0.000000  -0.000007  -0.000006
    24  H    0.000000   0.000000   0.000000   0.000000   0.000000   0.000000
    25  C   -0.005104   0.000002   0.000330   0.000715   0.003957   0.000439
    26  O   -0.015506   0.000008   0.000262   0.011054   0.000453  -0.000003
    27  N   -0.062367   0.001662   0.004865  -0.005573  -0.036900  -0.006070
    28  H    0.003048   0.000259  -0.000078  -0.000199  -0.005723   0.021929
    29  C    0.335510  -0.042761  -0.042302  -0.026497   0.377064  -0.079195
    30  H   -0.045077   0.004479   0.000177  -0.003977  -0.037051   0.001005
    31  C    5.206753   0.385289   0.378864   0.387182  -0.063028   0.000036
    32  H    0.385289   0.526472  -0.024141  -0.020471  -0.002763   0.000625
    33  H    0.378864  -0.024141   0.566692  -0.020077  -0.006837   0.000026
    34  H    0.387182  -0.020471  -0.020077   0.424929   0.003911  -0.000064
    35  C   -0.063028  -0.002763  -0.006837   0.003911   4.143614   0.594077
    36  O    0.000036   0.000625   0.000026  -0.000064   0.594077   8.217285
    37  N    0.002477   0.000162   0.000350   0.000091   0.289411  -0.098988
    38  H    0.000034  -0.000004   0.002618  -0.000081  -0.020534   0.002373
    39  C   -0.000077  -0.000042   0.000164   0.000003  -0.025584  -0.004855
    40  H   -0.000049  -0.000001  -0.000008   0.000000  -0.001961   0.009940
    41  H   -0.000004   0.000001   0.000002   0.000000   0.000794   0.000365
    42  H    0.000013   0.000002  -0.000002  -0.000001   0.000919   0.000374
             37         38         39         40         41         42
     1  H    0.000000   0.000000   0.000000   0.000000   0.000000   0.000000
     2  C    0.000000   0.000000   0.000000   0.000000   0.000000   0.000000
     3  H    0.000000   0.000000   0.000000   0.000000   0.000000   0.000000
     4  H    0.000000   0.000000   0.000000   0.000000   0.000000   0.000000
     5  C    0.000000   0.000000   0.000000   0.000000   0.000000   0.000000
     6  O    0.000000   0.000000   0.000000   0.000000   0.000000   0.000000
     7  N    0.000000   0.000000   0.000000   0.000000   0.000000   0.000000
     8  H    0.000000   0.000000   0.000000   0.000000   0.000000   0.000000
     9  C    0.000000   0.000000   0.000000   0.000000   0.000000   0.000000
    10  H    0.000000   0.000000   0.000000   0.000000   0.000000   0.000000
    11  C    0.000000   0.000000   0.000000   0.000000   0.000000   0.000000
    12  H    0.000000   0.000000   0.000000   0.000000   0.000000   0.000000
    13  H    0.000000   0.000000   0.000000   0.000000   0.000000   0.000000
    14  H    0.000000   0.000000   0.000000   0.000000   0.000000   0.000000
    15  C    0.000000   0.000000   0.000000   0.000000   0.000000   0.000000
    16  O    0.000000   0.000000   0.000000   0.000000   0.000000   0.000000
    17  N    0.000000   0.000000   0.000000   0.000000   0.000000   0.000000
    18  H    0.000000   0.000000   0.000000   0.000000   0.000000   0.000000
    19  C    0.000000   0.000000   0.000000   0.000000   0.000000   0.000000
    20  H    0.000000   0.000000   0.000000   0.000000   0.000000   0.000000
    21  C    0.000000   0.000000   0.000000   0.000000   0.000000   0.000000
    22  H    0.000000   0.000000   0.000000   0.000000   0.000000   0.000000
    23  H    0.000000   0.000000   0.000000   0.000000   0.000000   0.000000
    24  H    0.000000   0.000000   0.000000   0.000000   0.000000   0.000000
    25  C   -0.000087   0.000002   0.000001   0.000000   0.000000   0.000000
    26  O   -0.000001   0.000001   0.000000   0.000000   0.000000   0.000000
    27  N    0.002838   0.000014  -0.000050  -0.000004   0.000000   0.000001
    28  H    0.000736  -0.000022  -0.000010  -0.000010   0.000000   0.000000
    29  C   -0.116284   0.001127   0.003626   0.000583  -0.000107  -0.000006
    30  H    0.001952   0.000468  -0.000214  -0.000017   0.000010  -0.000002
    31  C    0.002477   0.000034  -0.000077  -0.000049  -0.000004   0.000013
    32  H    0.000162  -0.000004  -0.000042  -0.000001   0.000001   0.000002
    33  H    0.000350   0.002618   0.000164  -0.000008   0.000002  -0.000002
    34  H    0.000091  -0.000081   0.000003   0.000000   0.000000  -0.000001
    35  C    0.289411  -0.020534  -0.025584  -0.001961   0.000794   0.000919
    36  O   -0.098988   0.002373  -0.004855   0.009940   0.000365   0.000374
    37  N    7.331508   0.322414   0.185947  -0.031799  -0.047014  -0.048062
[...]
    29  C    0.000000   0.000000  -0.000005   0.000001  -0.000116  -0.000002
    30  H    0.000000   0.000000  -0.000002   0.000000  -0.000005   0.000000
    31  C    0.000000   0.000000   0.000001   0.000000   0.000008   0.000000
    32  H    0.000000   0.000000   0.000000   0.000000   0.000000   0.000000
    33  H    0.000000   0.000000   0.000000   0.000000   0.000000   0.000000
    34  H    0.000000   0.000000   0.000000   0.000000  -0.000004   0.000001
    35  C    0.000000   0.000000   0.000000   0.000000   0.000000   0.000000
    36  O    0.000000   0.000000   0.000000   0.000000   0.000000   0.000000
    37  N    0.000000   0.000000   0.000000   0.000000   0.000000   0.000000
    38  H    0.000000   0.000000   0.000000   0.000000   0.000000   0.000000
    39  C    0.000000   0.000000   0.000000   0.000000   0.000000   0.000000
    40  H    0.000000   0.000000   0.000000   0.000000   0.000000   0.000000
    41  H    0.000000   0.000000   0.000000   0.000000   0.000000   0.000000
    42  H    0.000000   0.000000   0.000000   0.000000   0.000000   0.000000
             19         20         21         22         23         24
     1  H    0.000000   0.000000   0.000000   0.000000   0.000000   0.000000
     2  C    0.000000   0.000000   0.000000   0.000000   0.000000   0.000000
     3  H    0.000000   0.000000   0.000000   0.000000   0.000000   0.000000
     4  H    0.000000   0.000000   0.000000   0.000000   0.000000   0.000000
     5  C    0.000002   0.000000   0.000000   0.000000   0.000000   0.000000
     6  O    0.000000   0.000000   0.000000   0.000000   0.000000   0.000000
     7  N   -0.000058   0.000001   0.000001  -0.000001   0.000000   0.000000
     8  H   -0.000033   0.000000   0.000001  -0.000001   0.000000   0.000000
     9  C    0.003402  -0.000061  -0.000080   0.000114   0.000007  -0.000034
    10  H   -0.000552  -0.000003   0.000003  -0.000004   0.000000   0.000000
    11  C   -0.000019   0.000005  -0.000014  -0.000004   0.000000   0.000003
    12  H   -0.000032   0.000000   0.000003  -0.000002   0.000000   0.000001
    13  H    0.000053  -0.000008  -0.000007   0.000000   0.000000   0.000002
    14  H    0.000003   0.000000   0.000000   0.000000   0.000000   0.000000
    15  C   -0.027413   0.003237  -0.001456   0.000865   0.000137  -0.000313
    16  O    0.008705  -0.000026  -0.004781   0.005456   0.000281  -0.000165
    17  N    0.227154  -0.045866  -0.054123  -0.002278   0.003830   0.000215
    18  H   -0.033098  -0.004681   0.003987  -0.000125  -0.000088  -0.000097
    19  C    5.052654   0.424078   0.327378  -0.031104  -0.038674  -0.035342
    20  H    0.424078   0.511752  -0.033867   0.003412  -0.002929  -0.003442
    21  C    0.327378  -0.033867   5.140228   0.391545   0.382146   0.389877
    22  H   -0.031104   0.003412   0.391545   0.447491  -0.022272  -0.020537
    23  H   -0.038674  -0.002929   0.382146  -0.022272   0.538025  -0.024580
    24  H   -0.035342  -0.003442   0.389877  -0.020537  -0.024580   0.505706
    25  C    0.364792  -0.055994  -0.052558  -0.003853  -0.002622   0.004651
    26  O   -0.071932   0.001764   0.000052   0.000896  -0.000022  -0.000066
    27  N   -0.111387   0.006745   0.001008   0.000364   0.002066  -0.000098
    28  H   -0.000741   0.000906   0.000476  -0.000010   0.000637  -0.000032
    29  C    0.004857  -0.000045  -0.000297   0.000002  -0.000046   0.000006
    30  H    0.000294  -0.000007  -0.000009   0.000000  -0.000010   0.000000
    31  C   -0.000368   0.000018   0.000000   0.000000   0.000003   0.000000
    32  H   -0.000007   0.000001   0.000000   0.000000   0.000000   0.000000
    33  H    0.000004   0.000000   0.000000   0.000000   0.000000   0.000000
    34  H    0.000093  -0.000017  -0.000001   0.000000   0.000000   0.000000
    35  C    0.000017  -0.000024  -0.000009  -0.000001   0.000015   0.000000
    36  O   -0.000081  -0.000017  -0.000004   0.000000   0.000012   0.000000
    37  N   -0.000001   0.000000   0.000000   0.000000   0.000000   0.000000
    38  H    0.000000   0.000000   0.000000   0.000000   0.000000   0.000000
    39  C    0.000000   0.000000   0.000000   0.000000   0.000000   0.000000
    40  H    0.000000   0.000000   0.000000   0.000000   0.000000   0.000000
    41  H    0.000000   0.000000   0.000000   0.000000   0.000000   0.000000
    42  H    0.000000   0.000000   0.000000   0.000000   0.000000   0.000000
             25         26         27         28         29         30
     1  H    0.000000   0.000000   0.000000   0.000000   0.000000   0.000000
     2  C    0.000000   0.000000   0.000000   0.000000   0.000000   0.000000
     3  H    0.000000   0.000000   0.000000   0.000000   0.000000   0.000000
     4  H    0.000000   0.000000   0.000000   0.000000   0.000000   0.000000
     5  C   -0.000001  -0.000002   0.000000   0.000000   0.000000   0.000000
     6  O    0.000000   0.000000   0.000000   0.000000   0.000000   0.000000
     7  N   -0.000010  -0.000028   0.000000   0.000000   0.000000   0.000000
     8  H    0.000006   0.000021   0.000000   0.000000   0.000000   0.000000
     9  C   -0.000275  -0.000396   0.000000   0.000000   0.000000   0.000000
    10  H    0.000130   0.000283   0.000001   0.000000   0.000000   0.000000
    11  C    0.000003   0.000010   0.000000   0.000000   0.000000   0.000000
    12  H    0.000001   0.000000   0.000000   0.000000   0.000000   0.000000
    13  H    0.000003   0.000000   0.000000   0.000000   0.000000   0.000000
    14  H    0.000000   0.000000   0.000000   0.000000   0.000000   0.000000
    15  C   -0.003691   0.010728   0.000227  -0.000003  -0.000005  -0.000002
    16  O   -0.001008  -0.003821  -0.000019  -0.000001   0.000001   0.000000
    17  N   -0.056441  -0.002231   0.003160   0.000060  -0.000116  -0.000005
    18  H    0.000831   0.000553  -0.000035  -0.000007  -0.000002   0.000000
    19  C    0.364792  -0.071932  -0.111387  -0.000741   0.004857   0.000294
    20  H   -0.055994   0.001764   0.006745   0.000906  -0.000045  -0.000007
    21  C   -0.052558   0.000052   0.001008   0.000476  -0.000297  -0.000009
    22  H   -0.003853   0.000896   0.000364  -0.000010   0.000002   0.000000
    23  H   -0.002622  -0.000022   0.002066   0.000637  -0.000046  -0.000010
    24  H    0.004651  -0.000066  -0.000098  -0.000032   0.000006   0.000000
    25  C    4.208103   0.603780   0.253671  -0.016318  -0.027347  -0.000304
    26  O    0.603780   8.164279  -0.107643   0.001930   0.009844   0.006069
    27  N    0.253671  -0.107643   7.439930   0.308686   0.195789  -0.044212
    28  H   -0.016318   0.001930   0.308686   0.286858  -0.029423   0.002740
    29  C   -0.027347   0.009844   0.195789  -0.029423   5.050389   0.411397
    30  H   -0.000304   0.006069  -0.044212   0.002740   0.411397   0.483833
    31  C   -0.002646  -0.003834  -0.064390   0.002774   0.337117  -0.041207
    32  H    0.000241  -0.000011   0.000285   0.000446  -0.038038   0.003992
    33  H    0.000048   0.000011   0.004607  -0.000068  -0.037761   0.000042
    34  H    0.001900   0.004465  -0.005388  -0.000182  -0.029642  -0.003585
    35  C    0.003565   0.000462  -0.041710  -0.007717   0.378785  -0.041714
    36  O    0.000574  -0.000004  -0.010656   0.025163  -0.075898   0.001685
    37  N   -0.000079  -0.000001   0.002655   0.001087  -0.117452   0.003381
    38  H   -0.000005   0.000000   0.000008  -0.000032   0.000521   0.001223
    39  C    0.000001   0.000000  -0.000080  -0.000033   0.004333  -0.000107
    40  H    0.000000   0.000000  -0.000003  -0.000003   0.000149  -0.000001
    41  H    0.000000   0.000000   0.000006   0.000001  -0.000163  -0.000002
    42  H    0.000000   0.000000   0.000000   0.000000   0.000005  -0.000010
             31         32         33         34         35         36
     1  H    0.000000   0.000000   0.000000   0.000000   0.000000   0.000000
     2  C    0.000000   0.000000   0.000000   0.000000   0.000000   0.000000
     3  H    0.000000   0.000000   0.000000   0.000000   0.000000   0.000000
     4  H    0.000000   0.000000   0.000000   0.000000   0.000000   0.000000
     5  C    0.000000   0.000000   0.000000   0.000000   0.000000   0.000000
     6  O    0.000000   0.000000   0.000000   0.000000   0.000000   0.000000
     7  N    0.000000   0.000000   0.000000   0.000000   0.000000   0.000000
     8  H    0.000000   0.000000   0.000000   0.000000   0.000000   0.000000
     9  C    0.000000   0.000000   0.000000   0.000000   0.000000   0.000000
    10  H    0.000000   0.000000   0.000000   0.000000   0.000000   0.000000
    11  C    0.000000   0.000000   0.000000   0.000000   0.000000   0.000000
    12  H    0.000000   0.000000   0.000000   0.000000   0.000000   0.000000
    13  H    0.000000   0.000000   0.000000   0.000000   0.000000   0.000000
    14  H    0.000000   0.000000   0.000000   0.000000   0.000000   0.000000
    15  C    0.000001   0.000000   0.000000   0.000000   0.000000   0.000000
    16  O    0.000000   0.000000   0.000000   0.000000   0.000000   0.000000
    17  N    0.000008   0.000000   0.000000  -0.000004   0.000000   0.000000
    18  H    0.000000   0.000000   0.000000   0.000001   0.000000   0.000000
    19  C   -0.000368  -0.000007   0.000004   0.000093   0.000017  -0.000081
    20  H    0.000018   0.000001   0.000000  -0.000017  -0.000024  -0.000017
    21  C    0.000000   0.000000   0.000000  -0.000001  -0.000009  -0.000004
    22  H    0.000000   0.000000   0.000000   0.000000  -0.000001   0.000000
    23  H    0.000003   0.000000   0.000000   0.000000   0.000015   0.000012
    24  H    0.000000   0.000000   0.000000   0.000000   0.000000   0.000000
    25  C   -0.002646   0.000241   0.000048   0.001900   0.003565   0.000574
    26  O   -0.003834  -0.000011   0.000011   0.004465   0.000462  -0.000004
    27  N   -0.064390   0.000285   0.004607  -0.005388  -0.041710  -0.010656
    28  H    0.002774   0.000446  -0.000068  -0.000182  -0.007717   0.025163
    29  C    0.337117  -0.038038  -0.037761  -0.029642   0.378785  -0.075898
    30  H   -0.041207   0.003992   0.000042  -0.003585  -0.041714   0.001685
    31  C    5.143436   0.388432   0.382169   0.391645  -0.053396  -0.000823
    32  H    0.388432   0.516380  -0.024653  -0.023206  -0.003969   0.001357
    33  H    0.382169  -0.024653   0.538948  -0.022833  -0.003107   0.000019
    34  H    0.391645  -0.023206  -0.022833   0.472612   0.004154  -0.000071
    35  C   -0.053396  -0.003969  -0.003107   0.004154   4.159411   0.598323
    36  O   -0.000823   0.001357   0.000019  -0.000071   0.598323   8.181262
    37  N    0.002334   0.000378   0.002208  -0.000043   0.284234  -0.104405
    38  H    0.000377   0.000006   0.000614  -0.000040  -0.022322   0.002521
    39  C   -0.000257  -0.000011  -0.000001   0.000003  -0.028665   0.008352
    40  H   -0.000003   0.000003  -0.000011   0.000000  -0.003034   0.003096
    41  H   -0.000004   0.000000   0.000003   0.000000  -0.003758   0.001214
    42  H    0.000003  -0.000001  -0.000007   0.000000   0.004526   0.000354
             37         38         39         40         41         42
     1  H    0.000000   0.000000   0.000000   0.000000   0.000000   0.000000
     2  C    0.000000   0.000000   0.000000   0.000000   0.000000   0.000000
     3  H    0.000000   0.000000   0.000000   0.000000   0.000000   0.000000
     4  H    0.000000   0.000000   0.000000   0.000000   0.000000   0.000000
     5  C    0.000000   0.000000   0.000000   0.000000   0.000000   0.000000
     6  O    0.000000   0.000000   0.000000   0.000000   0.000000   0.000000
     7  N    0.000000   0.000000   0.000000   0.000000   0.000000   0.000000
     8  H    0.000000   0.000000   0.000000   0.000000   0.000000   0.000000
     9  C    0.000000   0.000000   0.000000   0.000000   0.000000   0.000000
    10  H    0.000000   0.000000   0.000000   0.000000   0.000000   0.000000
    11  C    0.000000   0.000000   0.000000   0.000000   0.000000   0.000000
    12  H    0.000000   0.000000   0.000000   0.000000   0.000000   0.000000
    13  H    0.000000   0.000000   0.000000   0.000000   0.000000   0.000000
    14  H    0.000000   0.000000   0.000000   0.000000   0.000000   0.000000
    15  C    0.000000   0.000000   0.000000   0.000000   0.000000   0.000000
    16  O    0.000000   0.000000   0.000000   0.000000   0.000000   0.000000
    17  N    0.000000   0.000000   0.000000   0.000000   0.000000   0.000000
    18  H    0.000000   0.000000   0.000000   0.000000   0.000000   0.000000
    19  C   -0.000001   0.000000   0.000000   0.000000   0.000000   0.000000
    20  H    0.000000   0.000000   0.000000   0.000000   0.000000   0.000000
    21  C    0.000000   0.000000   0.000000   0.000000   0.000000   0.000000
    22  H    0.000000   0.000000   0.000000   0.000000   0.000000   0.000000
    23  H    0.000000   0.000000   0.000000   0.000000   0.000000   0.000000
    24  H    0.000000   0.000000   0.000000   0.000000   0.000000   0.000000
    25  C   -0.000079  -0.000005   0.000001   0.000000   0.000000   0.000000
    26  O   -0.000001   0.000000   0.000000   0.000000   0.000000   0.000000
    27  N    0.002655   0.000008  -0.000080  -0.000003   0.000006   0.000000
    28  H    0.001087  -0.000032  -0.000033  -0.000003   0.000001   0.000000
    29  C   -0.117452   0.000521   0.004333   0.000149  -0.000163   0.000005
    30  H    0.003381   0.001223  -0.000107  -0.000001  -0.000002  -0.000010
    31  C    0.002334   0.000377  -0.000257  -0.000003  -0.000004   0.000003
    32  H    0.000378   0.000006  -0.000011   0.000003   0.000000  -0.000001
    33  H    0.002208   0.000614  -0.000001  -0.000011   0.000003  -0.000007
    34  H   -0.000043  -0.000040   0.000003   0.000000   0.000000   0.000000
    35  C    0.284234  -0.022322  -0.028665  -0.003034  -0.003758   0.004526
    36  O   -0.104405   0.002521   0.008352   0.003096   0.001214   0.000354
    37  N    7.324607   0.328541   0.194126  -0.040567  -0.045472  -0.037033
    38  H    0.328541   0.320130  -0.022106   0.002499   0.001341  -0.004555
    39  C    0.194126  -0.022106   4.909244   0.404266   0.406391   0.397516
    40  H   -0.040567   0.002499   0.404266   0.487889  -0.032742  -0.024827
    41  H   -0.045472   0.001341   0.406391  -0.032742   0.518245  -0.030704
    42  H   -0.037033  -0.004555   0.397516  -0.024827  -0.030704   0.521262
 Mulliken atomic charges:
              1
     1  H    0.206135
     2  C   -0.577945
     3  H    0.201390
     4  H    0.175140
     5  C    0.753509
     6  O   -0.623987
     7  N   -0.817824
     8  H    0.421826
     9  C   -0.040558
    10  H    0.214470
    11  C   -0.483023
    12  H    0.175671
    13  H    0.155555
    14  H    0.212998
    15  C    0.807419
    16  O   -0.615807
    17  N   -0.794322
    18  H    0.380511
    19  C   -0.062644
    20  H    0.195067
    21  C   -0.489501
    22  H    0.230048
    23  H    0.164084
    24  H    0.184246
    25  C    0.780852
    26  O   -0.615156
    27  N   -0.833587
    28  H    0.422806
    29  C   -0.036959
    30  H    0.216520
    31  C   -0.481390
    32  H    0.178374
    33  H    0.159768
    34  H    0.210137
    35  C    0.775936
    36  O   -0.631974
    37  N   -0.798497
    38  H    0.391278
    39  C   -0.272973
    40  H    0.203290
    41  H    0.185645
    42  H    0.173472
 Sum of Mulliken atomic charges =   0.00000
 Mulliken charges with hydrogens summed into heavy atoms:
              1
     2  C    0.004720
     5  C    0.753509
     6  O   -0.623987
     7  N   -0.395998
     9  C    0.173912
    11  C    0.061203
    15  C    0.807419
    16  O   -0.615807
    17  N   -0.413811
    19  C    0.132423
    21  C    0.088876
    25  C    0.780852
    26  O   -0.615156
    27  N   -0.410782
    29  C    0.179561
    31  C    0.066889
    35  C    0.775936
    36  O   -0.631974
    37  N   -0.407219
    39  C    0.289435
 Sum of Mulliken charges with hydrogens summed into heavy atoms =   0.00000
 Electronic spatial extent (au):  <R**2>=           9627.7663
 Charge=              0.0000 electrons
 Dipole moment (field-independent basis, Debye):
    X=              5.0792    Y=             -0.4321    Z=              0.7032  Tot=              5.1458
 Quadrupole moment (field-independent basis, Debye-Ang):
   XX=           -117.4580   YY=           -115.2840   ZZ=           -120.5158
   XY=            -20.0280   XZ=             -2.7558   YZ=            -10.0606
 Traceless Quadrupole moment (field-independent basis, Debye-Ang):
   XX=              0.2946   YY=              2.4686   ZZ=             -2.7632
   XY=            -20.0280   XZ=             -2.7558   YZ=            -10.0606
 Octapole moment (field-independent basis, Debye-Ang**2):
  XXX=            171.1551  YYY=            -12.6176  ZZZ=             -2.3530  XYY=             22.2147
  XXY=            -69.5787  XXZ=            125.3884  XZZ=             17.7524  YZZ=              1.8514
  YYZ=             13.1372  XYZ=             29.1566
 Hexadecapole moment (field-independent basis, Debye-Ang**3):
 XXXX=          -9973.0500 YYYY=          -1509.4947 ZZZZ=           -606.0706 XXXY=           -598.3195
 XXXZ=           -133.5632 YYYX=            -11.8332 YYYZ=            -28.8089 ZZZX=             -9.1430
 ZZZY=            -21.0095 XXYY=          -1938.4013 XXZZ=          -1865.8070 YYZZ=           -361.5816
 XXYZ=           -210.4054 YYXZ=            -21.0117 ZZXY=            -20.2423
 N-N= 1.612039864530D+03 E-N=-5.532359415446D+03  KE= 9.830841243266D+02
 1\1\GINC-NODE006\FOpt\RHF\6-31G(d)\C12H22N4O4\MANAGER\27-Dec-2016\0\\#
  HF/6-31G* Opt=(ModRedundant, maxcycles=1000, calcfc) geom=nocrowd\\Ph
 i Psi fixed scan\\0,1\H,8.3268477454,1.5530266385,3.332963369\C,8.3153
 625292,2.6289074318,3.2268958303\H,9.3330368265,2.9621100367,3.0501497
 182\H,7.9590736655,3.0833424464,4.1436349274\C,7.4708022633,2.99300851
 ,2.0249519098\O,7.4359771093,2.301090427,1.0404462502\N,6.7826863996,4
 .148444587,2.1264708587\H,6.9073386472,4.7507595526,2.9094707474\C,6.0
 532311646,4.7023609075,1.0128751517\H,6.6285339427,4.5388064487,0.1090
 539264\C,4.6733460601,4.0488589644,0.8529208948\H,4.0710406438,4.22253
 10463,1.7379426863\H,4.1408043778,4.4411732144,-0.0071047027\H,4.80231
 85678,2.9833830642,0.719257223\C,5.9214422663,6.2058986602,1.252860546
 4\O,6.121457618,6.6854132679,2.3315781005\N,5.4591228948,6.9135079628,
 0.1757132466\H,5.4821988227,6.3978654749,-0.6769925228\C,5.7173893568,
 8.329932037,-0.0220014984\H,5.2764767876,8.5680527288,-0.9833779828\C,
 5.0438535439,9.2135953039,1.0351523844\H,5.4780327995,9.0504312957,2.0
 095888389\H,5.1484779371,10.260123988,0.7688249107\H,3.9879220542,8.97
 5816922,1.0811593204\C,7.2205662133,8.6295351996,-0.1144690065\O,8.057
 9862608,7.9450673952,0.4067742747\N,7.5258597772,9.6918763958,-0.88765
 03009\H,6.81430416,10.278287074,-1.2657972217\C,8.8756046044,10.191881
 3821,-1.0061304605\H,9.3731612421,10.064900363,-0.0523342463\C,9.66835
 33334,9.442314868,-2.0847226395\H,9.1977899473,9.5680478679,-3.0537139
 501\H,10.6894095952,9.8035925702,-2.1483488252\H,9.6924484548,8.388735
 118,-1.8398521281\C,8.7834148111,11.6789796196,-1.3405695909\O,7.77768
 60438,12.1591269835,-1.7971314504\N,9.9014059293,12.3939643811,-1.1286
 565165\H,10.6656720073,11.9667448454,-0.659160684\C,9.9612760574,13.81
 47364461,-1.4067681239\H,9.5942335812,14.0122090582,-2.4035856877\H,9.
 3661854484,14.383853695,-0.7021218324\H,10.9915685097,14.1365058206,-1
 .3397957444\\Version=EM64L-G09RevA.02\State=1-A\HF=-984.5553923\RMSD=7
 .450e-09\RMSF=1.543e-03\Dipole=0.7050251,1.8460265,-0.4402273\Quadrupo
 le=10.4254738,-9.9563781,-0.4690957,13.1336387,1.0397152,-2.844659\PG=
 C01 [X(C12H22N4O4)]\\@


 TERRY FORSTER, PORTLY ATLANTA BRAVES RELIEVER,
 ANNOUNCING THAT HE WAS GOING TO A FAT FARM:
 "A WAIST IS A TERRIBLE THING TO MIND."
 Job cpu time:  0 days  1 hours 58 minutes 37.4 seconds.
 File lengths (MBytes):  RWF=    553 Int=      0 D2E=      0 Chk=     11 Scr=      1
 Normal termination of Gaussian 09 at Tue Dec 27 13:20:45 2016.
