 Entering Gaussian System, Link 0=g09
 Initial command:
 /home/steboss/Software/g09/l1.exe /tmp/Gau-2745.inp -scrdir=/tmp/
 Entering Link 1 = /home/steboss/Software/g09/l1.exe PID=      2747.
  
 Copyright (c) 1988,1990,1992,1993,1995,1998,2003,2009, Gaussian, Inc.
                  All Rights Reserved.
  
 This is part of the Gaussian(R) 09 program.  It is based on
 the Gaussian(R) 03 system (copyright 2003, Gaussian, Inc.),
 the Gaussian(R) 98 system (copyright 1998, Gaussian, Inc.),
 the Gaussian(R) 94 system (copyright 1995, Gaussian, Inc.),
 the Gaussian 92(TM) system (copyright 1992, Gaussian, Inc.),
 the Gaussian 90(TM) system (copyright 1990, Gaussian, Inc.),
 the Gaussian 88(TM) system (copyright 1988, Gaussian, Inc.),
 the Gaussian 86(TM) system (copyright 1986, Carnegie Mellon
 University), and the Gaussian 82(TM) system (copyright 1983,
 Carnegie Mellon University). Gaussian is a federally registered
 trademark of Gaussian, Inc.
  
 This software contains proprietary and confidential information,
 including trade secrets, belonging to Gaussian, Inc.
  
 This software is provided under written license and may be
 used, copied, transmitted, or stored only in accord with that
 written license.
  
 The following legend is applicable only to US Government
 contracts under FAR:
  
                    RESTRICTED RIGHTS LEGEND
  
 Use, reproduction and disclosure by the US Government is
 subject to restrictions as set forth in subparagraphs (a)
 and (c) of the Commercial Computer Software - Restricted
 Rights clause in FAR 52.227-19.
  
 Gaussian, Inc.
 340 Quinnipiac St., Bldg. 40, Wallingford CT 06492
  
  
 ---------------------------------------------------------------
 Warning -- This program may not be used in any manner that
 competes with the business of Gaussian, Inc. or will provide
 assistance to any competitor of Gaussian, Inc.  The licensee
 of this program is prohibited from giving any competitor of
 Gaussian, Inc. access to this program.  By using this program,
 the user acknowledges that Gaussian, Inc. is engaged in the
 business of creating and licensing software in the field of
 computational chemistry and represents and warrants to the
 licensee that it is not a competitor of Gaussian, Inc. and that
 it will not use this program in any manner prohibited above.
 ---------------------------------------------------------------
  

 Cite this work as:
 Gaussian 09, Revision A.02,
 M. J. Frisch, G. W. Trucks, H. B. Schlegel, G. E. Scuseria, 
 M. A. Robb, J. R. Cheeseman, G. Scalmani, V. Barone, B. Mennucci, 
 G. A. Petersson, H. Nakatsuji, M. Caricato, X. Li, H. P. Hratchian, 
 A. F. Izmaylov, J. Bloino, G. Zheng, J. L. Sonnenberg, M. Hada, 
 M. Ehara, K. Toyota, R. Fukuda, J. Hasegawa, M. Ishida, T. Nakajima, 
 Y. Honda, O. Kitao, H. Nakai, T. Vreven, J. A. Montgomery, Jr., 
 J. E. Peralta, F. Ogliaro, M. Bearpark, J. J. Heyd, E. Brothers, 
 K. N. Kudin, V. N. Staroverov, R. Kobayashi, J. Normand, 
 K. Raghavachari, A. Rendell, J. C. Burant, S. S. Iyengar, J. Tomasi, 
 M. Cossi, N. Rega, J. M. Millam, M. Klene, J. E. Knox, J. B. Cross, 
 V. Bakken, C. Adamo, J. Jaramillo, R. Gomperts, R. E. Stratmann, 
 O. Yazyev, A. J. Austin, R. Cammi, C. Pomelli, J. W. Ochterski, 
 R. L. Martin, K. Morokuma, V. G. Zakrzewski, G. A. Voth, 
 P. Salvador, J. J. Dannenberg, S. Dapprich, A. D. Daniels, 
 O. Farkas, J. B. Foresman, J. V. Ortiz, J. Cioslowski, 
 and D. J. Fox, Gaussian, Inc., Wallingford CT, 2009.
 
 ******************************************
 Gaussian 09:  EM64L-G09RevA.02 11-Jun-2009
                27-Dec-2016 
 ******************************************
 %chk=structure_270.chk
 -------------------------------------------------------------------
 # HF/6-31G* Opt=(ModRedundant, maxcycles=1000, calcfc) geom=nocrowd
 -------------------------------------------------------------------
 1/6=1000,10=4,18=120,19=15,38=1/1,3;
 2/9=110,12=1,17=6,18=5,40=1/2;
 3/5=1,6=6,7=1,11=9,16=1,25=1,30=1,71=2/1,2,3;
 4//1;
 5/5=2,38=5/2;
 8/6=4,10=90,11=11/1;
 11/6=1,8=1,9=11,15=111,16=1/1,2,10;
 10/6=1,7=6,13=1/2;
 6/7=2,8=2,9=2,10=2,28=1/1;
 7/10=1,18=20,25=1/1,2,3,16;
 1/6=1000,10=4,18=20,19=15/3(2);
 2/9=110,12=1/2;
 99//99;
 2/9=110,12=1/2;
 3/5=1,6=6,7=1,11=9,16=1,25=1,30=1,71=1/1,2,3;
 4/5=5,16=3/1;
 5/5=2,38=5/2;
 7//1,2,3,16;
 1/6=1000,18=20,19=15/3(-5);
 2/9=110,12=1/2;
 6/7=2,8=2,9=2,10=2,19=2,28=1/1;
 99/9=1/99;
 ------------------
 Phi Psi fixed scan
 ------------------
 Symbolic Z-matrix:
 Charge =  0 Multiplicity = 1
 H                     7.7691    1.        3.3308 
 C                     7.7691    2.09      3.3308 
 H                     8.7966    2.4538    3.3308 
 H                     7.2553    2.4538    4.2206 
 C                     7.0554    2.6408    2.0946 
 O                     6.5738    1.8774    1.2605 
 N                     6.9914    3.9696    1.9838 
 H                     7.4025    4.5561    2.6959 
 C                     6.3424    4.6139    0.8598 
 H                     6.8359    4.3155   -0.0652 
 C                     4.8714    4.2208    0.7761 
 H                     4.3618    4.5213    1.6916 
 H                     4.4096    4.7189   -0.0764 
 H                     4.7897    3.1409    0.6532 
 C                     6.4127    6.1294    0.9815 
 O                     6.9688    6.6527    1.9446 
 N                     5.846     6.8349    0. 
 H                     5.4006    6.3592   -0.7716 
 C                     5.8461    8.2839    0. 
 H                     5.3323    8.6477   -0.8898 
 C                     5.1347    8.8329    1.2322 
 H                     5.6431    8.4846    2.1312 
 H                     5.1499    9.9224    1.2058 
 H                     4.1019    8.4846    1.2414 
 C                     7.266     8.8318    0. 
 O                     7.8479    9.0564   -1.0589 
 N                     7.8237    9.047     1.1937 
 H                     7.305     8.8468    2.0369 
 C                     9.1698    9.5664    1.3275 
 H                     9.8724    8.8837    0.8496 
 C                     9.2975    10.9364   0.6699 
 H                     8.6065    11.6334   1.144 
 H                     10.3179   11.3018   0.7857 
 H                     9.0596    10.8545  -0.3907 
 C                     9.5564    9.7156    2.792 
 O                     8.7642    9.4099    3.6806 
 N                     10.7798   10.1877   3.0422 
 H                     11.3955   10.4252   2.2776 
 C                     11.2665   10.3754   4.394 
 H                     10.4944   10.0775   5.1034 
 H                     12.1562   9.765     4.5485 
 H                     11.5155   11.4253   4.5485 
 
 The following ModRedundant input section has been read:
 D   15   17   19   25 F                                                       
 D   17   19   25   27 F                                                       

 GradGradGradGradGradGradGradGradGradGradGradGradGradGradGradGradGradGrad
 Berny optimization.
 Initialization pass.
                           ----------------------------
                           !    Initial Parameters    !
                           ! (Angstroms and Degrees)  !
 --------------------------                            --------------------------
 ! Name  Definition              Value          Derivative Info.                !
 --------------------------------------------------------------------------------
 ! R1    R(1,2)                  1.09           calculate D2E/DX2 analytically  !
 ! R2    R(2,3)                  1.09           calculate D2E/DX2 analytically  !
 ! R3    R(2,4)                  1.09           calculate D2E/DX2 analytically  !
 ! R4    R(2,5)                  1.53           calculate D2E/DX2 analytically  !
 ! R5    R(5,6)                  1.229          calculate D2E/DX2 analytically  !
 ! R6    R(5,7)                  1.3349         calculate D2E/DX2 analytically  !
 ! R7    R(7,8)                  1.01           calculate D2E/DX2 analytically  !
 ! R8    R(7,9)                  1.449          calculate D2E/DX2 analytically  !
 ! R9    R(9,10)                 1.0901         calculate D2E/DX2 analytically  !
 ! R10   R(9,11)                 1.5249         calculate D2E/DX2 analytically  !
 ! R11   R(9,15)                 1.522          calculate D2E/DX2 analytically  !
 ! R12   R(11,12)                1.09           calculate D2E/DX2 analytically  !
 ! R13   R(11,13)                1.09           calculate D2E/DX2 analytically  !
 ! R14   R(11,14)                1.0899         calculate D2E/DX2 analytically  !
 ! R15   R(15,16)                1.2291         calculate D2E/DX2 analytically  !
 ! R16   R(15,17)                1.335          calculate D2E/DX2 analytically  !
 ! R17   R(17,18)                1.01           calculate D2E/DX2 analytically  !
 ! R18   R(17,19)                1.449          calculate D2E/DX2 analytically  !
 ! R19   R(19,20)                1.09           calculate D2E/DX2 analytically  !
 ! R20   R(19,21)                1.5251         calculate D2E/DX2 analytically  !
 ! R21   R(19,25)                1.5219         calculate D2E/DX2 analytically  !
 ! R22   R(21,22)                1.0899         calculate D2E/DX2 analytically  !
 ! R23   R(21,23)                1.0899         calculate D2E/DX2 analytically  !
 ! R24   R(21,24)                1.09           calculate D2E/DX2 analytically  !
 ! R25   R(25,26)                1.229          calculate D2E/DX2 analytically  !
 ! R26   R(25,27)                1.335          calculate D2E/DX2 analytically  !
 ! R27   R(27,28)                1.01           calculate D2E/DX2 analytically  !
 ! R28   R(27,29)                1.449          calculate D2E/DX2 analytically  !
 ! R29   R(29,30)                1.09           calculate D2E/DX2 analytically  !
 ! R30   R(29,31)                1.525          calculate D2E/DX2 analytically  !
 ! R31   R(29,35)                1.522          calculate D2E/DX2 analytically  !
 ! R32   R(31,32)                1.09           calculate D2E/DX2 analytically  !
 ! R33   R(31,33)                1.09           calculate D2E/DX2 analytically  !
 ! R34   R(31,34)                1.09           calculate D2E/DX2 analytically  !
 ! R35   R(35,36)                1.2291         calculate D2E/DX2 analytically  !
 ! R36   R(35,37)                1.335          calculate D2E/DX2 analytically  !
 ! R37   R(37,38)                1.01           calculate D2E/DX2 analytically  !
 ! R38   R(37,39)                1.449          calculate D2E/DX2 analytically  !
 ! R39   R(39,40)                1.09           calculate D2E/DX2 analytically  !
 ! R40   R(39,41)                1.09           calculate D2E/DX2 analytically  !
 ! R41   R(39,42)                1.09           calculate D2E/DX2 analytically  !
 ! A1    A(1,2,3)              109.4972         calculate D2E/DX2 analytically  !
 ! A2    A(1,2,4)              109.4974         calculate D2E/DX2 analytically  !
 ! A3    A(1,2,5)              111.1            calculate D2E/DX2 analytically  !
 ! A4    A(3,2,4)              109.4481         calculate D2E/DX2 analytically  !
 ! A5    A(3,2,5)              108.6367         calculate D2E/DX2 analytically  !
 ! A6    A(4,2,5)              108.6348         calculate D2E/DX2 analytically  !
 ! A7    A(2,5,6)              120.4994         calculate D2E/DX2 analytically  !
 ! A8    A(2,5,7)              116.6003         calculate D2E/DX2 analytically  !
 ! A9    A(6,5,7)              122.9003         calculate D2E/DX2 analytically  !
 ! A10   A(5,7,8)              119.9996         calculate D2E/DX2 analytically  !
 ! A11   A(5,7,9)              121.9007         calculate D2E/DX2 analytically  !
 ! A12   A(8,7,9)              118.0998         calculate D2E/DX2 analytically  !
 ! A13   A(7,9,10)             109.4963         calculate D2E/DX2 analytically  !
 ! A14   A(7,9,11)             111.1004         calculate D2E/DX2 analytically  !
 ! A15   A(7,9,15)             111.102          calculate D2E/DX2 analytically  !
 ! A16   A(10,9,11)            108.6374         calculate D2E/DX2 analytically  !
 ! A17   A(10,9,15)            108.634          calculate D2E/DX2 analytically  !
 ! A18   A(11,9,15)            107.7959         calculate D2E/DX2 analytically  !
 ! A19   A(9,11,12)            109.5007         calculate D2E/DX2 analytically  !
 ! A20   A(9,11,13)            109.5005         calculate D2E/DX2 analytically  !
 ! A21   A(9,11,14)            109.5061         calculate D2E/DX2 analytically  !
 ! A22   A(12,11,13)           109.441          calculate D2E/DX2 analytically  !
 ! A23   A(12,11,14)           109.4392         calculate D2E/DX2 analytically  !
 ! A24   A(13,11,14)           109.4397         calculate D2E/DX2 analytically  !
 ! A25   A(9,15,16)            120.4974         calculate D2E/DX2 analytically  !
 ! A26   A(9,15,17)            116.6034         calculate D2E/DX2 analytically  !
 ! A27   A(16,15,17)           122.8992         calculate D2E/DX2 analytically  !
 ! A28   A(15,17,18)           119.9987         calculate D2E/DX2 analytically  !
 ! A29   A(15,17,19)           121.8998         calculate D2E/DX2 analytically  !
 ! A30   A(18,17,19)           118.1015         calculate D2E/DX2 analytically  !
 ! A31   A(17,19,20)           109.4954         calculate D2E/DX2 analytically  !
 ! A32   A(17,19,21)           111.0974         calculate D2E/DX2 analytically  !
 ! A33   A(17,19,25)           111.1042         calculate D2E/DX2 analytically  !
 ! A34   A(20,19,21)           108.6349         calculate D2E/DX2 analytically  !
 ! A35   A(20,19,25)           108.6399         calculate D2E/DX2 analytically  !
 ! A36   A(21,19,25)           107.7944         calculate D2E/DX2 analytically  !
 ! A37   A(19,21,22)           109.4996         calculate D2E/DX2 analytically  !
 ! A38   A(19,21,23)           109.4977         calculate D2E/DX2 analytically  !
 ! A39   A(19,21,24)           109.4988         calculate D2E/DX2 analytically  !
 ! A40   A(22,21,23)           109.4452         calculate D2E/DX2 analytically  !
 ! A41   A(22,21,24)           109.4447         calculate D2E/DX2 analytically  !
 ! A42   A(23,21,24)           109.4412         calculate D2E/DX2 analytically  !
 ! A43   A(19,25,26)           120.5            calculate D2E/DX2 analytically  !
 ! A44   A(19,25,27)           116.6007         calculate D2E/DX2 analytically  !
 ! A45   A(26,25,27)           122.8992         calculate D2E/DX2 analytically  !
 ! A46   A(25,27,28)           119.999          calculate D2E/DX2 analytically  !
 ! A47   A(25,27,29)           121.8989         calculate D2E/DX2 analytically  !
 ! A48   A(28,27,29)           118.1022         calculate D2E/DX2 analytically  !
 ! A49   A(27,29,30)           109.5001         calculate D2E/DX2 analytically  !
 ! A50   A(27,29,31)           111.0994         calculate D2E/DX2 analytically  !
 ! A51   A(27,29,35)           111.0974         calculate D2E/DX2 analytically  !
 ! A52   A(30,29,31)           108.6405         calculate D2E/DX2 analytically  !
 ! A53   A(30,29,35)           108.6353         calculate D2E/DX2 analytically  !
 ! A54   A(31,29,35)           107.7934         calculate D2E/DX2 analytically  !
 ! A55   A(29,31,32)           109.5006         calculate D2E/DX2 analytically  !
 ! A56   A(29,31,33)           109.4953         calculate D2E/DX2 analytically  !
 ! A57   A(29,31,34)           109.4992         calculate D2E/DX2 analytically  !
 ! A58   A(32,31,33)           109.4445         calculate D2E/DX2 analytically  !
 ! A59   A(32,31,34)           109.4449         calculate D2E/DX2 analytically  !
 ! A60   A(33,31,34)           109.4428         calculate D2E/DX2 analytically  !
 ! A61   A(29,35,36)           120.5017         calculate D2E/DX2 analytically  !
 ! A62   A(29,35,37)           116.6014         calculate D2E/DX2 analytically  !
 ! A63   A(36,35,37)           122.8969         calculate D2E/DX2 analytically  !
 ! A64   A(35,37,38)           119.995          calculate D2E/DX2 analytically  !
 ! A65   A(35,37,39)           121.903          calculate D2E/DX2 analytically  !
 ! A66   A(38,37,39)           118.102          calculate D2E/DX2 analytically  !
 ! A67   A(37,39,40)           109.5024         calculate D2E/DX2 analytically  !
 ! A68   A(37,39,41)           109.5044         calculate D2E/DX2 analytically  !
 ! A69   A(37,39,42)           109.4959         calculate D2E/DX2 analytically  !
 ! A70   A(40,39,41)           109.4442         calculate D2E/DX2 analytically  !
 ! A71   A(40,39,42)           109.4389         calculate D2E/DX2 analytically  !
 ! A72   A(41,39,42)           109.4417         calculate D2E/DX2 analytically  !
 ! D1    D(1,2,5,6)              0.0022         calculate D2E/DX2 analytically  !
 ! D2    D(1,2,5,7)            179.9987         calculate D2E/DX2 analytically  !
 ! D3    D(3,2,5,6)            120.5114         calculate D2E/DX2 analytically  !
 ! D4    D(3,2,5,7)            -59.4921         calculate D2E/DX2 analytically  !
 ! D5    D(4,2,5,6)           -120.5061         calculate D2E/DX2 analytically  !
 ! D6    D(4,2,5,7)             59.4904         calculate D2E/DX2 analytically  !
 ! D7    D(2,5,7,8)              0.0002         calculate D2E/DX2 analytically  !
 ! D8    D(2,5,7,9)           -179.997          calculate D2E/DX2 analytically  !
 ! D9    D(6,5,7,8)            179.9966         calculate D2E/DX2 analytically  !
 ! D10   D(6,5,7,9)             -0.0006         calculate D2E/DX2 analytically  !
 ! D11   D(5,7,9,10)           -60.0013         calculate D2E/DX2 analytically  !
 ! D12   D(5,7,9,11)            59.9987         calculate D2E/DX2 analytically  !
 ! D13   D(5,7,9,15)          -179.9979         calculate D2E/DX2 analytically  !
 ! D14   D(8,7,9,10)           120.0015         calculate D2E/DX2 analytically  !
 ! D15   D(8,7,9,11)          -119.9986         calculate D2E/DX2 analytically  !
 ! D16   D(8,7,9,15)             0.0048         calculate D2E/DX2 analytically  !
 ! D17   D(7,9,11,12)           60.0013         calculate D2E/DX2 analytically  !
 ! D18   D(7,9,11,13)         -179.9997         calculate D2E/DX2 analytically  !
 ! D19   D(7,9,11,14)          -59.999          calculate D2E/DX2 analytically  !
 ! D20   D(10,9,11,12)        -179.4899         calculate D2E/DX2 analytically  !
 ! D21   D(10,9,11,13)         -59.4908         calculate D2E/DX2 analytically  !
 ! D22   D(10,9,11,14)          60.5099         calculate D2E/DX2 analytically  !
 ! D23   D(15,9,11,12)         -61.9473         calculate D2E/DX2 analytically  !
 ! D24   D(15,9,11,13)          58.0517         calculate D2E/DX2 analytically  !
 ! D25   D(15,9,11,14)         178.0524         calculate D2E/DX2 analytically  !
 ! D26   D(7,9,15,16)           -0.0008         calculate D2E/DX2 analytically  !
 ! D27   D(7,9,15,17)          179.9993         calculate D2E/DX2 analytically  !
 ! D28   D(10,9,15,16)        -120.5084         calculate D2E/DX2 analytically  !
 ! D29   D(10,9,15,17)          59.4916         calculate D2E/DX2 analytically  !
 ! D30   D(11,9,15,16)         121.9468         calculate D2E/DX2 analytically  !
 ! D31   D(11,9,15,17)         -58.0532         calculate D2E/DX2 analytically  !
 ! D32   D(9,15,17,18)          -0.0073         calculate D2E/DX2 analytically  !
 ! D33   D(9,15,17,19)        -179.9972         calculate D2E/DX2 analytically  !
 ! D34   D(16,15,17,18)        179.9928         calculate D2E/DX2 analytically  !
 ! D35   D(16,15,17,19)          0.0029         calculate D2E/DX2 analytically  !
 ! D36   D(15,17,19,20)       -179.9987         calculate D2E/DX2 analytically  !
 ! D37   D(15,17,19,21)        -60.0044         calculate D2E/DX2 analytically  !
 ! D38   D(15,17,19,25)         59.9965         frozen, calculate D2E/DX2 analyt!
 ! D39   D(18,17,19,20)          0.0113         calculate D2E/DX2 analytically  !
 ! D40   D(18,17,19,21)        120.0055         calculate D2E/DX2 analytically  !
 ! D41   D(18,17,19,25)       -119.9935         calculate D2E/DX2 analytically  !
 ! D42   D(17,19,21,22)         60.0039         calculate D2E/DX2 analytically  !
 ! D43   D(17,19,21,23)       -179.9943         calculate D2E/DX2 analytically  !
 ! D44   D(17,19,21,24)        -59.998          calculate D2E/DX2 analytically  !
 ! D45   D(20,19,21,22)       -179.4919         calculate D2E/DX2 analytically  !
 ! D46   D(20,19,21,23)        -59.4901         calculate D2E/DX2 analytically  !
 ! D47   D(20,19,21,24)         60.5062         calculate D2E/DX2 analytically  !
 ! D48   D(25,19,21,22)        -61.9445         calculate D2E/DX2 analytically  !
 ! D49   D(25,19,21,23)         58.0573         calculate D2E/DX2 analytically  !
 ! D50   D(25,19,21,24)        178.0536         calculate D2E/DX2 analytically  !
 ! D51   D(17,19,25,26)         90.0031         calculate D2E/DX2 analytically  !
 ! D52   D(17,19,25,27)        -90.0            frozen, calculate D2E/DX2 analyt!
 ! D53   D(20,19,25,26)        -30.5086         calculate D2E/DX2 analytically  !
 ! D54   D(20,19,25,27)        149.4884         calculate D2E/DX2 analytically  !
 ! D55   D(21,19,25,26)       -148.0528         calculate D2E/DX2 analytically  !
 ! D56   D(21,19,25,27)         31.9442         calculate D2E/DX2 analytically  !
 ! D57   D(19,25,27,28)          0.0029         calculate D2E/DX2 analytically  !
 ! D58   D(19,25,27,29)        179.999          calculate D2E/DX2 analytically  !
 ! D59   D(26,25,27,28)        179.9998         calculate D2E/DX2 analytically  !
 ! D60   D(26,25,27,29)         -0.0041         calculate D2E/DX2 analytically  !
 ! D61   D(25,27,29,30)        -60.0028         calculate D2E/DX2 analytically  !
 ! D62   D(25,27,29,31)         60.0028         calculate D2E/DX2 analytically  !
 ! D63   D(25,27,29,35)        179.9993         calculate D2E/DX2 analytically  !
 ! D64   D(28,27,29,30)        119.9934         calculate D2E/DX2 analytically  !
 ! D65   D(28,27,29,31)       -120.001          calculate D2E/DX2 analytically  !
 ! D66   D(28,27,29,35)         -0.0045         calculate D2E/DX2 analytically  !
 ! D67   D(27,29,31,32)         60.0001         calculate D2E/DX2 analytically  !
 ! D68   D(27,29,31,33)       -179.9999         calculate D2E/DX2 analytically  !
 ! D69   D(27,29,31,34)        -60.0029         calculate D2E/DX2 analytically  !
 ! D70   D(30,29,31,32)       -179.4849         calculate D2E/DX2 analytically  !
 ! D71   D(30,29,31,33)        -59.4849         calculate D2E/DX2 analytically  !
 ! D72   D(30,29,31,34)         60.5121         calculate D2E/DX2 analytically  !
 ! D73   D(35,29,31,32)        -61.9405         calculate D2E/DX2 analytically  !
 ! D74   D(35,29,31,33)         58.0595         calculate D2E/DX2 analytically  !
 ! D75   D(35,29,31,34)        178.0565         calculate D2E/DX2 analytically  !
 ! D76   D(27,29,35,36)          0.0022         calculate D2E/DX2 analytically  !
 ! D77   D(27,29,35,37)       -179.9981         calculate D2E/DX2 analytically  !
 ! D78   D(30,29,35,36)       -120.5081         calculate D2E/DX2 analytically  !
 ! D79   D(30,29,35,37)         59.4915         calculate D2E/DX2 analytically  !
 ! D80   D(31,29,35,36)        121.9441         calculate D2E/DX2 analytically  !
 ! D81   D(31,29,35,37)        -58.0563         calculate D2E/DX2 analytically  !
 ! D82   D(29,35,37,38)         -0.0052         calculate D2E/DX2 analytically  !
 ! D83   D(29,35,37,39)       -179.9945         calculate D2E/DX2 analytically  !
 ! D84   D(36,35,37,38)        179.9945         calculate D2E/DX2 analytically  !
 ! D85   D(36,35,37,39)          0.0051         calculate D2E/DX2 analytically  !
 ! D86   D(35,37,39,40)         -0.0065         calculate D2E/DX2 analytically  !
 ! D87   D(35,37,39,41)        119.9997         calculate D2E/DX2 analytically  !
 ! D88   D(35,37,39,42)       -120.0011         calculate D2E/DX2 analytically  !
 ! D89   D(38,37,39,40)       -179.9961         calculate D2E/DX2 analytically  !
 ! D90   D(38,37,39,41)        -59.9898         calculate D2E/DX2 analytically  !
 ! D91   D(38,37,39,42)         60.0094         calculate D2E/DX2 analytically  !
 --------------------------------------------------------------------------------
 Trust Radius=3.00D-01 FncErr=1.00D-07 GrdErr=1.00D-07
 Number of steps in this run= 252 maximum allowed number of steps= 252.
 GradGradGradGradGradGradGradGradGradGradGradGradGradGradGradGradGradGrad

                          Input orientation:                          
 ---------------------------------------------------------------------
 Center     Atomic      Atomic             Coordinates (Angstroms)
 Number     Number       Type             X           Y           Z
 ---------------------------------------------------------------------
      1          1           0        7.769100    1.000000    3.330800
      2          6           0        7.769100    2.090000    3.330800
      3          1           0        8.796600    2.453800    3.330800
      4          1           0        7.255300    2.453800    4.220600
      5          6           0        7.055400    2.640800    2.094600
      6          8           0        6.573800    1.877400    1.260500
      7          7           0        6.991400    3.969600    1.983800
      8          1           0        7.402500    4.556100    2.695900
      9          6           0        6.342400    4.613900    0.859800
     10          1           0        6.835900    4.315500   -0.065200
     11          6           0        4.871400    4.220800    0.776100
     12          1           0        4.361800    4.521300    1.691600
     13          1           0        4.409600    4.718900   -0.076400
     14          1           0        4.789700    3.140900    0.653200
     15          6           0        6.412700    6.129400    0.981500
     16          8           0        6.968800    6.652700    1.944600
     17          7           0        5.846000    6.834900    0.000000
     18          1           0        5.400600    6.359200   -0.771600
     19          6           0        5.846100    8.283900    0.000000
     20          1           0        5.332300    8.647700   -0.889800
     21          6           0        5.134700    8.832900    1.232200
     22          1           0        5.643100    8.484600    2.131200
     23          1           0        5.149900    9.922400    1.205800
     24          1           0        4.101900    8.484600    1.241400
     25          6           0        7.266000    8.831800    0.000000
     26          8           0        7.847900    9.056400   -1.058900
     27          7           0        7.823700    9.047000    1.193700
     28          1           0        7.305000    8.846800    2.036900
     29          6           0        9.169800    9.566400    1.327500
     30          1           0        9.872400    8.883700    0.849600
     31          6           0        9.297500   10.936400    0.669900
     32          1           0        8.606500   11.633400    1.144000
     33          1           0       10.317900   11.301800    0.785700
     34          1           0        9.059600   10.854500   -0.390700
     35          6           0        9.556400    9.715600    2.792000
     36          8           0        8.764200    9.409900    3.680600
     37          7           0       10.779800   10.187700    3.042200
     38          1           0       11.395500   10.425200    2.277600
     39          6           0       11.266500   10.375400    4.394000
     40          1           0       10.494400   10.077500    5.103400
     41          1           0       12.156200    9.765000    4.548500
     42          1           0       11.515500   11.425300    4.548500
 ---------------------------------------------------------------------
                    Distance matrix (angstroms):
                    1          2          3          4          5
     1  H    0.000000
     2  C    1.090000   0.000000
     3  H    1.780250   1.090003   0.000000
     4  H    1.780244   1.089993   1.779705   0.000000
     5  C    2.174806   1.530013   2.143580   2.143550   0.000000
     6  O    2.546510   2.400017   3.091799   3.091742   1.229000
     7  N    3.352275   2.439697   2.714923   2.714879   1.334946
     8  H    3.630887   2.572769   2.601207   2.601162   2.037257
     9  C    4.604518   3.809381   4.098167   4.098097   2.434384
    10  H    4.836964   4.166117   4.340863   4.691472   2.741813
    11  C    5.029583   4.411742   5.005594   4.546411   3.000783
    12  H    5.166839   4.495319   5.160328   4.363799   3.309708
    13  H    6.060154   5.459521   5.998788   5.629644   4.003998
    14  H    4.542006   4.141347   4.867946   4.390630   2.731507
    15  C    5.802566   4.865777   4.971139   4.971094   3.717847
    16  O    5.874951   4.835314   4.784680   4.784665   4.015637
    17  N    6.988462   6.107914   6.244542   6.244488   4.841536
    18  H    7.152657   6.376954   6.604139   6.604099   4.977948
    19  C    8.236951   7.290854   7.334149   7.334124   6.139571
    20  H    9.068560   8.170366   8.257072   8.257028   6.925212
    21  C    8.526342   7.537300   7.648957   7.356657   6.540254
    22  H    7.872620   6.844693   6.910438   6.582958   6.012148
    23  H    9.538609   8.527738   8.578696   8.324765   7.579089
    24  H    8.592624   7.661910   7.923153   7.429005   6.603114
    25  C    8.525516   7.536525   7.356348   7.648037   6.539127
    26  O    9.175034   8.234464   7.985225   8.474587   7.192534
    27  N    8.326127   7.278051   6.998858   7.277052   6.514699
    28  H    7.966294   6.895209   6.691001   6.755847   6.211285
    29  C    8.908332   7.865858   7.398754   7.913559   7.281694
    30  H    8.528362   7.532236   6.975479   7.717284   6.961272
    31  C   10.399444   9.363503   8.904257   9.419796   8.710555
    32  H   10.888183   9.826485   9.438394   9.775288   9.174770
    33  H   10.913340   9.890964   9.331612   9.973222   9.347195
    34  H   10.612546   9.608924   9.191871   9.751479   8.812400
    35  C    8.913273   7.850766   7.321294   7.750464   7.536190
    36  O    8.475789   7.395507   6.964965   7.138327   7.159337
    37  N    9.672716   8.644093   7.989342   8.580439   8.469050
    38  H   10.153541   9.150714   8.450250   9.190197   8.914418
    39  C   10.062819   9.055940   8.365557   8.880965   9.101903
    40  H    9.642115   8.623777   8.009085   8.330180   8.728351
    41  H    9.876976   8.923848   8.137773   8.807950   9.099121
    42  H   11.144738  10.132430   9.453202   9.937033  10.152909
                    6          7          8          9         10
     6  O    0.000000
     7  N    2.252744   0.000000
     8  H    3.150008   1.009986   0.000000
     9  C    2.775345   1.449034   2.120947   0.000000
    10  H    2.787563   2.083801   2.828886   1.090050   0.000000
    11  C    2.936721   2.452762   3.194452   1.524918   2.139162
    12  H    3.474046   2.702693   3.202450   2.150173   3.041360
    13  H    3.813815   3.386970   4.082842   2.150165   2.459632
    14  H    2.268977   2.702725   3.605848   2.150184   2.466317
    15  C    4.264188   2.450354   2.528665   1.522003   2.136566
    16  O    4.840197   2.683482   2.268982   2.392880   3.085363
    17  N    5.166755   3.668426   3.857914   2.432799   2.707680
    18  H    5.058889   3.979078   4.391165   2.567981   2.595341
    19  C    6.569753   4.884707   4.856619   3.801903   4.090496
    20  H    7.211246   5.735400   5.821010   4.511424   4.659263
    21  C    7.102872   5.259651   5.057307   4.404223   4.998423
    22  H    6.728998   4.714325   4.341369   4.133739   4.860899
    23  H    8.170221   6.279509   6.007644   5.451784   5.991274
    24  H    7.054484   5.411616   5.333164   4.488628   5.153965
    25  C    7.101527   5.258503   5.056493   4.402610   4.537202
    26  O    7.651208   5.988919   5.877891   5.067913   4.948506
    27  N    7.278041   5.205475   4.754177   4.685949   4.994764
    28  H    7.050531   4.887560   4.342107   4.497733   5.017127
    29  C    8.115690   6.041550   5.486253   5.721904   5.912584
    30  H    7.754859   5.808180   5.313883   5.540054   5.561083
    31  C    9.478018   7.455249   6.957293   6.981596   7.101842
    32  H    9.966192   7.877033   7.344807   7.381077   7.625539
    33  H   10.151997   8.140160   7.592950   7.780623   7.852181
    34  H    9.460126   7.570835   7.207144   6.920406   6.914428
    35  C    8.525185   6.344204   5.591866   6.331709   6.687734
    36  O    8.209342   5.968150   5.136461   6.068249   6.610769
    37  N    9.482931   7.357782   6.575789   7.451217   7.726125
    38  H    9.866518   7.820306   7.110932   7.830401   7.975406
    39  C   10.200797   8.069685   7.188762   8.362548   8.731384
    40  H    9.868162   7.701257   6.770654   8.068344   8.561524
    41  H   10.207270   8.175543   7.291257   8.598873   8.904430
    42  H   11.242497   9.090249   8.217956   9.314647   9.681639
                   11         12         13         14         15
    11  C    0.000000
    12  H    1.090015   0.000000
    13  H    1.090009   1.779650   0.000000
    14  H    1.089937   1.779572   1.779572   0.000000
    15  C    2.461818   2.701188   2.668534   3.416583   0.000000
    16  O    3.417399   3.376881   3.791244   4.330003   1.229086
    17  N    2.895806   3.227554   2.558620   3.897188   1.334999
    18  H    2.692245   3.244123   2.038619   3.572213   2.037281
    19  C    4.249842   4.384269   3.844294   5.290851   2.434389
    20  H    4.752378   4.963131   4.116851   5.744572   3.318262
    21  C    4.642071   4.404352   4.377579   5.731765   3.000841
    22  H    4.540023   4.188404   4.536024   5.609626   2.731494
    23  H    5.724548   5.479871   5.410036   6.813505   4.003976
    24  H    4.357594   3.997246   4.001471   5.419795   3.309730
    25  C    5.253357   5.465922   5.008074   6.240599   2.999071
    26  O    5.967395   6.347068   5.621487   6.875828   3.845824
    27  N    5.672977   5.719669   5.657003   6.661780   3.247821
    28  H    5.376979   5.243244   5.467078   6.387382   3.048661
    29  C    6.881550   6.978715   6.937485   7.805575   4.419761
    30  H    6.837985   7.078574   6.931466   7.671516   4.424149
    31  C    8.043688   8.158340   7.943918   9.005019   5.614839
    32  H    8.308608   8.300561   8.180077   9.323701   5.927325
    33  H    8.933365   9.070334   8.887395   9.857933   6.484030
    34  H    7.931483   8.155656   7.704990   8.878142   5.587091
    35  C    7.497060   7.428021   7.725560   8.397772   5.101136
    36  O    7.107515   6.872820   7.421797   8.016368   4.855551
    37  N    8.697603   8.667349   8.956165   9.552278   6.307761
    38  H    9.127593   9.201759   9.322337   9.966760   6.705376
    39  C    9.584655   9.447134   9.949751  10.405792   7.296098
    40  H    9.200249   8.951007   9.621316  10.023188   7.016967
    41  H    9.901387   9.818907  10.337439  10.645064   7.676514
    42  H   10.501423  10.344202  10.810149  11.359623   8.173654
                   16         17         18         19         20
    16  O    0.000000
    17  N    2.252853   0.000000
    18  H    3.150101   1.009969   0.000000
    19  C    2.775381   1.449000   2.120921   0.000000
    20  H    3.833012   2.083717   2.292568   1.089993   0.000000
    21  C    2.936785   2.452808   3.194544   1.525060   2.139212
    22  H    2.268955   2.702719   3.605881   2.150233   3.041322
    23  H    3.813812   3.386911   4.082812   2.150193   2.459608
    24  H    3.474113   2.702678   3.202517   2.150253   2.466272
    25  C    2.935690   2.450308   3.191995   1.521943   2.136547
    26  O    3.946087   3.172371   3.653314   2.392745   2.554188
    27  N    2.650920   3.198375   4.118020   2.432723   3.272230
    28  H    2.221627   3.213314   4.207442   2.567919   3.535076
    29  C    3.703358   4.502332   5.375800   3.801847   4.526239
    30  H    3.821947   4.596879   5.385015   4.158446   4.867619
    31  C    5.039622   5.402214   6.181789   4.404167   4.836695
    32  H    5.303809   5.652849   6.462546   4.488618   4.875565
    33  H    5.845823   6.369334   7.143831   5.451792   5.891329
    34  H    5.242155   5.161110   5.808708   4.133668   4.360256
    35  C    4.098185   5.464500   6.421475   4.859152   5.704304
    36  O    3.720122   5.356616   6.359454   4.830114   5.766060
    37  N    5.312690   6.696165   7.624846   6.100888   6.892567
    38  H    5.825660   6.991042   7.859313   6.369338   7.067837
    39  C    6.190984   7.824589   8.787609   7.284390   8.131311
    40  H    5.842699   7.626714   8.619059   7.132208   8.038038
    41  H    6.586033   8.312218   9.248841   7.918325   8.797106
    42  H    7.087347   8.596735   9.558286   7.918292   8.690347
                   21         22         23         24         25
    21  C    0.000000
    22  H    1.089947   0.000000
    23  H    1.089926   1.779573   0.000000
    24  H    1.089988   1.779618   1.779562   0.000000
    25  C    2.461861   2.701179   2.668565   3.416599   0.000000
    26  O    3.558166   3.919801   3.627399   4.432928   1.228952
    27  N    2.697785   2.439307   2.813481   3.764354   1.335013
    28  H    2.314722   1.703524   2.547960   3.320220   2.037329
    29  C    4.102333   3.775426   4.037467   5.182790   2.434409
    30  H    4.753395   4.437202   4.848482   5.797539   2.741867
    31  C    4.697850   4.636956   4.303251   5.773404   3.000850
    32  H    4.461387   4.435228   3.857386   5.496895   3.309779
    33  H    5.758506   5.621454   5.365394   6.839805   4.004038
    34  H    4.703776   4.863011   4.324740   5.732274   2.731476
    35  C    4.771118   4.155230   4.687861   5.802697   3.717835
    36  O    4.415978   3.605286   4.410267   5.342557   4.015672
    37  N    6.081014   5.487819   5.927776   7.123046   4.841512
    38  H    6.544150   6.072682   6.356814   7.618152   4.977867
    39  C    7.069318   6.349647   6.912498   8.052671   6.139539
    40  H    6.727674   5.908165   6.616572   7.636520   6.165957
    41  H    7.821005   7.064222   7.764448   8.800459   6.743424
    42  H    7.644148   6.998295   7.345285   8.634008   6.743393
                   26         27         28         29         30
    26  O    0.000000
    27  N    2.252750   0.000000
    28  H    3.150024   1.010008   0.000000
    29  C    2.775324   1.449022   2.120979   0.000000
    30  H    2.787615   2.083805   2.828884   1.090007   0.000000
    31  C    2.936748   2.452812   3.194554   1.525007   2.139247
    32  H    3.474071   2.702723   3.202548   2.150225   3.041385
    33  H    3.813826   3.386978   4.082903   2.150185   2.459626
    34  H    2.268892   2.702745   3.605929   2.150246   2.466382
    35  C    4.264147   2.450273   2.528595   1.521999   2.136547
    36  O    4.840189   2.683451   2.268942   2.392924   3.085378
    37  N    5.166711   3.668334   3.857833   2.432758   2.707635
    38  H    5.058786   3.978948   4.391067   2.567872   2.595234
    39  C    6.569681   4.884612   4.856544   3.801849   4.090410
    40  H    6.783845   4.845650   4.592420   4.034007   4.461710
    41  H    7.106792   5.526370   5.539437   4.396916   4.435571
    42  H    7.106751   5.526335   5.539414   4.396892   4.779265
                   31         32         33         34         35
    31  C    0.000000
    32  H    1.089982   0.000000
    33  H    1.090020   1.779671   0.000000
    34  H    1.090035   1.779688   1.779695   0.000000
    35  C    2.461847   2.701143   2.668549   3.416648   0.000000
    36  O    3.417444   3.376857   3.791268   4.330082   1.229082
    37  N    2.895785   3.227452   2.558586   3.897244   1.334985
    38  H    2.692142   3.243966   2.038483   3.572192   2.037260
    39  C    4.249777   4.384138   3.844202   5.290869   2.434375
    40  H    4.671852   4.654228   4.491391   5.731275   2.520592
    41  H    4.958617   5.261360   4.460915   5.930568   3.137944
    42  H    4.494673   4.482879   3.950717   5.545535   3.137904
                   36         37         38         39         40
    36  O    0.000000
    37  N    2.252814   0.000000
    38  H    3.150077   1.010003   0.000000
    39  C    2.775362   1.448955   2.120913   0.000000
    40  H    2.337443   2.083781   2.986306   1.090014   0.000000
    41  H    3.519234   2.083769   2.484253   1.089965   1.779649
    42  H    3.519196   2.083710   2.484268   1.090028   1.779642
                   41         42
    41  H    0.000000
    42  H    1.779633   0.000000
 Stoichiometry    C12H22N4O4
 Framework group  C1[X(C12H22N4O4)]
 Deg. of freedom   120
 Full point group                 C1      NOp   1
 Largest Abelian subgroup         C1      NOp   1
 Largest concise Abelian subgroup C1      NOp   1
                         Standard orientation:                         
 ---------------------------------------------------------------------
 Center     Atomic      Atomic             Coordinates (Angstroms)
 Number     Number       Type             X           Y           Z
 ---------------------------------------------------------------------
      1          1           0        5.384549    3.501702   -0.340256
      2          6           0        4.396509    3.122174   -0.079806
      3          1           0        3.641137    3.635551   -0.674755
      4          1           0        4.206396    3.298774    0.978851
      5          6           0        4.294500    1.619824   -0.350875
      6          8           0        5.254560    1.001328   -0.804956
      7          7           0        3.125617    1.039663   -0.069436
      8          1           0        2.365144    1.590375    0.302677
      9          6           0        2.902830   -0.376340   -0.281565
     10          1           0        3.044963   -0.613015   -1.336076
     11          6           0        3.875346   -1.214414    0.541369
     12          1           0        3.738759   -0.995154    1.600331
     13          1           0        3.685218   -2.272709    0.362535
     14          1           0        4.898177   -0.975390    0.250430
     15          6           0        1.489965   -0.774978    0.120173
     16          8           0        0.706081    0.063894    0.558887
     17          7           0        1.165896   -2.061200   -0.030934
     18          1           0        1.845033   -2.713539   -0.395989
     19          6           0       -0.147605   -2.565667    0.315231
     20          1           0       -0.191389   -3.635721    0.112374
     21          6           0       -0.451900   -2.336781    1.791992
     22          1           0       -0.420686   -1.269042    2.008658
     23          1           0       -1.443613   -2.725160    2.023521
     24          1           0        0.290860   -2.852412    2.400684
     25          6           0       -1.232392   -1.871958   -0.496136
     26          8           0       -1.589943   -2.329471   -1.579262
     27          7           0       -1.756620   -0.763270    0.031364
     28          1           0       -1.429628   -0.425988    0.925474
     29          6           0       -2.796006   -0.011879   -0.642990
     30          1           0       -2.428895    0.328713   -1.611154
     31          6           0       -4.036678   -0.870019   -0.866536
     32          1           0       -4.421244   -1.211026    0.094653
     33          1           0       -4.800081   -0.280501   -1.374304
     34          1           0       -3.776690   -1.732672   -1.480062
     35          6           0       -3.211803    1.202910    0.174250
     36          8           0       -2.679626    1.438362    1.256836
     37          7           0       -4.167061    1.975879   -0.347466
     38          1           0       -4.574504    1.741094   -1.241318
     39          6           0       -4.649952    3.160668    0.332654
     40          1           0       -4.118437    3.280391    1.276735
     41          1           0       -4.477876    4.035646   -0.294107
     42          1           0       -5.717486    3.058441    0.527800
 ---------------------------------------------------------------------
 Rotational constants (GHZ):      0.4641010      0.1701694      0.1364910
 Standard basis: 6-31G(d) (6D, 7F)
 There are   344 symmetry adapted basis functions of A   symmetry.
 Integral buffers will be    131072 words long.
 Raffenetti 1 integral format.
 Two-electron integral symmetry is turned on.
   344 basis functions,   648 primitive gaussians,   344 cartesian basis functions
    77 alpha electrons       77 beta electrons
       nuclear repulsion energy      1661.9705205294 Hartrees.
 NAtoms=   42 NActive=   42 NUniq=   42 SFac= 7.50D-01 NAtFMM=   80 NAOKFM=F Big=F
 One-electron integrals computed using PRISM.
 NBasis=   344 RedAO= T  NBF=   344
 NBsUse=   344 1.00D-06 NBFU=   344
 Harris functional with IExCor=  205 diagonalized for initial guess.
 ExpMin= 1.61D-01 ExpMax= 5.48D+03 ExpMxC= 8.25D+02 IAcc=1 IRadAn=         1 AccDes= 0.00D+00
 HarFok:  IExCor=  205 AccDes= 0.00D+00 IRadAn=         1 IDoV= 1
 ScaDFX=  1.000000  1.000000  1.000000  1.000000
 FoFCou: FMM=F IPFlag=           0 FMFlag=      100000 FMFlg1=           0
         NFxFlg=           0 DoJE=T BraDBF=F KetDBF=T FulRan=T
         Omega=  0.000000  0.000000  1.000000  0.000000  0.000000 ICntrl=     500 IOpCl=  0
         NMat0=    1 NMatS0=    1 NMatT0=    0 NMatD0=    1 NMtDS0=    0 NMtDT0=    0
         I1Cent=           4 NGrid=           0.
 Petite list used in FoFCou.
 Initial guess orbital symmetries:
       Occupied  (A) (A) (A) (A) (A) (A) (A) (A) (A) (A) (A) (A)
                 (A) (A) (A) (A) (A) (A) (A) (A) (A) (A) (A) (A)
                 (A) (A) (A) (A) (A) (A) (A) (A) (A) (A) (A) (A)
                 (A) (A) (A) (A) (A) (A) (A) (A) (A) (A) (A) (A)
                 (A) (A) (A) (A) (A) (A) (A) (A) (A) (A) (A) (A)
                 (A) (A) (A) (A) (A) (A) (A) (A) (A) (A) (A) (A)
                 (A) (A) (A) (A) (A)
       Virtual   (A) (A) (A) (A) (A) (A) (A) (A) (A) (A) (A) (A)
                 (A) (A) (A) (A) (A) (A) (A) (A) (A) (A) (A) (A)
                 (A) (A) (A) (A) (A) (A) (A) (A) (A) (A) (A) (A)
                 (A) (A) (A) (A) (A) (A) (A) (A) (A) (A) (A) (A)
                 (A) (A) (A) (A) (A) (A) (A) (A) (A) (A) (A) (A)
                 (A) (A) (A) (A) (A) (A) (A) (A) (A) (A) (A) (A)
                 (A) (A) (A) (A) (A) (A) (A) (A) (A) (A) (A) (A)
                 (A) (A) (A) (A) (A) (A) (A) (A) (A) (A) (A) (A)
                 (A) (A) (A) (A) (A) (A) (A) (A) (A) (A) (A) (A)
                 (A) (A) (A) (A) (A) (A) (A) (A) (A) (A) (A) (A)
                 (A) (A) (A) (A) (A) (A) (A) (A) (A) (A) (A) (A)
                 (A) (A) (A) (A) (A) (A) (A) (A) (A) (A) (A) (A)
                 (A) (A) (A) (A) (A) (A) (A) (A) (A) (A) (A) (A)
                 (A) (A) (A) (A) (A) (A) (A) (A) (A) (A) (A) (A)
                 (A) (A) (A) (A) (A) (A) (A) (A) (A) (A) (A) (A)
                 (A) (A) (A) (A) (A) (A) (A) (A) (A) (A) (A) (A)
                 (A) (A) (A) (A) (A) (A) (A) (A) (A) (A) (A) (A)
                 (A) (A) (A) (A) (A) (A) (A) (A) (A) (A) (A) (A)
                 (A) (A) (A) (A) (A) (A) (A) (A) (A) (A) (A) (A)
                 (A) (A) (A) (A) (A) (A) (A) (A) (A) (A) (A) (A)
                 (A) (A) (A) (A) (A) (A) (A) (A) (A) (A) (A) (A)
                 (A) (A) (A) (A) (A) (A) (A) (A) (A) (A) (A) (A)
                 (A) (A) (A)
 The electronic state of the initial guess is 1-A.
 Requested convergence on RMS density matrix=1.00D-08 within 128 cycles.
 Requested convergence on MAX density matrix=1.00D-06.
 Requested convergence on             energy=1.00D-06.
 No special actions if energy rises.
 Integral accuracy reduced to 1.0D-05 until final iterations.
 Initial convergence to 1.0D-05 achieved.  Increase integral accuracy.
 SCF Done:  E(RHF) =  -984.524566826     A.U. after   15 cycles
             Convg  =    0.3688D-08             -V/T =  2.0018
 Range of M.O.s used for correlation:     1   344
 NBasis=   344 NAE=    77 NBE=    77 NFC=     0 NFV=     0
 NROrb=    344 NOA=    77 NOB=    77 NVA=   267 NVB=   267
 Symmetrizing basis deriv contribution to polar:
 IMax=3 JMax=2 DiffMx= 0.00D+00
 G2DrvN: will do    43 centers at a time, making    1 passes doing MaxLOS=2.
 Calling FoFCou, ICntrl=  3107 FMM=F I1Cent=   0 AccDes= 0.00D+00.
 FoFDir/FoFCou used for L=0 through L=2.
 End of G2Drv Frequency-dependent properties file   721 does not exist.
 End of G2Drv Frequency-dependent properties file   722 does not exist.
          IDoAtm=111111111111111111111111111111111111111111
          Differentiating once with respect to nuclear coordinates.
          There are   129 degrees of freedom in the 1st order CPHF.  IDoFFX=5.
    123 vectors produced by pass  0 Test12= 2.06D-10 1.00D-07 XBig12= 9.50D-02 5.05D-02.
 AX will form   123 AO Fock derivatives at one time.
    123 vectors produced by pass  1 Test12= 2.06D-10 1.00D-07 XBig12= 1.14D-02 2.92D-02.
    123 vectors produced by pass  2 Test12= 2.06D-10 1.00D-07 XBig12= 1.38D-04 1.68D-03.
    123 vectors produced by pass  3 Test12= 2.06D-10 1.00D-07 XBig12= 1.56D-06 1.76D-04.
    123 vectors produced by pass  4 Test12= 2.06D-10 1.00D-07 XBig12= 9.23D-09 9.59D-06.
     37 vectors produced by pass  5 Test12= 2.06D-10 1.00D-07 XBig12= 4.67D-11 5.67D-07.
 Inverted reduced A of dimension   652 with in-core refinement.
 End of Minotr Frequency-dependent properties file   721 does not exist.
 End of Minotr Frequency-dependent properties file   722 does not exist.

 **********************************************************************

            Population analysis using the SCF density.

 **********************************************************************

 Orbital symmetries:
       Occupied  (A) (A) (A) (A) (A) (A) (A) (A) (A) (A) (A) (A)
                 (A) (A) (A) (A) (A) (A) (A) (A) (A) (A) (A) (A)
                 (A) (A) (A) (A) (A) (A) (A) (A) (A) (A) (A) (A)
                 (A) (A) (A) (A) (A) (A) (A) (A) (A) (A) (A) (A)
                 (A) (A) (A) (A) (A) (A) (A) (A) (A) (A) (A) (A)
                 (A) (A) (A) (A) (A) (A) (A) (A) (A) (A) (A) (A)
                 (A) (A) (A) (A) (A)
       Virtual   (A) (A) (A) (A) (A) (A) (A) (A) (A) (A) (A) (A)
                 (A) (A) (A) (A) (A) (A) (A) (A) (A) (A) (A) (A)
                 (A) (A) (A) (A) (A) (A) (A) (A) (A) (A) (A) (A)
                 (A) (A) (A) (A) (A) (A) (A) (A) (A) (A) (A) (A)
                 (A) (A) (A) (A) (A) (A) (A) (A) (A) (A) (A) (A)
                 (A) (A) (A) (A) (A) (A) (A) (A) (A) (A) (A) (A)
                 (A) (A) (A) (A) (A) (A) (A) (A) (A) (A) (A) (A)
                 (A) (A) (A) (A) (A) (A) (A) (A) (A) (A) (A) (A)
                 (A) (A) (A) (A) (A) (A) (A) (A) (A) (A) (A) (A)
                 (A) (A) (A) (A) (A) (A) (A) (A) (A) (A) (A) (A)
                 (A) (A) (A) (A) (A) (A) (A) (A) (A) (A) (A) (A)
                 (A) (A) (A) (A) (A) (A) (A) (A) (A) (A) (A) (A)
                 (A) (A) (A) (A) (A) (A) (A) (A) (A) (A) (A) (A)
                 (A) (A) (A) (A) (A) (A) (A) (A) (A) (A) (A) (A)
                 (A) (A) (A) (A) (A) (A) (A) (A) (A) (A) (A) (A)
                 (A) (A) (A) (A) (A) (A) (A) (A) (A) (A) (A) (A)
                 (A) (A) (A) (A) (A) (A) (A) (A) (A) (A) (A) (A)
                 (A) (A) (A) (A) (A) (A) (A) (A) (A) (A) (A) (A)
                 (A) (A) (A) (A) (A) (A) (A) (A) (A) (A) (A) (A)
                 (A) (A) (A) (A) (A) (A) (A) (A) (A) (A) (A) (A)
                 (A) (A) (A) (A) (A) (A) (A) (A) (A) (A) (A) (A)
                 (A) (A) (A) (A) (A) (A) (A) (A) (A) (A) (A) (A)
                 (A) (A) (A)
 The electronic state is 1-A.
 Alpha  occ. eigenvalues --  -20.54072 -20.52444 -20.51436 -20.51401 -15.61293
 Alpha  occ. eigenvalues --  -15.59821 -15.58842 -15.57464 -11.36880 -11.35341
 Alpha  occ. eigenvalues --  -11.34762 -11.34215 -11.29150 -11.28935 -11.27969
 Alpha  occ. eigenvalues --  -11.26481 -11.23336 -11.22545 -11.22483 -11.21881
 Alpha  occ. eigenvalues --   -1.40452  -1.38364  -1.37175  -1.36937  -1.26169
 Alpha  occ. eigenvalues --   -1.24115  -1.23799  -1.22950  -1.08503  -1.05420
 Alpha  occ. eigenvalues --   -1.02645  -0.98498  -0.95812  -0.91326  -0.89658
 Alpha  occ. eigenvalues --   -0.87747  -0.82461  -0.79690  -0.78314  -0.77124
 Alpha  occ. eigenvalues --   -0.75260  -0.73658  -0.68674  -0.67906  -0.66952
 Alpha  occ. eigenvalues --   -0.65667  -0.64343  -0.63950  -0.63162  -0.62556
 Alpha  occ. eigenvalues --   -0.61675  -0.61276  -0.59591  -0.58746  -0.58454
 Alpha  occ. eigenvalues --   -0.56520  -0.56031  -0.55979  -0.55751  -0.55323
 Alpha  occ. eigenvalues --   -0.55136  -0.54662  -0.53471  -0.52952  -0.52467
 Alpha  occ. eigenvalues --   -0.52072  -0.51989  -0.49563  -0.49326  -0.43513
 Alpha  occ. eigenvalues --   -0.43292  -0.41875  -0.40872  -0.39696  -0.39267
 Alpha  occ. eigenvalues --   -0.38400  -0.36993
 Alpha virt. eigenvalues --    0.17399   0.18182   0.19657   0.20510   0.20993
 Alpha virt. eigenvalues --    0.21975   0.23871   0.25891   0.26266   0.27354
 Alpha virt. eigenvalues --    0.28191   0.28806   0.29003   0.29219   0.30922
 Alpha virt. eigenvalues --    0.31152   0.31329   0.31741   0.32007   0.32291
 Alpha virt. eigenvalues --    0.32987   0.33618   0.34710   0.35223   0.35356
 Alpha virt. eigenvalues --    0.36693   0.36943   0.37381   0.39418   0.40309
 Alpha virt. eigenvalues --    0.41581   0.42653   0.42929   0.43629   0.45635
 Alpha virt. eigenvalues --    0.47899   0.49584   0.52076   0.54108   0.54169
 Alpha virt. eigenvalues --    0.56053   0.59753   0.60705   0.61745   0.64956
 Alpha virt. eigenvalues --    0.69784   0.71524   0.71709   0.73192   0.73603
 Alpha virt. eigenvalues --    0.74277   0.75053   0.76050   0.76481   0.76753
 Alpha virt. eigenvalues --    0.77706   0.78213   0.79185   0.79890   0.81133
 Alpha virt. eigenvalues --    0.82025   0.83128   0.84084   0.87713   0.87981
 Alpha virt. eigenvalues --    0.88756   0.90482   0.91630   0.92100   0.92863
 Alpha virt. eigenvalues --    0.93094   0.94495   0.95644   0.96693   0.97751
 Alpha virt. eigenvalues --    0.98019   0.99422   0.99664   1.00639   1.01110
 Alpha virt. eigenvalues --    1.01913   1.04597   1.05944   1.06747   1.08405
 Alpha virt. eigenvalues --    1.09154   1.10232   1.11062   1.11184   1.11713
 Alpha virt. eigenvalues --    1.12815   1.13882   1.14774   1.15154   1.15526
 Alpha virt. eigenvalues --    1.15887   1.16321   1.16445   1.16819   1.17119
 Alpha virt. eigenvalues --    1.18383   1.19352   1.19575   1.19777   1.20664
 Alpha virt. eigenvalues --    1.20741   1.21547   1.21923   1.22355   1.23298
 Alpha virt. eigenvalues --    1.24097   1.26059   1.26846   1.27512   1.28449
 Alpha virt. eigenvalues --    1.30863   1.32737   1.34683   1.35025   1.37078
 Alpha virt. eigenvalues --    1.38419   1.39390   1.40937   1.42983   1.44837
 Alpha virt. eigenvalues --    1.46686   1.50000   1.50687   1.51868   1.53018
 Alpha virt. eigenvalues --    1.55673   1.56760   1.58059   1.58768   1.62214
 Alpha virt. eigenvalues --    1.63206   1.63768   1.66113   1.67958   1.68675
 Alpha virt. eigenvalues --    1.70352   1.71417   1.73322   1.73915   1.74375
 Alpha virt. eigenvalues --    1.76343   1.79264   1.80378   1.81216   1.86185
 Alpha virt. eigenvalues --    1.91738   1.93368   1.95337   1.97395   2.00127
 Alpha virt. eigenvalues --    2.00924   2.01306   2.03818   2.04620   2.06416
 Alpha virt. eigenvalues --    2.07857   2.09343   2.11177   2.11571   2.12157
 Alpha virt. eigenvalues --    2.12933   2.13631   2.14315   2.15064   2.15908
 Alpha virt. eigenvalues --    2.17042   2.17388   2.17895   2.19491   2.19799
 Alpha virt. eigenvalues --    2.22028   2.22380   2.22528   2.23173   2.24374
 Alpha virt. eigenvalues --    2.27718   2.29044   2.29946   2.31659   2.31717
 Alpha virt. eigenvalues --    2.35536   2.36465   2.37786   2.38162   2.38579
 Alpha virt. eigenvalues --    2.39962   2.41348   2.44574   2.47112   2.48360
 Alpha virt. eigenvalues --    2.48843   2.51949   2.53218   2.56328   2.57327
 Alpha virt. eigenvalues --    2.59134   2.60260   2.62065   2.62481   2.63128
 Alpha virt. eigenvalues --    2.63726   2.64606   2.66320   2.66761   2.67237
 Alpha virt. eigenvalues --    2.70245   2.72104   2.72757   2.75908   2.77006
 Alpha virt. eigenvalues --    2.78386   2.78640   2.80852   2.83310   2.84052
 Alpha virt. eigenvalues --    2.89263   2.90132   2.91463   2.94476   2.95377
 Alpha virt. eigenvalues --    2.97664   2.99961   3.02094   3.04162   3.06356
 Alpha virt. eigenvalues --    3.07610   3.09641   3.12657   3.16816   3.18667
 Alpha virt. eigenvalues --    3.25037   3.26561   3.31496   3.32600   3.35162
 Alpha virt. eigenvalues --    3.37753   3.39769   3.40902   3.53545   3.54455
 Alpha virt. eigenvalues --    3.61292   3.62431   4.39166   4.40959   4.43551
 Alpha virt. eigenvalues --    4.46711   4.48930   4.52845   4.57426   4.62951
 Alpha virt. eigenvalues --    4.64057   4.66211   4.70753   4.72154   4.76562
 Alpha virt. eigenvalues --    4.81312   4.86670   4.87987   4.93265   5.03303
 Alpha virt. eigenvalues --    5.07912   5.14946
          Condensed to atoms (all electrons):
              1          2          3          4          5          6
     1  H    0.458526   0.385670  -0.018786  -0.018780  -0.030803   0.003495
     2  C    0.385670   5.244304   0.374737   0.374926   0.378233  -0.067247
     3  H   -0.018786   0.374737   0.510143  -0.023527  -0.034505   0.001270
     4  H   -0.018780   0.374926  -0.023527   0.511061  -0.035352   0.001186
     5  C   -0.030803   0.378233  -0.034505  -0.035352   4.186721   0.587126
     6  O    0.003495  -0.067247   0.001270   0.001186   0.587126   8.210664
     7  N    0.003858  -0.119872   0.003458   0.003673   0.246652  -0.107678
     8  H   -0.000017  -0.001150   0.000637   0.000479  -0.017308   0.002006
     9  C   -0.000076   0.004573  -0.000242  -0.000092  -0.029810   0.014536
    10  H    0.000002  -0.000008  -0.000004  -0.000002  -0.001665   0.002923
    11  C    0.000006  -0.000503   0.000008   0.000030  -0.003951  -0.015865
    12  H    0.000000  -0.000042   0.000000   0.000002   0.000017  -0.000023
    13  H    0.000000   0.000007   0.000000  -0.000001   0.000283   0.000273
    14  H    0.000001   0.000302  -0.000005  -0.000026   0.000448   0.011302
    15  C    0.000000   0.000008  -0.000011  -0.000006   0.004014   0.000554
    16  O    0.000000  -0.000039  -0.000001  -0.000001   0.000248  -0.000003
    17  N    0.000000   0.000000   0.000000   0.000000  -0.000084  -0.000002
    18  H    0.000000   0.000000   0.000000   0.000000   0.000000   0.000001
    19  C    0.000000   0.000000   0.000000   0.000000   0.000001   0.000000
    20  H    0.000000   0.000000   0.000000   0.000000   0.000000   0.000000
    21  C    0.000000   0.000000   0.000000   0.000000   0.000000   0.000000
    22  H    0.000000   0.000000   0.000000   0.000000   0.000000   0.000000
    23  H    0.000000   0.000000   0.000000   0.000000   0.000000   0.000000
    24  H    0.000000   0.000000   0.000000   0.000000   0.000000   0.000000
    25  C    0.000000   0.000000   0.000000   0.000000   0.000000   0.000000
    26  O    0.000000   0.000000   0.000000   0.000000   0.000000   0.000000
    27  N    0.000000   0.000000   0.000000   0.000000   0.000000   0.000000
    28  H    0.000000   0.000000   0.000000   0.000000   0.000000   0.000000
    29  C    0.000000   0.000000   0.000000   0.000000   0.000000   0.000000
    30  H    0.000000   0.000000   0.000000   0.000000   0.000000   0.000000
    31  C    0.000000   0.000000   0.000000   0.000000   0.000000   0.000000
    32  H    0.000000   0.000000   0.000000   0.000000   0.000000   0.000000
    33  H    0.000000   0.000000   0.000000   0.000000   0.000000   0.000000
    34  H    0.000000   0.000000   0.000000   0.000000   0.000000   0.000000
    35  C    0.000000   0.000000   0.000000   0.000000   0.000000   0.000000
    36  O    0.000000   0.000000   0.000000   0.000000   0.000000   0.000000
    37  N    0.000000   0.000000   0.000000   0.000000   0.000000   0.000000
    38  H    0.000000   0.000000   0.000000   0.000000   0.000000   0.000000
    39  C    0.000000   0.000000   0.000000   0.000000   0.000000   0.000000
    40  H    0.000000   0.000000   0.000000   0.000000   0.000000   0.000000
    41  H    0.000000   0.000000   0.000000   0.000000   0.000000   0.000000
    42  H    0.000000   0.000000   0.000000   0.000000   0.000000   0.000000
              7          8          9         10         11         12
     1  H    0.003858  -0.000017  -0.000076   0.000002   0.000006   0.000000
     2  C   -0.119872  -0.001150   0.004573  -0.000008  -0.000503  -0.000042
     3  H    0.003458   0.000637  -0.000242  -0.000004   0.000008   0.000000
     4  H    0.003673   0.000479  -0.000092  -0.000002   0.000030   0.000002
     5  C    0.246652  -0.017308  -0.029810  -0.001665  -0.003951   0.000017
     6  O   -0.107678   0.002006   0.014536   0.002923  -0.015865  -0.000023
     7  N    7.418294   0.311819   0.197964  -0.040868  -0.063373   0.001718
     8  H    0.311819   0.285952  -0.026448   0.002296   0.002996   0.000234
     9  C    0.197964  -0.026448   5.015749   0.406534   0.335259  -0.042507
    10  H   -0.040868   0.002296   0.406534   0.492913  -0.045648   0.004445
    11  C   -0.063373   0.002996   0.335259  -0.045648   5.212967   0.385236
    12  H    0.001718   0.000234  -0.042507   0.004445   0.385236   0.524048
    13  H    0.004917  -0.000078  -0.042271   0.000244   0.377558  -0.024351
    14  H   -0.005663  -0.000192  -0.026418  -0.003863   0.387107  -0.019950
    15  C   -0.037686  -0.005677   0.383875  -0.038659  -0.065843  -0.002751
    16  O   -0.006043   0.019399  -0.072055   0.000787  -0.000088   0.000575
    17  N    0.002758   0.000700  -0.114150   0.002152   0.002694   0.000202
    18  H    0.000038  -0.000018   0.000048   0.000432   0.000300  -0.000017
    19  C   -0.000044  -0.000022   0.003715  -0.000228  -0.000003  -0.000068
    20  H    0.000000   0.000000   0.000000   0.000000  -0.000001   0.000001
    21  C    0.000001   0.000006  -0.000263   0.000000   0.000004   0.000029
    22  H   -0.000002   0.000002   0.000236  -0.000002  -0.000036   0.000000
    23  H    0.000000   0.000000   0.000006   0.000000   0.000000   0.000000
    24  H    0.000000   0.000000  -0.000105   0.000000   0.000046   0.000024
    25  C    0.000000   0.000000  -0.000566   0.000018   0.000009   0.000001
    26  O    0.000000   0.000000  -0.000009   0.000000   0.000000   0.000000
    27  N    0.000000   0.000010   0.000011   0.000010  -0.000002   0.000000
    28  H   -0.000002  -0.000003   0.000053  -0.000001  -0.000002   0.000000
    29  C    0.000000   0.000000   0.000000   0.000000   0.000000   0.000000
    30  H    0.000000   0.000000   0.000000   0.000000   0.000000   0.000000
    31  C    0.000000   0.000000   0.000000   0.000000   0.000000   0.000000
    32  H    0.000000   0.000000   0.000000   0.000000   0.000000   0.000000
    33  H    0.000000   0.000000   0.000000   0.000000   0.000000   0.000000
    34  H    0.000000   0.000000   0.000000   0.000000   0.000000   0.000000
    35  C    0.000000   0.000000   0.000000   0.000000   0.000000   0.000000
    36  O    0.000000   0.000000   0.000000   0.000000   0.000000   0.000000
    37  N    0.000000   0.000000   0.000000   0.000000   0.000000   0.000000
    38  H    0.000000   0.000000   0.000000   0.000000   0.000000   0.000000
    39  C    0.000000   0.000000   0.000000   0.000000   0.000000   0.000000
    40  H    0.000000   0.000000   0.000000   0.000000   0.000000   0.000000
    41  H    0.000000   0.000000   0.000000   0.000000   0.000000   0.000000
    42  H    0.000000   0.000000   0.000000   0.000000   0.000000   0.000000
             13         14         15         16         17         18
     1  H    0.000000   0.000001   0.000000   0.000000   0.000000   0.000000
     2  C    0.000007   0.000302   0.000008  -0.000039   0.000000   0.000000
     3  H    0.000000  -0.000005  -0.000011  -0.000001   0.000000   0.000000
     4  H   -0.000001  -0.000026  -0.000006  -0.000001   0.000000   0.000000
     5  C    0.000283   0.000448   0.004014   0.000248  -0.000084   0.000000
     6  O    0.000273   0.011302   0.000554  -0.000003  -0.000002   0.000001
     7  N    0.004917  -0.005663  -0.037686  -0.006043   0.002758   0.000038
     8  H   -0.000078  -0.000192  -0.005677   0.019399   0.000700  -0.000018
     9  C   -0.042271  -0.026418   0.383875  -0.072055  -0.114150   0.000048
    10  H    0.000244  -0.003863  -0.038659   0.000787   0.002152   0.000432
    11  C    0.377558   0.387107  -0.065843  -0.000088   0.002694   0.000300
    12  H   -0.024351  -0.019950  -0.002751   0.000575   0.000202  -0.000017
    13  H    0.568632  -0.019819  -0.007299   0.000026   0.000646   0.003159
    14  H   -0.019819   0.422222   0.004194  -0.000057   0.000056  -0.000086
    15  C   -0.007299   0.004194   4.181130   0.560581   0.271573  -0.018672
    16  O    0.000026  -0.000057   0.560581   8.277484  -0.102632   0.002379
    17  N    0.000646   0.000056   0.271573  -0.102632   7.393254   0.323838
    18  H    0.003159  -0.000086  -0.018672   0.002379   0.323838   0.299667
    19  C    0.000187   0.000002  -0.029383   0.011766   0.177004  -0.020930
    20  H   -0.000012   0.000000   0.003684   0.000107  -0.033461  -0.003533
    21  C   -0.000019  -0.000001  -0.003662  -0.013447  -0.067492   0.002629
    22  H   -0.000001   0.000000   0.002671   0.004182  -0.005173  -0.000132
    23  H    0.000000   0.000000   0.000170   0.000358   0.004577  -0.000079
    24  H    0.000019   0.000000  -0.000537   0.000046   0.001583   0.000117
    25  C    0.000002   0.000000  -0.006748   0.002688  -0.049324   0.001881
    26  O    0.000000   0.000000  -0.000315   0.000016   0.002245  -0.000006
    27  N    0.000000   0.000000   0.007093  -0.029278   0.001629  -0.000137
    28  H    0.000000   0.000000  -0.000722   0.003865   0.000252  -0.000008
    29  C    0.000000   0.000000  -0.000037   0.000899  -0.000248   0.000003
    30  H    0.000000   0.000000  -0.000065   0.000175   0.000016   0.000000
    31  C    0.000000   0.000000   0.000007  -0.000001  -0.000001   0.000000
    32  H    0.000000   0.000000   0.000000   0.000000   0.000001   0.000000
    33  H    0.000000   0.000000   0.000000   0.000000   0.000000   0.000000
    34  H    0.000000   0.000000   0.000000  -0.000001  -0.000002   0.000000
    35  C    0.000000   0.000000   0.000002  -0.000009  -0.000001   0.000000
    36  O    0.000000   0.000000   0.000021  -0.000055   0.000000   0.000000
    37  N    0.000000   0.000000   0.000000   0.000000   0.000000   0.000000
    38  H    0.000000   0.000000   0.000000   0.000000   0.000000   0.000000
    39  C    0.000000   0.000000   0.000000   0.000000   0.000000   0.000000
    40  H    0.000000   0.000000   0.000000   0.000000   0.000000   0.000000
    41  H    0.000000   0.000000   0.000000   0.000000   0.000000   0.000000
    42  H    0.000000   0.000000   0.000000   0.000000   0.000000   0.000000
             19         20         21         22         23         24
     1  H    0.000000   0.000000   0.000000   0.000000   0.000000   0.000000
     2  C    0.000000   0.000000   0.000000   0.000000   0.000000   0.000000
     3  H    0.000000   0.000000   0.000000   0.000000   0.000000   0.000000
     4  H    0.000000   0.000000   0.000000   0.000000   0.000000   0.000000
     5  C    0.000001   0.000000   0.000000   0.000000   0.000000   0.000000
     6  O    0.000000   0.000000   0.000000   0.000000   0.000000   0.000000
     7  N   -0.000044   0.000000   0.000001  -0.000002   0.000000   0.000000
     8  H   -0.000022   0.000000   0.000006   0.000002   0.000000   0.000000
     9  C    0.003715   0.000000  -0.000263   0.000236   0.000006  -0.000105
    10  H   -0.000228   0.000000   0.000000  -0.000002   0.000000   0.000000
    11  C   -0.000003  -0.000001   0.000004  -0.000036   0.000000   0.000046
    12  H   -0.000068   0.000001   0.000029   0.000000   0.000000   0.000024
    13  H    0.000187  -0.000012  -0.000019  -0.000001   0.000000   0.000019
    14  H    0.000002   0.000000  -0.000001   0.000000   0.000000   0.000000
    15  C   -0.029383   0.003684  -0.003662   0.002671   0.000170  -0.000537
    16  O    0.011766   0.000107  -0.013447   0.004182   0.000358   0.000046
    17  N    0.177004  -0.033461  -0.067492  -0.005173   0.004577   0.001583
    18  H   -0.020930  -0.003533   0.002629  -0.000132  -0.000079   0.000117
    19  C    5.054882   0.412605   0.332833  -0.026264  -0.043640  -0.037290
    20  H    0.412605   0.464057  -0.036161   0.003371  -0.002179  -0.003390
    21  C    0.332833  -0.036161   5.223001   0.388183   0.388390   0.386005
    22  H   -0.026264   0.003371   0.388183   0.474829  -0.024314  -0.021234
    23  H   -0.043640  -0.002179   0.388390  -0.024314   0.517497  -0.020291
    24  H   -0.037290  -0.003390   0.386005  -0.021234  -0.020291   0.515836
    25  C    0.375125  -0.037380  -0.083559  -0.009660   0.002401   0.005507
    26  O   -0.063538   0.003231   0.002139  -0.000041   0.000034  -0.000063
    27  N   -0.110425   0.003572   0.001280  -0.001018  -0.001443   0.000334
    28  H   -0.003149  -0.000021  -0.001067   0.004291  -0.000279   0.000097
    29  C    0.004760  -0.000053   0.000439   0.000554  -0.000210  -0.000001
    30  H   -0.000260  -0.000008   0.000016  -0.000019   0.000003   0.000001
    31  C   -0.000453   0.000012  -0.000052  -0.000016   0.000035  -0.000001
    32  H   -0.000063  -0.000003   0.000006  -0.000005   0.000059   0.000000
    33  H    0.000007   0.000000   0.000000   0.000000   0.000000   0.000000
    34  H    0.000305   0.000004  -0.000038   0.000001  -0.000001   0.000000
    35  C    0.000036   0.000000  -0.000105  -0.000043   0.000009   0.000000
    36  O   -0.000015   0.000000  -0.000113  -0.000124   0.000009  -0.000001
    37  N    0.000000   0.000000   0.000000  -0.000001   0.000000   0.000000
    38  H    0.000000   0.000000   0.000000   0.000000   0.000000   0.000000
    39  C    0.000000   0.000000   0.000000   0.000000   0.000000   0.000000
    40  H    0.000000   0.000000   0.000000   0.000000   0.000000   0.000000
    41  H    0.000000   0.000000   0.000000   0.000000   0.000000   0.000000
    42  H    0.000000   0.000000   0.000000   0.000000   0.000000   0.000000
             25         26         27         28         29         30
     1  H    0.000000   0.000000   0.000000   0.000000   0.000000   0.000000
     2  C    0.000000   0.000000   0.000000   0.000000   0.000000   0.000000
     3  H    0.000000   0.000000   0.000000   0.000000   0.000000   0.000000
     4  H    0.000000   0.000000   0.000000   0.000000   0.000000   0.000000
     5  C    0.000000   0.000000   0.000000   0.000000   0.000000   0.000000
     6  O    0.000000   0.000000   0.000000   0.000000   0.000000   0.000000
     7  N    0.000000   0.000000   0.000000  -0.000002   0.000000   0.000000
     8  H    0.000000   0.000000   0.000010  -0.000003   0.000000   0.000000
     9  C   -0.000566  -0.000009   0.000011   0.000053   0.000000   0.000000
    10  H    0.000018   0.000000   0.000010  -0.000001   0.000000   0.000000
    11  C    0.000009   0.000000  -0.000002  -0.000002   0.000000   0.000000
    12  H    0.000001   0.000000   0.000000   0.000000   0.000000   0.000000
    13  H    0.000002   0.000000   0.000000   0.000000   0.000000   0.000000
    14  H    0.000000   0.000000   0.000000   0.000000   0.000000   0.000000
    15  C   -0.006748  -0.000315   0.007093  -0.000722  -0.000037  -0.000065
    16  O    0.002688   0.000016  -0.029278   0.003865   0.000899   0.000175
    17  N   -0.049324   0.002245   0.001629   0.000252  -0.000248   0.000016
    18  H    0.001881  -0.000006  -0.000137  -0.000008   0.000003   0.000000
    19  C    0.375125  -0.063538  -0.110425  -0.003149   0.004760  -0.000260
    20  H   -0.037380   0.003231   0.003572  -0.000021  -0.000053  -0.000008
    21  C   -0.083559   0.002139   0.001280  -0.001067   0.000439   0.000016
    22  H   -0.009660  -0.000041  -0.001018   0.004291   0.000554  -0.000019
    23  H    0.002401   0.000034  -0.001443  -0.000279  -0.000210   0.000003
    24  H    0.005507  -0.000063   0.000334   0.000097  -0.000001   0.000001
    25  C    4.206474   0.578927   0.271068  -0.010560  -0.034545  -0.001470
    26  O    0.578927   8.238811  -0.110776   0.001923   0.013687   0.003178
    27  N    0.271068  -0.110776   7.429796   0.288958   0.207433  -0.041124
    28  H   -0.010560   0.001923   0.288958   0.253849  -0.027526   0.002383
    29  C   -0.034545   0.013687   0.207433  -0.027526   5.024143   0.401777
    30  H   -0.001470   0.003178  -0.041124   0.002383   0.401777   0.505538
    31  C   -0.004065  -0.015454  -0.062598   0.002659   0.335758  -0.047275
    32  H    0.000025  -0.000008   0.001619   0.000268  -0.042320   0.004545
    33  H    0.000303   0.000248   0.005068  -0.000060  -0.042618   0.000622
    34  H    0.000557   0.010548  -0.005776  -0.000197  -0.026659  -0.004079
    35  C    0.003876   0.000493  -0.036042  -0.005001   0.378031  -0.036053
    36  O    0.000292  -0.000002  -0.006951   0.023959  -0.078142   0.000973
    37  N   -0.000094  -0.000002   0.002685   0.000804  -0.116540   0.002061
    38  H    0.000002   0.000001   0.000023  -0.000026   0.001189   0.000491
    39  C    0.000001   0.000000  -0.000050  -0.000010   0.003690  -0.000218
    40  H    0.000000   0.000000  -0.000004  -0.000010   0.000594  -0.000018
    41  H    0.000000   0.000000   0.000000   0.000000  -0.000109   0.000011
    42  H    0.000000   0.000000   0.000001   0.000000  -0.000003  -0.000002
             31         32         33         34         35         36
     1  H    0.000000   0.000000   0.000000   0.000000   0.000000   0.000000
     2  C    0.000000   0.000000   0.000000   0.000000   0.000000   0.000000
     3  H    0.000000   0.000000   0.000000   0.000000   0.000000   0.000000
     4  H    0.000000   0.000000   0.000000   0.000000   0.000000   0.000000
     5  C    0.000000   0.000000   0.000000   0.000000   0.000000   0.000000
     6  O    0.000000   0.000000   0.000000   0.000000   0.000000   0.000000
     7  N    0.000000   0.000000   0.000000   0.000000   0.000000   0.000000
     8  H    0.000000   0.000000   0.000000   0.000000   0.000000   0.000000
     9  C    0.000000   0.000000   0.000000   0.000000   0.000000   0.000000
    10  H    0.000000   0.000000   0.000000   0.000000   0.000000   0.000000
    11  C    0.000000   0.000000   0.000000   0.000000   0.000000   0.000000
    12  H    0.000000   0.000000   0.000000   0.000000   0.000000   0.000000
    13  H    0.000000   0.000000   0.000000   0.000000   0.000000   0.000000
    14  H    0.000000   0.000000   0.000000   0.000000   0.000000   0.000000
    15  C    0.000007   0.000000   0.000000   0.000000   0.000002   0.000021
    16  O   -0.000001   0.000000   0.000000  -0.000001  -0.000009  -0.000055
    17  N   -0.000001   0.000001   0.000000  -0.000002  -0.000001   0.000000
    18  H    0.000000   0.000000   0.000000   0.000000   0.000000   0.000000
    19  C   -0.000453  -0.000063   0.000007   0.000305   0.000036  -0.000015
    20  H    0.000012  -0.000003   0.000000   0.000004   0.000000   0.000000
    21  C   -0.000052   0.000006   0.000000  -0.000038  -0.000105  -0.000113
    22  H   -0.000016  -0.000005   0.000000   0.000001  -0.000043  -0.000124
    23  H    0.000035   0.000059   0.000000  -0.000001   0.000009   0.000009
    24  H   -0.000001   0.000000   0.000000   0.000000   0.000000  -0.000001
    25  C   -0.004065   0.000025   0.000303   0.000557   0.003876   0.000292
    26  O   -0.015454  -0.000008   0.000248   0.010548   0.000493  -0.000002
    27  N   -0.062598   0.001619   0.005068  -0.005776  -0.036042  -0.006951
    28  H    0.002659   0.000268  -0.000060  -0.000197  -0.005001   0.023959
    29  C    0.335758  -0.042320  -0.042618  -0.026659   0.378031  -0.078142
    30  H   -0.047275   0.004545   0.000622  -0.004079  -0.036053   0.000973
    31  C    5.210426   0.385033   0.377045   0.388110  -0.063757   0.000052
    32  H    0.385033   0.527121  -0.024038  -0.020886  -0.002682   0.000634
    33  H    0.377045  -0.024038   0.572080  -0.020853  -0.006620   0.000024
    34  H    0.388110  -0.020886  -0.020853   0.432141   0.003954  -0.000064
    35  C   -0.063757  -0.002682  -0.006620   0.003954   4.147072   0.594115
    36  O    0.000052   0.000634   0.000024  -0.000064   0.594115   8.207859
    37  N    0.002739   0.000202   0.000225   0.000084   0.283091  -0.098476
    38  H   -0.000012  -0.000002   0.002553  -0.000083  -0.020644   0.002371
    39  C   -0.000084  -0.000043   0.000159   0.000003  -0.025247  -0.004864
    40  H   -0.000049  -0.000002  -0.000008   0.000000  -0.001849   0.010342
    41  H   -0.000004   0.000001   0.000003   0.000000   0.000798   0.000367
    42  H    0.000013   0.000002  -0.000003  -0.000001   0.000913   0.000374
             37         38         39         40         41         42
     1  H    0.000000   0.000000   0.000000   0.000000   0.000000   0.000000
     2  C    0.000000   0.000000   0.000000   0.000000   0.000000   0.000000
     3  H    0.000000   0.000000   0.000000   0.000000   0.000000   0.000000
     4  H    0.000000   0.000000   0.000000   0.000000   0.000000   0.000000
     5  C    0.000000   0.000000   0.000000   0.000000   0.000000   0.000000
     6  O    0.000000   0.000000   0.000000   0.000000   0.000000   0.000000
     7  N    0.000000   0.000000   0.000000   0.000000   0.000000   0.000000
     8  H    0.000000   0.000000   0.000000   0.000000   0.000000   0.000000
     9  C    0.000000   0.000000   0.000000   0.000000   0.000000   0.000000
    10  H    0.000000   0.000000   0.000000   0.000000   0.000000   0.000000
    11  C    0.000000   0.000000   0.000000   0.000000   0.000000   0.000000
    12  H    0.000000   0.000000   0.000000   0.000000   0.000000   0.000000
    13  H    0.000000   0.000000   0.000000   0.000000   0.000000   0.000000
    14  H    0.000000   0.000000   0.000000   0.000000   0.000000   0.000000
    15  C    0.000000   0.000000   0.000000   0.000000   0.000000   0.000000
    16  O    0.000000   0.000000   0.000000   0.000000   0.000000   0.000000
    17  N    0.000000   0.000000   0.000000   0.000000   0.000000   0.000000
    18  H    0.000000   0.000000   0.000000   0.000000   0.000000   0.000000
    19  C    0.000000   0.000000   0.000000   0.000000   0.000000   0.000000
    20  H    0.000000   0.000000   0.000000   0.000000   0.000000   0.000000
    21  C    0.000000   0.000000   0.000000   0.000000   0.000000   0.000000
    22  H   -0.000001   0.000000   0.000000   0.000000   0.000000   0.000000
    23  H    0.000000   0.000000   0.000000   0.000000   0.000000   0.000000
    24  H    0.000000   0.000000   0.000000   0.000000   0.000000   0.000000
    25  C   -0.000094   0.000002   0.000001   0.000000   0.000000   0.000000
    26  O   -0.000002   0.000001   0.000000   0.000000   0.000000   0.000000
    27  N    0.002685   0.000023  -0.000050  -0.000004   0.000000   0.000001
    28  H    0.000804  -0.000026  -0.000010  -0.000010   0.000000   0.000000
    29  C   -0.116540   0.001189   0.003690   0.000594  -0.000109  -0.000003
    30  H    0.002061   0.000491  -0.000218  -0.000018   0.000011  -0.000002
    31  C    0.002739  -0.000012  -0.000084  -0.000049  -0.000004   0.000013
    32  H    0.000202  -0.000002  -0.000043  -0.000002   0.000001   0.000002
    33  H    0.000225   0.002553   0.000159  -0.000008   0.000003  -0.000003
    34  H    0.000084  -0.000083   0.000003   0.000000   0.000000  -0.000001
    35  C    0.283091  -0.020644  -0.025247  -0.001849   0.000798   0.000913
    36  O   -0.098476   0.002371  -0.004864   0.010342   0.000367   0.000374
    37  N    7.337314   0.322760   0.187428  -0.031842  -0.047355  -0.048410
[...]
    28  H    0.000000   0.000000  -0.000793   0.010668  -0.000104  -0.000015
    29  C    0.000000   0.000000  -0.000067   0.000103  -0.000177   0.000003
    30  H    0.000000   0.000000  -0.000036   0.000019  -0.000006   0.000000
    31  C    0.000000   0.000000   0.000004  -0.000002  -0.000001   0.000000
    32  H    0.000000   0.000000   0.000000   0.000000   0.000000   0.000000
    33  H    0.000000   0.000000   0.000000   0.000000   0.000000   0.000000
    34  H    0.000000   0.000000   0.000000   0.000000   0.000000   0.000000
    35  C    0.000000   0.000000   0.000018   0.000158  -0.000002   0.000000
    36  O    0.000000   0.000000   0.000008  -0.000093   0.000001   0.000000
    37  N    0.000000   0.000000   0.000000  -0.000001   0.000000   0.000000
    38  H    0.000000   0.000000   0.000000   0.000000   0.000000   0.000000
    39  C    0.000000   0.000000   0.000000   0.000000   0.000000   0.000000
    40  H    0.000000   0.000000   0.000000   0.000000   0.000000   0.000000
    41  H    0.000000   0.000000   0.000000   0.000000   0.000000   0.000000
    42  H    0.000000   0.000000   0.000000   0.000000   0.000000   0.000000
             19         20         21         22         23         24
     1  H    0.000000   0.000000   0.000000   0.000000   0.000000   0.000000
     2  C    0.000000   0.000000   0.000000   0.000000   0.000000   0.000000
     3  H    0.000000   0.000000   0.000000   0.000000   0.000000   0.000000
     4  H    0.000000   0.000000   0.000000   0.000000   0.000000   0.000000
     5  C    0.000001   0.000000   0.000000   0.000000   0.000000   0.000000
     6  O    0.000000   0.000000   0.000000   0.000000   0.000000   0.000000
     7  N   -0.000064   0.000000   0.000000   0.000000   0.000000   0.000000
     8  H   -0.000025   0.000000   0.000001  -0.000001   0.000000   0.000000
     9  C    0.003534  -0.000021  -0.000224   0.000105   0.000005  -0.000042
    10  H   -0.000148  -0.000008   0.000001  -0.000002   0.000000   0.000000
    11  C   -0.000217   0.000004   0.000033  -0.000013   0.000000   0.000010
    12  H   -0.000011   0.000000   0.000007  -0.000002   0.000000   0.000001
    13  H    0.000002  -0.000008  -0.000010  -0.000001   0.000000   0.000021
    14  H    0.000003   0.000000   0.000000   0.000000   0.000000   0.000000
    15  C   -0.024808   0.003854  -0.001936   0.002397   0.000059  -0.000256
    16  O    0.011343   0.000068  -0.004980   0.003781   0.000129  -0.000001
    17  N    0.175765  -0.037755  -0.059750  -0.004279   0.004102   0.000724
    18  H   -0.025189  -0.004930   0.003195  -0.000096  -0.000075  -0.000018
    19  C    5.050466   0.417273   0.327963  -0.026242  -0.040143  -0.035334
    20  H    0.417273   0.476087  -0.034232   0.003208  -0.001697  -0.004375
    21  C    0.327963  -0.034232   5.145648   0.388327   0.389199   0.388164
    22  H   -0.026242   0.003208   0.388327   0.478355  -0.023408  -0.023793
    23  H   -0.040143  -0.001697   0.389199  -0.023408   0.519254  -0.024145
    24  H   -0.035334  -0.004375   0.388164  -0.023793  -0.024145   0.519995
    25  C    0.381960  -0.049709  -0.058286  -0.004943   0.000211   0.004317
    26  O   -0.069544   0.005948   0.001903  -0.000016   0.000061  -0.000068
    27  N   -0.112522   0.004475   0.007703   0.001389  -0.000014   0.000001
    28  H   -0.000881  -0.000004  -0.000589   0.001691   0.000066  -0.000013
    29  C    0.004770  -0.000111  -0.000301   0.000046  -0.000094   0.000005
    30  H    0.000124  -0.000013   0.000001  -0.000001   0.000001   0.000000
    31  C   -0.000303   0.000013   0.000017  -0.000003   0.000025  -0.000001
    32  H   -0.000013   0.000000   0.000003   0.000000   0.000015   0.000000
    33  H    0.000003   0.000000   0.000000   0.000000   0.000000   0.000000
    34  H    0.000114   0.000000  -0.000027   0.000000   0.000002   0.000000
    35  C    0.000025  -0.000001  -0.000021  -0.000011   0.000000   0.000000
    36  O   -0.000021   0.000000  -0.000006  -0.000033   0.000001   0.000000
    37  N    0.000000   0.000000   0.000000   0.000000   0.000000   0.000000
    38  H    0.000000   0.000000   0.000000   0.000000   0.000000   0.000000
    39  C    0.000000   0.000000   0.000000   0.000000   0.000000   0.000000
    40  H    0.000000   0.000000   0.000000   0.000000   0.000000   0.000000
    41  H    0.000000   0.000000   0.000000   0.000000   0.000000   0.000000
    42  H    0.000000   0.000000   0.000000   0.000000   0.000000   0.000000
             25         26         27         28         29         30
     1  H    0.000000   0.000000   0.000000   0.000000   0.000000   0.000000
     2  C    0.000000   0.000000   0.000000   0.000000   0.000000   0.000000
     3  H    0.000000   0.000000   0.000000   0.000000   0.000000   0.000000
     4  H    0.000000   0.000000   0.000000   0.000000   0.000000   0.000000
     5  C    0.000000   0.000000   0.000000   0.000000   0.000000   0.000000
     6  O    0.000000   0.000000   0.000000   0.000000   0.000000   0.000000
     7  N    0.000003   0.000000  -0.000001  -0.000005   0.000000   0.000000
     8  H    0.000003   0.000000   0.000006  -0.000007   0.000000   0.000000
     9  C   -0.000372  -0.000011   0.000030   0.000124   0.000000   0.000000
    10  H    0.000017  -0.000001   0.000004  -0.000003   0.000000   0.000000
    11  C   -0.000002   0.000000   0.000000  -0.000002   0.000000   0.000000
    12  H    0.000000   0.000000   0.000000   0.000000   0.000000   0.000000
    13  H    0.000003   0.000000   0.000000   0.000000   0.000000   0.000000
    14  H    0.000000   0.000000   0.000000   0.000000   0.000000   0.000000
    15  C   -0.005977  -0.000246   0.004520  -0.000793  -0.000067  -0.000036
    16  O    0.000814   0.000027  -0.009566   0.010668   0.000103   0.000019
    17  N   -0.046915   0.002164   0.002446  -0.000104  -0.000177  -0.000006
    18  H    0.001835   0.000251  -0.000095  -0.000015   0.000003   0.000000
    19  C    0.381960  -0.069544  -0.112522  -0.000881   0.004770   0.000124
    20  H   -0.049709   0.005948   0.004475  -0.000004  -0.000111  -0.000013
    21  C   -0.058286   0.001903   0.007703  -0.000589  -0.000301   0.000001
    22  H   -0.004943  -0.000016   0.001389   0.001691   0.000046  -0.000001
    23  H    0.000211   0.000061  -0.000014   0.000066  -0.000094   0.000001
    24  H    0.004317  -0.000068   0.000001  -0.000013   0.000005   0.000000
    25  C    4.185310   0.595257   0.272720  -0.011344  -0.032608  -0.001203
    26  O    0.595257   8.192005  -0.113542   0.001775   0.009556   0.006950
    27  N    0.272720  -0.113542   7.420317   0.294161   0.200871  -0.045748
    28  H   -0.011344   0.001775   0.294161   0.251696  -0.027159   0.002290
    29  C   -0.032608   0.009556   0.200871  -0.027159   5.043691   0.412087
    30  H   -0.001203   0.006950  -0.045748   0.002290   0.412087   0.498579
    31  C   -0.002331  -0.004635  -0.062837   0.002350   0.335984  -0.043013
    32  H    0.000246  -0.000008   0.000439   0.000226  -0.038318   0.004085
    33  H    0.000035   0.000015   0.004602  -0.000035  -0.037706   0.000417
    34  H    0.002053   0.005046  -0.005633  -0.000154  -0.029532  -0.003740
    35  C    0.003797   0.000572  -0.037570  -0.005640   0.374165  -0.045029
    36  O    0.000365  -0.000004  -0.006985   0.020445  -0.075937   0.001796
    37  N   -0.000098  -0.000002   0.002548   0.000957  -0.116504   0.003941
    38  H   -0.000009  -0.000001  -0.000004  -0.000032   0.000636   0.001580
    39  C    0.000002   0.000000  -0.000076  -0.000028   0.004496  -0.000082
    40  H    0.000000   0.000000  -0.000004  -0.000004   0.000138  -0.000001
    41  H    0.000000   0.000000   0.000007   0.000002  -0.000163  -0.000004
    42  H    0.000000   0.000000   0.000000   0.000000   0.000003  -0.000012
             31         32         33         34         35         36
     1  H    0.000000   0.000000   0.000000   0.000000   0.000000   0.000000
     2  C    0.000000   0.000000   0.000000   0.000000   0.000000   0.000000
     3  H    0.000000   0.000000   0.000000   0.000000   0.000000   0.000000
     4  H    0.000000   0.000000   0.000000   0.000000   0.000000   0.000000
     5  C    0.000000   0.000000   0.000000   0.000000   0.000000   0.000000
     6  O    0.000000   0.000000   0.000000   0.000000   0.000000   0.000000
     7  N    0.000000   0.000000   0.000000   0.000000   0.000000   0.000000
     8  H    0.000000   0.000000   0.000000   0.000000   0.000001   0.000000
     9  C    0.000000   0.000000   0.000000   0.000000   0.000000   0.000000
    10  H    0.000000   0.000000   0.000000   0.000000   0.000000   0.000000
    11  C    0.000000   0.000000   0.000000   0.000000   0.000000   0.000000
    12  H    0.000000   0.000000   0.000000   0.000000   0.000000   0.000000
    13  H    0.000000   0.000000   0.000000   0.000000   0.000000   0.000000
    14  H    0.000000   0.000000   0.000000   0.000000   0.000000   0.000000
    15  C    0.000004   0.000000   0.000000   0.000000   0.000018   0.000008
    16  O   -0.000002   0.000000   0.000000   0.000000   0.000158  -0.000093
    17  N   -0.000001   0.000000   0.000000   0.000000  -0.000002   0.000001
    18  H    0.000000   0.000000   0.000000   0.000000   0.000000   0.000000
    19  C   -0.000303  -0.000013   0.000003   0.000114   0.000025  -0.000021
    20  H    0.000013   0.000000   0.000000   0.000000  -0.000001   0.000000
    21  C    0.000017   0.000003   0.000000  -0.000027  -0.000021  -0.000006
    22  H   -0.000003   0.000000   0.000000   0.000000  -0.000011  -0.000033
    23  H    0.000025   0.000015   0.000000   0.000002   0.000000   0.000001
    24  H   -0.000001   0.000000   0.000000   0.000000   0.000000   0.000000
    25  C   -0.002331   0.000246   0.000035   0.002053   0.003797   0.000365
    26  O   -0.004635  -0.000008   0.000015   0.005046   0.000572  -0.000004
    27  N   -0.062837   0.000439   0.004602  -0.005633  -0.037570  -0.006985
    28  H    0.002350   0.000226  -0.000035  -0.000154  -0.005640   0.020445
    29  C    0.335984  -0.038318  -0.037706  -0.029532   0.374165  -0.075937
    30  H   -0.043013   0.004085   0.000417  -0.003740  -0.045029   0.001796
    31  C    5.148134   0.388664   0.381411   0.391667  -0.050830  -0.000895
    32  H    0.388664   0.512944  -0.024375  -0.023210  -0.004141   0.001676
    33  H    0.381411  -0.024375   0.541400  -0.023298  -0.003417   0.000018
    34  H    0.391667  -0.023210  -0.023298   0.475037   0.004233  -0.000071
    35  C   -0.050830  -0.004141  -0.003417   0.004233   4.171654   0.600293
    36  O   -0.000895   0.001676   0.000018  -0.000071   0.600293   8.167732
    37  N    0.001410   0.000442   0.002435  -0.000051   0.276091  -0.104634
    38  H    0.000251   0.000007   0.000466  -0.000037  -0.021601   0.002537
    39  C   -0.000273  -0.000009  -0.000014   0.000003  -0.028615   0.008591
    40  H    0.000005   0.000003  -0.000013   0.000000  -0.002849   0.003272
    41  H   -0.000006   0.000000   0.000004   0.000000  -0.003765   0.001206
    42  H    0.000004  -0.000001  -0.000007   0.000000   0.004535   0.000362
             37         38         39         40         41         42
     1  H    0.000000   0.000000   0.000000   0.000000   0.000000   0.000000
     2  C    0.000000   0.000000   0.000000   0.000000   0.000000   0.000000
     3  H    0.000000   0.000000   0.000000   0.000000   0.000000   0.000000
     4  H    0.000000   0.000000   0.000000   0.000000   0.000000   0.000000
     5  C    0.000000   0.000000   0.000000   0.000000   0.000000   0.000000
     6  O    0.000000   0.000000   0.000000   0.000000   0.000000   0.000000
     7  N    0.000000   0.000000   0.000000   0.000000   0.000000   0.000000
     8  H    0.000000   0.000000   0.000000   0.000000   0.000000   0.000000
     9  C    0.000000   0.000000   0.000000   0.000000   0.000000   0.000000
    10  H    0.000000   0.000000   0.000000   0.000000   0.000000   0.000000
    11  C    0.000000   0.000000   0.000000   0.000000   0.000000   0.000000
    12  H    0.000000   0.000000   0.000000   0.000000   0.000000   0.000000
    13  H    0.000000   0.000000   0.000000   0.000000   0.000000   0.000000
    14  H    0.000000   0.000000   0.000000   0.000000   0.000000   0.000000
    15  C    0.000000   0.000000   0.000000   0.000000   0.000000   0.000000
    16  O   -0.000001   0.000000   0.000000   0.000000   0.000000   0.000000
    17  N    0.000000   0.000000   0.000000   0.000000   0.000000   0.000000
    18  H    0.000000   0.000000   0.000000   0.000000   0.000000   0.000000
    19  C    0.000000   0.000000   0.000000   0.000000   0.000000   0.000000
    20  H    0.000000   0.000000   0.000000   0.000000   0.000000   0.000000
    21  C    0.000000   0.000000   0.000000   0.000000   0.000000   0.000000
    22  H    0.000000   0.000000   0.000000   0.000000   0.000000   0.000000
    23  H    0.000000   0.000000   0.000000   0.000000   0.000000   0.000000
    24  H    0.000000   0.000000   0.000000   0.000000   0.000000   0.000000
    25  C   -0.000098  -0.000009   0.000002   0.000000   0.000000   0.000000
    26  O   -0.000002  -0.000001   0.000000   0.000000   0.000000   0.000000
    27  N    0.002548  -0.000004  -0.000076  -0.000004   0.000007   0.000000
    28  H    0.000957  -0.000032  -0.000028  -0.000004   0.000002   0.000000
    29  C   -0.116504   0.000636   0.004496   0.000138  -0.000163   0.000003
    30  H    0.003941   0.001580  -0.000082  -0.000001  -0.000004  -0.000012
    31  C    0.001410   0.000251  -0.000273   0.000005  -0.000006   0.000004
    32  H    0.000442   0.000007  -0.000009   0.000003   0.000000  -0.000001
    33  H    0.002435   0.000466  -0.000014  -0.000013   0.000004  -0.000007
    34  H   -0.000051  -0.000037   0.000003   0.000000   0.000000   0.000000
    35  C    0.276091  -0.021601  -0.028615  -0.002849  -0.003765   0.004535
    36  O   -0.104634   0.002537   0.008591   0.003272   0.001206   0.000362
    37  N    7.333316   0.328180   0.196586  -0.040724  -0.045931  -0.037497
    38  H    0.328180   0.322898  -0.022537   0.002537   0.001341  -0.004562
    39  C    0.196586  -0.022537   4.904762   0.404480   0.406271   0.397367
    40  H   -0.040724   0.002537   0.404480   0.488538  -0.033154  -0.024885
    41  H   -0.045931   0.001341   0.406271  -0.033154   0.524122  -0.031488
    42  H   -0.037497  -0.004562   0.397367  -0.024885  -0.031488   0.526091
 Mulliken atomic charges:
              1
     1  H    0.203560
     2  C   -0.576084
     3  H    0.207768
     4  H    0.174053
     5  C    0.755895
     6  O   -0.621513
     7  N   -0.824632
     8  H    0.421070
     9  C   -0.032428
    10  H    0.218165
    11  C   -0.485178
    12  H    0.177860
    13  H    0.161734
    14  H    0.213211
    15  C    0.787520
    16  O   -0.637126
    17  N   -0.819325
    18  H    0.397364
    19  C   -0.037877
    20  H    0.221934
    21  C   -0.491802
    22  H    0.203544
    23  H    0.176445
    24  H    0.174804
    25  C    0.764851
    26  O   -0.633450
    27  N   -0.821638
    28  H    0.460359
    29  C   -0.027875
    30  H    0.207018
    31  C   -0.484810
    32  H    0.181324
    33  H    0.158059
    34  H    0.207598
    35  C    0.767950
    36  O   -0.619621
    37  N   -0.800463
    38  H    0.388351
    39  C   -0.270925
    40  H    0.202661
    41  H    0.181557
    42  H    0.170089
 Sum of Mulliken atomic charges =   0.00000
 Mulliken charges with hydrogens summed into heavy atoms:
              1
     2  C    0.009298
     5  C    0.755895
     6  O   -0.621513
     7  N   -0.403561
     9  C    0.185737
    11  C    0.067627
    15  C    0.787520
    16  O   -0.637126
    17  N   -0.421961
    19  C    0.184057
    21  C    0.062992
    25  C    0.764851
    26  O   -0.633450
    27  N   -0.361279
    29  C    0.179143
    31  C    0.062172
    35  C    0.767950
    36  O   -0.619621
    37  N   -0.412112
    39  C    0.283382
 Sum of Mulliken charges with hydrogens summed into heavy atoms =   0.00000
 Electronic spatial extent (au):  <R**2>=           7594.2607
 Charge=              0.0000 electrons
 Dipole moment (field-independent basis, Debye):
    X=              2.0802    Y=              0.8560    Z=             -0.2352  Tot=              2.2617
 Quadrupole moment (field-independent basis, Debye-Ang):
   XX=           -125.6185   YY=           -100.2740   ZZ=           -131.9967
   XY=             13.4494   XZ=             13.7357   YZ=              6.7624
 Traceless Quadrupole moment (field-independent basis, Debye-Ang):
   XX=             -6.3221   YY=             19.0224   ZZ=            -12.7003
   XY=             13.4494   XZ=             13.7357   YZ=              6.7624
 Octapole moment (field-independent basis, Debye-Ang**2):
  XXX=            152.3401  YYY=             35.8768  ZZZ=             -5.9012  XYY=             -2.6618
  XXY=             20.6953  XXZ=            -34.6399  XZZ=             -0.5061  YZZ=             11.4482
  YYZ=             -3.6073  XYZ=             44.4736
 Hexadecapole moment (field-independent basis, Debye-Ang**3):
 XXXX=          -6814.9268 YYYY=          -2694.0748 ZZZZ=           -675.9979 XXXY=            232.7341
 XXXZ=            356.1056 YYYX=             78.6598 YYYZ=              2.9255 ZZZX=              6.1763
 ZZZY=             34.3048 XXYY=          -1346.1651 XXZZ=          -1242.7684 YYZZ=           -614.6988
 XXYZ=            -23.3531 YYXZ=            -13.4897 ZZXY=             54.3409
 N-N= 1.658476516265D+03 E-N=-5.625093727907D+03  KE= 9.830905938219D+02
 1\1\GINC-NODE002\FOpt\RHF\6-31G(d)\C12H22N4O4\STEBOSS\27-Dec-2016\0\\#
  HF/6-31G* Opt=(ModRedundant, maxcycles=1000, calcfc) geom=nocrowd\\Ph
 i Psi fixed scan\\0,1\H,7.8390078092,1.8677166463,3.8969204551\C,8.405
 7683455,2.5748300094,3.3008395218\H,9.3072029709,2.0788493593,2.966576
 7375\H,8.6659871656,3.423476884,3.9216543183\C,7.5822967153,2.95161688
 75,2.0885751438\O,7.4313517662,2.1933905734,1.1662042523\N,7.015200919
 7,4.1750150308,2.1210910159\H,7.1720287601,4.7980428852,2.8812071546\C
 ,6.1987871164,4.6698420779,1.0407438757\H,6.6469248856,4.355437398,0.1
 063190685\C,4.7611033839,4.1355910717,1.10790265\H,4.2848389801,4.4510
 866821,2.0298658654\H,4.1668415678,4.4918632928,0.2731967353\H,4.78502
 6232,3.0545543168,1.076404419\C,6.2026181946,6.1938709191,1.1248169904
 \O,6.4749421586,6.7618600066,2.1512661518\N,5.8152020946,6.8345036845,
 0.001636427\H,5.7840899118,6.2921360231,-0.8319548542\C,5.8594580645,8
 .28392756,-0.1940748997\H,5.6275658088,8.432998519,-1.2377997031\C,4.8
 079319936,9.0058423263,0.6484151459\H,4.9514434323,8.8415200045,1.7069
 780373\H,4.8423961938,10.0727924785,0.4562633947\H,3.8226665799,8.6415
 460792,0.3802282322\C,7.2844079385,8.8525135784,-0.0661488466\O,7.9571
 239401,8.9588964019,-1.0617053049\N,7.7067232084,9.2495351471,1.143909
 6134\H,7.2228998277,8.9552198947,1.9651127738\C,9.0440309439,9.7671831
 316,1.3278569892\H,9.7257459448,9.2025846824,0.7026294363\C,9.13365326
 59,11.250052359,0.9438653726\H,8.4726989386,11.838691178,1.5701701621\
 H,10.1452456126,11.6252781809,1.0592849558\H,8.8397015447,11.370377458
 ,-0.0902897577\C,9.4224781385,9.5822490592,2.7939416557\O,8.5911209417
 ,9.4793604342,3.6560360802\N,10.744500442,9.5914283778,3.0528707797\H,
 11.3851829492,9.570794831,2.2940939965\C,11.2551277995,9.4410681676,4.
 3993337592\H,10.7483374877,10.1246650861,5.0651405568\H,11.1129190969,
 8.4325678358,4.7708319823\H,12.3123209281,9.6701234803,4.39648966\\Ver
 sion=EM64L-G09RevA.02\State=1-A\HF=-984.5580874\RMSD=6.540e-09\RMSF=1.
 038e-03\Dipole=0.486902,0.6640657,0.3372468\Quadrupole=16.8325315,-12.
 0533201,-4.7792114,4.763406,10.2241477,-5.6774412\PG=C01 [X(C12H22N4O4
 )]\\@


 THERE IS MORE TO LIFE THAN INCREASING ITS SPEED.

                                       -- GANDHI
 Job cpu time:  0 days  4 hours 49 minutes 17.3 seconds.
 File lengths (MBytes):  RWF=    553 Int=      0 D2E=      0 Chk=     11 Scr=      1
 Normal termination of Gaussian 09 at Tue Dec 27 17:10:40 2016.
