 Entering Gaussian System, Link 0=g09
 Initial command:
 /home/steboss/Software/g09/l1.exe /home/steboss/projects/phi_psi_scan/alanine/MP2/15/5264/Gau-20688.inp -scrdir=/home/steboss/projects/phi_psi_scan/alanine/MP2/15/5264/
 Entering Link 1 = /home/steboss/Software/g09/l1.exe PID=     20690.
  
 Copyright (c) 1988,1990,1992,1993,1995,1998,2003,2009, Gaussian, Inc.
                  All Rights Reserved.
  
 This is part of the Gaussian(R) 09 program.  It is based on
 the Gaussian(R) 03 system (copyright 2003, Gaussian, Inc.),
 the Gaussian(R) 98 system (copyright 1998, Gaussian, Inc.),
 the Gaussian(R) 94 system (copyright 1995, Gaussian, Inc.),
 the Gaussian 92(TM) system (copyright 1992, Gaussian, Inc.),
 the Gaussian 90(TM) system (copyright 1990, Gaussian, Inc.),
 the Gaussian 88(TM) system (copyright 1988, Gaussian, Inc.),
 the Gaussian 86(TM) system (copyright 1986, Carnegie Mellon
 University), and the Gaussian 82(TM) system (copyright 1983,
 Carnegie Mellon University). Gaussian is a federally registered
 trademark of Gaussian, Inc.
  
 This software contains proprietary and confidential information,
 including trade secrets, belonging to Gaussian, Inc.
  
 This software is provided under written license and may be
 used, copied, transmitted, or stored only in accord with that
 written license.
  
 The following legend is applicable only to US Government
 contracts under FAR:
  
                    RESTRICTED RIGHTS LEGEND
  
 Use, reproduction and disclosure by the US Government is
 subject to restrictions as set forth in subparagraphs (a)
 and (c) of the Commercial Computer Software - Restricted
 Rights clause in FAR 52.227-19.
  
 Gaussian, Inc.
 340 Quinnipiac St., Bldg. 40, Wallingford CT 06492
  
  
 ---------------------------------------------------------------
 Warning -- This program may not be used in any manner that
 competes with the business of Gaussian, Inc. or will provide
 assistance to any competitor of Gaussian, Inc.  The licensee
 of this program is prohibited from giving any competitor of
 Gaussian, Inc. access to this program.  By using this program,
 the user acknowledges that Gaussian, Inc. is engaged in the
 business of creating and licensing software in the field of
 computational chemistry and represents and warrants to the
 licensee that it is not a competitor of Gaussian, Inc. and that
 it will not use this program in any manner prohibited above.
 ---------------------------------------------------------------
  

 Cite this work as:
 Gaussian 09, Revision A.02,
 M. J. Frisch, G. W. Trucks, H. B. Schlegel, G. E. Scuseria, 
 M. A. Robb, J. R. Cheeseman, G. Scalmani, V. Barone, B. Mennucci, 
 G. A. Petersson, H. Nakatsuji, M. Caricato, X. Li, H. P. Hratchian, 
 A. F. Izmaylov, J. Bloino, G. Zheng, J. L. Sonnenberg, M. Hada, 
 M. Ehara, K. Toyota, R. Fukuda, J. Hasegawa, M. Ishida, T. Nakajima, 
 Y. Honda, O. Kitao, H. Nakai, T. Vreven, J. A. Montgomery, Jr., 
 J. E. Peralta, F. Ogliaro, M. Bearpark, J. J. Heyd, E. Brothers, 
 K. N. Kudin, V. N. Staroverov, R. Kobayashi, J. Normand, 
 K. Raghavachari, A. Rendell, J. C. Burant, S. S. Iyengar, J. Tomasi, 
 M. Cossi, N. Rega, J. M. Millam, M. Klene, J. E. Knox, J. B. Cross, 
 V. Bakken, C. Adamo, J. Jaramillo, R. Gomperts, R. E. Stratmann, 
 O. Yazyev, A. J. Austin, R. Cammi, C. Pomelli, J. W. Ochterski, 
 R. L. Martin, K. Morokuma, V. G. Zakrzewski, G. A. Voth, 
 P. Salvador, J. J. Dannenberg, S. Dapprich, A. D. Daniels, 
 O. Farkas, J. B. Foresman, J. V. Ortiz, J. Cioslowski, 
 and D. J. Fox, Gaussian, Inc., Wallingford CT, 2009.
 
 ******************************************
 Gaussian 09:  EM64L-G09RevA.02 11-Jun-2009
                12-Feb-2017 
 ******************************************
 %chk=structure_240.chk
 %NProcShared=8
 Will use up to    8 processors via shared memory.
 -------------------
 #SP MP2/aug-cc-pVDZ
 -------------------
 1/38=1/1;
 2/12=2,17=6,18=5,40=1/2;
 3/5=16,7=10,11=9,16=1,25=1,30=1/1,2,3;
 4//1;
 5/5=2,38=5/2;
 8/10=1/1;
 9/16=-3/6;
 6/7=2,8=2,9=2,10=2/1;
 99/5=1,9=1/99;
 -------------------------------
 Single Point calculation at MP2
 -------------------------------
 Symbolic Z-matrix:
 Charge =  0 Multiplicity = 1
 H                     3.4775   -1.5351   -0.8235 
 C                     3.1599   -0.854    -0.0319 
 H                     3.8451   -0.0005    0.0119 
 H                     3.2171   -1.3904    0.923 
 C                     1.7174   -0.4444   -0.2857 
 O                     0.9291   -1.1583   -0.8893 
 N                     1.3765    0.806     0.1807 
 H                     2.0728    1.2546    0.7622 
 C                    -0.0067    1.2227    0.4658 
 H                    -0.015     1.6062    1.4921 
 C                    -0.4304    2.3503   -0.4862 
 H                    -0.3716    2.0263   -1.5317 
 H                    -1.4489    2.6902   -0.2711 
 H                     0.2448    3.2058   -0.3781 
 C                    -0.9608    0.0004    0.5391 
 O                    -0.8519   -0.789     1.4668 
 N                    -1.9973   -0.0319   -0.3498 
 H                    -1.8632    0.4609   -1.2216 
 C                    -2.8492   -1.2125   -0.3996 
 H                    -3.1444   -1.4738    0.6179 
 H                    -3.7407   -0.9862   -0.9905 
 H                    -2.3261   -2.0724   -0.8369 
 
                          Input orientation:                          
 ---------------------------------------------------------------------
 Center     Atomic      Atomic             Coordinates (Angstroms)
 Number     Number       Type             X           Y           Z
 ---------------------------------------------------------------------
      1          1           0        3.477500   -1.535100   -0.823500
      2          6           0        3.159900   -0.854000   -0.031900
      3          1           0        3.845100   -0.000500    0.011900
      4          1           0        3.217100   -1.390400    0.923000
      5          6           0        1.717400   -0.444400   -0.285700
      6          8           0        0.929100   -1.158300   -0.889300
      7          7           0        1.376500    0.806000    0.180700
      8          1           0        2.072800    1.254600    0.762200
      9          6           0       -0.006700    1.222700    0.465800
     10          1           0       -0.015000    1.606200    1.492100
     11          6           0       -0.430400    2.350300   -0.486200
     12          1           0       -0.371600    2.026300   -1.531700
     13          1           0       -1.448900    2.690200   -0.271100
     14          1           0        0.244800    3.205800   -0.378100
     15          6           0       -0.960800    0.000400    0.539100
     16          8           0       -0.851900   -0.789000    1.466800
     17          7           0       -1.997300   -0.031900   -0.349800
     18          1           0       -1.863200    0.460900   -1.221600
     19          6           0       -2.849200   -1.212500   -0.399600
     20          1           0       -3.144400   -1.473800    0.617900
     21          1           0       -3.740700   -0.986200   -0.990500
     22          1           0       -2.326100   -2.072400   -0.836900
 ---------------------------------------------------------------------
                    Distance matrix (angstroms):
                    1          2          3          4          5
     1  H    0.000000
     2  C    1.091512   0.000000
     3  H    1.785503   1.095390   0.000000
     4  H    1.771725   1.096736   1.776600   0.000000
     5  C    2.139347   1.520853   2.193791   2.145920   0.000000
     6  O    2.576946   2.409191   3.264310   2.928011   1.222867
     7  N    3.302025   2.445673   2.602484   2.960235   1.377404
     8  H    3.502863   2.501714   2.297667   2.886400   2.027561
     9  C    4.626814   3.819390   4.066769   4.174950   2.513264
    10  H    5.237110   4.295946   4.435409   4.444092   3.219743
    11  C    5.521031   4.833651   4.904515   5.411371   3.530381
    12  H    5.291568   4.797606   4.926579   5.529752   3.467102
    13  H    6.513657   5.818901   5.945283   6.312585   4.455489
    14  H    5.755420   5.009954   4.836799   5.626054   3.937137
    15  C    4.890086   4.246906   4.834730   4.420017   2.837410
    16  O    4.954376   4.283091   4.979987   4.148995   3.129107
    17  N    5.697143   5.231981   5.853670   5.536742   3.738083
    18  H    5.715381   5.326902   5.858251   5.816878   3.810010
    19  C    6.349086   6.031004   6.815565   6.211354   4.632147
    20  H    6.777238   6.367935   7.168749   6.369358   5.051065
    21  H    7.240966   6.968118   7.714971   7.227437   5.530022
    22  H    5.828434   5.677034   6.564826   5.855718   4.393643
                    6          7          8          9         10
     6  O    0.000000
     7  N    2.281127   0.000000
     8  H    3.139680   1.012037   0.000000
     9  C    2.895027   1.472468   2.100760   0.000000
    10  H    3.768932   2.072767   2.239483   1.095643   0.000000
    11  C    3.784310   2.468705   3.004176   1.535353   2.154046
    12  H    3.499454   2.734465   3.439853   2.183788   3.073600
    13  H    4.565962   3.425962   3.940942   2.185525   2.517936
    14  H    4.446905   2.711465   2.906725   2.169817   2.474644
    15  C    2.637164   2.498082   3.290216   1.552320   2.093165
    16  O    2.976500   3.027184   3.636844   2.400688   2.537326
    17  N    3.181769   3.516537   4.411048   2.490324   3.163144
    18  H    3.244868   3.546998   4.478562   2.621879   3.477315
    19  C    3.810288   4.718859   5.626939   3.841734   4.422249
    20  H    4.354836   5.082044   5.889326   4.139977   4.477027
    21  H    4.674066   5.547020   6.472243   4.576331   5.173459
    22  H    3.381516   4.798952   5.742506   4.234894   4.929252
                   11         12         13         14         15
    11  C    0.000000
    12  H    1.096131   0.000000
    13  H    1.095054   1.786183   0.000000
    14  H    1.095199   1.761239   1.773672   0.000000
    15  C    2.618128   2.956288   2.851261   3.545323   0.000000
    16  O    3.721166   4.140967   3.934659   4.534847   1.222963
    17  N    2.854585   2.876799   2.777907   3.938339   1.365840
    18  H    2.482652   2.184379   2.458632   3.562251   2.031367
    19  C    4.307161   4.232018   4.148303   5.393948   2.432764
    20  H    4.817528   4.955795   4.583005   5.863220   2.635827
    21  H    4.727011   4.551801   4.391560   5.816537   3.322785
    22  H    4.824619   4.593709   4.875651   5.888923   2.837943
                   16         17         18         19         20
    16  O    0.000000
    17  N    2.277098   0.000000
    18  H    3.132487   1.010381   0.000000
    19  C    2.766226   1.456719   2.109063   0.000000
    20  H    2.538728   2.081191   2.961131   1.091204   0.000000
    21  H    3.797680   2.088212   2.381704   1.093228   1.783333
    22  H    3.021161   2.123444   2.603820   1.097403   1.773240
                   21         22
    21  H    0.000000
    22  H    1.790116   0.000000
 Stoichiometry    C6H12N2O2
 Framework group  C1[X(C6H12N2O2)]
 Deg. of freedom    60
 Full point group                 C1      NOp   1
 Largest Abelian subgroup         C1      NOp   1
 Largest concise Abelian subgroup C1      NOp   1
                         Standard orientation:                         
 ---------------------------------------------------------------------
 Center     Atomic      Atomic             Coordinates (Angstroms)
 Number     Number       Type             X           Y           Z
 ---------------------------------------------------------------------
      1          1           0        3.477505   -1.535082   -0.823487
      2          6           0        3.159900   -0.853985   -0.031887
      3          1           0        3.845092   -0.000479    0.011913
      4          1           0        3.217104   -1.390384    0.923013
      5          6           0        1.717396   -0.444397   -0.285687
      6          8           0        0.929102   -1.158304   -0.889287
      7          7           0        1.376485    0.806000    0.180713
      8          1           0        2.072782    1.254606    0.762213
      9          6           0       -0.006718    1.222688    0.465813
     10          1           0       -0.015021    1.606188    1.492113
     11          6           0       -0.430428    2.350285   -0.486187
     12          1           0       -0.371625    2.026285   -1.531687
     13          1           0       -1.448931    2.690176   -0.271087
     14          1           0        0.244765    3.205791   -0.378087
     15          6           0       -0.960808    0.000380    0.539113
     16          8           0       -0.851901   -0.789019    1.466813
     17          7           0       -1.997307   -0.031929   -0.349787
     18          1           0       -1.863212    0.460873   -1.221587
     19          6           0       -2.849197   -1.212536   -0.399587
     20          1           0       -3.144395   -1.473838    0.617913
     21          1           0       -3.740699   -0.986243   -0.990487
     22          1           0       -2.326090   -2.072431   -0.836887
 ---------------------------------------------------------------------
 Rotational constants (GHZ):      1.9229855      0.9672378      0.7865264
 Standard basis: Aug-CC-pVDZ (5D, 7F)
 There are   338 symmetry adapted basis functions of A   symmetry.
 Integral buffers will be    131072 words long.
 Raffenetti 1 integral format.
 Two-electron integral symmetry is turned on.
   338 basis functions,   562 primitive gaussians,   358 cartesian basis functions
    39 alpha electrons       39 beta electrons
       nuclear repulsion energy       567.8551980853 Hartrees.
 NAtoms=   22 NActive=   22 NUniq=   22 SFac= 7.50D-01 NAtFMM=   80 NAOKFM=F Big=F
 One-electron integrals computed using PRISM.
 NBasis=   338 RedAO= T  NBF=   338
 NBsUse=   338 1.00D-06 NBFU=   338
 Harris functional with IExCor=  205 diagonalized for initial guess.
 ExpMin= 2.97D-02 ExpMax= 1.17D+04 ExpMxC= 4.01D+02 IAcc=3 IRadAn=         0 AccDes= 0.00D+00
 HarFok:  IExCor=  205 AccDes= 0.00D+00 IRadAn=         0 IDoV= 1
 ScaDFX=  1.000000  1.000000  1.000000  1.000000
 FoFCou: FMM=F IPFlag=           0 FMFlag=      100000 FMFlg1=           0
         NFxFlg=           0 DoJE=T BraDBF=F KetDBF=T FulRan=T
         Omega=  0.000000  0.000000  1.000000  0.000000  0.000000 ICntrl=     500 IOpCl=  0
         NMat0=    1 NMatS0=    1 NMatT0=    0 NMatD0=    1 NMtDS0=    0 NMtDT0=    0
         I1Cent=           4 NGrid=           0.
 Petite list used in FoFCou.
 Initial guess orbital symmetries:
       Occupied  (A) (A) (A) (A) (A) (A) (A) (A) (A) (A) (A) (A)
                 (A) (A) (A) (A) (A) (A) (A) (A) (A) (A) (A) (A)
                 (A) (A) (A) (A) (A) (A) (A) (A) (A) (A) (A) (A)
                 (A) (A) (A)
       Virtual   (A) (A) (A) (A) (A) (A) (A) (A) (A) (A) (A) (A)
                 (A) (A) (A) (A) (A) (A) (A) (A) (A) (A) (A) (A)
                 (A) (A) (A) (A) (A) (A) (A) (A) (A) (A) (A) (A)
                 (A) (A) (A) (A) (A) (A) (A) (A) (A) (A) (A) (A)
                 (A) (A) (A) (A) (A) (A) (A) (A) (A) (A) (A) (A)
                 (A) (A) (A) (A) (A) (A) (A) (A) (A) (A) (A) (A)
                 (A) (A) (A) (A) (A) (A) (A) (A) (A) (A) (A) (A)
                 (A) (A) (A) (A) (A) (A) (A) (A) (A) (A) (A) (A)
                 (A) (A) (A) (A) (A) (A) (A) (A) (A) (A) (A) (A)
                 (A) (A) (A) (A) (A) (A) (A) (A) (A) (A) (A) (A)
                 (A) (A) (A) (A) (A) (A) (A) (A) (A) (A) (A) (A)
                 (A) (A) (A) (A) (A) (A) (A) (A) (A) (A) (A) (A)
                 (A) (A) (A) (A) (A) (A) (A) (A) (A) (A) (A) (A)
                 (A) (A) (A) (A) (A) (A) (A) (A) (A) (A) (A) (A)
                 (A) (A) (A) (A) (A) (A) (A) (A) (A) (A) (A) (A)
                 (A) (A) (A) (A) (A) (A) (A) (A) (A) (A) (A) (A)
                 (A) (A) (A) (A) (A) (A) (A) (A) (A) (A) (A) (A)
                 (A) (A) (A) (A) (A) (A) (A) (A) (A) (A) (A) (A)
                 (A) (A) (A) (A) (A) (A) (A) (A) (A) (A) (A) (A)
                 (A) (A) (A) (A) (A) (A) (A) (A) (A) (A) (A) (A)
                 (A) (A) (A) (A) (A) (A) (A) (A) (A) (A) (A) (A)
                 (A) (A) (A) (A) (A) (A) (A) (A) (A) (A) (A) (A)
                 (A) (A) (A) (A) (A) (A) (A) (A) (A) (A) (A) (A)
                 (A) (A) (A) (A) (A) (A) (A) (A) (A) (A) (A) (A)
                 (A) (A) (A) (A) (A) (A) (A) (A) (A) (A) (A)
 The electronic state of the initial guess is 1-A.
 Requested convergence on RMS density matrix=1.00D-08 within 128 cycles.
 Requested convergence on MAX density matrix=1.00D-06.
 Requested convergence on             energy=1.00D-06.
 No special actions if energy rises.
 Initial convergence to 1.0D-05 achieved.  Increase integral accuracy.
 SCF Done:  E(RHF) =  -492.914099505     A.U. after   14 cycles
             Convg  =    0.9005D-08             -V/T =  2.0018
 ExpMin= 2.97D-02 ExpMax= 1.17D+04 ExpMxC= 4.01D+02 IAcc=3 IRadAn=         5 AccDes= 0.00D+00
 HarFok:  IExCor=  205 AccDes= 0.00D+00 IRadAn=         5 IDoV=-2
 ScaDFX=  1.000000  1.000000  1.000000  1.000000
 Range of M.O.s used for correlation:    11   338
 NBasis=   338 NAE=    39 NBE=    39 NFC=    10 NFV=     0
 NROrb=    328 NOA=    29 NOB=    29 NVA=   299 NVB=   299

 **** Warning!!: The largest alpha MO coefficient is  0.82123259D+02

 Disk-based method using OVN memory for 29 occupieds at a time.
 Estimated scratch disk usage=  1393503634 words.
 Actual    scratch disk usage=  1380579565 words.
 JobTyp=1 Pass  1:  I=   1 to  29 NPSUse=  8 ParTrn=T ParDer=T DoDerP=F.
 Spin components of T(2) and E(2):
     alpha-alpha T2 =       0.6805547815D-01 E2=     -0.2060373831D+00
     alpha-beta  T2 =       0.3773495822D+00 E2=     -0.1191951738D+01
     beta-beta   T2 =       0.6805547815D-01 E2=     -0.2060373831D+00
 ANorm=    0.1230227840D+01
 E2 =    -0.1604026504D+01 EUMP2 =    -0.49451812600906D+03

 **********************************************************************

            Population analysis using the SCF density.

 **********************************************************************

 Orbital symmetries:
       Occupied  (A) (A) (A) (A) (A) (A) (A) (A) (A) (A) (A) (A)
                 (A) (A) (A) (A) (A) (A) (A) (A) (A) (A) (A) (A)
                 (A) (A) (A) (A) (A) (A) (A) (A) (A) (A) (A) (A)
                 (A) (A) (A)
       Virtual   (A) (A) (A) (A) (A) (A) (A) (A) (A) (A) (A) (A)
                 (A) (A) (A) (A) (A) (A) (A) (A) (A) (A) (A) (A)
                 (A) (A) (A) (A) (A) (A) (A) (A) (A) (A) (A) (A)
                 (A) (A) (A) (A) (A) (A) (A) (A) (A) (A) (A) (A)
                 (A) (A) (A) (A) (A) (A) (A) (A) (A) (A) (A) (A)
                 (A) (A) (A) (A) (A) (A) (A) (A) (A) (A) (A) (A)
                 (A) (A) (A) (A) (A) (A) (A) (A) (A) (A) (A) (A)
                 (A) (A) (A) (A) (A) (A) (A) (A) (A) (A) (A) (A)
                 (A) (A) (A) (A) (A) (A) (A) (A) (A) (A) (A) (A)
                 (A) (A) (A) (A) (A) (A) (A) (A) (A) (A) (A) (A)
                 (A) (A) (A) (A) (A) (A) (A) (A) (A) (A) (A) (A)
                 (A) (A) (A) (A) (A) (A) (A) (A) (A) (A) (A) (A)
                 (A) (A) (A) (A) (A) (A) (A) (A) (A) (A) (A) (A)
                 (A) (A) (A) (A) (A) (A) (A) (A) (A) (A) (A) (A)
                 (A) (A) (A) (A) (A) (A) (A) (A) (A) (A) (A) (A)
                 (A) (A) (A) (A) (A) (A) (A) (A) (A) (A) (A) (A)
                 (A) (A) (A) (A) (A) (A) (A) (A) (A) (A) (A) (A)
                 (A) (A) (A) (A) (A) (A) (A) (A) (A) (A) (A) (A)
                 (A) (A) (A) (A) (A) (A) (A) (A) (A) (A) (A) (A)
                 (A) (A) (A) (A) (A) (A) (A) (A) (A) (A) (A) (A)
                 (A) (A) (A) (A) (A) (A) (A) (A) (A) (A) (A) (A)
                 (A) (A) (A) (A) (A) (A) (A) (A) (A) (A) (A) (A)
                 (A) (A) (A) (A) (A) (A) (A) (A) (A) (A) (A) (A)
                 (A) (A) (A) (A) (A) (A) (A) (A) (A) (A) (A) (A)
                 (A) (A) (A) (A) (A) (A) (A) (A) (A) (A) (A)
 The electronic state is 1-A.
 Alpha  occ. eigenvalues --  -20.53295 -20.52056 -15.59976 -15.58422 -11.36467
 Alpha  occ. eigenvalues --  -11.35425 -11.29821 -11.25577 -11.24742 -11.24296
 Alpha  occ. eigenvalues --   -1.39076  -1.37244  -1.23905  -1.22194  -1.05621
 Alpha  occ. eigenvalues --   -0.99341  -0.94297  -0.88454  -0.80414  -0.76795
 Alpha  occ. eigenvalues --   -0.70922  -0.69242  -0.64740  -0.64058  -0.61957
 Alpha  occ. eigenvalues --   -0.60895  -0.59697  -0.57527  -0.57008  -0.56233
 Alpha  occ. eigenvalues --   -0.54412  -0.54092  -0.52702  -0.52100  -0.49339
 Alpha  occ. eigenvalues --   -0.42422  -0.41968  -0.39856  -0.38532
 Alpha virt. eigenvalues --    0.02770   0.03762   0.04238   0.04657   0.05674
 Alpha virt. eigenvalues --    0.06182   0.06312   0.06839   0.07333   0.08097
 Alpha virt. eigenvalues --    0.08723   0.09798   0.10460   0.12001   0.12696
 Alpha virt. eigenvalues --    0.14058   0.14199   0.14386   0.14953   0.15410
 Alpha virt. eigenvalues --    0.15530   0.16395   0.16444   0.17156   0.17590
 Alpha virt. eigenvalues --    0.17916   0.18238   0.18374   0.18507   0.19213
 Alpha virt. eigenvalues --    0.19894   0.20276   0.21075   0.21451   0.22267
 Alpha virt. eigenvalues --    0.23312   0.24229   0.24690   0.25583   0.26030
 Alpha virt. eigenvalues --    0.27596   0.28471   0.29100   0.29302   0.29957
 Alpha virt. eigenvalues --    0.31398   0.32423   0.33042   0.33452   0.34575
 Alpha virt. eigenvalues --    0.34842   0.35576   0.36239   0.36698   0.38151
 Alpha virt. eigenvalues --    0.38344   0.38941   0.39544   0.40069   0.40677
 Alpha virt. eigenvalues --    0.41097   0.42255   0.42837   0.43151   0.43288
 Alpha virt. eigenvalues --    0.43829   0.44526   0.44880   0.45476   0.46365
 Alpha virt. eigenvalues --    0.46927   0.47353   0.47690   0.48185   0.49644
 Alpha virt. eigenvalues --    0.50209   0.51143   0.51369   0.52097   0.52708
 Alpha virt. eigenvalues --    0.53731   0.54280   0.55287   0.55765   0.56182
 Alpha virt. eigenvalues --    0.56726   0.56885   0.57719   0.58735   0.58916
 Alpha virt. eigenvalues --    0.59436   0.59707   0.60867   0.61633   0.61974
 Alpha virt. eigenvalues --    0.63130   0.63946   0.64014   0.64719   0.65591
 Alpha virt. eigenvalues --    0.66259   0.66522   0.67365   0.67498   0.68120
 Alpha virt. eigenvalues --    0.69515   0.70442   0.70643   0.71140   0.72441
 Alpha virt. eigenvalues --    0.73171   0.73513   0.74213   0.74971   0.75545
 Alpha virt. eigenvalues --    0.75827   0.76934   0.78641   0.79277   0.80270
 Alpha virt. eigenvalues --    0.81549   0.81969   0.82712   0.83102   0.83820
 Alpha virt. eigenvalues --    0.84984   0.85261   0.86693   0.87289   0.87858
 Alpha virt. eigenvalues --    0.89439   0.90614   0.91163   0.92840   0.93296
 Alpha virt. eigenvalues --    0.95210   0.96356   0.97571   0.98541   0.99046
 Alpha virt. eigenvalues --    0.99959   1.01522   1.02348   1.04493   1.05066
 Alpha virt. eigenvalues --    1.06328   1.08284   1.08982   1.10876   1.11414
 Alpha virt. eigenvalues --    1.12086   1.13899   1.14177   1.15882   1.16863
 Alpha virt. eigenvalues --    1.17616   1.19120   1.19311   1.21608   1.22918
 Alpha virt. eigenvalues --    1.24739   1.26169   1.27169   1.29081   1.30633
 Alpha virt. eigenvalues --    1.32676   1.34044   1.36232   1.37099   1.39098
 Alpha virt. eigenvalues --    1.41152   1.42357   1.43874   1.47005   1.49034
 Alpha virt. eigenvalues --    1.49588   1.52794   1.53799   1.54555   1.57800
 Alpha virt. eigenvalues --    1.57964   1.58776   1.60915   1.62624   1.63848
 Alpha virt. eigenvalues --    1.66759   1.67983   1.69359   1.71559   1.74131
 Alpha virt. eigenvalues --    1.75895   1.77177   1.78719   1.81136   1.81682
 Alpha virt. eigenvalues --    1.82702   1.84953   1.86699   1.88056   1.89314
 Alpha virt. eigenvalues --    1.91299   1.91819   1.92004   1.93233   1.94091
 Alpha virt. eigenvalues --    1.95000   1.96642   1.98198   1.99398   2.01524
 Alpha virt. eigenvalues --    2.03738   2.04434   2.05855   2.07329   2.10821
 Alpha virt. eigenvalues --    2.12320   2.13661   2.16151   2.16692   2.18388
 Alpha virt. eigenvalues --    2.19238   2.21019   2.22829   2.23597   2.24984
 Alpha virt. eigenvalues --    2.25655   2.26863   2.28025   2.30541   2.32060
 Alpha virt. eigenvalues --    2.32724   2.33875   2.36637   2.37820   2.38292
 Alpha virt. eigenvalues --    2.40334   2.42733   2.43278   2.46084   2.47435
 Alpha virt. eigenvalues --    2.48587   2.48830   2.51758   2.52132   2.52717
 Alpha virt. eigenvalues --    2.53445   2.55183   2.55693   2.59902   2.60787
 Alpha virt. eigenvalues --    2.62306   2.65358   2.67724   2.67771   2.69672
 Alpha virt. eigenvalues --    2.71290   2.72813   2.74172   2.79113   2.79762
 Alpha virt. eigenvalues --    2.80669   2.84204   2.87054   2.87806   2.88152
 Alpha virt. eigenvalues --    2.89845   2.94161   2.95688   2.97591   2.99483
 Alpha virt. eigenvalues --    3.02530   3.04032   3.04324   3.07554   3.07805
 Alpha virt. eigenvalues --    3.11499   3.12570   3.15866   3.16953   3.23537
 Alpha virt. eigenvalues --    3.27112   3.31120   3.42882   3.48271   3.57225
 Alpha virt. eigenvalues --    3.61838   3.64385   3.77678   3.82310   3.88323
 Alpha virt. eigenvalues --    3.89170   3.93159   3.96314   3.97340   4.03350
 Alpha virt. eigenvalues --    4.10656   4.18391   4.22777   4.34652
          Condensed to atoms (all electrons):
              1          2          3          4          5          6
     1  H    0.811052   0.385208  -0.100800  -0.055893  -0.073492   0.016849
     2  C    0.385208   4.565063   0.322314   0.344735   0.103028  -0.042446
     3  H   -0.100800   0.322314   0.994941  -0.066342   0.081184   0.001294
     4  H   -0.055893   0.344735  -0.066342   0.704311  -0.056698   0.016722
     5  C   -0.073492   0.103028   0.081184  -0.056698   5.319108   0.164696
     6  O    0.016849  -0.042446   0.001294   0.016722   0.164696   8.729835
     7  N    0.039541   0.093101  -0.154548   0.041130  -0.068960  -0.131780
     8  H   -0.005319  -0.061554   0.016880  -0.003957  -0.064263  -0.001084
     9  C   -0.000007  -0.152908  -0.005610  -0.008713   0.096172   0.087481
    10  H    0.001005   0.013706   0.001290  -0.001368  -0.020761   0.009243
    11  C   -0.002161   0.003232  -0.007322   0.004238  -0.031553  -0.009251
    12  H   -0.000763  -0.003112  -0.001443   0.000018  -0.014424   0.008287
    13  H    0.000056   0.002310  -0.000459   0.000178  -0.002862   0.000232
    14  H   -0.000027   0.001660   0.000133   0.000697   0.000735  -0.003646
    15  C    0.005416   0.046067  -0.014771   0.001792  -0.205371   0.009268
    16  O    0.000041   0.000390   0.001113   0.001213   0.061643  -0.004229
    17  N   -0.000060   0.009225   0.000776   0.000744   0.048904  -0.033612
    18  H   -0.000354  -0.003256   0.000327  -0.000252  -0.017904   0.006338
    19  C    0.000397   0.006927  -0.000039   0.000487  -0.002936   0.005041
    20  H    0.000100   0.000918  -0.000084   0.000032  -0.007088   0.001702
    21  H    0.000036   0.000253   0.000032   0.000045   0.001453  -0.001123
    22  H   -0.000362  -0.001427   0.000073  -0.000140   0.000117   0.004870
              7          8          9         10         11         12
     1  H    0.039541  -0.005319  -0.000007   0.001005  -0.002161  -0.000763
     2  C    0.093101  -0.061554  -0.152908   0.013706   0.003232  -0.003112
     3  H   -0.154548   0.016880  -0.005610   0.001290  -0.007322  -0.001443
     4  H    0.041130  -0.003957  -0.008713  -0.001368   0.004238   0.000018
     5  C   -0.068960  -0.064263   0.096172  -0.020761  -0.031553  -0.014424
     6  O   -0.131780  -0.001084   0.087481   0.009243  -0.009251   0.008287
     7  N    7.739193   0.286767  -0.541733  -0.025176   0.009613  -0.030353
     8  H    0.286767   0.924149   0.120868  -0.062522  -0.031835  -0.004765
     9  C   -0.541733   0.120868   7.984780  -0.325353  -0.001584  -0.065253
    10  H   -0.025176  -0.062522  -0.325353   1.356923  -0.001473   0.062910
    11  C    0.009613  -0.031835  -0.001584  -0.001473   4.334865   0.391697
    12  H   -0.030353  -0.004765  -0.065253   0.062910   0.391697   1.085417
    13  H    0.116206  -0.001155  -0.122805  -0.080500   0.322032  -0.167908
    14  H   -0.103996   0.008418   0.037349  -0.017328   0.259393  -0.231268
    15  C    0.210085  -0.052641  -0.772620   0.112116  -0.047435  -0.075496
    16  O   -0.049366   0.006128   0.151058  -0.000621  -0.003129   0.005077
    17  N    0.020570   0.003996  -0.118099   0.054459  -0.012465   0.022286
    18  H   -0.015350   0.000368   0.048719  -0.004445   0.025087   0.025193
    19  C    0.006970   0.000058  -0.145128   0.013140   0.004655   0.001953
    20  H    0.002587  -0.000236  -0.046689   0.000335   0.001508   0.002115
    21  H   -0.000047  -0.000219  -0.028094  -0.000450   0.008030   0.000040
    22  H   -0.003119   0.000230   0.055535   0.001938  -0.007512  -0.003754
             13         14         15         16         17         18
     1  H    0.000056  -0.000027   0.005416   0.000041  -0.000060  -0.000354
     2  C    0.002310   0.001660   0.046067   0.000390   0.009225  -0.003256
     3  H   -0.000459   0.000133  -0.014771   0.001113   0.000776   0.000327
     4  H    0.000178   0.000697   0.001792   0.001213   0.000744  -0.000252
     5  C   -0.002862   0.000735  -0.205371   0.061643   0.048904  -0.017904
     6  O    0.000232  -0.003646   0.009268  -0.004229  -0.033612   0.006338
     7  N    0.116206  -0.103996   0.210085  -0.049366   0.020570  -0.015350
     8  H   -0.001155   0.008418  -0.052641   0.006128   0.003996   0.000368
     9  C   -0.122805   0.037349  -0.772620   0.151058  -0.118099   0.048719
    10  H   -0.080500  -0.017328   0.112116  -0.000621   0.054459  -0.004445
    11  C    0.322032   0.259393  -0.047435  -0.003129  -0.012465   0.025087
    12  H   -0.167908  -0.231268  -0.075496   0.005077   0.022286   0.025193
    13  H    1.161142  -0.188012  -0.043679  -0.002209   0.019666  -0.011980
    14  H   -0.188012   1.276950   0.125493  -0.004789  -0.011796  -0.000542
    15  C   -0.043679   0.125493   5.577297  -0.034487  -0.020420  -0.044139
    16  O   -0.002209  -0.004789  -0.034487   8.927597  -0.090304   0.010353
    17  N    0.019666  -0.011796  -0.020420  -0.090304   7.293189   0.251649
    18  H   -0.011980  -0.000542  -0.044139   0.010353   0.251649   0.943099
    19  C   -0.000254   0.003926  -0.078518  -0.000354   0.245781  -0.122012
    20  H    0.000734  -0.000021   0.121154  -0.027389  -0.113644   0.009682
    21  H   -0.002201   0.001266  -0.027702   0.010500  -0.142415   0.002735
    22  H   -0.000958   0.000749  -0.031969   0.003364   0.133396  -0.002985
             19         20         21         22
     1  H    0.000397   0.000100   0.000036  -0.000362
     2  C    0.006927   0.000918   0.000253  -0.001427
     3  H   -0.000039  -0.000084   0.000032   0.000073
     4  H    0.000487   0.000032   0.000045  -0.000140
     5  C   -0.002936  -0.007088   0.001453   0.000117
     6  O    0.005041   0.001702  -0.001123   0.004870
     7  N    0.006970   0.002587  -0.000047  -0.003119
     8  H    0.000058  -0.000236  -0.000219   0.000230
     9  C   -0.145128  -0.046689  -0.028094   0.055535
    10  H    0.013140   0.000335  -0.000450   0.001938
    11  C    0.004655   0.001508   0.008030  -0.007512
    12  H    0.001953   0.002115   0.000040  -0.003754
    13  H   -0.000254   0.000734  -0.002201  -0.000958
    14  H    0.003926  -0.000021   0.001266   0.000749
    15  C   -0.078518   0.121154  -0.027702  -0.031969
    16  O   -0.000354  -0.027389   0.010500   0.003364
    17  N    0.245781  -0.113644  -0.142415   0.133396
    18  H   -0.122012   0.009682   0.002735  -0.002985
    19  C    4.202581   0.415551   0.470914   0.245446
    20  H    0.415551   1.018319  -0.193710  -0.083154
    21  H    0.470914  -0.193710   1.286048  -0.189266
    22  H    0.245446  -0.083154  -0.189266   0.908977
 Mulliken atomic charges:
              1
     1  H   -0.020463
     2  C    0.366566
     3  H   -0.068939
     4  H    0.077021
     5  C    0.689272
     6  O   -0.834689
     7  N   -0.441335
     8  H   -0.078311
     9  C   -0.247366
    10  H   -0.087070
    11  C    0.791369
    12  H   -0.006453
    13  H    0.002425
    14  H   -0.155344
    15  C    1.240560
    16  O   -0.961600
    17  N   -0.561828
    18  H   -0.100331
    19  C    0.725414
    20  H   -0.102722
    21  H   -0.196125
    22  H   -0.030050
 Sum of Mulliken atomic charges =   0.00000
 Mulliken charges with hydrogens summed into heavy atoms:
              1
     2  C    0.354185
     5  C    0.689272
     6  O   -0.834689
     7  N   -0.519646
     9  C   -0.334436
    11  C    0.631997
    15  C    1.240560
    16  O   -0.961600
    17  N   -0.662159
    19  C    0.396517
 Sum of Mulliken charges with hydrogens summed into heavy atoms =   0.00000
 Electronic spatial extent (au):  <R**2>=           1626.1038
 Charge=              0.0000 electrons
 Dipole moment (field-independent basis, Debye):
    X=              1.5222    Y=              3.9624    Z=             -0.9467  Tot=              4.3490
 Quadrupole moment (field-independent basis, Debye-Ang):
   XX=            -48.5928   YY=            -61.2333   ZZ=            -65.1584
   XY=              1.1511   XZ=              7.2551   YZ=              2.1214
 Traceless Quadrupole moment (field-independent basis, Debye-Ang):
   XX=              9.7354   YY=             -2.9051   ZZ=             -6.8302
   XY=              1.1511   XZ=              7.2551   YZ=              2.1214
 Octapole moment (field-independent basis, Debye-Ang**2):
  XXX=             16.7524  YYY=              3.6216  ZZZ=             -6.8921  XYY=              0.7489
  XXY=             -9.6933  XXZ=             -2.4584  XZZ=              0.4765  YZZ=              7.8073
  YYZ=              4.2641  XYZ=             -0.8095
 Hexadecapole moment (field-independent basis, Debye-Ang**3):
 XXXX=          -1211.0719 YYYY=           -603.0491 ZZZZ=           -251.8654 XXXY=             12.6899
 XXXZ=             17.0324 YYYX=              9.0874 YYYZ=              6.3569 ZZZX=             13.1069
 ZZZY=              6.2212 XXYY=           -300.6416 XXZZ=           -248.3931 YYZZ=           -143.6836
 XXYZ=              6.8336 YYXZ=              8.9426 ZZXY=             -3.5719
 N-N= 5.678551980853D+02 E-N=-2.291288292858D+03  KE= 4.920520865273D+02
 1\1\GINC-NODE003\SP\RMP2-FC\Aug-CC-pVDZ\C6H12N2O2\STEBOSS\12-Feb-2017\
 0\\#SP MP2/aug-cc-pVDZ\\Single Point calculation at MP2\\0,1\H,0,3.477
 5,-1.5351,-0.8235\C,0,3.1599,-0.854,-0.0319\H,0,3.8451,-0.0005,0.0119\
 H,0,3.2171,-1.3904,0.923\C,0,1.7174,-0.4444,-0.2857\O,0,0.9291,-1.1583
 ,-0.8893\N,0,1.3765,0.806,0.1807\H,0,2.0728,1.2546,0.7622\C,0,-0.0067,
 1.2227,0.4658\H,0,-0.015,1.6062,1.4921\C,0,-0.4304,2.3503,-0.4862\H,0,
 -0.3716,2.0263,-1.5317\H,0,-1.4489,2.6902,-0.2711\H,0,0.2448,3.2058,-0
 .3781\C,0,-0.9608,0.0004,0.5391\O,0,-0.8519,-0.789,1.4668\N,0,-1.9973,
 -0.0319,-0.3498\H,0,-1.8632,0.4609,-1.2216\C,0,-2.8492,-1.2125,-0.3996
 \H,0,-3.1444,-1.4738,0.6179\H,0,-3.7407,-0.9862,-0.9905\H,0,-2.3261,-2
 .0724,-0.8369\\Version=EM64L-G09RevA.02\State=1-A\HF=-492.9140995\MP2=
 -494.518126\RMSD=9.005e-09\PG=C01 [X(C6H12N2O2)]\\@


 ALMOST ALL THE CHEMICAL PROCESSES WHICH OCCUR IN NATURE,
 WHETHER IN ANIMAL OR VEGETABLE ORGANISMS,
 OR IN THE NON-LIVING SURFACE OF THE EARTH ... 
 TAKE PLACE BETWEEN SUBSTANCES IN SOLUTION

                                    -- W. OSTWALD, 1890
 Job cpu time:  0 days 14 hours 29 minutes 37.2 seconds.
 File lengths (MBytes):  RWF=  10649 Int=      0 D2E=      0 Chk=      7 Scr=      2
 Normal termination of Gaussian 09 at Sun Feb 12 20:19:15 2017.
