 Entering Gaussian System, Link 0=g09
 Initial command:
 /home/steboss/Software/g09/l1.exe /tmp/Gau-23984.inp -scrdir=/tmp/
 Entering Link 1 = /home/steboss/Software/g09/l1.exe PID=     23986.
  
 Copyright (c) 1988,1990,1992,1993,1995,1998,2003,2009, Gaussian, Inc.
                  All Rights Reserved.
  
 This is part of the Gaussian(R) 09 program.  It is based on
 the Gaussian(R) 03 system (copyright 2003, Gaussian, Inc.),
 the Gaussian(R) 98 system (copyright 1998, Gaussian, Inc.),
 the Gaussian(R) 94 system (copyright 1995, Gaussian, Inc.),
 the Gaussian 92(TM) system (copyright 1992, Gaussian, Inc.),
 the Gaussian 90(TM) system (copyright 1990, Gaussian, Inc.),
 the Gaussian 88(TM) system (copyright 1988, Gaussian, Inc.),
 the Gaussian 86(TM) system (copyright 1986, Carnegie Mellon
 University), and the Gaussian 82(TM) system (copyright 1983,
 Carnegie Mellon University). Gaussian is a federally registered
 trademark of Gaussian, Inc.
  
 This software contains proprietary and confidential information,
 including trade secrets, belonging to Gaussian, Inc.
  
 This software is provided under written license and may be
 used, copied, transmitted, or stored only in accord with that
 written license.
  
 The following legend is applicable only to US Government
 contracts under FAR:
  
                    RESTRICTED RIGHTS LEGEND
  
 Use, reproduction and disclosure by the US Government is
 subject to restrictions as set forth in subparagraphs (a)
 and (c) of the Commercial Computer Software - Restricted
 Rights clause in FAR 52.227-19.
  
 Gaussian, Inc.
 340 Quinnipiac St., Bldg. 40, Wallingford CT 06492
  
  
 ---------------------------------------------------------------
 Warning -- This program may not be used in any manner that
 competes with the business of Gaussian, Inc. or will provide
 assistance to any competitor of Gaussian, Inc.  The licensee
 of this program is prohibited from giving any competitor of
 Gaussian, Inc. access to this program.  By using this program,
 the user acknowledges that Gaussian, Inc. is engaged in the
 business of creating and licensing software in the field of
 computational chemistry and represents and warrants to the
 licensee that it is not a competitor of Gaussian, Inc. and that
 it will not use this program in any manner prohibited above.
 ---------------------------------------------------------------
  

 Cite this work as:
 Gaussian 09, Revision A.02,
 M. J. Frisch, G. W. Trucks, H. B. Schlegel, G. E. Scuseria, 
 M. A. Robb, J. R. Cheeseman, G. Scalmani, V. Barone, B. Mennucci, 
 G. A. Petersson, H. Nakatsuji, M. Caricato, X. Li, H. P. Hratchian, 
 A. F. Izmaylov, J. Bloino, G. Zheng, J. L. Sonnenberg, M. Hada, 
 M. Ehara, K. Toyota, R. Fukuda, J. Hasegawa, M. Ishida, T. Nakajima, 
 Y. Honda, O. Kitao, H. Nakai, T. Vreven, J. A. Montgomery, Jr., 
 J. E. Peralta, F. Ogliaro, M. Bearpark, J. J. Heyd, E. Brothers, 
 K. N. Kudin, V. N. Staroverov, R. Kobayashi, J. Normand, 
 K. Raghavachari, A. Rendell, J. C. Burant, S. S. Iyengar, J. Tomasi, 
 M. Cossi, N. Rega, J. M. Millam, M. Klene, J. E. Knox, J. B. Cross, 
 V. Bakken, C. Adamo, J. Jaramillo, R. Gomperts, R. E. Stratmann, 
 O. Yazyev, A. J. Austin, R. Cammi, C. Pomelli, J. W. Ochterski, 
 R. L. Martin, K. Morokuma, V. G. Zakrzewski, G. A. Voth, 
 P. Salvador, J. J. Dannenberg, S. Dapprich, A. D. Daniels, 
 O. Farkas, J. B. Foresman, J. V. Ortiz, J. Cioslowski, 
 and D. J. Fox, Gaussian, Inc., Wallingford CT, 2009.
 
 ******************************************
 Gaussian 09:  EM64L-G09RevA.02 11-Jun-2009
                30-Dec-2016 
 ******************************************
 %chk=structure_210.chk
 ----------------------------------------------------------------------
 # b3lyp/6-31G* Opt=(ModRedundant, maxcycles=1000, calcfc) geom=nocrowd
 ----------------------------------------------------------------------
 1/6=1000,10=4,14=-1,18=120,19=15,26=3,38=1/1,3;
 2/9=110,12=1,17=6,18=5,40=1/2;
 3/5=1,6=6,7=1,11=2,16=1,25=1,30=1,71=2,74=-5/1,2,3;
 4//1;
 5/5=2,38=5/2;
 8/6=4,10=90,11=11/1;
 11/6=1,8=1,9=11,15=111,16=1/1,2,10;
 10/6=1,7=6,13=1/2;
 6/7=2,8=2,9=2,10=2,28=1/1;
 7/10=1,18=20,25=1/1,2,3,16;
 1/6=1000,10=4,14=-1,18=20,19=15/3(2);
 2/9=110,12=1/2;
 99//99;
 2/9=110,12=1/2;
 3/5=1,6=6,7=1,11=2,16=1,25=1,30=1,71=1,74=-5/1,2,3;
 4/5=5,16=3/1;
 5/5=2,38=5/2;
 7//1,2,3,16;
 1/6=1000,14=-1,18=20,19=15/3(-5);
 2/9=110,12=1/2;
 6/7=2,8=2,9=2,10=2,19=2,28=1/1;
 99/9=1/99;
 ------------------
 Phi Psi fixed scan
 ------------------
 Symbolic Z-matrix:
 Charge =  0 Multiplicity = 1
 H                     7.7691    1.        3.3308 
 C                     7.7691    2.09      3.3308 
 H                     8.7966    2.4538    3.3308 
 H                     7.2553    2.4538    4.2206 
 C                     7.0554    2.6408    2.0946 
 O                     6.5738    1.8774    1.2605 
 N                     6.9914    3.9696    1.9838 
 H                     7.4025    4.5561    2.6959 
 C                     6.3424    4.6139    0.8598 
 H                     6.8359    4.3155   -0.0652 
 C                     4.8714    4.2208    0.7761 
 H                     4.3618    4.5213    1.6916 
 H                     4.4096    4.7189   -0.0764 
 H                     4.7897    3.1409    0.6532 
 C                     6.4127    6.1294    0.9815 
 O                     6.9688    6.6527    1.9446 
 N                     5.846     6.8349    0. 
 H                     5.4006    6.3592   -0.7716 
 C                     5.8461    8.2839    0. 
 H                     5.3323    8.6477   -0.8898 
 C                     5.1347    8.8329    1.2322 
 H                     5.6431    8.4846    2.1312 
 H                     5.1499    9.9224    1.2058 
 H                     4.1019    8.4846    1.2414 
 C                     7.266     8.8318    0. 
 O                     8.1781    8.2008   -0.5295 
 N                     7.4515    10.0114   0.5968 
 H                     6.67      10.4926   1.0185 
 C                     8.7559    10.639    0.6638 
 H                     9.4473    9.9853    1.1954 
 C                     9.3104    10.9029  -0.7321 
 H                     8.6334    11.5635  -1.2737 
 H                     10.2899   11.3742  -0.6514 
 H                     9.4048    9.9598   -1.2704 
 C                     8.6859    11.9714   1.396 
 O                     7.6168    12.3837   1.8403 
 N                     9.8314    12.6456   1.5211 
 H                     10.6854   12.2655   1.1388 
 C                     9.8966    13.9257   2.197 
 H                     8.9033    14.2008   2.5517 
 H                     10.5779   13.8551   3.0449 
 H                     10.2576   14.6853   1.5037 
 
 The following ModRedundant input section has been read:
 D   15   17   19   25 F                                                       
 D   17   19   25   27 F                                                       

 GradGradGradGradGradGradGradGradGradGradGradGradGradGradGradGradGradGrad
 Berny optimization.
 Initialization pass.
                           ----------------------------
                           !    Initial Parameters    !
                           ! (Angstroms and Degrees)  !
 --------------------------                            --------------------------
 ! Name  Definition              Value          Derivative Info.                !
 --------------------------------------------------------------------------------
 ! R1    R(1,2)                  1.09           calculate D2E/DX2 analytically  !
 ! R2    R(2,3)                  1.09           calculate D2E/DX2 analytically  !
 ! R3    R(2,4)                  1.09           calculate D2E/DX2 analytically  !
 ! R4    R(2,5)                  1.53           calculate D2E/DX2 analytically  !
 ! R5    R(5,6)                  1.229          calculate D2E/DX2 analytically  !
 ! R6    R(5,7)                  1.3349         calculate D2E/DX2 analytically  !
 ! R7    R(7,8)                  1.01           calculate D2E/DX2 analytically  !
 ! R8    R(7,9)                  1.449          calculate D2E/DX2 analytically  !
 ! R9    R(9,10)                 1.0901         calculate D2E/DX2 analytically  !
 ! R10   R(9,11)                 1.5249         calculate D2E/DX2 analytically  !
 ! R11   R(9,15)                 1.522          calculate D2E/DX2 analytically  !
 ! R12   R(11,12)                1.09           calculate D2E/DX2 analytically  !
 ! R13   R(11,13)                1.09           calculate D2E/DX2 analytically  !
 ! R14   R(11,14)                1.0899         calculate D2E/DX2 analytically  !
 ! R15   R(15,16)                1.2291         calculate D2E/DX2 analytically  !
 ! R16   R(15,17)                1.335          calculate D2E/DX2 analytically  !
 ! R17   R(17,18)                1.01           calculate D2E/DX2 analytically  !
 ! R18   R(17,19)                1.449          calculate D2E/DX2 analytically  !
 ! R19   R(19,20)                1.09           calculate D2E/DX2 analytically  !
 ! R20   R(19,21)                1.5251         calculate D2E/DX2 analytically  !
 ! R21   R(19,25)                1.5219         calculate D2E/DX2 analytically  !
 ! R22   R(21,22)                1.0899         calculate D2E/DX2 analytically  !
 ! R23   R(21,23)                1.0899         calculate D2E/DX2 analytically  !
 ! R24   R(21,24)                1.09           calculate D2E/DX2 analytically  !
 ! R25   R(25,26)                1.229          calculate D2E/DX2 analytically  !
 ! R26   R(25,27)                1.3349         calculate D2E/DX2 analytically  !
 ! R27   R(27,28)                1.01           calculate D2E/DX2 analytically  !
 ! R28   R(27,29)                1.4491         calculate D2E/DX2 analytically  !
 ! R29   R(29,30)                1.0899         calculate D2E/DX2 analytically  !
 ! R30   R(29,31)                1.525          calculate D2E/DX2 analytically  !
 ! R31   R(29,35)                1.5219         calculate D2E/DX2 analytically  !
 ! R32   R(31,32)                1.09           calculate D2E/DX2 analytically  !
 ! R33   R(31,33)                1.09           calculate D2E/DX2 analytically  !
 ! R34   R(31,34)                1.09           calculate D2E/DX2 analytically  !
 ! R35   R(35,36)                1.229          calculate D2E/DX2 analytically  !
 ! R36   R(35,37)                1.3351         calculate D2E/DX2 analytically  !
 ! R37   R(37,38)                1.0099         calculate D2E/DX2 analytically  !
 ! R38   R(37,39)                1.4491         calculate D2E/DX2 analytically  !
 ! R39   R(39,40)                1.09           calculate D2E/DX2 analytically  !
 ! R40   R(39,41)                1.09           calculate D2E/DX2 analytically  !
 ! R41   R(39,42)                1.0899         calculate D2E/DX2 analytically  !
 ! A1    A(1,2,3)              109.4972         calculate D2E/DX2 analytically  !
 ! A2    A(1,2,4)              109.4974         calculate D2E/DX2 analytically  !
 ! A3    A(1,2,5)              111.1            calculate D2E/DX2 analytically  !
 ! A4    A(3,2,4)              109.4481         calculate D2E/DX2 analytically  !
 ! A5    A(3,2,5)              108.6367         calculate D2E/DX2 analytically  !
 ! A6    A(4,2,5)              108.6348         calculate D2E/DX2 analytically  !
 ! A7    A(2,5,6)              120.4994         calculate D2E/DX2 analytically  !
 ! A8    A(2,5,7)              116.6003         calculate D2E/DX2 analytically  !
 ! A9    A(6,5,7)              122.9003         calculate D2E/DX2 analytically  !
 ! A10   A(5,7,8)              119.9996         calculate D2E/DX2 analytically  !
 ! A11   A(5,7,9)              121.9007         calculate D2E/DX2 analytically  !
 ! A12   A(8,7,9)              118.0998         calculate D2E/DX2 analytically  !
 ! A13   A(7,9,10)             109.4963         calculate D2E/DX2 analytically  !
 ! A14   A(7,9,11)             111.1004         calculate D2E/DX2 analytically  !
 ! A15   A(7,9,15)             111.102          calculate D2E/DX2 analytically  !
 ! A16   A(10,9,11)            108.6374         calculate D2E/DX2 analytically  !
 ! A17   A(10,9,15)            108.634          calculate D2E/DX2 analytically  !
 ! A18   A(11,9,15)            107.7959         calculate D2E/DX2 analytically  !
 ! A19   A(9,11,12)            109.5007         calculate D2E/DX2 analytically  !
 ! A20   A(9,11,13)            109.5005         calculate D2E/DX2 analytically  !
 ! A21   A(9,11,14)            109.5061         calculate D2E/DX2 analytically  !
 ! A22   A(12,11,13)           109.441          calculate D2E/DX2 analytically  !
 ! A23   A(12,11,14)           109.4392         calculate D2E/DX2 analytically  !
 ! A24   A(13,11,14)           109.4397         calculate D2E/DX2 analytically  !
 ! A25   A(9,15,16)            120.4974         calculate D2E/DX2 analytically  !
 ! A26   A(9,15,17)            116.6034         calculate D2E/DX2 analytically  !
 ! A27   A(16,15,17)           122.8992         calculate D2E/DX2 analytically  !
 ! A28   A(15,17,18)           119.9987         calculate D2E/DX2 analytically  !
 ! A29   A(15,17,19)           121.8998         calculate D2E/DX2 analytically  !
 ! A30   A(18,17,19)           118.1015         calculate D2E/DX2 analytically  !
 ! A31   A(17,19,20)           109.4954         calculate D2E/DX2 analytically  !
 ! A32   A(17,19,21)           111.0974         calculate D2E/DX2 analytically  !
 ! A33   A(17,19,25)           111.1042         calculate D2E/DX2 analytically  !
 ! A34   A(20,19,21)           108.6349         calculate D2E/DX2 analytically  !
 ! A35   A(20,19,25)           108.6399         calculate D2E/DX2 analytically  !
 ! A36   A(21,19,25)           107.7944         calculate D2E/DX2 analytically  !
 ! A37   A(19,21,22)           109.4996         calculate D2E/DX2 analytically  !
 ! A38   A(19,21,23)           109.4977         calculate D2E/DX2 analytically  !
 ! A39   A(19,21,24)           109.4988         calculate D2E/DX2 analytically  !
 ! A40   A(22,21,23)           109.4452         calculate D2E/DX2 analytically  !
 ! A41   A(22,21,24)           109.4447         calculate D2E/DX2 analytically  !
 ! A42   A(23,21,24)           109.4412         calculate D2E/DX2 analytically  !
 ! A43   A(19,25,26)           120.5009         calculate D2E/DX2 analytically  !
 ! A44   A(19,25,27)           116.5996         calculate D2E/DX2 analytically  !
 ! A45   A(26,25,27)           122.8994         calculate D2E/DX2 analytically  !
 ! A46   A(25,27,28)           120.0087         calculate D2E/DX2 analytically  !
 ! A47   A(25,27,29)           121.9017         calculate D2E/DX2 analytically  !
 ! A48   A(28,27,29)           118.0896         calculate D2E/DX2 analytically  !
 ! A49   A(27,29,30)           109.5001         calculate D2E/DX2 analytically  !
 ! A50   A(27,29,31)           111.0957         calculate D2E/DX2 analytically  !
 ! A51   A(27,29,35)           111.1006         calculate D2E/DX2 analytically  !
 ! A52   A(30,29,31)           108.6375         calculate D2E/DX2 analytically  !
 ! A53   A(30,29,35)           108.6385         calculate D2E/DX2 analytically  !
 ! A54   A(31,29,35)           107.7938         calculate D2E/DX2 analytically  !
 ! A55   A(29,31,32)           109.5034         calculate D2E/DX2 analytically  !
 ! A56   A(29,31,33)           109.4999         calculate D2E/DX2 analytically  !
 ! A57   A(29,31,34)           109.4999         calculate D2E/DX2 analytically  !
 ! A58   A(32,31,33)           109.4441         calculate D2E/DX2 analytically  !
 ! A59   A(32,31,34)           109.4379         calculate D2E/DX2 analytically  !
 ! A60   A(33,31,34)           109.4421         calculate D2E/DX2 analytically  !
 ! A61   A(29,35,36)           120.5068         calculate D2E/DX2 analytically  !
 ! A62   A(29,35,37)           116.5977         calculate D2E/DX2 analytically  !
 ! A63   A(36,35,37)           122.8955         calculate D2E/DX2 analytically  !
 ! A64   A(35,37,38)           120.0009         calculate D2E/DX2 analytically  !
 ! A65   A(35,37,39)           121.8996         calculate D2E/DX2 analytically  !
 ! A66   A(38,37,39)           118.0995         calculate D2E/DX2 analytically  !
 ! A67   A(37,39,40)           109.4957         calculate D2E/DX2 analytically  !
 ! A68   A(37,39,41)           109.4964         calculate D2E/DX2 analytically  !
 ! A69   A(37,39,42)           109.5035         calculate D2E/DX2 analytically  !
 ! A70   A(40,39,41)           109.439          calculate D2E/DX2 analytically  !
 ! A71   A(40,39,42)           109.4461         calculate D2E/DX2 analytically  !
 ! A72   A(41,39,42)           109.4465         calculate D2E/DX2 analytically  !
 ! D1    D(1,2,5,6)              0.0022         calculate D2E/DX2 analytically  !
 ! D2    D(1,2,5,7)            179.9987         calculate D2E/DX2 analytically  !
 ! D3    D(3,2,5,6)            120.5114         calculate D2E/DX2 analytically  !
 ! D4    D(3,2,5,7)            -59.4921         calculate D2E/DX2 analytically  !
 ! D5    D(4,2,5,6)           -120.5061         calculate D2E/DX2 analytically  !
 ! D6    D(4,2,5,7)             59.4904         calculate D2E/DX2 analytically  !
 ! D7    D(2,5,7,8)              0.0002         calculate D2E/DX2 analytically  !
 ! D8    D(2,5,7,9)           -179.997          calculate D2E/DX2 analytically  !
 ! D9    D(6,5,7,8)            179.9966         calculate D2E/DX2 analytically  !
 ! D10   D(6,5,7,9)             -0.0006         calculate D2E/DX2 analytically  !
 ! D11   D(5,7,9,10)           -60.0013         calculate D2E/DX2 analytically  !
 ! D12   D(5,7,9,11)            59.9987         calculate D2E/DX2 analytically  !
 ! D13   D(5,7,9,15)          -179.9979         calculate D2E/DX2 analytically  !
 ! D14   D(8,7,9,10)           120.0015         calculate D2E/DX2 analytically  !
 ! D15   D(8,7,9,11)          -119.9986         calculate D2E/DX2 analytically  !
 ! D16   D(8,7,9,15)             0.0048         calculate D2E/DX2 analytically  !
 ! D17   D(7,9,11,12)           60.0013         calculate D2E/DX2 analytically  !
 ! D18   D(7,9,11,13)         -179.9997         calculate D2E/DX2 analytically  !
 ! D19   D(7,9,11,14)          -59.999          calculate D2E/DX2 analytically  !
 ! D20   D(10,9,11,12)        -179.4899         calculate D2E/DX2 analytically  !
 ! D21   D(10,9,11,13)         -59.4908         calculate D2E/DX2 analytically  !
 ! D22   D(10,9,11,14)          60.5099         calculate D2E/DX2 analytically  !
 ! D23   D(15,9,11,12)         -61.9473         calculate D2E/DX2 analytically  !
 ! D24   D(15,9,11,13)          58.0517         calculate D2E/DX2 analytically  !
 ! D25   D(15,9,11,14)         178.0524         calculate D2E/DX2 analytically  !
 ! D26   D(7,9,15,16)           -0.0008         calculate D2E/DX2 analytically  !
 ! D27   D(7,9,15,17)          179.9993         calculate D2E/DX2 analytically  !
 ! D28   D(10,9,15,16)        -120.5084         calculate D2E/DX2 analytically  !
 ! D29   D(10,9,15,17)          59.4916         calculate D2E/DX2 analytically  !
 ! D30   D(11,9,15,16)         121.9468         calculate D2E/DX2 analytically  !
 ! D31   D(11,9,15,17)         -58.0532         calculate D2E/DX2 analytically  !
 ! D32   D(9,15,17,18)          -0.0073         calculate D2E/DX2 analytically  !
 ! D33   D(9,15,17,19)        -179.9972         calculate D2E/DX2 analytically  !
 ! D34   D(16,15,17,18)        179.9928         calculate D2E/DX2 analytically  !
 ! D35   D(16,15,17,19)          0.0029         calculate D2E/DX2 analytically  !
 ! D36   D(15,17,19,20)       -179.9987         calculate D2E/DX2 analytically  !
 ! D37   D(15,17,19,21)        -60.0044         calculate D2E/DX2 analytically  !
 ! D38   D(15,17,19,25)         59.9965         frozen, calculate D2E/DX2 analyt!
 ! D39   D(18,17,19,20)          0.0113         calculate D2E/DX2 analytically  !
 ! D40   D(18,17,19,21)        120.0055         calculate D2E/DX2 analytically  !
 ! D41   D(18,17,19,25)       -119.9935         calculate D2E/DX2 analytically  !
 ! D42   D(17,19,21,22)         60.0039         calculate D2E/DX2 analytically  !
 ! D43   D(17,19,21,23)       -179.9943         calculate D2E/DX2 analytically  !
 ! D44   D(17,19,21,24)        -59.998          calculate D2E/DX2 analytically  !
 ! D45   D(20,19,21,22)       -179.4919         calculate D2E/DX2 analytically  !
 ! D46   D(20,19,21,23)        -59.4901         calculate D2E/DX2 analytically  !
 ! D47   D(20,19,21,24)         60.5062         calculate D2E/DX2 analytically  !
 ! D48   D(25,19,21,22)        -61.9445         calculate D2E/DX2 analytically  !
 ! D49   D(25,19,21,23)         58.0573         calculate D2E/DX2 analytically  !
 ! D50   D(25,19,21,24)        178.0536         calculate D2E/DX2 analytically  !
 ! D51   D(17,19,25,26)         30.0019         calculate D2E/DX2 analytically  !
 ! D52   D(17,19,25,27)       -150.001          frozen, calculate D2E/DX2 analyt!
 ! D53   D(20,19,25,26)        -90.5097         calculate D2E/DX2 analytically  !
 ! D54   D(20,19,25,27)         89.4873         calculate D2E/DX2 analytically  !
 ! D55   D(21,19,25,26)        151.9461         calculate D2E/DX2 analytically  !
 ! D56   D(21,19,25,27)        -28.0569         calculate D2E/DX2 analytically  !
 ! D57   D(19,25,27,28)          0.0052         calculate D2E/DX2 analytically  !
 ! D58   D(19,25,27,29)        179.9973         calculate D2E/DX2 analytically  !
 ! D59   D(26,25,27,28)       -179.9978         calculate D2E/DX2 analytically  !
 ! D60   D(26,25,27,29)         -0.0057         calculate D2E/DX2 analytically  !
 ! D61   D(25,27,29,30)        -59.9958         calculate D2E/DX2 analytically  !
 ! D62   D(25,27,29,31)         60.0037         calculate D2E/DX2 analytically  !
 ! D63   D(25,27,29,35)       -179.9996         calculate D2E/DX2 analytically  !
 ! D64   D(28,27,29,30)        119.9965         calculate D2E/DX2 analytically  !
 ! D65   D(28,27,29,31)       -120.0041         calculate D2E/DX2 analytically  !
 ! D66   D(28,27,29,35)         -0.0073         calculate D2E/DX2 analytically  !
 ! D67   D(27,29,31,32)         59.9979         calculate D2E/DX2 analytically  !
 ! D68   D(27,29,31,33)       -179.998          calculate D2E/DX2 analytically  !
 ! D69   D(27,29,31,34)        -59.9986         calculate D2E/DX2 analytically  !
 ! D70   D(30,29,31,32)       -179.4914         calculate D2E/DX2 analytically  !
 ! D71   D(30,29,31,33)        -59.4874         calculate D2E/DX2 analytically  !
 ! D72   D(30,29,31,34)         60.5121         calculate D2E/DX2 analytically  !
 ! D73   D(35,29,31,32)        -61.9447         calculate D2E/DX2 analytically  !
 ! D74   D(35,29,31,33)         58.0594         calculate D2E/DX2 analytically  !
 ! D75   D(35,29,31,34)        178.0588         calculate D2E/DX2 analytically  !
 ! D76   D(27,29,35,36)          0.0039         calculate D2E/DX2 analytically  !
 ! D77   D(27,29,35,37)       -179.9993         calculate D2E/DX2 analytically  !
 ! D78   D(30,29,35,36)       -120.5105         calculate D2E/DX2 analytically  !
 ! D79   D(30,29,35,37)         59.4864         calculate D2E/DX2 analytically  !
 ! D80   D(31,29,35,36)        121.9435         calculate D2E/DX2 analytically  !
 ! D81   D(31,29,35,37)        -58.0597         calculate D2E/DX2 analytically  !
 ! D82   D(29,35,37,38)          0.0062         calculate D2E/DX2 analytically  !
 ! D83   D(29,35,37,39)        179.9986         calculate D2E/DX2 analytically  !
 ! D84   D(36,35,37,38)       -179.9971         calculate D2E/DX2 analytically  !
 ! D85   D(36,35,37,39)         -0.0047         calculate D2E/DX2 analytically  !
 ! D86   D(35,37,39,40)          0.0069         calculate D2E/DX2 analytically  !
 ! D87   D(35,37,39,41)        119.9979         calculate D2E/DX2 analytically  !
 ! D88   D(35,37,39,42)       -119.9972         calculate D2E/DX2 analytically  !
 ! D89   D(38,37,39,40)        179.9994         calculate D2E/DX2 analytically  !
 ! D90   D(38,37,39,41)        -60.0096         calculate D2E/DX2 analytically  !
 ! D91   D(38,37,39,42)         59.9953         calculate D2E/DX2 analytically  !
 --------------------------------------------------------------------------------
 Trust Radius=3.00D-01 FncErr=1.00D-07 GrdErr=1.00D-06
 Number of steps in this run= 252 maximum allowed number of steps= 252.
 GradGradGradGradGradGradGradGradGradGradGradGradGradGradGradGradGradGrad

                          Input orientation:                          
 ---------------------------------------------------------------------
 Center     Atomic      Atomic             Coordinates (Angstroms)
 Number     Number       Type             X           Y           Z
 ---------------------------------------------------------------------
      1          1           0        7.769100    1.000000    3.330800
      2          6           0        7.769100    2.090000    3.330800
      3          1           0        8.796600    2.453800    3.330800
      4          1           0        7.255300    2.453800    4.220600
      5          6           0        7.055400    2.640800    2.094600
      6          8           0        6.573800    1.877400    1.260500
      7          7           0        6.991400    3.969600    1.983800
      8          1           0        7.402500    4.556100    2.695900
      9          6           0        6.342400    4.613900    0.859800
     10          1           0        6.835900    4.315500   -0.065200
     11          6           0        4.871400    4.220800    0.776100
     12          1           0        4.361800    4.521300    1.691600
     13          1           0        4.409600    4.718900   -0.076400
     14          1           0        4.789700    3.140900    0.653200
     15          6           0        6.412700    6.129400    0.981500
     16          8           0        6.968800    6.652700    1.944600
     17          7           0        5.846000    6.834900    0.000000
     18          1           0        5.400600    6.359200   -0.771600
     19          6           0        5.846100    8.283900    0.000000
     20          1           0        5.332300    8.647700   -0.889800
     21          6           0        5.134700    8.832900    1.232200
     22          1           0        5.643100    8.484600    2.131200
     23          1           0        5.149900    9.922400    1.205800
     24          1           0        4.101900    8.484600    1.241400
     25          6           0        7.266000    8.831800    0.000000
     26          8           0        8.178100    8.200800   -0.529500
     27          7           0        7.451500   10.011400    0.596800
     28          1           0        6.670000   10.492600    1.018500
     29          6           0        8.755900   10.639000    0.663800
     30          1           0        9.447300    9.985300    1.195400
     31          6           0        9.310400   10.902900   -0.732100
     32          1           0        8.633400   11.563500   -1.273700
     33          1           0       10.289900   11.374200   -0.651400
     34          1           0        9.404800    9.959800   -1.270400
     35          6           0        8.685900   11.971400    1.396000
     36          8           0        7.616800   12.383700    1.840300
     37          7           0        9.831400   12.645600    1.521100
     38          1           0       10.685400   12.265500    1.138800
     39          6           0        9.896600   13.925700    2.197000
     40          1           0        8.903300   14.200800    2.551700
     41          1           0       10.577900   13.855100    3.044900
     42          1           0       10.257600   14.685300    1.503700
 ---------------------------------------------------------------------
                    Distance matrix (angstroms):
                    1          2          3          4          5
     1  H    0.000000
     2  C    1.090000   0.000000
     3  H    1.780250   1.090003   0.000000
     4  H    1.780244   1.089993   1.779705   0.000000
     5  C    2.174806   1.530013   2.143580   2.143550   0.000000
     6  O    2.546510   2.400017   3.091799   3.091742   1.229000
     7  N    3.352275   2.439697   2.714923   2.714879   1.334946
     8  H    3.630887   2.572769   2.601207   2.601162   2.037257
     9  C    4.604518   3.809381   4.098167   4.098097   2.434384
    10  H    4.836964   4.166117   4.340863   4.691472   2.741813
    11  C    5.029583   4.411742   5.005594   4.546411   3.000783
    12  H    5.166839   4.495319   5.160328   4.363799   3.309708
    13  H    6.060154   5.459521   5.998788   5.629644   4.003998
    14  H    4.542006   4.141347   4.867946   4.390630   2.731507
    15  C    5.802566   4.865777   4.971139   4.971094   3.717847
    16  O    5.874951   4.835314   4.784680   4.784665   4.015637
    17  N    6.988462   6.107914   6.244542   6.244488   4.841536
    18  H    7.152657   6.376954   6.604139   6.604099   4.977948
    19  C    8.236951   7.290854   7.334149   7.334124   6.139571
    20  H    9.068560   8.170366   8.257072   8.257028   6.925212
    21  C    8.526342   7.537300   7.648957   7.356657   6.540254
    22  H    7.872620   6.844693   6.910438   6.582958   6.012148
    23  H    9.538609   8.527738   8.578696   8.324765   7.579089
    24  H    8.592624   7.661910   7.923153   7.429005   6.603114
    25  C    8.525516   7.536525   7.356348   7.648037   6.539127
    26  O    8.180508   7.239549   6.950717   7.512857   6.249796
    27  N    9.422365   8.385953   8.148703   8.383778   7.531669
    28  H    9.831796   8.783988   8.630844   8.672850   7.934563
    29  C   10.049726   9.009554   8.608835   9.049869   8.301210
    30  H    9.386794   8.349374   7.855370   8.407151   7.776338
    31  C   10.814351   9.825984   9.389272  10.006996   9.018734
    32  H   11.555776  10.568616  10.208560  10.727214   9.666959
    33  H   11.394577  10.411951   9.882378  10.607484   9.709520
    34  H   10.204145   9.261766   8.825020   9.545233   8.391106
    35  C   11.178354  10.110689   9.712899  10.030438   9.497719
    36  O   11.481873  10.402165  10.110214  10.217604   9.762374
    37  N   11.964451  10.906365  10.402818  10.853404  10.398611
    38  H   11.841502  10.809740  10.229462  10.841242  10.330794
    39  C   13.148592  12.078723  11.580155  11.944702  11.637520
    40  H   13.272322  12.188720  11.773291  11.978862  11.715685
    41  H   13.161485  12.099119  11.543154  11.933632  11.792862
    42  H   14.029197  12.968134  12.453209  12.884291  12.476908
                    6          7          8          9         10
     6  O    0.000000
     7  N    2.252744   0.000000
     8  H    3.150008   1.009986   0.000000
     9  C    2.775345   1.449034   2.120947   0.000000
    10  H    2.787563   2.083801   2.828886   1.090050   0.000000
    11  C    2.936721   2.452762   3.194452   1.524918   2.139162
    12  H    3.474046   2.702693   3.202450   2.150173   3.041360
    13  H    3.813815   3.386970   4.082842   2.150165   2.459632
    14  H    2.268977   2.702725   3.605848   2.150184   2.466317
    15  C    4.264188   2.450354   2.528665   1.522003   2.136566
    16  O    4.840197   2.683482   2.268982   2.392880   3.085363
    17  N    5.166755   3.668426   3.857914   2.432799   2.707680
    18  H    5.058889   3.979078   4.391165   2.567981   2.595341
    19  C    6.569753   4.884707   4.856619   3.801903   4.090496
    20  H    7.211246   5.735400   5.821010   4.511424   4.659263
    21  C    7.102872   5.259651   5.057307   4.404223   4.998423
    22  H    6.728998   4.714325   4.341369   4.133739   4.860899
    23  H    8.170221   6.279509   6.007644   5.451784   5.991274
    24  H    7.054484   5.411616   5.333164   4.488628   5.153965
    25  C    7.101527   5.258503   5.056493   4.402610   4.537202
    26  O    6.764855   5.062409   4.928346   4.262136   4.136742
    27  N    8.208094   6.216012   5.845419   5.516546   5.767190
    28  H    8.619135   6.601866   6.212267   5.889959   6.273635
    29  C    9.048936   7.024013   6.554601   6.493476   6.648646
    30  H    8.602284   6.545355   5.992405   6.213290   6.368293
    31  C    9.639455   7.799008   7.461443   7.134051   7.068362
    32  H   10.221774   8.424654   8.147177   7.622168   7.564720
    33  H   10.375643   8.523643   8.125760   7.972963   7.880291
    34  H    8.930017   7.231654   6.995764   6.518795   6.317426
    35  C   10.313494   8.200344   7.636984   7.740304   8.010644
    36  O   10.573853   8.438530   7.877138   7.934436   8.326859
    37  N   11.253177   9.140715   8.527586   8.781722   8.993327
    38  H   11.172855   9.120396   8.522725   8.802640   8.914638
    39  C   12.533139  10.373503   9.708699  10.056344  10.336410
    40  H   12.607932  10.423787   9.761836  10.066250  10.432711
    41  H   12.754693  10.569391   9.832414  10.397783  10.708840
    42  H   13.329360  11.212706  10.591205  10.824809  11.031873
                   11         12         13         14         15
    11  C    0.000000
    12  H    1.090015   0.000000
    13  H    1.090009   1.779650   0.000000
    14  H    1.089937   1.779572   1.779572   0.000000
    15  C    2.461818   2.701188   2.668534   3.416583   0.000000
    16  O    3.417399   3.376881   3.791244   4.330003   1.229086
    17  N    2.895806   3.227554   2.558620   3.897188   1.334999
    18  H    2.692245   3.244123   2.038619   3.572213   2.037281
    19  C    4.249842   4.384269   3.844294   5.290851   2.434389
    20  H    4.752378   4.963131   4.116851   5.744572   3.318262
    21  C    4.642071   4.404352   4.377579   5.731765   3.000841
    22  H    4.540023   4.188404   4.536024   5.609626   2.731494
    23  H    5.724548   5.479871   5.410036   6.813505   4.003976
    24  H    4.357594   3.997246   4.001471   5.419795   3.309730
    25  C    5.253357   5.465922   5.008074   6.240599   2.999071
    26  O    5.336596   5.747708   5.150779   6.203436   3.112950
    27  N    6.341933   6.394219   6.141409   7.368319   4.036957
    28  H    6.529104   6.437179   6.296334   7.597135   4.370937
    29  C    7.503016   7.602022   7.381450   8.482474   5.091956
    30  H    7.371847   7.480897   7.398031   8.296567   4.911468
    31  C    8.162711   8.431357   7.917679   9.088698   5.841181
    32  H    8.501151   8.753979   8.131578   9.456594   6.288631
    33  H    9.086750   9.359180   8.899526   9.987062   6.723613
    34  H    7.594472   7.986399   7.337894   8.455577   5.356835
    35  C    8.660629   8.619119   8.547132   9.680385   6.282373
    36  O    8.677712   8.510844   8.526959   9.738124   6.426793
    37  N    9.804789   9.795399   9.735527  10.794041   7.378316
    38  H    9.932338  10.013298   9.890073  10.874438   7.478799
    39  C   11.020738  10.923927  10.956308  12.032276   8.625387
    40  H   10.909142  10.726496  10.816962  11.951878   8.591630
    41  H   11.425031  11.295625  11.456901  12.410382   9.016260
    42  H   11.791790  11.751709  11.662973  12.802127   9.394646
                   16         17         18         19         20
    16  O    0.000000
    17  N    2.252853   0.000000
    18  H    3.150101   1.009969   0.000000
    19  C    2.775381   1.449000   2.120921   0.000000
    20  H    3.833012   2.083717   2.292568   1.089993   0.000000
    21  C    2.936785   2.452808   3.194544   1.525060   2.139212
    22  H    2.268955   2.702719   3.605881   2.150233   3.041322
    23  H    3.813812   3.386911   4.082812   2.150193   2.459608
    24  H    3.474113   2.702678   3.202517   2.150253   2.466272
    25  C    2.935690   2.450308   3.191995   1.521943   2.136547
    26  O    3.159144   2.754041   3.341348   2.392802   2.903121
    27  N    3.651086   3.608871   4.406504   2.432640   2.925862
    28  H    3.961284   3.885240   4.679832   2.567978   2.972323
    29  C    4.552446   4.835217   5.624509   3.801850   4.254408
    30  H    4.220247   4.931872   5.778708   4.158411   4.803172
    31  C    5.541842   5.393205   5.994440   4.404146   4.575596
    32  H    6.102811   5.634853   6.147181   4.488555   4.421146
    33  H    6.329414   6.385751   7.004993   5.451755   5.662900
    34  H    5.216055   4.903465   5.408025   4.133631   4.295546
    35  C    5.615867   6.033032   6.854814   4.859109   5.245807
    36  O    5.768461   6.108324   6.930236   4.830160   5.160434
    37  N    6.654974   7.208425   8.025415   6.100884   6.483637
    38  H    6.779820   7.362613   8.152492   6.369366   6.771955
    39  C    7.844249   8.456572   9.288623   7.284454   7.630102
    40  H    7.815669   8.373454   9.208904   7.132135   7.445326
    41  H    8.130857   8.996972   9.877177   7.918309   8.373482
    42  H    8.690987   9.129738   9.904109   7.918356   8.151076
                   21         22         23         24         25
    21  C    0.000000
    22  H    1.089947   0.000000
    23  H    1.089926   1.779573   0.000000
    24  H    1.089988   1.779618   1.779562   0.000000
    25  C    2.461861   2.701179   2.668565   3.416599   0.000000
    26  O    3.572873   3.685932   3.891679   4.453317   1.229007
    27  N    2.675847   2.820605   2.382470   3.737171   1.334929
    28  H    2.270995   2.514893   1.634293   3.267550   2.037355
    29  C    4.086339   4.060077   3.716250   5.160889   2.434421
    30  H    4.464068   4.195207   4.297873   5.552253   2.741827
    31  C    5.057652   5.243639   4.693250   6.072178   3.000833
    32  H    5.096726   5.478582   4.579946   6.028254   3.309725
    33  H    6.048326   6.138844   5.654778   7.086877   4.004009
    34  H    5.076088   5.281807   4.923123   6.050298   2.731440
    35  C    4.742155   4.685822   4.091195   5.761487   3.717798
    36  O    4.374790   4.379851   3.542059   5.283577   4.015689
    37  N    6.056330   5.935318   5.425097   7.086559   4.841497
    38  H    6.527001   6.380035   6.011353   7.592641   4.977897
    39  C    7.038689   6.906675   6.288088   8.006078   6.139600
    40  H    6.690125   6.593987   5.848433   7.579266   6.165881
    41  H    7.624749   7.350467   6.950655   8.604270   6.743415
    42  H    7.782570   7.754744   6.990176   8.741288   6.743460
                   26         27         28         29         30
    26  O    0.000000
    27  N    2.252725   0.000000
    28  H    3.150082   1.010013   0.000000
    29  C    2.775362   1.449079   2.120902   0.000000
    30  H    2.787578   2.083800   2.828788   1.089934   0.000000
    31  C    2.936749   2.452806   3.194473   1.525008   2.139156
    32  H    3.474030   2.702716   3.202491   2.150259   3.041316
    33  H    3.813794   3.386996   4.082825   2.150215   2.459611
    34  H    2.268878   2.702680   3.605838   2.150236   2.466298
    35  C    4.264134   2.450319   2.528479   1.521942   2.136484
    36  O    4.840213   2.683547   2.268930   2.392839   3.085279
    37  N    5.166683   3.668414   3.857780   2.432716   2.707547
    38  H    5.058811   3.979050   4.391023   2.567897   2.595266
    39  C    6.569743   4.884762   4.856540   3.801881   4.090455
    40  H    6.783783   4.845661   4.592285   4.033895   4.461606
    41  H    7.106791   5.526446   5.539349   4.396888   4.435567
    42  H    7.106825   5.526482   5.539407   4.396940   4.779292
                   31         32         33         34         35
    31  C    0.000000
    32  H    1.089978   0.000000
    33  H    1.089980   1.779630   0.000000
    34  H    1.090007   1.779585   1.779632   0.000000
    35  C    2.461809   2.701192   2.668578   3.416583   0.000000
    36  O    3.417352   3.376862   3.791190   4.329976   1.228971
    37  N    2.895748   3.227546   2.558600   3.897176   1.335053
    38  H    2.692131   3.244020   2.038542   3.572175   2.037314
    39  C    4.249774   4.384224   3.844245   5.290850   2.434478
    40  H    4.671747   4.654233   4.491345   5.731146   2.520542
    41  H    4.958606   5.261446   4.460991   5.930543   3.137971
    42  H    4.494723   4.483036   3.950808   5.545561   3.138008
                   36         37         38         39         40
    36  O    0.000000
    37  N    2.252761   0.000000
    38  H    3.149981   1.009923   0.000000
    39  C    2.775335   1.449051   2.120909   0.000000
    40  H    2.337311   2.083783   2.986227   1.090017   0.000000
    41  H    3.519118   2.083775   2.484271   1.089995   1.779618
    42  H    3.519160   2.083825   2.484270   1.089944   1.779655
                   41         42
    41  H    0.000000
    42  H    1.779641   0.000000
 Stoichiometry    C12H22N4O4
 Framework group  C1[X(C12H22N4O4)]
 Deg. of freedom   120
 Full point group                 C1      NOp   1
 Largest Abelian subgroup         C1      NOp   1
 Largest concise Abelian subgroup C1      NOp   1
                         Standard orientation:                         
 ---------------------------------------------------------------------
 Center     Atomic      Atomic             Coordinates (Angstroms)
 Number     Number       Type             X           Y           Z
 ---------------------------------------------------------------------
      1          1           0       -6.595454    2.838055   -0.239516
      2          6           0       -5.544500    2.645829   -0.455495
      3          1           0       -4.928373    3.398110    0.037016
      4          1           0       -5.380294    2.690364   -1.532128
      5          6           0       -5.122911    1.263397    0.046582
      6          8           0       -5.932844    0.530761    0.610225
      7          7           0       -3.851533    0.913832   -0.161949
      8          1           0       -3.222984    1.550767   -0.630256
      9          6           0       -3.329876   -0.368494    0.266084
     10          1           0       -3.434137   -0.461143    1.347174
     11          6           0       -4.083724   -1.516634   -0.396382
     12          1           0       -3.981022   -1.442668   -1.479024
     13          1           0       -3.671121   -2.466697   -0.056885
     14          1           0       -5.138599   -1.462510   -0.127544
     15          6           0       -1.857878   -0.509194   -0.094357
     16          8           0       -1.268012    0.399926   -0.674194
     17          7           0       -1.264585   -1.654131    0.251110
     18          1           0       -1.791560   -2.372428    0.726909
     19          6           0        0.132533   -1.909588   -0.035948
     20          1           0        0.404476   -2.898955    0.331862
     21          6           0        0.403545   -1.855798   -1.535771
     22          1           0        0.144595   -0.868110   -1.917087
     23          1           0        1.459539   -2.051196   -1.721870
     24          1           0       -0.199564   -2.609679   -2.041733
     25          6           0        1.027507   -0.877978    0.635703
     26          8           0        0.686724   -0.349582    1.691696
     27          7           0        2.176627   -0.591883    0.019497
     28          1           0        2.413230   -1.052718   -0.847554
     29          6           0        3.114560    0.372821    0.557508
     30          1           0        2.630654    1.346327    0.635468
     31          6           0        3.596718   -0.044102    1.942914
     32          1           0        4.091601   -1.013192    1.879616
     33          1           0        4.299213    0.697965    2.322248
     34          1           0        2.744371   -0.115513    2.618577
     35          6           0        4.336824    0.507616   -0.339268
     36          8           0        4.431353   -0.156461   -1.369042
     37          7           0        5.275133    1.371597    0.055039
     38          1           0        5.152346    1.895100    0.909915
     39          6           0        6.485296    1.590335   -0.711386
     40          1           0        6.472540    0.958628   -1.599599
     41          1           0        6.541844    2.636745   -1.011245
     42          1           0        7.352889    1.340433   -0.100805
 ---------------------------------------------------------------------
 Rotational constants (GHZ):      0.7604523      0.1175022      0.1119196
 Standard basis: 6-31G(d) (6D, 7F)
 There are   344 symmetry adapted basis functions of A   symmetry.
 Integral buffers will be    131072 words long.
 Raffenetti 2 integral format.
 Two-electron integral symmetry is turned on.
   344 basis functions,   648 primitive gaussians,   344 cartesian basis functions
    77 alpha electrons       77 beta electrons
       nuclear repulsion energy      1621.3545265654 Hartrees.
 NAtoms=   42 NActive=   42 NUniq=   42 SFac= 7.50D-01 NAtFMM=   80 NAOKFM=F Big=F
 One-electron integrals computed using PRISM.
 NBasis=   344 RedAO= T  NBF=   344
 NBsUse=   344 1.00D-06 NBFU=   344
 Harris functional with IExCor=  402 diagonalized for initial guess.
 ExpMin= 1.61D-01 ExpMax= 5.48D+03 ExpMxC= 8.25D+02 IAcc=1 IRadAn=         1 AccDes= 0.00D+00
 HarFok:  IExCor=  402 AccDes= 0.00D+00 IRadAn=         1 IDoV= 1
 ScaDFX=  1.000000  1.000000  1.000000  1.000000
 FoFCou: FMM=F IPFlag=           0 FMFlag=      100000 FMFlg1=           0
         NFxFlg=           0 DoJE=T BraDBF=F KetDBF=T FulRan=T
         Omega=  0.000000  0.000000  1.000000  0.000000  0.000000 ICntrl=     500 IOpCl=  0
         NMat0=    1 NMatS0=    1 NMatT0=    0 NMatD0=    1 NMtDS0=    0 NMtDT0=    0
         I1Cent=           4 NGrid=           0.
 Petite list used in FoFCou.
 Initial guess orbital symmetries:
       Occupied  (A) (A) (A) (A) (A) (A) (A) (A) (A) (A) (A) (A)
                 (A) (A) (A) (A) (A) (A) (A) (A) (A) (A) (A) (A)
                 (A) (A) (A) (A) (A) (A) (A) (A) (A) (A) (A) (A)
                 (A) (A) (A) (A) (A) (A) (A) (A) (A) (A) (A) (A)
                 (A) (A) (A) (A) (A) (A) (A) (A) (A) (A) (A) (A)
                 (A) (A) (A) (A) (A) (A) (A) (A) (A) (A) (A) (A)
                 (A) (A) (A) (A) (A)
       Virtual   (A) (A) (A) (A) (A) (A) (A) (A) (A) (A) (A) (A)
                 (A) (A) (A) (A) (A) (A) (A) (A) (A) (A) (A) (A)
                 (A) (A) (A) (A) (A) (A) (A) (A) (A) (A) (A) (A)
                 (A) (A) (A) (A) (A) (A) (A) (A) (A) (A) (A) (A)
                 (A) (A) (A) (A) (A) (A) (A) (A) (A) (A) (A) (A)
                 (A) (A) (A) (A) (A) (A) (A) (A) (A) (A) (A) (A)
                 (A) (A) (A) (A) (A) (A) (A) (A) (A) (A) (A) (A)
                 (A) (A) (A) (A) (A) (A) (A) (A) (A) (A) (A) (A)
                 (A) (A) (A) (A) (A) (A) (A) (A) (A) (A) (A) (A)
                 (A) (A) (A) (A) (A) (A) (A) (A) (A) (A) (A) (A)
                 (A) (A) (A) (A) (A) (A) (A) (A) (A) (A) (A) (A)
                 (A) (A) (A) (A) (A) (A) (A) (A) (A) (A) (A) (A)
                 (A) (A) (A) (A) (A) (A) (A) (A) (A) (A) (A) (A)
                 (A) (A) (A) (A) (A) (A) (A) (A) (A) (A) (A) (A)
                 (A) (A) (A) (A) (A) (A) (A) (A) (A) (A) (A) (A)
                 (A) (A) (A) (A) (A) (A) (A) (A) (A) (A) (A) (A)
                 (A) (A) (A) (A) (A) (A) (A) (A) (A) (A) (A) (A)
                 (A) (A) (A) (A) (A) (A) (A) (A) (A) (A) (A) (A)
                 (A) (A) (A) (A) (A) (A) (A) (A) (A) (A) (A) (A)
                 (A) (A) (A) (A) (A) (A) (A) (A) (A) (A) (A) (A)
                 (A) (A) (A) (A) (A) (A) (A) (A) (A) (A) (A) (A)
                 (A) (A) (A) (A) (A) (A) (A) (A) (A) (A) (A) (A)
                 (A) (A) (A)
 The electronic state of the initial guess is 1-A.
 Requested convergence on RMS density matrix=1.00D-08 within 128 cycles.
 Requested convergence on MAX density matrix=1.00D-06.
 Requested convergence on             energy=1.00D-06.
 No special actions if energy rises.
 Integral accuracy reduced to 1.0D-05 until final iterations.
 Initial convergence to 1.0D-05 achieved.  Increase integral accuracy.
 SCF Done:  E(RB3LYP) =  -990.477599888     A.U. after   14 cycles
             Convg  =    0.5534D-08             -V/T =  2.0086
 Range of M.O.s used for correlation:     1   344
 NBasis=   344 NAE=    77 NBE=    77 NFC=     0 NFV=     0
 NROrb=    344 NOA=    77 NOB=    77 NVA=   267 NVB=   267
 Symmetrizing basis deriv contribution to polar:
 IMax=3 JMax=2 DiffMx= 0.00D+00
 G2DrvN: will do    43 centers at a time, making    1 passes doing MaxLOS=2.
 Calling FoFCou, ICntrl=  3107 FMM=F I1Cent=   0 AccDes= 0.00D+00.
 FoFDir/FoFCou used for L=0 through L=2.
 End of G2Drv Frequency-dependent properties file   721 does not exist.
 End of G2Drv Frequency-dependent properties file   722 does not exist.
          IDoAtm=111111111111111111111111111111111111111111
          Differentiating once with respect to nuclear coordinates.
          There are   129 degrees of freedom in the 1st order CPHF.  IDoFFX=5.
    123 vectors produced by pass  0 Test12= 2.06D-10 1.00D-07 XBig12= 1.78D-01 8.65D-02.
 AX will form   123 AO Fock derivatives at one time.
    123 vectors produced by pass  1 Test12= 2.06D-10 1.00D-07 XBig12= 5.32D-02 8.59D-02.
    123 vectors produced by pass  2 Test12= 2.06D-10 1.00D-07 XBig12= 4.45D-05 1.10D-03.
    123 vectors produced by pass  3 Test12= 2.06D-10 1.00D-07 XBig12= 1.27D-07 6.80D-05.
     70 vectors produced by pass  4 Test12= 2.06D-10 1.00D-07 XBig12= 1.36D-10 1.89D-06.
 Inverted reduced A of dimension   562 with in-core refinement.
 End of Minotr Frequency-dependent properties file   721 does not exist.
 End of Minotr Frequency-dependent properties file   722 does not exist.

 **********************************************************************

            Population analysis using the SCF density.

 **********************************************************************

 Orbital symmetries:
       Occupied  (A) (A) (A) (A) (A) (A) (A) (A) (A) (A) (A) (A)
                 (A) (A) (A) (A) (A) (A) (A) (A) (A) (A) (A) (A)
                 (A) (A) (A) (A) (A) (A) (A) (A) (A) (A) (A) (A)
                 (A) (A) (A) (A) (A) (A) (A) (A) (A) (A) (A) (A)
                 (A) (A) (A) (A) (A) (A) (A) (A) (A) (A) (A) (A)
                 (A) (A) (A) (A) (A) (A) (A) (A) (A) (A) (A) (A)
                 (A) (A) (A) (A) (A)
       Virtual   (A) (A) (A) (A) (A) (A) (A) (A) (A) (A) (A) (A)
                 (A) (A) (A) (A) (A) (A) (A) (A) (A) (A) (A) (A)
                 (A) (A) (A) (A) (A) (A) (A) (A) (A) (A) (A) (A)
                 (A) (A) (A) (A) (A) (A) (A) (A) (A) (A) (A) (A)
                 (A) (A) (A) (A) (A) (A) (A) (A) (A) (A) (A) (A)
                 (A) (A) (A) (A) (A) (A) (A) (A) (A) (A) (A) (A)
                 (A) (A) (A) (A) (A) (A) (A) (A) (A) (A) (A) (A)
                 (A) (A) (A) (A) (A) (A) (A) (A) (A) (A) (A) (A)
                 (A) (A) (A) (A) (A) (A) (A) (A) (A) (A) (A) (A)
                 (A) (A) (A) (A) (A) (A) (A) (A) (A) (A) (A) (A)
                 (A) (A) (A) (A) (A) (A) (A) (A) (A) (A) (A) (A)
                 (A) (A) (A) (A) (A) (A) (A) (A) (A) (A) (A) (A)
                 (A) (A) (A) (A) (A) (A) (A) (A) (A) (A) (A) (A)
                 (A) (A) (A) (A) (A) (A) (A) (A) (A) (A) (A) (A)
                 (A) (A) (A) (A) (A) (A) (A) (A) (A) (A) (A) (A)
                 (A) (A) (A) (A) (A) (A) (A) (A) (A) (A) (A) (A)
                 (A) (A) (A) (A) (A) (A) (A) (A) (A) (A) (A) (A)
                 (A) (A) (A) (A) (A) (A) (A) (A) (A) (A) (A) (A)
                 (A) (A) (A) (A) (A) (A) (A) (A) (A) (A) (A) (A)
                 (A) (A) (A) (A) (A) (A) (A) (A) (A) (A) (A) (A)
                 (A) (A) (A) (A) (A) (A) (A) (A) (A) (A) (A) (A)
                 (A) (A) (A) (A) (A) (A) (A) (A) (A) (A) (A) (A)
                 (A) (A) (A)
 The electronic state is 1-A.
 Alpha  occ. eigenvalues --  -19.11955 -19.11793 -19.09984 -19.09278 -14.37524
 Alpha  occ. eigenvalues --  -14.37113 -14.35585 -14.34938 -10.29315 -10.29000
 Alpha  occ. eigenvalues --  -10.27757 -10.27255 -10.24251 -10.23754 -10.23181
 Alpha  occ. eigenvalues --  -10.22640 -10.18209 -10.18095 -10.18018 -10.17570
 Alpha  occ. eigenvalues --   -1.04764  -1.04497  -1.02527  -1.01759  -0.93805
 Alpha  occ. eigenvalues --   -0.93795  -0.92554  -0.91682  -0.80720  -0.78312
 Alpha  occ. eigenvalues --   -0.75875  -0.71882  -0.71604  -0.67037  -0.66170
 Alpha  occ. eigenvalues --   -0.64286  -0.61087  -0.59758  -0.57836  -0.57120
 Alpha  occ. eigenvalues --   -0.56042  -0.53821  -0.50124  -0.49230  -0.48822
 Alpha  occ. eigenvalues --   -0.47689  -0.46497  -0.45627  -0.44813  -0.44500
 Alpha  occ. eigenvalues --   -0.43963  -0.43556  -0.42524  -0.42036  -0.41149
 Alpha  occ. eigenvalues --   -0.40609  -0.40347  -0.40163  -0.39697  -0.39112
 Alpha  occ. eigenvalues --   -0.38472  -0.38274  -0.37873  -0.37169  -0.36864
 Alpha  occ. eigenvalues --   -0.36545  -0.35914  -0.34548  -0.33674  -0.26742
 Alpha  occ. eigenvalues --   -0.26652  -0.26044  -0.25540  -0.24917  -0.24401
 Alpha  occ. eigenvalues --   -0.23803  -0.23047
 Alpha virt. eigenvalues --    0.01920   0.02371   0.03041   0.04406   0.05989
 Alpha virt. eigenvalues --    0.06690   0.09643   0.10238   0.11445   0.12253
 Alpha virt. eigenvalues --    0.13398   0.14241   0.14393   0.14613   0.14823
 Alpha virt. eigenvalues --    0.15391   0.15981   0.16258   0.16550   0.16841
 Alpha virt. eigenvalues --    0.17656   0.18215   0.18826   0.19381   0.19537
 Alpha virt. eigenvalues --    0.20179   0.20875   0.21147   0.21523   0.23319
 Alpha virt. eigenvalues --    0.24039   0.24574   0.25407   0.25991   0.26601
 Alpha virt. eigenvalues --    0.29179   0.31023   0.34540   0.34668   0.34786
 Alpha virt. eigenvalues --    0.38629   0.40439   0.42198   0.43283   0.45092
 Alpha virt. eigenvalues --    0.49759   0.50091   0.51021   0.51462   0.52214
 Alpha virt. eigenvalues --    0.52628   0.53189   0.53791   0.54395   0.54727
 Alpha virt. eigenvalues --    0.55968   0.56256   0.56977   0.58160   0.58452
 Alpha virt. eigenvalues --    0.58790   0.59242   0.61629   0.62976   0.63614
 Alpha virt. eigenvalues --    0.64001   0.65885   0.66258   0.68011   0.68376
 Alpha virt. eigenvalues --    0.69546   0.69929   0.70709   0.71156   0.73263
 Alpha virt. eigenvalues --    0.73685   0.74520   0.74798   0.75986   0.76413
 Alpha virt. eigenvalues --    0.77133   0.79645   0.79857   0.81417   0.83111
 Alpha virt. eigenvalues --    0.83704   0.84094   0.84807   0.85516   0.85961
 Alpha virt. eigenvalues --    0.86730   0.87163   0.87406   0.88087   0.88998
 Alpha virt. eigenvalues --    0.89154   0.89801   0.90202   0.90440   0.91011
 Alpha virt. eigenvalues --    0.92145   0.92473   0.93101   0.93285   0.93502
 Alpha virt. eigenvalues --    0.94607   0.95071   0.95372   0.96187   0.97121
 Alpha virt. eigenvalues --    0.97946   0.98840   1.00419   1.01229   1.02365
 Alpha virt. eigenvalues --    1.05037   1.06317   1.07080   1.09183   1.10149
 Alpha virt. eigenvalues --    1.11451   1.13163   1.14123   1.15963   1.19925
 Alpha virt. eigenvalues --    1.21781   1.22754   1.24695   1.25783   1.26761
 Alpha virt. eigenvalues --    1.29076   1.30292   1.31122   1.33149   1.34014
 Alpha virt. eigenvalues --    1.35355   1.35665   1.38007   1.38895   1.42808
 Alpha virt. eigenvalues --    1.43678   1.46022   1.46846   1.47368   1.47823
 Alpha virt. eigenvalues --    1.49404   1.50404   1.51572   1.52180   1.58729
 Alpha virt. eigenvalues --    1.64841   1.66665   1.69943   1.70602   1.71059
 Alpha virt. eigenvalues --    1.72756   1.73559   1.75666   1.75880   1.76587
 Alpha virt. eigenvalues --    1.78424   1.79705   1.80891   1.81592   1.82620
 Alpha virt. eigenvalues --    1.83616   1.84189   1.84374   1.84607   1.85009
 Alpha virt. eigenvalues --    1.85664   1.86468   1.88526   1.89144   1.89734
 Alpha virt. eigenvalues --    1.91980   1.92955   1.93599   1.95079   1.95940
 Alpha virt. eigenvalues --    1.96924   1.98305   1.98634   1.99145   2.02248
 Alpha virt. eigenvalues --    2.03567   2.04934   2.05544   2.06020   2.06720
 Alpha virt. eigenvalues --    2.09363   2.09994   2.12837   2.14689   2.16210
 Alpha virt. eigenvalues --    2.18570   2.19584   2.20379   2.21912   2.24776
 Alpha virt. eigenvalues --    2.25279   2.26871   2.28009   2.28792   2.29334
 Alpha virt. eigenvalues --    2.29891   2.31267   2.32859   2.34108   2.34380
 Alpha virt. eigenvalues --    2.36524   2.37236   2.39500   2.42275   2.44503
 Alpha virt. eigenvalues --    2.45642   2.45708   2.46174   2.49147   2.50323
 Alpha virt. eigenvalues --    2.54761   2.56466   2.58303   2.59690   2.60804
 Alpha virt. eigenvalues --    2.63305   2.64801   2.66743   2.68735   2.71263
 Alpha virt. eigenvalues --    2.73336   2.73767   2.78450   2.80710   2.82434
 Alpha virt. eigenvalues --    2.89314   2.90435   2.94676   2.96023   2.98153
 Alpha virt. eigenvalues --    2.99549   3.02780   3.03666   3.15706   3.17915
 Alpha virt. eigenvalues --    3.23820   3.25477   3.96474   3.98626   4.01729
 Alpha virt. eigenvalues --    4.05459   4.05976   4.09926   4.16129   4.20550
 Alpha virt. eigenvalues --    4.22642   4.23264   4.27066   4.28619   4.29776
 Alpha virt. eigenvalues --    4.39826   4.43644   4.46060   4.49159   4.61761
 Alpha virt. eigenvalues --    4.64170   4.70772
          Condensed to atoms (all electrons):
              1          2          3          4          5          6
     1  H    0.506799   0.360213  -0.021625  -0.021737  -0.018234   0.005098
     2  C    0.360213   5.326724   0.351307   0.351348   0.357462  -0.079363
     3  H   -0.021625   0.351307   0.549296  -0.026660  -0.025045   0.001452
     4  H   -0.021737   0.351348  -0.026660   0.553288  -0.026569   0.001299
     5  C   -0.018234   0.357462  -0.025045  -0.026569   4.335484   0.593258
     6  O    0.005098  -0.079363   0.001452   0.001299   0.593258   8.085239
     7  N    0.004608  -0.135306   0.004234   0.004624   0.228869  -0.108069
     8  H   -0.000145  -0.001154   0.001147   0.000858  -0.016210   0.003099
     9  C   -0.000146   0.007375  -0.000274   0.000006  -0.021519   0.013447
    10  H    0.000002   0.000147  -0.000019  -0.000002  -0.001350   0.004867
    11  C    0.000014  -0.000750   0.000017   0.000031  -0.006401  -0.018445
    12  H    0.000000  -0.000004  -0.000001   0.000002   0.000911  -0.000161
    13  H    0.000000   0.000007   0.000000  -0.000001   0.000345   0.000332
    14  H    0.000000   0.000616  -0.000008  -0.000055   0.003106   0.023664
    15  C    0.000000  -0.000046  -0.000017  -0.000014   0.006630   0.000822
    16  O    0.000000  -0.000048   0.000000  -0.000001   0.000499  -0.000005
    17  N    0.000000   0.000000   0.000000   0.000000  -0.000074  -0.000003
    18  H    0.000000   0.000000   0.000000   0.000000   0.000002   0.000003
    19  C    0.000000   0.000000   0.000000   0.000000   0.000001   0.000000
    20  H    0.000000   0.000000   0.000000   0.000000   0.000000   0.000000
    21  C    0.000000   0.000000   0.000000   0.000000   0.000000   0.000000
    22  H    0.000000   0.000000   0.000000   0.000000   0.000000   0.000000
    23  H    0.000000   0.000000   0.000000   0.000000   0.000000   0.000000
    24  H    0.000000   0.000000   0.000000   0.000000   0.000000   0.000000
    25  C    0.000000   0.000000   0.000000   0.000000   0.000000   0.000000
    26  O    0.000000   0.000000   0.000000   0.000000   0.000000   0.000000
    27  N    0.000000   0.000000   0.000000   0.000000   0.000000   0.000000
    28  H    0.000000   0.000000   0.000000   0.000000   0.000000   0.000000
    29  C    0.000000   0.000000   0.000000   0.000000   0.000000   0.000000
    30  H    0.000000   0.000000   0.000000   0.000000   0.000000   0.000000
    31  C    0.000000   0.000000   0.000000   0.000000   0.000000   0.000000
    32  H    0.000000   0.000000   0.000000   0.000000   0.000000   0.000000
    33  H    0.000000   0.000000   0.000000   0.000000   0.000000   0.000000
    34  H    0.000000   0.000000   0.000000   0.000000   0.000000   0.000000
    35  C    0.000000   0.000000   0.000000   0.000000   0.000000   0.000000
    36  O    0.000000   0.000000   0.000000   0.000000   0.000000   0.000000
    37  N    0.000000   0.000000   0.000000   0.000000   0.000000   0.000000
    38  H    0.000000   0.000000   0.000000   0.000000   0.000000   0.000000
    39  C    0.000000   0.000000   0.000000   0.000000   0.000000   0.000000
    40  H    0.000000   0.000000   0.000000   0.000000   0.000000   0.000000
    41  H    0.000000   0.000000   0.000000   0.000000   0.000000   0.000000
    42  H    0.000000   0.000000   0.000000   0.000000   0.000000   0.000000
              7          8          9         10         11         12
     1  H    0.004608  -0.000145  -0.000146   0.000002   0.000014   0.000000
     2  C   -0.135306  -0.001154   0.007375   0.000147  -0.000750  -0.000004
     3  H    0.004234   0.001147  -0.000274  -0.000019   0.000017  -0.000001
     4  H    0.004624   0.000858   0.000006  -0.000002   0.000031   0.000002
     5  C    0.228869  -0.016210  -0.021519  -0.001350  -0.006401   0.000911
     6  O   -0.108069   0.003099   0.013447   0.004867  -0.018445  -0.000161
     7  N    7.194549   0.291653   0.247803  -0.048149  -0.055044   0.000231
     8  H    0.291653   0.387877  -0.051121   0.004020   0.004509   0.000626
     9  C    0.247803  -0.051121   5.081064   0.372981   0.343615  -0.037222
    10  H   -0.048149   0.004020   0.372981   0.570992  -0.051042   0.006152
    11  C   -0.055044   0.004509   0.343615  -0.051042   5.210369   0.366952
    12  H    0.000231   0.000626  -0.037222   0.006152   0.366952   0.565789
    13  H    0.005224  -0.000128  -0.036298  -0.000115   0.350728  -0.027251
    14  H   -0.010713  -0.000294  -0.020888  -0.005694   0.359133  -0.025713
    15  C   -0.025944   0.000397   0.312624  -0.033543  -0.044296  -0.002793
    16  O   -0.008976   0.030194  -0.081816   0.000946  -0.000691   0.000947
    17  N    0.003230   0.001264  -0.116666   0.000351   0.002524  -0.000403
    18  H    0.000053  -0.000049   0.001546   0.000928   0.000628  -0.000106
    19  C   -0.000074  -0.000035   0.006752  -0.000338   0.000029  -0.000120
    20  H    0.000001   0.000000  -0.000159   0.000000   0.000011   0.000000
    21  C    0.000005   0.000015  -0.000306   0.000006  -0.000061   0.000052
    22  H   -0.000001  -0.000020   0.000544  -0.000005  -0.000060  -0.000005
    23  H    0.000000   0.000000   0.000007   0.000000   0.000000   0.000000
    24  H    0.000000  -0.000001  -0.000063  -0.000001   0.000048   0.000035
    25  C    0.000001  -0.000004  -0.000533   0.000016   0.000024   0.000001
    26  O    0.000001   0.000003  -0.000360   0.000109   0.000003   0.000000
    27  N    0.000000   0.000000  -0.000023   0.000001   0.000000   0.000000
    28  H    0.000000   0.000000   0.000000   0.000000   0.000000   0.000000
    29  C    0.000000   0.000000   0.000000   0.000000   0.000000   0.000000
    30  H    0.000000   0.000000   0.000000   0.000000   0.000000   0.000000
    31  C    0.000000   0.000000   0.000000   0.000000   0.000000   0.000000
    32  H    0.000000   0.000000   0.000000   0.000000   0.000000   0.000000
    33  H    0.000000   0.000000   0.000000   0.000000   0.000000   0.000000
    34  H    0.000000   0.000000   0.000000   0.000000   0.000000   0.000000
    35  C    0.000000   0.000000   0.000000   0.000000   0.000000   0.000000
    36  O    0.000000   0.000000   0.000000   0.000000   0.000000   0.000000
    37  N    0.000000   0.000000   0.000000   0.000000   0.000000   0.000000
    38  H    0.000000   0.000000   0.000000   0.000000   0.000000   0.000000
    39  C    0.000000   0.000000   0.000000   0.000000   0.000000   0.000000
    40  H    0.000000   0.000000   0.000000   0.000000   0.000000   0.000000
    41  H    0.000000   0.000000   0.000000   0.000000   0.000000   0.000000
    42  H    0.000000   0.000000   0.000000   0.000000   0.000000   0.000000
             13         14         15         16         17         18
     1  H    0.000000   0.000000   0.000000   0.000000   0.000000   0.000000
     2  C    0.000007   0.000616  -0.000046  -0.000048   0.000000   0.000000
     3  H    0.000000  -0.000008  -0.000017   0.000000   0.000000   0.000000
     4  H   -0.000001  -0.000055  -0.000014  -0.000001   0.000000   0.000000
     5  C    0.000345   0.003106   0.006630   0.000499  -0.000074   0.000002
     6  O    0.000332   0.023664   0.000822  -0.000005  -0.000003   0.000003
     7  N    0.005224  -0.010713  -0.025944  -0.008976   0.003230   0.000053
     8  H   -0.000128  -0.000294   0.000397   0.030194   0.001264  -0.000049
     9  C   -0.036298  -0.020888   0.312624  -0.081816  -0.116666   0.001546
    10  H   -0.000115  -0.005694  -0.033543   0.000946   0.000351   0.000928
    11  C    0.350728   0.359133  -0.044296  -0.000691   0.002524   0.000628
    12  H   -0.027251  -0.025713  -0.002793   0.000947  -0.000403  -0.000106
    13  H    0.605307  -0.021375  -0.008088  -0.000024   0.003586   0.007367
    14  H   -0.021375   0.483525   0.004053  -0.000085   0.000181  -0.000188
    15  C   -0.008088   0.004053   4.374994   0.557913   0.263999  -0.022475
    16  O   -0.000024  -0.000085   0.557913   8.127504  -0.100770   0.003675
    17  N    0.003586   0.000181   0.263999  -0.100770   7.100534   0.304334
    18  H    0.007367  -0.000188  -0.022475   0.003675   0.304334   0.394164
    19  C    0.000091   0.000003  -0.035280   0.007295   0.265978  -0.026763
    20  H   -0.000012   0.000000   0.005392   0.000290  -0.033503  -0.004786
    21  C   -0.000023  -0.000001  -0.005007  -0.014578  -0.058384   0.004031
    22  H   -0.000005   0.000001   0.004578   0.019026  -0.010604  -0.000097
    23  H    0.000000   0.000000   0.000437   0.000454   0.004971  -0.000135
    24  H    0.000042   0.000001  -0.000090   0.000009   0.000896   0.000201
    25  C    0.000006   0.000000   0.001391   0.009664  -0.055475   0.001502
    26  O   -0.000001   0.000000   0.009252  -0.003329  -0.000112   0.000079
    27  N    0.000000   0.000000  -0.000151  -0.001548   0.002606  -0.000085
    28  H    0.000000   0.000000  -0.000056  -0.000073   0.000185  -0.000005
    29  C    0.000000   0.000000  -0.000034  -0.000017  -0.000089   0.000001
    30  H    0.000000   0.000000   0.000023   0.000037   0.000011   0.000000
    31  C    0.000000   0.000000   0.000001   0.000001  -0.000003   0.000000
    32  H    0.000000   0.000000   0.000000   0.000000   0.000001   0.000000
    33  H    0.000000   0.000000   0.000000   0.000000   0.000000   0.000000
    34  H    0.000000   0.000000  -0.000002   0.000001  -0.000003   0.000000
    35  C    0.000000   0.000000   0.000000  -0.000002   0.000000   0.000000
    36  O    0.000000   0.000000   0.000000   0.000000   0.000000   0.000000
    37  N    0.000000   0.000000   0.000000   0.000000   0.000000   0.000000
    38  H    0.000000   0.000000   0.000000   0.000000   0.000000   0.000000
    39  C    0.000000   0.000000   0.000000   0.000000   0.000000   0.000000
    40  H    0.000000   0.000000   0.000000   0.000000   0.000000   0.000000
    41  H    0.000000   0.000000   0.000000   0.000000   0.000000   0.000000
    42  H    0.000000   0.000000   0.000000   0.000000   0.000000   0.000000
             19         20         21         22         23         24
     1  H    0.000000   0.000000   0.000000   0.000000   0.000000   0.000000
     2  C    0.000000   0.000000   0.000000   0.000000   0.000000   0.000000
     3  H    0.000000   0.000000   0.000000   0.000000   0.000000   0.000000
     4  H    0.000000   0.000000   0.000000   0.000000   0.000000   0.000000
     5  C    0.000001   0.000000   0.000000   0.000000   0.000000   0.000000
     6  O    0.000000   0.000000   0.000000   0.000000   0.000000   0.000000
     7  N   -0.000074   0.000001   0.000005  -0.000001   0.000000   0.000000
     8  H   -0.000035   0.000000   0.000015  -0.000020   0.000000  -0.000001
     9  C    0.006752  -0.000159  -0.000306   0.000544   0.000007  -0.000063
    10  H   -0.000338   0.000000   0.000006  -0.000005   0.000000  -0.000001
    11  C    0.000029   0.000011  -0.000061  -0.000060   0.000000   0.000048
    12  H   -0.000120   0.000000   0.000052  -0.000005   0.000000   0.000035
    13  H    0.000091  -0.000012  -0.000023  -0.000005   0.000000   0.000042
    14  H    0.000003   0.000000  -0.000001   0.000001   0.000000   0.000001
    15  C   -0.035280   0.005392  -0.005007   0.004578   0.000437  -0.000090
    16  O    0.007295   0.000290  -0.014578   0.019026   0.000454   0.000009
    17  N    0.265978  -0.033503  -0.058384  -0.010604   0.004971   0.000896
    18  H   -0.026763  -0.004786   0.004031  -0.000097  -0.000135   0.000201
    19  C    5.110830   0.368465   0.340273  -0.029246  -0.029928  -0.028081
    20  H    0.368465   0.566640  -0.040811   0.004614  -0.002458  -0.003781
    21  C    0.340273  -0.040811   5.222577   0.375390   0.350778   0.355488
    22  H   -0.029246   0.004614   0.375390   0.478774  -0.027483  -0.024731
    23  H   -0.029928  -0.002458   0.350778  -0.027483   0.581131  -0.021804
    24  H   -0.028081  -0.003781   0.355488  -0.024731  -0.021804   0.570145
    25  C    0.328103  -0.028497  -0.066935  -0.004251  -0.008117   0.004553
    26  O   -0.083771  -0.000051   0.002469   0.000104  -0.000081  -0.000087
    27  N   -0.125085   0.000655   0.007724  -0.000622  -0.004321   0.000717
    28  H   -0.003169   0.000250   0.003567   0.000086   0.011997  -0.000555
    29  C    0.007129  -0.000134   0.000974  -0.000228   0.001158  -0.000004
    30  H    0.000253  -0.000009  -0.000175   0.000006   0.000030  -0.000001
    31  C   -0.001135   0.000057   0.000069   0.000002  -0.000061   0.000001
    32  H    0.000075  -0.000007  -0.000018   0.000000   0.000007   0.000000
    33  H    0.000015  -0.000001  -0.000001   0.000000   0.000001   0.000000
    34  H    0.000570  -0.000026  -0.000011  -0.000001  -0.000002   0.000000
    35  C    0.000043  -0.000001  -0.000211  -0.000007  -0.000190   0.000001
    36  O   -0.000027   0.000000  -0.000189   0.000014  -0.000271  -0.000001
    37  N    0.000001   0.000000  -0.000001   0.000000  -0.000002   0.000000
    38  H    0.000000   0.000000   0.000000   0.000000   0.000000   0.000000
    39  C    0.000000   0.000000   0.000000   0.000000   0.000000   0.000000
    40  H    0.000000   0.000000   0.000000   0.000000   0.000000   0.000000
    41  H    0.000000   0.000000   0.000000   0.000000   0.000000   0.000000
    42  H    0.000000   0.000000   0.000000   0.000000   0.000000   0.000000
             25         26         27         28         29         30
     1  H    0.000000   0.000000   0.000000   0.000000   0.000000   0.000000
     2  C    0.000000   0.000000   0.000000   0.000000   0.000000   0.000000
     3  H    0.000000   0.000000   0.000000   0.000000   0.000000   0.000000
     4  H    0.000000   0.000000   0.000000   0.000000   0.000000   0.000000
     5  C    0.000000   0.000000   0.000000   0.000000   0.000000   0.000000
     6  O    0.000000   0.000000   0.000000   0.000000   0.000000   0.000000
     7  N    0.000001   0.000001   0.000000   0.000000   0.000000   0.000000
     8  H   -0.000004   0.000003   0.000000   0.000000   0.000000   0.000000
     9  C   -0.000533  -0.000360  -0.000023   0.000000   0.000000   0.000000
    10  H    0.000016   0.000109   0.000001   0.000000   0.000000   0.000000
    11  C    0.000024   0.000003   0.000000   0.000000   0.000000   0.000000
    12  H    0.000001   0.000000   0.000000   0.000000   0.000000   0.000000
    13  H    0.000006  -0.000001   0.000000   0.000000   0.000000   0.000000
    14  H    0.000000   0.000000   0.000000   0.000000   0.000000   0.000000
    15  C    0.001391   0.009252  -0.000151  -0.000056  -0.000034   0.000023
    16  O    0.009664  -0.003329  -0.001548  -0.000073  -0.000017   0.000037
    17  N   -0.055475  -0.000112   0.002606   0.000185  -0.000089   0.000011
    18  H    0.001502   0.000079  -0.000085  -0.000005   0.000001   0.000000
    19  C    0.328103  -0.083771  -0.125085  -0.003169   0.007129   0.000253
    20  H   -0.028497  -0.000051   0.000655   0.000250  -0.000134  -0.000009
    21  C   -0.066935   0.002469   0.007724   0.003567   0.000974  -0.000175
    22  H   -0.004251   0.000104  -0.000622   0.000086  -0.000228   0.000006
    23  H   -0.008117  -0.000081  -0.004321   0.011997   0.001158   0.000030
    24  H    0.004553  -0.000087   0.000717  -0.000555  -0.000004  -0.000001
    25  C    4.369767   0.566186   0.253510  -0.016785  -0.026997  -0.001432
    26  O    0.566186   8.135443  -0.103376   0.003190   0.012157   0.004972
    27  N    0.253510  -0.103376   7.225843   0.268067   0.254190  -0.047757
    28  H   -0.016785   0.003190   0.268067   0.381099  -0.051575   0.004288
    29  C   -0.026997   0.012157   0.254190  -0.051575   5.085163   0.370233
    30  H   -0.001432   0.004972  -0.047757   0.004288   0.370233   0.571050
    31  C   -0.005559  -0.017860  -0.054512   0.004077   0.347080  -0.049566
    32  H    0.000719  -0.000119   0.000018   0.000746  -0.037459   0.006164
    33  H    0.000366   0.000294   0.005136  -0.000106  -0.035958  -0.000053
    34  H    0.003660   0.022331  -0.010348  -0.000347  -0.021466  -0.006028
    35  C    0.005795   0.000703  -0.024991   0.000520   0.309276  -0.032938
    36  O    0.000592  -0.000004  -0.011405   0.037357  -0.088441   0.001305
    37  N   -0.000082  -0.000001   0.003113   0.001424  -0.120470   0.000717
    38  H    0.000003   0.000003   0.000071  -0.000061   0.000755   0.001023
    39  C    0.000002   0.000000  -0.000068  -0.000012   0.005798  -0.000274
    40  H    0.000000   0.000000   0.000001  -0.000036   0.001184  -0.000035
    41  H    0.000000   0.000000   0.000000   0.000000  -0.000193   0.000021
    42  H    0.000000   0.000000   0.000001   0.000000  -0.000030  -0.000006
             31         32         33         34         35         36
     1  H    0.000000   0.000000   0.000000   0.000000   0.000000   0.000000
     2  C    0.000000   0.000000   0.000000   0.000000   0.000000   0.000000
     3  H    0.000000   0.000000   0.000000   0.000000   0.000000   0.000000
     4  H    0.000000   0.000000   0.000000   0.000000   0.000000   0.000000
     5  C    0.000000   0.000000   0.000000   0.000000   0.000000   0.000000
     6  O    0.000000   0.000000   0.000000   0.000000   0.000000   0.000000
     7  N    0.000000   0.000000   0.000000   0.000000   0.000000   0.000000
     8  H    0.000000   0.000000   0.000000   0.000000   0.000000   0.000000
     9  C    0.000000   0.000000   0.000000   0.000000   0.000000   0.000000
    10  H    0.000000   0.000000   0.000000   0.000000   0.000000   0.000000
    11  C    0.000000   0.000000   0.000000   0.000000   0.000000   0.000000
    12  H    0.000000   0.000000   0.000000   0.000000   0.000000   0.000000
    13  H    0.000000   0.000000   0.000000   0.000000   0.000000   0.000000
    14  H    0.000000   0.000000   0.000000   0.000000   0.000000   0.000000
    15  C    0.000001   0.000000   0.000000  -0.000002   0.000000   0.000000
    16  O    0.000001   0.000000   0.000000   0.000001  -0.000002   0.000000
    17  N   -0.000003   0.000001   0.000000  -0.000003   0.000000   0.000000
    18  H    0.000000   0.000000   0.000000   0.000000   0.000000   0.000000
    19  C   -0.001135   0.000075   0.000015   0.000570   0.000043  -0.000027
    20  H    0.000057  -0.000007  -0.000001  -0.000026  -0.000001   0.000000
    21  C    0.000069  -0.000018  -0.000001  -0.000011  -0.000211  -0.000189
    22  H    0.000002   0.000000   0.000000  -0.000001  -0.000007   0.000014
    23  H   -0.000061   0.000007   0.000001  -0.000002  -0.000190  -0.000271
    24  H    0.000001   0.000000   0.000000   0.000000   0.000001  -0.000001
    25  C   -0.005559   0.000719   0.000366   0.003660   0.005795   0.000592
    26  O   -0.017860  -0.000119   0.000294   0.022331   0.000703  -0.000004
    27  N   -0.054512   0.000018   0.005136  -0.010348  -0.024991  -0.011405
    28  H    0.004077   0.000746  -0.000106  -0.000347   0.000520   0.037357
    29  C    0.347080  -0.037459  -0.035958  -0.021466   0.309276  -0.088441
    30  H   -0.049566   0.006164  -0.000053  -0.006028  -0.032938   0.001305
    31  C    5.200957   0.367448   0.352269   0.361332  -0.045055  -0.000695
    32  H    0.367448   0.565378  -0.026774  -0.026265  -0.002824   0.001000
    33  H    0.352269  -0.026774   0.601968  -0.021745  -0.007985  -0.000020
    34  H    0.361332  -0.026265  -0.021745   0.484535   0.003771  -0.000091
    35  C   -0.045055  -0.002824  -0.007985   0.003771   4.365351   0.595407
    36  O   -0.000695   0.001000  -0.000020  -0.000091   0.595407   8.088255
    37  N    0.002591  -0.000448   0.003318   0.000222   0.272152  -0.100852
    38  H    0.000710  -0.000106   0.006984  -0.000195  -0.021294   0.003595
    39  C    0.000024  -0.000075   0.000072   0.000005  -0.024399  -0.009038
    40  H   -0.000070  -0.000007  -0.000006   0.000001  -0.001261   0.021054
    41  H   -0.000005   0.000001   0.000004   0.000000   0.001327   0.000567
    42  H    0.000013   0.000002   0.000000  -0.000002   0.001362   0.000571
             37         38         39         40         41         42
     1  H    0.000000   0.000000   0.000000   0.000000   0.000000   0.000000
     2  C    0.000000   0.000000   0.000000   0.000000   0.000000   0.000000
     3  H    0.000000   0.000000   0.000000   0.000000   0.000000   0.000000
     4  H    0.000000   0.000000   0.000000   0.000000   0.000000   0.000000
     5  C    0.000000   0.000000   0.000000   0.000000   0.000000   0.000000
     6  O    0.000000   0.000000   0.000000   0.000000   0.000000   0.000000
     7  N    0.000000   0.000000   0.000000   0.000000   0.000000   0.000000
     8  H    0.000000   0.000000   0.000000   0.000000   0.000000   0.000000
     9  C    0.000000   0.000000   0.000000   0.000000   0.000000   0.000000
    10  H    0.000000   0.000000   0.000000   0.000000   0.000000   0.000000
    11  C    0.000000   0.000000   0.000000   0.000000   0.000000   0.000000
    12  H    0.000000   0.000000   0.000000   0.000000   0.000000   0.000000
    13  H    0.000000   0.000000   0.000000   0.000000   0.000000   0.000000
    14  H    0.000000   0.000000   0.000000   0.000000   0.000000   0.000000
    15  C    0.000000   0.000000   0.000000   0.000000   0.000000   0.000000
    16  O    0.000000   0.000000   0.000000   0.000000   0.000000   0.000000
    17  N    0.000000   0.000000   0.000000   0.000000   0.000000   0.000000
    18  H    0.000000   0.000000   0.000000   0.000000   0.000000   0.000000
    19  C    0.000001   0.000000   0.000000   0.000000   0.000000   0.000000
    20  H    0.000000   0.000000   0.000000   0.000000   0.000000   0.000000
    21  C   -0.000001   0.000000   0.000000   0.000000   0.000000   0.000000
    22  H    0.000000   0.000000   0.000000   0.000000   0.000000   0.000000
    23  H   -0.000002   0.000000   0.000000   0.000000   0.000000   0.000000
    24  H    0.000000   0.000000   0.000000   0.000000   0.000000   0.000000
    25  C   -0.000082   0.000003   0.000002   0.000000   0.000000   0.000000
    26  O   -0.000001   0.000003   0.000000   0.000000   0.000000   0.000000
    27  N    0.003113   0.000071  -0.000068   0.000001   0.000000   0.000001
    28  H    0.001424  -0.000061  -0.000012  -0.000036   0.000000   0.000000
    29  C   -0.120470   0.000755   0.005798   0.001184  -0.000193  -0.000030
    30  H    0.000717   0.001023  -0.000274  -0.000035   0.000021  -0.000006
    31  C    0.002591   0.000710   0.000024  -0.000070  -0.000005   0.000013
    32  H   -0.000448  -0.000106  -0.000075  -0.000007   0.000001   0.000002
    33  H    0.003318   0.006984   0.000072  -0.000006   0.000004   0.000000
    34  H    0.000222  -0.000195   0.000005   0.000001   0.000000  -0.000002
    35  C    0.272152  -0.021294  -0.024399  -0.001261   0.001327   0.001362
    36  O   -0.100852   0.003595  -0.009038   0.021054   0.000567   0.000571
    37  N    7.082224   0.303300   0.265929  -0.036719  -0.043251  -0.044388
[...]
    29  C    0.000000   0.000000  -0.000029   0.000007  -0.000114   0.000000
    30  H    0.000000   0.000000   0.000026   0.000008   0.000004  -0.000001
    31  C    0.000000   0.000000   0.000000   0.000000  -0.000002   0.000000
    32  H    0.000000   0.000000   0.000000   0.000000   0.000000   0.000000
    33  H    0.000000   0.000000   0.000000   0.000000   0.000000   0.000000
    34  H    0.000000   0.000000  -0.000001   0.000000   0.000001   0.000000
    35  C    0.000000   0.000000   0.000000  -0.000003   0.000001   0.000000
    36  O    0.000000   0.000000   0.000000   0.000000   0.000000   0.000000
    37  N    0.000000   0.000000   0.000000   0.000000   0.000000   0.000000
    38  H    0.000000   0.000000   0.000000   0.000000   0.000000   0.000000
    39  C    0.000000   0.000000   0.000000   0.000000   0.000000   0.000000
    40  H    0.000000   0.000000   0.000000   0.000000   0.000000   0.000000
    41  H    0.000000   0.000000   0.000000   0.000000   0.000000   0.000000
    42  H    0.000000   0.000000   0.000000   0.000000   0.000000   0.000000
             19         20         21         22         23         24
     1  H    0.000000   0.000000   0.000000   0.000000   0.000000   0.000000
     2  C    0.000000   0.000000   0.000000   0.000000   0.000000   0.000000
     3  H    0.000000   0.000000   0.000000   0.000000   0.000000   0.000000
     4  H    0.000000   0.000000   0.000000   0.000000   0.000000   0.000000
     5  C    0.000002   0.000000   0.000000   0.000000   0.000000   0.000000
     6  O    0.000000   0.000000   0.000000   0.000000   0.000000   0.000000
     7  N   -0.000076   0.000001   0.000002   0.000001   0.000000   0.000000
     8  H   -0.000064   0.000000   0.000005  -0.000012   0.000000   0.000000
     9  C    0.006569  -0.000190  -0.000111   0.000197   0.000007  -0.000030
    10  H   -0.000360  -0.000009   0.000001  -0.000004   0.000000   0.000000
    11  C   -0.000090   0.000011  -0.000024  -0.000010   0.000000   0.000011
    12  H   -0.000043   0.000000   0.000010  -0.000005   0.000000   0.000006
    13  H    0.000008  -0.000008  -0.000018  -0.000002   0.000000   0.000023
    14  H    0.000004   0.000000   0.000000   0.000000   0.000000   0.000000
    15  C   -0.032525   0.005627  -0.004667   0.002977   0.000258   0.000115
    16  O    0.007060   0.000272  -0.005183   0.011753   0.000260  -0.000183
    17  N    0.265847  -0.037509  -0.053085  -0.005913   0.004012   0.000354
    18  H   -0.028935  -0.005492   0.005159  -0.000054  -0.000125  -0.000022
    19  C    5.078026   0.370196   0.331998  -0.031904  -0.027136  -0.022870
    20  H    0.370196   0.577695  -0.038328   0.004586  -0.003815  -0.003086
    21  C    0.331998  -0.038328   5.173266   0.376281   0.355848   0.361760
    22  H   -0.031904   0.004586   0.376281   0.497671  -0.027595  -0.025013
    23  H   -0.027136  -0.003815   0.355848  -0.027595   0.571530  -0.026015
    24  H   -0.022870  -0.003086   0.361760  -0.025013  -0.026015   0.551352
    25  C    0.330910  -0.036134  -0.040099  -0.003535  -0.002739   0.003163
    26  O   -0.079262  -0.000498   0.002769   0.000028  -0.000029  -0.000062
    27  N   -0.109444   0.000936   0.005066   0.000351   0.000835   0.000179
    28  H   -0.004014   0.000199   0.005985   0.001308   0.003651  -0.000243
    29  C    0.006571  -0.000185   0.000073  -0.000119   0.000181   0.000002
    30  H    0.000535  -0.000020  -0.000065  -0.000014   0.000010   0.000000
    31  C   -0.000607   0.000059   0.000027   0.000003  -0.000020   0.000000
    32  H    0.000036  -0.000007  -0.000007   0.000000   0.000007   0.000000
    33  H    0.000007  -0.000001   0.000000   0.000000   0.000000   0.000000
    34  H    0.000146  -0.000012  -0.000004   0.000000  -0.000001   0.000000
    35  C    0.000043  -0.000002  -0.000101   0.000004  -0.000045   0.000000
    36  O   -0.000008   0.000000  -0.000217   0.000042  -0.000030  -0.000001
    37  N    0.000001   0.000000  -0.000001   0.000000   0.000000   0.000000
    38  H    0.000000   0.000000   0.000000   0.000000   0.000000   0.000000
    39  C    0.000000   0.000000   0.000000   0.000000   0.000000   0.000000
    40  H    0.000000   0.000000   0.000000   0.000000   0.000000   0.000000
    41  H    0.000000   0.000000   0.000000   0.000000   0.000000   0.000000
    42  H    0.000000   0.000000   0.000000   0.000000   0.000000   0.000000
             25         26         27         28         29         30
     1  H    0.000000   0.000000   0.000000   0.000000   0.000000   0.000000
     2  C    0.000000   0.000000   0.000000   0.000000   0.000000   0.000000
     3  H    0.000000   0.000000   0.000000   0.000000   0.000000   0.000000
     4  H    0.000000   0.000000   0.000000   0.000000   0.000000   0.000000
     5  C    0.000000   0.000000   0.000000   0.000000   0.000000   0.000000
     6  O    0.000000   0.000000   0.000000   0.000000   0.000000   0.000000
     7  N   -0.000003   0.000000   0.000000   0.000000   0.000000   0.000000
     8  H    0.000004   0.000004   0.000001   0.000000   0.000000   0.000000
     9  C   -0.000647  -0.000508  -0.000024   0.000000   0.000000   0.000000
    10  H    0.000055   0.000220   0.000001   0.000000   0.000000   0.000000
    11  C    0.000017   0.000003   0.000000   0.000000   0.000000   0.000000
    12  H    0.000000   0.000000   0.000000   0.000000   0.000000   0.000000
    13  H    0.000005  -0.000001   0.000000   0.000000   0.000000   0.000000
    14  H    0.000000   0.000000   0.000000   0.000000   0.000000   0.000000
    15  C    0.003006   0.007922  -0.000347  -0.000022  -0.000029   0.000026
    16  O    0.006396  -0.001592  -0.001058  -0.000052   0.000007   0.000008
    17  N   -0.059048  -0.003110   0.003116   0.000106  -0.000114   0.000004
    18  H    0.000146   0.003049   0.000011  -0.000011   0.000000  -0.000001
    19  C    0.330910  -0.079262  -0.109444  -0.004014   0.006571   0.000535
    20  H   -0.036134  -0.000498   0.000936   0.000199  -0.000185  -0.000020
    21  C   -0.040099   0.002769   0.005066   0.005985   0.000073  -0.000065
    22  H   -0.003535   0.000028   0.000351   0.001308  -0.000119  -0.000014
    23  H   -0.002739  -0.000029   0.000835   0.003651   0.000181   0.000010
    24  H    0.003163  -0.000062   0.000179  -0.000243   0.000002   0.000000
    25  C    4.367067   0.556529   0.261041  -0.011306  -0.021258  -0.000296
    26  O    0.556529   8.133997  -0.100476   0.002565   0.008383   0.010578
    27  N    0.261041  -0.100476   7.196367   0.271358   0.256445  -0.051912
    28  H   -0.011306   0.002565   0.271358   0.370449  -0.053970   0.004211
    29  C   -0.021258   0.008383   0.256445  -0.053970   5.077440   0.371026
    30  H   -0.000296   0.010578  -0.051912   0.004211   0.371026   0.568098
    31  C   -0.004559  -0.005802  -0.053445   0.003842   0.349656  -0.047870
    32  H    0.000404  -0.000022  -0.000235   0.000737  -0.034050   0.005402
    33  H    0.000064   0.000010   0.004764  -0.000109  -0.030033   0.000136
    34  H    0.003857   0.008931  -0.008846  -0.000215  -0.022731  -0.005020
    35  C    0.005255   0.000588  -0.028458  -0.002250   0.306386  -0.034299
    36  O    0.000624  -0.000005  -0.016944   0.043907  -0.081720   0.001843
    37  N   -0.000072  -0.000001   0.002620   0.001839  -0.110639   0.001257
    38  H   -0.000003   0.000001   0.000068  -0.000082   0.001642   0.001903
    39  C    0.000001   0.000000  -0.000090  -0.000016   0.005642  -0.000125
    40  H    0.000000   0.000000   0.000007  -0.000049   0.001089  -0.000032
    41  H    0.000000   0.000000   0.000002   0.000001  -0.000155   0.000007
    42  H    0.000000   0.000000   0.000000   0.000000  -0.000092  -0.000006
             31         32         33         34         35         36
     1  H    0.000000   0.000000   0.000000   0.000000   0.000000   0.000000
     2  C    0.000000   0.000000   0.000000   0.000000   0.000000   0.000000
     3  H    0.000000   0.000000   0.000000   0.000000   0.000000   0.000000
     4  H    0.000000   0.000000   0.000000   0.000000   0.000000   0.000000
     5  C    0.000000   0.000000   0.000000   0.000000   0.000000   0.000000
     6  O    0.000000   0.000000   0.000000   0.000000   0.000000   0.000000
     7  N    0.000000   0.000000   0.000000   0.000000   0.000000   0.000000
     8  H    0.000000   0.000000   0.000000   0.000000   0.000000   0.000000
     9  C    0.000000   0.000000   0.000000   0.000000   0.000000   0.000000
    10  H    0.000000   0.000000   0.000000   0.000000   0.000000   0.000000
    11  C    0.000000   0.000000   0.000000   0.000000   0.000000   0.000000
    12  H    0.000000   0.000000   0.000000   0.000000   0.000000   0.000000
    13  H    0.000000   0.000000   0.000000   0.000000   0.000000   0.000000
    14  H    0.000000   0.000000   0.000000   0.000000   0.000000   0.000000
    15  C    0.000000   0.000000   0.000000  -0.000001   0.000000   0.000000
    16  O    0.000000   0.000000   0.000000   0.000000  -0.000003   0.000000
    17  N   -0.000002   0.000000   0.000000   0.000001   0.000001   0.000000
    18  H    0.000000   0.000000   0.000000   0.000000   0.000000   0.000000
    19  C   -0.000607   0.000036   0.000007   0.000146   0.000043  -0.000008
    20  H    0.000059  -0.000007  -0.000001  -0.000012  -0.000002   0.000000
    21  C    0.000027  -0.000007   0.000000  -0.000004  -0.000101  -0.000217
    22  H    0.000003   0.000000   0.000000   0.000000   0.000004   0.000042
    23  H   -0.000020   0.000007   0.000000  -0.000001  -0.000045  -0.000030
    24  H    0.000000   0.000000   0.000000   0.000000   0.000000  -0.000001
    25  C   -0.004559   0.000404   0.000064   0.003857   0.005255   0.000624
    26  O   -0.005802  -0.000022   0.000010   0.008931   0.000588  -0.000005
    27  N   -0.053445  -0.000235   0.004764  -0.008846  -0.028458  -0.016944
    28  H    0.003842   0.000737  -0.000109  -0.000215  -0.002250   0.043907
    29  C    0.349656  -0.034050  -0.030033  -0.022731   0.306386  -0.081720
    30  H   -0.047870   0.005402   0.000136  -0.005020  -0.034299   0.001843
    31  C    5.142279   0.370351   0.356200   0.369501  -0.034854  -0.001566
    32  H    0.370351   0.555888  -0.027564  -0.027417  -0.003916   0.001429
    33  H    0.356200  -0.027564   0.584821  -0.025957  -0.003741  -0.000014
    34  H    0.369501  -0.027417  -0.025957   0.515149   0.003655  -0.000084
    35  C   -0.034854  -0.003916  -0.003741   0.003655   4.371321   0.573690
    36  O   -0.001566   0.001429  -0.000014  -0.000084   0.573690   8.084020
    37  N    0.000783  -0.000012   0.003393   0.000041   0.285313  -0.092007
    38  H    0.000317  -0.000023   0.002352  -0.000090  -0.022023   0.003300
    39  C   -0.000206  -0.000010  -0.000051   0.000005  -0.022923  -0.007575
    40  H   -0.000042  -0.000007  -0.000001   0.000001  -0.001368   0.019662
    41  H   -0.000005   0.000000   0.000004   0.000000   0.000536   0.000435
    42  H    0.000032  -0.000002  -0.000013  -0.000001   0.001687   0.000437
             37         38         39         40         41         42
     1  H    0.000000   0.000000   0.000000   0.000000   0.000000   0.000000
     2  C    0.000000   0.000000   0.000000   0.000000   0.000000   0.000000
     3  H    0.000000   0.000000   0.000000   0.000000   0.000000   0.000000
     4  H    0.000000   0.000000   0.000000   0.000000   0.000000   0.000000
     5  C    0.000000   0.000000   0.000000   0.000000   0.000000   0.000000
     6  O    0.000000   0.000000   0.000000   0.000000   0.000000   0.000000
     7  N    0.000000   0.000000   0.000000   0.000000   0.000000   0.000000
     8  H    0.000000   0.000000   0.000000   0.000000   0.000000   0.000000
     9  C    0.000000   0.000000   0.000000   0.000000   0.000000   0.000000
    10  H    0.000000   0.000000   0.000000   0.000000   0.000000   0.000000
    11  C    0.000000   0.000000   0.000000   0.000000   0.000000   0.000000
    12  H    0.000000   0.000000   0.000000   0.000000   0.000000   0.000000
    13  H    0.000000   0.000000   0.000000   0.000000   0.000000   0.000000
    14  H    0.000000   0.000000   0.000000   0.000000   0.000000   0.000000
    15  C    0.000000   0.000000   0.000000   0.000000   0.000000   0.000000
    16  O    0.000000   0.000000   0.000000   0.000000   0.000000   0.000000
    17  N    0.000000   0.000000   0.000000   0.000000   0.000000   0.000000
    18  H    0.000000   0.000000   0.000000   0.000000   0.000000   0.000000
    19  C    0.000001   0.000000   0.000000   0.000000   0.000000   0.000000
    20  H    0.000000   0.000000   0.000000   0.000000   0.000000   0.000000
    21  C   -0.000001   0.000000   0.000000   0.000000   0.000000   0.000000
    22  H    0.000000   0.000000   0.000000   0.000000   0.000000   0.000000
    23  H    0.000000   0.000000   0.000000   0.000000   0.000000   0.000000
    24  H    0.000000   0.000000   0.000000   0.000000   0.000000   0.000000
    25  C   -0.000072  -0.000003   0.000001   0.000000   0.000000   0.000000
    26  O   -0.000001   0.000001   0.000000   0.000000   0.000000   0.000000
    27  N    0.002620   0.000068  -0.000090   0.000007   0.000002   0.000000
    28  H    0.001839  -0.000082  -0.000016  -0.000049   0.000001   0.000000
    29  C   -0.110639   0.001642   0.005642   0.001089  -0.000155  -0.000092
    30  H    0.001257   0.001903  -0.000125  -0.000032   0.000007  -0.000006
    31  C    0.000783   0.000317  -0.000206  -0.000042  -0.000005   0.000032
    32  H   -0.000012  -0.000023  -0.000010  -0.000007   0.000000  -0.000002
    33  H    0.003393   0.002352  -0.000051  -0.000001   0.000004  -0.000013
    34  H    0.000041  -0.000090   0.000005   0.000001   0.000000  -0.000001
    35  C    0.285313  -0.022023  -0.022923  -0.001368   0.000536   0.001687
    36  O   -0.092007   0.003300  -0.007575   0.019662   0.000435   0.000437
    37  N    7.048521   0.306289   0.265795  -0.039012  -0.040744  -0.040951
    38  H    0.306289   0.403541  -0.031592   0.004005  -0.001023  -0.000773
    39  C    0.265795  -0.031592   4.962819   0.378143   0.382877   0.380759
    40  H   -0.039012   0.004005   0.378143   0.478167  -0.024530  -0.024026
    41  H   -0.040744  -0.001023   0.382877  -0.024530   0.557333  -0.039489
    42  H   -0.040951  -0.000773   0.380759  -0.024026  -0.039489   0.560220
 Mulliken atomic charges:
              1
     1  H    0.181162
     2  C   -0.533114
     3  H    0.146798
     4  H    0.180868
     5  C    0.597320
     6  O   -0.524639
     7  N   -0.605138
     8  H    0.346203
     9  C   -0.035267
    10  H    0.176003
    11  C   -0.442251
    12  H    0.153848
    13  H    0.138228
    14  H    0.190016
    15  C    0.620193
    16  O   -0.534854
    17  N   -0.582640
    18  H    0.338268
    19  C   -0.060617
    20  H    0.165716
    21  C   -0.476339
    22  H    0.198978
    23  H    0.150952
    24  H    0.160560
    25  C    0.641153
    26  O   -0.544209
    27  N   -0.631892
    28  H    0.362181
    29  C   -0.029449
    30  H    0.174615
    31  C   -0.444070
    32  H    0.159018
    33  H    0.135732
    34  H    0.189093
    35  C    0.605504
    36  O   -0.529217
    37  N   -0.592414
    38  H    0.332193
    39  C   -0.313454
    40  H    0.207995
    41  H    0.164751
    42  H    0.162218
 Sum of Mulliken atomic charges =   0.00000
 Mulliken charges with hydrogens summed into heavy atoms:
              1
     2  C   -0.024286
     5  C    0.597320
     6  O   -0.524639
     7  N   -0.258935
     9  C    0.140737
    11  C    0.039841
    15  C    0.620193
    16  O   -0.534854
    17  N   -0.244372
    19  C    0.105099
    21  C    0.034150
    25  C    0.641153
    26  O   -0.544209
    27  N   -0.269712
    29  C    0.145166
    31  C    0.039774
    35  C    0.605504
    36  O   -0.529217
    37  N   -0.260221
    39  C    0.221510
 Sum of Mulliken charges with hydrogens summed into heavy atoms =   0.00000
 Electronic spatial extent (au):  <R**2>=           8951.7242
 Charge=              0.0000 electrons
 Dipole moment (field-independent basis, Debye):
    X=              4.9967    Y=              0.3390    Z=             -0.2874  Tot=              5.0164
 Quadrupole moment (field-independent basis, Debye-Ang):
   XX=           -123.4216   YY=            -98.7453   ZZ=           -125.9867
   XY=             15.8149   XZ=             15.6883   YZ=             -2.8767
 Traceless Quadrupole moment (field-independent basis, Debye-Ang):
   XX=             -7.3704   YY=             17.3059   ZZ=             -9.9355
   XY=             15.8149   XZ=             15.6883   YZ=             -2.8767
 Octapole moment (field-independent basis, Debye-Ang**2):
  XXX=            222.4209  YYY=             17.1504  ZZZ=             -4.5471  XYY=             12.6052
  XXY=             58.9346  XXZ=            -26.7484  XZZ=              8.1446  YZZ=              1.7998
  YYZ=              3.7474  XYZ=             17.6190
 Hexadecapole moment (field-independent basis, Debye-Ang**3):
 XXXX=          -9290.8730 YYYY=          -1794.8833 ZZZZ=           -832.5095 XXXY=            465.9261
 XXXZ=            396.9639 YYYX=             15.1405 YYYZ=            -15.0090 ZZZX=             -4.7258
 ZZZY=             -2.9665 XXYY=          -1527.8603 XXZZ=          -1675.9106 YYZZ=           -433.3890
 XXYZ=           -102.9598 YYXZ=            -10.0373 ZZXY=             36.5917
 N-N= 1.616235182686D+03 E-N=-5.542193320463D+03  KE= 9.813302965371D+02
 1\1\GINC-NODE006\FOpt\RB3LYP\6-31G(d)\C12H22N4O4\MANAGER\30-Dec-2016\0
 \\# b3lyp/6-31G* Opt=(ModRedundant, maxcycles=1000, calcfc) geom=nocro
 wd\\Phi Psi fixed scan\\0,1\H,9.4123463317,2.6339005417,3.0906046212\C
 ,8.3860227908,2.8249308006,3.4199268235\H,8.3897809775,3.6493040466,4.
 1396711066\H,8.029860789,1.9179595334,3.9179924664\C,7.5192954718,3.08
 62715897,2.1962963925\O,7.3810385332,2.2517726279,1.3058864394\N,6.904
 7745971,4.3014709264,2.162211324\H,7.1018739327,5.0240988221,2.8450342
 877\C,6.1274592225,4.7367726794,1.0188078919\H,6.6546199316,4.42999062
 7,0.1055417747\C,4.7194482591,4.110004625,1.0031587266\H,4.1592447463,
 4.4057360147,1.8963915942\H,4.1540747542,4.4231788499,0.118838463\H,4.
 8208990531,3.0222400622,0.9883833261\C,6.0633057691,6.2710623558,1.079
 0213655\O,6.4054133637,6.8929759076,2.0818560511\N,5.5438305963,6.8754
 544312,-0.0298697442\H,5.5733353257,6.3312154626,-0.8816504778\C,5.617
 9101605,8.3278964284,-0.2020538805\H,5.2620006904,8.5154014991,-1.2228
 651472\C,4.6917429053,9.0733890728,0.7671678975\H,5.0447275807,8.98368
 90058,1.7962069037\H,4.6170159028,10.1325126495,0.4969644708\H,3.68554
 30248,8.6478003127,0.7079443331\C,7.1076558973,8.7648076673,-0.2112395
 292\O,7.9629723915,8.0326118956,-0.7008134737\N,7.3791398375,10.007360
 6641,0.2580901241\H,6.7065658057,10.5415122867,0.797041076\C,8.7403617
 892,10.507270518,0.3327324049\H,9.3948836647,9.6812714685,0.6395142303
 \C,9.2297223088,11.0421013172,-1.0265958573\H,8.6035075532,11.87697718
 49,-1.3575739445\H,10.2680540595,11.3879292122,-0.9699169838\H,9.17377
 79823,10.2376041927,-1.7640556837\C,8.7474587449,11.6062868058,1.40913
 9101\O,7.70213672,12.1013469645,1.8252143955\N,9.9805920132,11.9912342
 903,1.8307405871\H,10.787073598,11.5030045487,1.467685963\C,10.1880884
 677,13.0357141041,2.8203224807\H,9.2087328899,13.4380784554,3.08094683
 59\H,10.6625085445,12.6353535181,3.7236958466\H,10.8135030223,13.84000
 60337,2.4167054174\\Version=EM64L-G09RevA.02\State=1-A\HF=-990.5023282
 \RMSD=9.004e-09\RMSF=5.802e-05\Dipole=0.5754595,1.88758,0.0318635\Quad
 rupole=12.1256709,-13.9784217,1.8527509,11.9815905,8.1979219,-4.499439
 9\PG=C01 [X(C12H22N4O4)]\\@


 A MAN IS NEVER SO BRILLIANT AS WHEN HE TAKES THE WORDS RIGHT OUT
 OF YOUR MOUTH. -- ARNOT SHEPPARD, JR.
 Job cpu time:  0 days  3 hours  2 minutes  3.7 seconds.
 File lengths (MBytes):  RWF=    608 Int=      0 D2E=      0 Chk=     11 Scr=      1
 Normal termination of Gaussian 09 at Fri Dec 30 05:21:13 2016.
