 Entering Gaussian System, Link 0=g09
 Initial command:
 /home/steboss/Software/g09/l1.exe /tmp/Gau-12813.inp -scrdir=/tmp/
 Entering Link 1 = /home/steboss/Software/g09/l1.exe PID=     12815.
  
 Copyright (c) 1988,1990,1992,1993,1995,1998,2003,2009, Gaussian, Inc.
                  All Rights Reserved.
  
 This is part of the Gaussian(R) 09 program.  It is based on
 the Gaussian(R) 03 system (copyright 2003, Gaussian, Inc.),
 the Gaussian(R) 98 system (copyright 1998, Gaussian, Inc.),
 the Gaussian(R) 94 system (copyright 1995, Gaussian, Inc.),
 the Gaussian 92(TM) system (copyright 1992, Gaussian, Inc.),
 the Gaussian 90(TM) system (copyright 1990, Gaussian, Inc.),
 the Gaussian 88(TM) system (copyright 1988, Gaussian, Inc.),
 the Gaussian 86(TM) system (copyright 1986, Carnegie Mellon
 University), and the Gaussian 82(TM) system (copyright 1983,
 Carnegie Mellon University). Gaussian is a federally registered
 trademark of Gaussian, Inc.
  
 This software contains proprietary and confidential information,
 including trade secrets, belonging to Gaussian, Inc.
  
 This software is provided under written license and may be
 used, copied, transmitted, or stored only in accord with that
 written license.
  
 The following legend is applicable only to US Government
 contracts under FAR:
  
                    RESTRICTED RIGHTS LEGEND
  
 Use, reproduction and disclosure by the US Government is
 subject to restrictions as set forth in subparagraphs (a)
 and (c) of the Commercial Computer Software - Restricted
 Rights clause in FAR 52.227-19.
  
 Gaussian, Inc.
 340 Quinnipiac St., Bldg. 40, Wallingford CT 06492
  
  
 ---------------------------------------------------------------
 Warning -- This program may not be used in any manner that
 competes with the business of Gaussian, Inc. or will provide
 assistance to any competitor of Gaussian, Inc.  The licensee
 of this program is prohibited from giving any competitor of
 Gaussian, Inc. access to this program.  By using this program,
 the user acknowledges that Gaussian, Inc. is engaged in the
 business of creating and licensing software in the field of
 computational chemistry and represents and warrants to the
 licensee that it is not a competitor of Gaussian, Inc. and that
 it will not use this program in any manner prohibited above.
 ---------------------------------------------------------------
  

 Cite this work as:
 Gaussian 09, Revision A.02,
 M. J. Frisch, G. W. Trucks, H. B. Schlegel, G. E. Scuseria, 
 M. A. Robb, J. R. Cheeseman, G. Scalmani, V. Barone, B. Mennucci, 
 G. A. Petersson, H. Nakatsuji, M. Caricato, X. Li, H. P. Hratchian, 
 A. F. Izmaylov, J. Bloino, G. Zheng, J. L. Sonnenberg, M. Hada, 
 M. Ehara, K. Toyota, R. Fukuda, J. Hasegawa, M. Ishida, T. Nakajima, 
 Y. Honda, O. Kitao, H. Nakai, T. Vreven, J. A. Montgomery, Jr., 
 J. E. Peralta, F. Ogliaro, M. Bearpark, J. J. Heyd, E. Brothers, 
 K. N. Kudin, V. N. Staroverov, R. Kobayashi, J. Normand, 
 K. Raghavachari, A. Rendell, J. C. Burant, S. S. Iyengar, J. Tomasi, 
 M. Cossi, N. Rega, J. M. Millam, M. Klene, J. E. Knox, J. B. Cross, 
 V. Bakken, C. Adamo, J. Jaramillo, R. Gomperts, R. E. Stratmann, 
 O. Yazyev, A. J. Austin, R. Cammi, C. Pomelli, J. W. Ochterski, 
 R. L. Martin, K. Morokuma, V. G. Zakrzewski, G. A. Voth, 
 P. Salvador, J. J. Dannenberg, S. Dapprich, A. D. Daniels, 
 O. Farkas, J. B. Foresman, J. V. Ortiz, J. Cioslowski, 
 and D. J. Fox, Gaussian, Inc., Wallingford CT, 2009.
 
 ******************************************
 Gaussian 09:  EM64L-G09RevA.02 11-Jun-2009
                30-Dec-2016 
 ******************************************
 %chk=structure_60.chk
 ----------------------------------------------------------------------
 # b3lyp/6-31G* Opt=(ModRedundant, maxcycles=1000, calcfc) geom=nocrowd
 ----------------------------------------------------------------------
 1/6=1000,10=4,14=-1,18=120,19=15,26=3,38=1/1,3;
 2/9=110,12=1,17=6,18=5,40=1/2;
 3/5=1,6=6,7=1,11=2,16=1,25=1,30=1,71=2,74=-5/1,2,3;
 4//1;
 5/5=2,38=5/2;
 8/6=4,10=90,11=11/1;
 11/6=1,8=1,9=11,15=111,16=1/1,2,10;
 10/6=1,7=6,13=1/2;
 6/7=2,8=2,9=2,10=2,28=1/1;
 7/10=1,18=20,25=1/1,2,3,16;
 1/6=1000,10=4,14=-1,18=20,19=15/3(2);
 2/9=110,12=1/2;
 99//99;
 2/9=110,12=1/2;
 3/5=1,6=6,7=1,11=2,16=1,25=1,30=1,71=1,74=-5/1,2,3;
 4/5=5,16=3/1;
 5/5=2,38=5/2;
 7//1,2,3,16;
 1/6=1000,14=-1,18=20,19=15/3(-5);
 2/9=110,12=1/2;
 6/7=2,8=2,9=2,10=2,19=2,28=1/1;
 99/9=1/99;
 ------------------
 Phi Psi fixed scan
 ------------------
 Symbolic Z-matrix:
 Charge =  0 Multiplicity = 1
 H                     7.7691    1.        3.3308 
 C                     7.7691    2.09      3.3308 
 H                     8.7966    2.4538    3.3308 
 H                     7.2553    2.4538    4.2206 
 C                     7.0554    2.6408    2.0946 
 O                     6.5738    1.8774    1.2605 
 N                     6.9914    3.9696    1.9838 
 H                     7.4025    4.5561    2.6959 
 C                     6.3424    4.6139    0.8598 
 H                     6.8359    4.3155   -0.0652 
 C                     4.8714    4.2208    0.7761 
 H                     4.3618    4.5213    1.6916 
 H                     4.4096    4.7189   -0.0764 
 H                     4.7897    3.1409    0.6532 
 C                     6.4127    6.1294    0.9815 
 O                     6.9688    6.6527    1.9446 
 N                     5.846     6.8349    0. 
 H                     5.4006    6.3592   -0.7716 
 C                     5.8461    8.2839    0. 
 H                     5.3323    8.6477   -0.8898 
 C                     5.1347    8.8329    1.2322 
 H                     5.6431    8.4846    2.1312 
 H                     5.1499    9.9224    1.2058 
 H                     4.1019    8.4846    1.2414 
 C                     7.266     8.8318    0. 
 O                     7.6574    9.5503    0.9171 
 N                     8.0386    8.4902   -1.0338 
 H                     7.6716    7.8967   -1.764 
 C                     9.4087    8.9471   -1.1497 
 H                     9.4275    10.0365  -1.1807 
 C                     10.2458   8.4788    0.0359 
 H                     10.244    7.3895    0.0749 
 H                     11.2693   8.8362   -0.0776 
 H                     9.8232    8.8756    0.959 
 C                     10.0589   8.4132   -2.418 
 O                     9.4267    7.693    -3.1875 
 N                     11.3274   8.7686   -2.6346 
 H                     11.8055   9.3628   -1.9725 
 C                     12.0574   8.3257   -3.8054 
 H                     11.4129   7.6969   -4.4197 
 H                     12.3771   9.1923   -4.3841 
 H                     12.932    7.7544   -3.4943 
 
 The following ModRedundant input section has been read:
 D   15   17   19   25 F                                                       
 D   17   19   25   27 F                                                       

 GradGradGradGradGradGradGradGradGradGradGradGradGradGradGradGradGradGrad
 Berny optimization.
 Initialization pass.
                           ----------------------------
                           !    Initial Parameters    !
                           ! (Angstroms and Degrees)  !
 --------------------------                            --------------------------
 ! Name  Definition              Value          Derivative Info.                !
 --------------------------------------------------------------------------------
 ! R1    R(1,2)                  1.09           calculate D2E/DX2 analytically  !
 ! R2    R(2,3)                  1.09           calculate D2E/DX2 analytically  !
 ! R3    R(2,4)                  1.09           calculate D2E/DX2 analytically  !
 ! R4    R(2,5)                  1.53           calculate D2E/DX2 analytically  !
 ! R5    R(5,6)                  1.229          calculate D2E/DX2 analytically  !
 ! R6    R(5,7)                  1.3349         calculate D2E/DX2 analytically  !
 ! R7    R(7,8)                  1.01           calculate D2E/DX2 analytically  !
 ! R8    R(7,9)                  1.449          calculate D2E/DX2 analytically  !
 ! R9    R(9,10)                 1.0901         calculate D2E/DX2 analytically  !
 ! R10   R(9,11)                 1.5249         calculate D2E/DX2 analytically  !
 ! R11   R(9,15)                 1.522          calculate D2E/DX2 analytically  !
 ! R12   R(11,12)                1.09           calculate D2E/DX2 analytically  !
 ! R13   R(11,13)                1.09           calculate D2E/DX2 analytically  !
 ! R14   R(11,14)                1.0899         calculate D2E/DX2 analytically  !
 ! R15   R(15,16)                1.2291         calculate D2E/DX2 analytically  !
 ! R16   R(15,17)                1.335          calculate D2E/DX2 analytically  !
 ! R17   R(17,18)                1.01           calculate D2E/DX2 analytically  !
 ! R18   R(17,19)                1.449          calculate D2E/DX2 analytically  !
 ! R19   R(19,20)                1.09           calculate D2E/DX2 analytically  !
 ! R20   R(19,21)                1.5251         calculate D2E/DX2 analytically  !
 ! R21   R(19,25)                1.5219         calculate D2E/DX2 analytically  !
 ! R22   R(21,22)                1.0899         calculate D2E/DX2 analytically  !
 ! R23   R(21,23)                1.0899         calculate D2E/DX2 analytically  !
 ! R24   R(21,24)                1.09           calculate D2E/DX2 analytically  !
 ! R25   R(25,26)                1.229          calculate D2E/DX2 analytically  !
 ! R26   R(25,27)                1.335          calculate D2E/DX2 analytically  !
 ! R27   R(27,28)                1.01           calculate D2E/DX2 analytically  !
 ! R28   R(27,29)                1.4489         calculate D2E/DX2 analytically  !
 ! R29   R(29,30)                1.09           calculate D2E/DX2 analytically  !
 ! R30   R(29,31)                1.525          calculate D2E/DX2 analytically  !
 ! R31   R(29,35)                1.522          calculate D2E/DX2 analytically  !
 ! R32   R(31,32)                1.09           calculate D2E/DX2 analytically  !
 ! R33   R(31,33)                1.09           calculate D2E/DX2 analytically  !
 ! R34   R(31,34)                1.09           calculate D2E/DX2 analytically  !
 ! R35   R(35,36)                1.229          calculate D2E/DX2 analytically  !
 ! R36   R(35,37)                1.335          calculate D2E/DX2 analytically  !
 ! R37   R(37,38)                1.01           calculate D2E/DX2 analytically  !
 ! R38   R(37,39)                1.4491         calculate D2E/DX2 analytically  !
 ! R39   R(39,40)                1.09           calculate D2E/DX2 analytically  !
 ! R40   R(39,41)                1.09           calculate D2E/DX2 analytically  !
 ! R41   R(39,42)                1.09           calculate D2E/DX2 analytically  !
 ! A1    A(1,2,3)              109.4972         calculate D2E/DX2 analytically  !
 ! A2    A(1,2,4)              109.4974         calculate D2E/DX2 analytically  !
 ! A3    A(1,2,5)              111.1            calculate D2E/DX2 analytically  !
 ! A4    A(3,2,4)              109.4481         calculate D2E/DX2 analytically  !
 ! A5    A(3,2,5)              108.6367         calculate D2E/DX2 analytically  !
 ! A6    A(4,2,5)              108.6348         calculate D2E/DX2 analytically  !
 ! A7    A(2,5,6)              120.4994         calculate D2E/DX2 analytically  !
 ! A8    A(2,5,7)              116.6003         calculate D2E/DX2 analytically  !
 ! A9    A(6,5,7)              122.9003         calculate D2E/DX2 analytically  !
 ! A10   A(5,7,8)              119.9996         calculate D2E/DX2 analytically  !
 ! A11   A(5,7,9)              121.9007         calculate D2E/DX2 analytically  !
 ! A12   A(8,7,9)              118.0998         calculate D2E/DX2 analytically  !
 ! A13   A(7,9,10)             109.4963         calculate D2E/DX2 analytically  !
 ! A14   A(7,9,11)             111.1004         calculate D2E/DX2 analytically  !
 ! A15   A(7,9,15)             111.102          calculate D2E/DX2 analytically  !
 ! A16   A(10,9,11)            108.6374         calculate D2E/DX2 analytically  !
 ! A17   A(10,9,15)            108.634          calculate D2E/DX2 analytically  !
 ! A18   A(11,9,15)            107.7959         calculate D2E/DX2 analytically  !
 ! A19   A(9,11,12)            109.5007         calculate D2E/DX2 analytically  !
 ! A20   A(9,11,13)            109.5005         calculate D2E/DX2 analytically  !
 ! A21   A(9,11,14)            109.5061         calculate D2E/DX2 analytically  !
 ! A22   A(12,11,13)           109.441          calculate D2E/DX2 analytically  !
 ! A23   A(12,11,14)           109.4392         calculate D2E/DX2 analytically  !
 ! A24   A(13,11,14)           109.4397         calculate D2E/DX2 analytically  !
 ! A25   A(9,15,16)            120.4974         calculate D2E/DX2 analytically  !
 ! A26   A(9,15,17)            116.6034         calculate D2E/DX2 analytically  !
 ! A27   A(16,15,17)           122.8992         calculate D2E/DX2 analytically  !
 ! A28   A(15,17,18)           119.9987         calculate D2E/DX2 analytically  !
 ! A29   A(15,17,19)           121.8998         calculate D2E/DX2 analytically  !
 ! A30   A(18,17,19)           118.1015         calculate D2E/DX2 analytically  !
 ! A31   A(17,19,20)           109.4954         calculate D2E/DX2 analytically  !
 ! A32   A(17,19,21)           111.0974         calculate D2E/DX2 analytically  !
 ! A33   A(17,19,25)           111.1042         calculate D2E/DX2 analytically  !
 ! A34   A(20,19,21)           108.6349         calculate D2E/DX2 analytically  !
 ! A35   A(20,19,25)           108.6399         calculate D2E/DX2 analytically  !
 ! A36   A(21,19,25)           107.7944         calculate D2E/DX2 analytically  !
 ! A37   A(19,21,22)           109.4996         calculate D2E/DX2 analytically  !
 ! A38   A(19,21,23)           109.4977         calculate D2E/DX2 analytically  !
 ! A39   A(19,21,24)           109.4988         calculate D2E/DX2 analytically  !
 ! A40   A(22,21,23)           109.4452         calculate D2E/DX2 analytically  !
 ! A41   A(22,21,24)           109.4447         calculate D2E/DX2 analytically  !
 ! A42   A(23,21,24)           109.4412         calculate D2E/DX2 analytically  !
 ! A43   A(19,25,26)           120.5021         calculate D2E/DX2 analytically  !
 ! A44   A(19,25,27)           116.6021         calculate D2E/DX2 analytically  !
 ! A45   A(26,25,27)           122.8958         calculate D2E/DX2 analytically  !
 ! A46   A(25,27,28)           119.9937         calculate D2E/DX2 analytically  !
 ! A47   A(25,27,29)           121.9029         calculate D2E/DX2 analytically  !
 ! A48   A(28,27,29)           118.1034         calculate D2E/DX2 analytically  !
 ! A49   A(27,29,30)           109.4965         calculate D2E/DX2 analytically  !
 ! A50   A(27,29,31)           111.102          calculate D2E/DX2 analytically  !
 ! A51   A(27,29,35)           111.1008         calculate D2E/DX2 analytically  !
 ! A52   A(30,29,31)           108.6358         calculate D2E/DX2 analytically  !
 ! A53   A(30,29,35)           108.6347         calculate D2E/DX2 analytically  !
 ! A54   A(31,29,35)           107.7963         calculate D2E/DX2 analytically  !
 ! A55   A(29,31,32)           109.499          calculate D2E/DX2 analytically  !
 ! A56   A(29,31,33)           109.4979         calculate D2E/DX2 analytically  !
 ! A57   A(29,31,34)           109.4984         calculate D2E/DX2 analytically  !
 ! A58   A(32,31,33)           109.4477         calculate D2E/DX2 analytically  !
 ! A59   A(32,31,34)           109.4421         calculate D2E/DX2 analytically  !
 ! A60   A(33,31,34)           109.4422         calculate D2E/DX2 analytically  !
 ! A61   A(29,35,36)           120.5017         calculate D2E/DX2 analytically  !
 ! A62   A(29,35,37)           116.5984         calculate D2E/DX2 analytically  !
 ! A63   A(36,35,37)           122.8999         calculate D2E/DX2 analytically  !
 ! A64   A(35,37,38)           120.0034         calculate D2E/DX2 analytically  !
 ! A65   A(35,37,39)           121.8962         calculate D2E/DX2 analytically  !
 ! A66   A(38,37,39)           118.1004         calculate D2E/DX2 analytically  !
 ! A67   A(37,39,40)           109.4992         calculate D2E/DX2 analytically  !
 ! A68   A(37,39,41)           109.4946         calculate D2E/DX2 analytically  !
 ! A69   A(37,39,42)           109.5002         calculate D2E/DX2 analytically  !
 ! A70   A(40,39,41)           109.4421         calculate D2E/DX2 analytically  !
 ! A71   A(40,39,42)           109.4465         calculate D2E/DX2 analytically  !
 ! A72   A(41,39,42)           109.4447         calculate D2E/DX2 analytically  !
 ! D1    D(1,2,5,6)              0.0022         calculate D2E/DX2 analytically  !
 ! D2    D(1,2,5,7)            179.9987         calculate D2E/DX2 analytically  !
 ! D3    D(3,2,5,6)            120.5114         calculate D2E/DX2 analytically  !
 ! D4    D(3,2,5,7)            -59.4921         calculate D2E/DX2 analytically  !
 ! D5    D(4,2,5,6)           -120.5061         calculate D2E/DX2 analytically  !
 ! D6    D(4,2,5,7)             59.4904         calculate D2E/DX2 analytically  !
 ! D7    D(2,5,7,8)              0.0002         calculate D2E/DX2 analytically  !
 ! D8    D(2,5,7,9)           -179.997          calculate D2E/DX2 analytically  !
 ! D9    D(6,5,7,8)            179.9966         calculate D2E/DX2 analytically  !
 ! D10   D(6,5,7,9)             -0.0006         calculate D2E/DX2 analytically  !
 ! D11   D(5,7,9,10)           -60.0013         calculate D2E/DX2 analytically  !
 ! D12   D(5,7,9,11)            59.9987         calculate D2E/DX2 analytically  !
 ! D13   D(5,7,9,15)          -179.9979         calculate D2E/DX2 analytically  !
 ! D14   D(8,7,9,10)           120.0015         calculate D2E/DX2 analytically  !
 ! D15   D(8,7,9,11)          -119.9986         calculate D2E/DX2 analytically  !
 ! D16   D(8,7,9,15)             0.0048         calculate D2E/DX2 analytically  !
 ! D17   D(7,9,11,12)           60.0013         calculate D2E/DX2 analytically  !
 ! D18   D(7,9,11,13)         -179.9997         calculate D2E/DX2 analytically  !
 ! D19   D(7,9,11,14)          -59.999          calculate D2E/DX2 analytically  !
 ! D20   D(10,9,11,12)        -179.4899         calculate D2E/DX2 analytically  !
 ! D21   D(10,9,11,13)         -59.4908         calculate D2E/DX2 analytically  !
 ! D22   D(10,9,11,14)          60.5099         calculate D2E/DX2 analytically  !
 ! D23   D(15,9,11,12)         -61.9473         calculate D2E/DX2 analytically  !
 ! D24   D(15,9,11,13)          58.0517         calculate D2E/DX2 analytically  !
 ! D25   D(15,9,11,14)         178.0524         calculate D2E/DX2 analytically  !
 ! D26   D(7,9,15,16)           -0.0008         calculate D2E/DX2 analytically  !
 ! D27   D(7,9,15,17)          179.9993         calculate D2E/DX2 analytically  !
 ! D28   D(10,9,15,16)        -120.5084         calculate D2E/DX2 analytically  !
 ! D29   D(10,9,15,17)          59.4916         calculate D2E/DX2 analytically  !
 ! D30   D(11,9,15,16)         121.9468         calculate D2E/DX2 analytically  !
 ! D31   D(11,9,15,17)         -58.0532         calculate D2E/DX2 analytically  !
 ! D32   D(9,15,17,18)          -0.0073         calculate D2E/DX2 analytically  !
 ! D33   D(9,15,17,19)        -179.9972         calculate D2E/DX2 analytically  !
 ! D34   D(16,15,17,18)        179.9928         calculate D2E/DX2 analytically  !
 ! D35   D(16,15,17,19)          0.0029         calculate D2E/DX2 analytically  !
 ! D36   D(15,17,19,20)       -179.9987         calculate D2E/DX2 analytically  !
 ! D37   D(15,17,19,21)        -60.0044         calculate D2E/DX2 analytically  !
 ! D38   D(15,17,19,25)         59.9965         frozen, calculate D2E/DX2 analyt!
 ! D39   D(18,17,19,20)          0.0113         calculate D2E/DX2 analytically  !
 ! D40   D(18,17,19,21)        120.0055         calculate D2E/DX2 analytically  !
 ! D41   D(18,17,19,25)       -119.9935         calculate D2E/DX2 analytically  !
 ! D42   D(17,19,21,22)         60.0039         calculate D2E/DX2 analytically  !
 ! D43   D(17,19,21,23)       -179.9943         calculate D2E/DX2 analytically  !
 ! D44   D(17,19,21,24)        -59.998          calculate D2E/DX2 analytically  !
 ! D45   D(20,19,21,22)       -179.4919         calculate D2E/DX2 analytically  !
 ! D46   D(20,19,21,23)        -59.4901         calculate D2E/DX2 analytically  !
 ! D47   D(20,19,21,24)         60.5062         calculate D2E/DX2 analytically  !
 ! D48   D(25,19,21,22)        -61.9445         calculate D2E/DX2 analytically  !
 ! D49   D(25,19,21,23)         58.0573         calculate D2E/DX2 analytically  !
 ! D50   D(25,19,21,24)        178.0536         calculate D2E/DX2 analytically  !
 ! D51   D(17,19,25,26)       -119.9969         calculate D2E/DX2 analytically  !
 ! D52   D(17,19,25,27)         60.0013         frozen, calculate D2E/DX2 analyt!
 ! D53   D(20,19,25,26)        119.4914         calculate D2E/DX2 analytically  !
 ! D54   D(20,19,25,27)        -60.5103         calculate D2E/DX2 analytically  !
 ! D55   D(21,19,25,26)          1.9472         calculate D2E/DX2 analytically  !
 ! D56   D(21,19,25,27)       -178.0545         calculate D2E/DX2 analytically  !
 ! D57   D(19,25,27,28)         -0.0016         calculate D2E/DX2 analytically  !
 ! D58   D(19,25,27,29)       -179.9976         calculate D2E/DX2 analytically  !
 ! D59   D(26,25,27,28)        179.9966         calculate D2E/DX2 analytically  !
 ! D60   D(26,25,27,29)          0.0006         calculate D2E/DX2 analytically  !
 ! D61   D(25,27,29,30)        -60.0023         calculate D2E/DX2 analytically  !
 ! D62   D(25,27,29,31)         59.9967         calculate D2E/DX2 analytically  !
 ! D63   D(25,27,29,35)       -179.9991         calculate D2E/DX2 analytically  !
 ! D64   D(28,27,29,30)        120.0016         calculate D2E/DX2 analytically  !
 ! D65   D(28,27,29,31)       -119.9994         calculate D2E/DX2 analytically  !
 ! D66   D(28,27,29,35)          0.0048         calculate D2E/DX2 analytically  !
 ! D67   D(27,29,31,32)         59.9987         calculate D2E/DX2 analytically  !
 ! D68   D(27,29,31,33)       -179.9968         calculate D2E/DX2 analytically  !
 ! D69   D(27,29,31,34)        -59.9993         calculate D2E/DX2 analytically  !
 ! D70   D(30,29,31,32)       -179.4923         calculate D2E/DX2 analytically  !
 ! D71   D(30,29,31,33)        -59.4878         calculate D2E/DX2 analytically  !
 ! D72   D(30,29,31,34)         60.5096         calculate D2E/DX2 analytically  !
 ! D73   D(35,29,31,32)        -61.9496         calculate D2E/DX2 analytically  !
 ! D74   D(35,29,31,33)         58.0549         calculate D2E/DX2 analytically  !
 ! D75   D(35,29,31,34)        178.0524         calculate D2E/DX2 analytically  !
 ! D76   D(27,29,35,36)         -0.0068         calculate D2E/DX2 analytically  !
 ! D77   D(27,29,35,37)        179.9997         calculate D2E/DX2 analytically  !
 ! D78   D(30,29,35,36)       -120.5143         calculate D2E/DX2 analytically  !
 ! D79   D(30,29,35,37)         59.4922         calculate D2E/DX2 analytically  !
 ! D80   D(31,29,35,36)        121.9423         calculate D2E/DX2 analytically  !
 ! D81   D(31,29,35,37)        -58.0512         calculate D2E/DX2 analytically  !
 ! D82   D(29,35,37,38)         -0.0031         calculate D2E/DX2 analytically  !
 ! D83   D(29,35,37,39)        179.9956         calculate D2E/DX2 analytically  !
 ! D84   D(36,35,37,38)       -179.9964         calculate D2E/DX2 analytically  !
 ! D85   D(36,35,37,39)          0.0023         calculate D2E/DX2 analytically  !
 ! D86   D(35,37,39,40)          0.0021         calculate D2E/DX2 analytically  !
 ! D87   D(35,37,39,41)        119.9979         calculate D2E/DX2 analytically  !
 ! D88   D(35,37,39,42)       -120.0025         calculate D2E/DX2 analytically  !
 ! D89   D(38,37,39,40)       -179.9991         calculate D2E/DX2 analytically  !
 ! D90   D(38,37,39,41)        -60.0033         calculate D2E/DX2 analytically  !
 ! D91   D(38,37,39,42)         59.9962         calculate D2E/DX2 analytically  !
 --------------------------------------------------------------------------------
 Trust Radius=3.00D-01 FncErr=1.00D-07 GrdErr=1.00D-06
 Number of steps in this run= 252 maximum allowed number of steps= 252.
 GradGradGradGradGradGradGradGradGradGradGradGradGradGradGradGradGradGrad

                          Input orientation:                          
 ---------------------------------------------------------------------
 Center     Atomic      Atomic             Coordinates (Angstroms)
 Number     Number       Type             X           Y           Z
 ---------------------------------------------------------------------
      1          1           0        7.769100    1.000000    3.330800
      2          6           0        7.769100    2.090000    3.330800
      3          1           0        8.796600    2.453800    3.330800
      4          1           0        7.255300    2.453800    4.220600
      5          6           0        7.055400    2.640800    2.094600
      6          8           0        6.573800    1.877400    1.260500
      7          7           0        6.991400    3.969600    1.983800
      8          1           0        7.402500    4.556100    2.695900
      9          6           0        6.342400    4.613900    0.859800
     10          1           0        6.835900    4.315500   -0.065200
     11          6           0        4.871400    4.220800    0.776100
     12          1           0        4.361800    4.521300    1.691600
     13          1           0        4.409600    4.718900   -0.076400
     14          1           0        4.789700    3.140900    0.653200
     15          6           0        6.412700    6.129400    0.981500
     16          8           0        6.968800    6.652700    1.944600
     17          7           0        5.846000    6.834900    0.000000
     18          1           0        5.400600    6.359200   -0.771600
     19          6           0        5.846100    8.283900    0.000000
     20          1           0        5.332300    8.647700   -0.889800
     21          6           0        5.134700    8.832900    1.232200
     22          1           0        5.643100    8.484600    2.131200
     23          1           0        5.149900    9.922400    1.205800
     24          1           0        4.101900    8.484600    1.241400
     25          6           0        7.266000    8.831800    0.000000
     26          8           0        7.657400    9.550300    0.917100
     27          7           0        8.038600    8.490200   -1.033800
     28          1           0        7.671600    7.896700   -1.764000
     29          6           0        9.408700    8.947100   -1.149700
     30          1           0        9.427500   10.036500   -1.180700
     31          6           0       10.245800    8.478800    0.035900
     32          1           0       10.244000    7.389500    0.074900
     33          1           0       11.269300    8.836200   -0.077600
     34          1           0        9.823200    8.875600    0.959000
     35          6           0       10.058900    8.413200   -2.418000
     36          8           0        9.426700    7.693000   -3.187500
     37          7           0       11.327400    8.768600   -2.634600
     38          1           0       11.805500    9.362800   -1.972500
     39          6           0       12.057400    8.325700   -3.805400
     40          1           0       11.412900    7.696900   -4.419700
     41          1           0       12.377100    9.192300   -4.384100
     42          1           0       12.932000    7.754400   -3.494300
 ---------------------------------------------------------------------
                    Distance matrix (angstroms):
                    1          2          3          4          5
     1  H    0.000000
     2  C    1.090000   0.000000
     3  H    1.780250   1.090003   0.000000
     4  H    1.780244   1.089993   1.779705   0.000000
     5  C    2.174806   1.530013   2.143580   2.143550   0.000000
     6  O    2.546510   2.400017   3.091799   3.091742   1.229000
     7  N    3.352275   2.439697   2.714923   2.714879   1.334946
     8  H    3.630887   2.572769   2.601207   2.601162   2.037257
     9  C    4.604518   3.809381   4.098167   4.098097   2.434384
    10  H    4.836964   4.166117   4.340863   4.691472   2.741813
    11  C    5.029583   4.411742   5.005594   4.546411   3.000783
    12  H    5.166839   4.495319   5.160328   4.363799   3.309708
    13  H    6.060154   5.459521   5.998788   5.629644   4.003998
    14  H    4.542006   4.141347   4.867946   4.390630   2.731507
    15  C    5.802566   4.865777   4.971139   4.971094   3.717847
    16  O    5.874951   4.835314   4.784680   4.784665   4.015637
    17  N    6.988462   6.107914   6.244542   6.244488   4.841536
    18  H    7.152657   6.376954   6.604139   6.604099   4.977948
    19  C    8.236951   7.290854   7.334149   7.334124   6.139571
    20  H    9.068560   8.170366   8.257072   8.257028   6.925212
    21  C    8.526342   7.537300   7.648957   7.356657   6.540254
    22  H    7.872620   6.844693   6.910438   6.582958   6.012148
    23  H    9.538609   8.527738   8.578696   8.324765   7.579089
    24  H    8.592624   7.661910   7.923153   7.429005   6.603114
    25  C    8.525516   7.536525   7.356348   7.648037   6.539127
    26  O    8.885159   7.841843   7.581823   7.838055   7.034920
    27  N    8.673261   7.751447   7.487484   8.041169   6.705897
    28  H    8.575020   7.725559   7.539746   8.100241   6.549273
    29  C    9.269281   8.353621   7.912806   8.697137   7.472143
    30  H   10.235343   9.287130   8.845847   9.559803   8.429165
    31  C    8.539488   7.603103   7.018345   7.921832   6.964133
    32  H    7.586285   6.694081   6.087445   7.104948   6.066013
    33  H    9.234426   8.329454   7.646337   8.678810   7.801179
    34  H    8.477608   7.475903   6.922345   7.646676   6.915420
    35  C    9.656470   8.847301   8.375951   9.351237   7.918660
    36  O    9.488526   8.753827   8.386565   9.329745   7.684294
    37  N   10.421067   9.635932   9.048074  10.171158   8.841111
    38  H   10.693640   9.864641   9.214812  10.334074   9.180961
    39  C   11.089669  10.401866   9.799866  11.043371   9.599380
    40  H   10.871798  10.236447   9.716243  10.928427   9.326739
    41  H   12.160063  11.454083  10.851131  12.069842  10.640310
    42  H   10.902268  10.262697   9.580182  10.947190   9.587447
                    6          7          8          9         10
     6  O    0.000000
     7  N    2.252744   0.000000
     8  H    3.150008   1.009986   0.000000
     9  C    2.775345   1.449034   2.120947   0.000000
    10  H    2.787563   2.083801   2.828886   1.090050   0.000000
    11  C    2.936721   2.452762   3.194452   1.524918   2.139162
    12  H    3.474046   2.702693   3.202450   2.150173   3.041360
    13  H    3.813815   3.386970   4.082842   2.150165   2.459632
    14  H    2.268977   2.702725   3.605848   2.150184   2.466317
    15  C    4.264188   2.450354   2.528665   1.522003   2.136566
    16  O    4.840197   2.683482   2.268982   2.392880   3.085363
    17  N    5.166755   3.668426   3.857914   2.432799   2.707680
    18  H    5.058889   3.979078   4.391165   2.567981   2.595341
    19  C    6.569753   4.884707   4.856619   3.801903   4.090496
    20  H    7.211246   5.735400   5.821010   4.511424   4.659263
    21  C    7.102872   5.259651   5.057307   4.404223   4.998423
    22  H    6.728998   4.714325   4.341369   4.133739   4.860899
    23  H    8.170221   6.279509   6.007644   5.451784   5.991274
    24  H    7.054484   5.411616   5.333164   4.488628   5.153965
    25  C    7.101527   5.258503   5.056493   4.402610   4.537202
    26  O    7.756643   5.720631   5.307649   5.108870   5.389147
    27  N    7.151124   5.535193   5.458244   4.635571   4.451156
    28  H    6.825301   5.470904   5.578775   4.407706   4.050841
    29  C    7.989141   6.359062   6.172063   5.675994   5.408064
    30  H    8.981869   7.263327   7.011664   6.563998   6.378916
    31  C    7.652562   5.892225   5.526982   5.554529   5.382444
    32  H    6.727500   5.091073   4.792903   4.852062   4.591759
    33  H    8.500772   6.799529   6.400289   6.555980   6.331818
    34  H    7.721678   5.756574   5.247351   5.503444   5.546842
    35  C    8.270064   6.966418   6.934382   6.244279   5.719663
    36  O    7.857795   6.821784   6.967921   5.947638   5.279063
    37  N    9.233480   7.947384   7.846287   7.370386   6.826821
    38  H    9.687837   8.241024   8.017776   7.772994   7.335527
    39  C    9.864775   8.840520   8.839959   8.258497   7.571979
    40  H    9.462988   8.628281   8.750983   7.942794   7.165505
    41  H   10.910892   9.840351   9.816690   9.212917   8.552250
    42  H    9.877953   8.923285   8.895115   8.499633   7.794049
                   11         12         13         14         15
    11  C    0.000000
    12  H    1.090015   0.000000
    13  H    1.090009   1.779650   0.000000
    14  H    1.089937   1.779572   1.779572   0.000000
    15  C    2.461818   2.701188   2.668534   3.416583   0.000000
    16  O    3.417399   3.376881   3.791244   4.330003   1.229086
    17  N    2.895806   3.227554   2.558620   3.897188   1.334999
    18  H    2.692245   3.244123   2.038619   3.572213   2.037281
    19  C    4.249842   4.384269   3.844294   5.290851   2.434389
    20  H    4.752378   4.963131   4.116851   5.744572   3.318262
    21  C    4.642071   4.404352   4.377579   5.731765   3.000841
    22  H    4.540023   4.188404   4.536024   5.609626   2.731494
    23  H    5.724548   5.479871   5.410036   6.813505   4.003976
    24  H    4.357594   3.997246   4.001471   5.419795   3.309730
    25  C    5.253357   5.465922   5.008074   6.240599   2.999071
    26  O    6.015417   6.062316   5.905732   7.026646   3.640877
    27  N    5.615574   6.057956   5.320616   6.482001   3.504049
    28  H    5.273089   5.855704   4.856650   6.063484   3.499421
    29  C    6.828888   7.289163   6.634806   7.635284   4.632220
    30  H    7.642609   8.020527   7.394300   8.510093   5.387909
    31  C    6.896567   7.281800   6.943392   7.657889   4.594181
    32  H    6.276717   6.740962   6.418350   6.937897   4.133840
    33  H    7.934976   8.334386   8.000478   8.657698   5.659949
    34  H    6.798598   7.023071   6.903425   7.636519   4.378770
    35  C    7.395177   8.030731   7.144616   8.061879   5.483349
    36  O    6.965419   7.714824   6.610258   7.548136   5.376765
    37  N    8.602052   9.234454   8.414298   9.231585   6.647995
    38  H    9.059620   9.605958   8.936461   9.737956   6.947178
    39  C    9.459331  10.193759   9.241390   9.979014   7.720154
    40  H    9.048250   9.856492   8.762360   9.505695   7.525425
    41  H   10.376850  11.089518  10.101913  10.934463   8.587496
    42  H    9.782429  10.525912   9.670967  10.236366   8.073084
                   16         17         18         19         20
    16  O    0.000000
    17  N    2.252853   0.000000
    18  H    3.150101   1.009969   0.000000
    19  C    2.775381   1.449000   2.120921   0.000000
    20  H    3.833012   2.083717   2.292568   1.089993   0.000000
    21  C    2.936785   2.452808   3.194544   1.525060   2.139212
    22  H    2.268955   2.702719   3.605881   2.150233   3.041322
    23  H    3.813812   3.386911   4.082812   2.150193   2.459608
    24  H    3.474113   2.702678   3.202517   2.150253   2.466272
    25  C    2.935690   2.450308   3.191995   1.521943   2.136547
    26  O    3.150557   3.390522   4.257696   2.392833   3.079881
    27  N    3.659473   2.935346   3.401316   2.432768   2.714701
    28  H    3.974315   2.751714   2.916540   2.567892   2.607787
    29  C    4.559833   4.298375   4.785922   3.801811   4.095635
    30  H    5.221380   4.946861   5.468622   4.158375   4.334057
    31  C    4.209098   4.697014   5.349834   4.404161   5.002792
    32  H    3.842602   4.433463   5.023605   4.488551   5.161251
    33  H    5.229844   5.781298   6.407714   5.451803   5.995262
    34  H    3.749705   4.571899   5.374629   4.133656   4.861911
    35  C    5.628531   5.107473   5.350636   4.859128   4.973041
    36  O    5.784630   4.870103   4.881094   4.830115   4.791136
    37  N    6.666596   6.381697   6.663553   6.100877   6.245011
    38  H    6.788371   6.767324   7.175411   6.369398   6.601964
    39  C    7.858453   7.435391   7.575226   7.284440   7.336987
    40  H    7.832285   7.160109   7.158619   7.132151   7.094921
    41  H    8.703546   8.211756   8.351537   7.918301   7.882635
    42  H    8.145866   7.954056   8.129063   7.918364   8.083121
                   21         22         23         24         25
    21  C    0.000000
    22  H    1.089947   0.000000
    23  H    1.089926   1.779573   0.000000
    24  H    1.089988   1.779618   1.779562   0.000000
    25  C    2.461861   2.701179   2.668565   3.416599   0.000000
    26  O    2.641584   2.582084   2.551345   3.725918   1.229028
    27  N    3.699302   3.969342   3.925760   4.546886   1.335044
    28  H    4.036031   4.430917   4.391144   4.703277   2.037307
    29  C    4.894238   5.015771   4.963564   5.838955   2.434393
    30  H    5.069405   5.262961   4.899619   6.052849   2.741794
    31  C    5.261166   5.057189   5.424098   6.261052   3.000851
    32  H    5.433939   5.157121   5.800377   6.347075   3.309732
    33  H    6.272870   6.054465   6.346180   7.296232   4.004054
    34  H    4.696647   4.358918   4.795460   5.741594   2.731460
    35  C    6.143928   6.340316   6.285530   6.991577   3.717827
    36  O    6.265332   6.575016   6.523981   6.971032   4.015675
    37  N    7.301083   7.423259   7.364878   8.204382   4.841496
    38  H    7.419600   7.455653   7.396739   8.393202   4.977929
    39  C    8.576622   8.741379   8.681885   9.422602   6.139603
    40  H    8.523512   8.765007   8.707713   9.280046   6.165916
    41  H    9.171933   9.396634   9.165830  10.031252   6.743414
    42  H    9.181550   9.236206   9.346242  10.046428   6.743477
                   26         27         28         29         30
    26  O    0.000000
    27  N    2.252806   0.000000
    28  H    3.150062   1.010012   0.000000
    29  C    2.775349   1.448918   2.120901   0.000000
    30  H    2.787545   2.083667   2.828810   1.090003   0.000000
    31  C    2.936740   2.452778   3.194524   1.525021   2.139196
    32  H    3.474026   2.702692   3.202506   2.150230   3.041350
    33  H    3.813815   3.386954   4.082897   2.150239   2.459629
    34  H    2.268847   2.702699   3.605878   2.150241   2.466289
    35  C    4.264164   2.450214   2.528575   1.521970   2.136511
    36  O    4.840220   2.683426   2.268969   2.392848   3.085326
    37  N    5.166675   3.668279   3.857853   2.432735   2.707585
    38  H    5.058822   3.978960   4.391133   2.567967   2.595323
    39  C    6.569753   4.884627   4.856603   3.801906   4.090509
    40  H    6.783827   4.845570   4.592384   4.033946   4.461688
    41  H    7.106789   5.526304   5.539425   4.396915   4.435604
    42  H    7.106836   5.526375   5.539494   4.396968   4.779356
                   31         32         33         34         35
    31  C    0.000000
    32  H    1.089999   0.000000
    33  H    1.090032   1.779730   0.000000
    34  H    1.090025   1.779663   1.779690   0.000000
    35  C    2.461881   2.701254   2.668608   3.416650   0.000000
    36  O    3.417413   3.376884   3.791248   4.330037   1.229022
    37  N    2.895758   3.227547   2.558553   3.897182   1.335034
    38  H    2.692172   3.244078   2.038496   3.572194   2.037357
    39  C    4.249814   4.384247   3.844243   5.290893   2.434448
    40  H    4.671816   4.654272   4.491376   5.731221   2.520556
    41  H    4.958621   5.261453   4.460938   5.930550   3.137929
    42  H    4.494746   4.483044   3.950785   5.545594   3.138016
                   36         37         38         39         40
    36  O    0.000000
    37  N    2.252837   0.000000
    38  H    3.150103   1.009965   0.000000
    39  C    2.775372   1.449080   2.120979   0.000000
    40  H    2.337375   2.083851   2.986326   1.090016   0.000000
    41  H    3.519178   2.083781   2.484273   1.089999   1.779655
    42  H    3.519236   2.083849   2.484316   1.089996   1.779701
                   41         42
    41  H    0.000000
    42  H    1.779667   0.000000
 Stoichiometry    C12H22N4O4
 Framework group  C1[X(C12H22N4O4)]
 Deg. of freedom   120
 Full point group                 C1      NOp   1
 Largest Abelian subgroup         C1      NOp   1
 Largest concise Abelian subgroup C1      NOp   1
                         Standard orientation:                         
 ---------------------------------------------------------------------
 Center     Atomic      Atomic             Coordinates (Angstroms)
 Number     Number       Type             X           Y           Z
 ---------------------------------------------------------------------
      1          1           0       -5.626035   -3.124998    1.198860
      2          6           0       -4.882645   -2.377984    1.477144
      3          1           0       -4.121976   -2.838871    2.107281
      4          1           0       -5.366710   -1.569532    2.025023
      5          6           0       -4.201877   -1.790591    0.239218
      6          8           0       -4.516673   -2.172109   -0.885855
      7          7           0       -3.268291   -0.861084    0.454894
      8          1           0       -3.044062   -0.580039    1.398720
      9          6           0       -2.551486   -0.228610   -0.634082
     10          1           0       -2.014119   -0.986280   -1.204505
     11          6           0       -3.508608    0.499557   -1.571667
     12          1           0       -4.047493    1.267616   -1.016851
     13          1           0       -2.943332    0.964682   -2.379281
     14          1           0       -4.220135   -0.212239   -1.990043
     15          6           0       -1.547920    0.789321   -0.111430
     16          8           0       -1.428702    0.984370    1.096210
     17          7           0       -0.824533    1.439519   -1.025857
     18          1           0       -0.958483    1.244477   -2.007719
     19          6           0        0.163748    2.432498   -0.655865
     20          1           0        0.631439    2.832975   -1.555292
     21          6           0       -0.475699    3.582951    0.114442
     22          1           0       -0.940432    3.198939    1.022485
     23          1           0        0.289051    4.313064    0.379076
     24          1           0       -1.233361    4.060233   -0.507027
     25          6           0        1.245718    1.826553    0.226451
     26          8           0        1.440508    2.258675    1.360399
     27          7           0        1.951036    0.821420   -0.297551
     28          1           0        1.753712    0.500947   -1.234826
     29          6           0        3.008086    0.160961    0.441234
     30          1           0        3.777024    0.887462    0.703984
     31          6           0        2.472201   -0.466787    1.723595
     32          1           0        1.707533   -1.203136    1.476266
     33          1           0        3.287211   -0.955315    2.257700
     34          1           0        2.038327    0.308878    2.354667
     35          6           0        3.646609   -0.945118   -0.386577
     36          8           0        3.251602   -1.178125   -1.526828
     37          7           0        4.637610   -1.627997    0.191274
     38          1           0        4.927252   -1.399449    1.131435
     39          6           0        5.325859   -2.704517   -0.492285
     40          1           0        4.904048   -2.830803   -1.489411
     41          1           0        6.385862   -2.464252   -0.574515
     42          1           0        5.206128   -3.629254    0.072177
 ---------------------------------------------------------------------
 Rotational constants (GHZ):      0.4371521      0.1629756      0.1365912
 Standard basis: 6-31G(d) (6D, 7F)
 There are   344 symmetry adapted basis functions of A   symmetry.
 Integral buffers will be    131072 words long.
 Raffenetti 2 integral format.
 Two-electron integral symmetry is turned on.
   344 basis functions,   648 primitive gaussians,   344 cartesian basis functions
    77 alpha electrons       77 beta electrons
       nuclear repulsion energy      1648.8873957750 Hartrees.
 NAtoms=   42 NActive=   42 NUniq=   42 SFac= 7.50D-01 NAtFMM=   80 NAOKFM=F Big=F
 One-electron integrals computed using PRISM.
 NBasis=   344 RedAO= T  NBF=   344
 NBsUse=   344 1.00D-06 NBFU=   344
 Harris functional with IExCor=  402 diagonalized for initial guess.
 ExpMin= 1.61D-01 ExpMax= 5.48D+03 ExpMxC= 8.25D+02 IAcc=1 IRadAn=         1 AccDes= 0.00D+00
 HarFok:  IExCor=  402 AccDes= 0.00D+00 IRadAn=         1 IDoV= 1
 ScaDFX=  1.000000  1.000000  1.000000  1.000000
 FoFCou: FMM=F IPFlag=           0 FMFlag=      100000 FMFlg1=           0
         NFxFlg=           0 DoJE=T BraDBF=F KetDBF=T FulRan=T
         Omega=  0.000000  0.000000  1.000000  0.000000  0.000000 ICntrl=     500 IOpCl=  0
         NMat0=    1 NMatS0=    1 NMatT0=    0 NMatD0=    1 NMtDS0=    0 NMtDT0=    0
         I1Cent=           4 NGrid=           0.
 Petite list used in FoFCou.
 Initial guess orbital symmetries:
       Occupied  (A) (A) (A) (A) (A) (A) (A) (A) (A) (A) (A) (A)
                 (A) (A) (A) (A) (A) (A) (A) (A) (A) (A) (A) (A)
                 (A) (A) (A) (A) (A) (A) (A) (A) (A) (A) (A) (A)
                 (A) (A) (A) (A) (A) (A) (A) (A) (A) (A) (A) (A)
                 (A) (A) (A) (A) (A) (A) (A) (A) (A) (A) (A) (A)
                 (A) (A) (A) (A) (A) (A) (A) (A) (A) (A) (A) (A)
                 (A) (A) (A) (A) (A)
       Virtual   (A) (A) (A) (A) (A) (A) (A) (A) (A) (A) (A) (A)
                 (A) (A) (A) (A) (A) (A) (A) (A) (A) (A) (A) (A)
                 (A) (A) (A) (A) (A) (A) (A) (A) (A) (A) (A) (A)
                 (A) (A) (A) (A) (A) (A) (A) (A) (A) (A) (A) (A)
                 (A) (A) (A) (A) (A) (A) (A) (A) (A) (A) (A) (A)
                 (A) (A) (A) (A) (A) (A) (A) (A) (A) (A) (A) (A)
                 (A) (A) (A) (A) (A) (A) (A) (A) (A) (A) (A) (A)
                 (A) (A) (A) (A) (A) (A) (A) (A) (A) (A) (A) (A)
                 (A) (A) (A) (A) (A) (A) (A) (A) (A) (A) (A) (A)
                 (A) (A) (A) (A) (A) (A) (A) (A) (A) (A) (A) (A)
                 (A) (A) (A) (A) (A) (A) (A) (A) (A) (A) (A) (A)
                 (A) (A) (A) (A) (A) (A) (A) (A) (A) (A) (A) (A)
                 (A) (A) (A) (A) (A) (A) (A) (A) (A) (A) (A) (A)
                 (A) (A) (A) (A) (A) (A) (A) (A) (A) (A) (A) (A)
                 (A) (A) (A) (A) (A) (A) (A) (A) (A) (A) (A) (A)
                 (A) (A) (A) (A) (A) (A) (A) (A) (A) (A) (A) (A)
                 (A) (A) (A) (A) (A) (A) (A) (A) (A) (A) (A) (A)
                 (A) (A) (A) (A) (A) (A) (A) (A) (A) (A) (A) (A)
                 (A) (A) (A) (A) (A) (A) (A) (A) (A) (A) (A) (A)
                 (A) (A) (A) (A) (A) (A) (A) (A) (A) (A) (A) (A)
                 (A) (A) (A) (A) (A) (A) (A) (A) (A) (A) (A) (A)
                 (A) (A) (A) (A) (A) (A) (A) (A) (A) (A) (A) (A)
                 (A) (A) (A)
 The electronic state of the initial guess is 1-A.
 Requested convergence on RMS density matrix=1.00D-08 within 128 cycles.
 Requested convergence on MAX density matrix=1.00D-06.
 Requested convergence on             energy=1.00D-06.
 No special actions if energy rises.
 Integral accuracy reduced to 1.0D-05 until final iterations.
 Initial convergence to 1.0D-05 achieved.  Increase integral accuracy.
 SCF Done:  E(RB3LYP) =  -990.481100863     A.U. after   15 cycles
             Convg  =    0.7294D-08             -V/T =  2.0086
 Range of M.O.s used for correlation:     1   344
 NBasis=   344 NAE=    77 NBE=    77 NFC=     0 NFV=     0
 NROrb=    344 NOA=    77 NOB=    77 NVA=   267 NVB=   267
 Symmetrizing basis deriv contribution to polar:
 IMax=3 JMax=2 DiffMx= 0.00D+00
 G2DrvN: will do    43 centers at a time, making    1 passes doing MaxLOS=2.
 Calling FoFCou, ICntrl=  3107 FMM=F I1Cent=   0 AccDes= 0.00D+00.
 FoFDir/FoFCou used for L=0 through L=2.
 End of G2Drv Frequency-dependent properties file   721 does not exist.
 End of G2Drv Frequency-dependent properties file   722 does not exist.
          IDoAtm=111111111111111111111111111111111111111111
          Differentiating once with respect to nuclear coordinates.
          There are   129 degrees of freedom in the 1st order CPHF.  IDoFFX=5.
    123 vectors produced by pass  0 Test12= 2.06D-10 1.00D-07 XBig12= 1.98D-01 8.09D-02.
 AX will form   123 AO Fock derivatives at one time.
    123 vectors produced by pass  1 Test12= 2.06D-10 1.00D-07 XBig12= 1.96D-02 4.66D-02.
    123 vectors produced by pass  2 Test12= 2.06D-10 1.00D-07 XBig12= 4.16D-05 1.28D-03.
    123 vectors produced by pass  3 Test12= 2.06D-10 1.00D-07 XBig12= 1.03D-07 7.50D-05.
     74 vectors produced by pass  4 Test12= 2.06D-10 1.00D-07 XBig12= 9.00D-11 1.49D-06.
 Inverted reduced A of dimension   566 with in-core refinement.
 End of Minotr Frequency-dependent properties file   721 does not exist.
 End of Minotr Frequency-dependent properties file   722 does not exist.

 **********************************************************************

            Population analysis using the SCF density.

 **********************************************************************

 Orbital symmetries:
       Occupied  (A) (A) (A) (A) (A) (A) (A) (A) (A) (A) (A) (A)
                 (A) (A) (A) (A) (A) (A) (A) (A) (A) (A) (A) (A)
                 (A) (A) (A) (A) (A) (A) (A) (A) (A) (A) (A) (A)
                 (A) (A) (A) (A) (A) (A) (A) (A) (A) (A) (A) (A)
                 (A) (A) (A) (A) (A) (A) (A) (A) (A) (A) (A) (A)
                 (A) (A) (A) (A) (A) (A) (A) (A) (A) (A) (A) (A)
                 (A) (A) (A) (A) (A)
       Virtual   (A) (A) (A) (A) (A) (A) (A) (A) (A) (A) (A) (A)
                 (A) (A) (A) (A) (A) (A) (A) (A) (A) (A) (A) (A)
                 (A) (A) (A) (A) (A) (A) (A) (A) (A) (A) (A) (A)
                 (A) (A) (A) (A) (A) (A) (A) (A) (A) (A) (A) (A)
                 (A) (A) (A) (A) (A) (A) (A) (A) (A) (A) (A) (A)
                 (A) (A) (A) (A) (A) (A) (A) (A) (A) (A) (A) (A)
                 (A) (A) (A) (A) (A) (A) (A) (A) (A) (A) (A) (A)
                 (A) (A) (A) (A) (A) (A) (A) (A) (A) (A) (A) (A)
                 (A) (A) (A) (A) (A) (A) (A) (A) (A) (A) (A) (A)
                 (A) (A) (A) (A) (A) (A) (A) (A) (A) (A) (A) (A)
                 (A) (A) (A) (A) (A) (A) (A) (A) (A) (A) (A) (A)
                 (A) (A) (A) (A) (A) (A) (A) (A) (A) (A) (A) (A)
                 (A) (A) (A) (A) (A) (A) (A) (A) (A) (A) (A) (A)
                 (A) (A) (A) (A) (A) (A) (A) (A) (A) (A) (A) (A)
                 (A) (A) (A) (A) (A) (A) (A) (A) (A) (A) (A) (A)
                 (A) (A) (A) (A) (A) (A) (A) (A) (A) (A) (A) (A)
                 (A) (A) (A) (A) (A) (A) (A) (A) (A) (A) (A) (A)
                 (A) (A) (A) (A) (A) (A) (A) (A) (A) (A) (A) (A)
                 (A) (A) (A) (A) (A) (A) (A) (A) (A) (A) (A) (A)
                 (A) (A) (A) (A) (A) (A) (A) (A) (A) (A) (A) (A)
                 (A) (A) (A) (A) (A) (A) (A) (A) (A) (A) (A) (A)
                 (A) (A) (A) (A) (A) (A) (A) (A) (A) (A) (A) (A)
                 (A) (A) (A)
 The electronic state is 1-A.
 Alpha  occ. eigenvalues --  -19.12166 -19.12104 -19.10345 -19.09598 -14.37770
 Alpha  occ. eigenvalues --  -14.37640 -14.35894 -14.35296 -10.29464 -10.29455
 Alpha  occ. eigenvalues --  -10.27817 -10.27572 -10.23935 -10.23922 -10.23647
 Alpha  occ. eigenvalues --  -10.22737 -10.18265 -10.17916 -10.17861 -10.16388
 Alpha  occ. eigenvalues --   -1.05106  -1.04711  -1.02809  -1.02095  -0.94590
 Alpha  occ. eigenvalues --   -0.93919  -0.92492  -0.92045  -0.80204  -0.78445
 Alpha  occ. eigenvalues --   -0.75839  -0.72060  -0.71772  -0.67138  -0.66022
 Alpha  occ. eigenvalues --   -0.63770  -0.61291  -0.59854  -0.57853  -0.57480
 Alpha  occ. eigenvalues --   -0.56168  -0.53663  -0.50142  -0.49743  -0.49246
 Alpha  occ. eigenvalues --   -0.47647  -0.46557  -0.46082  -0.45081  -0.44745
 Alpha  occ. eigenvalues --   -0.44362  -0.43565  -0.42810  -0.41617  -0.40949
 Alpha  occ. eigenvalues --   -0.40547  -0.40352  -0.40029  -0.39409  -0.38773
 Alpha  occ. eigenvalues --   -0.38259  -0.37983  -0.37104  -0.37072  -0.36856
 Alpha  occ. eigenvalues --   -0.36497  -0.35395  -0.35032  -0.34034  -0.28036
 Alpha  occ. eigenvalues --   -0.26803  -0.26148  -0.25737  -0.25009  -0.24843
 Alpha  occ. eigenvalues --   -0.23623  -0.23332
 Alpha virt. eigenvalues --    0.01273   0.02093   0.02700   0.04066   0.05529
 Alpha virt. eigenvalues --    0.06462   0.09950   0.11020   0.11270   0.12266
 Alpha virt. eigenvalues --    0.13387   0.13721   0.14058   0.14390   0.15022
 Alpha virt. eigenvalues --    0.15528   0.15757   0.16371   0.16756   0.17418
 Alpha virt. eigenvalues --    0.17512   0.17846   0.18515   0.19248   0.19654
 Alpha virt. eigenvalues --    0.20074   0.20170   0.20931   0.21210   0.22401
 Alpha virt. eigenvalues --    0.23732   0.23969   0.25162   0.25617   0.26521
 Alpha virt. eigenvalues --    0.28661   0.30591   0.34033   0.34384   0.35097
 Alpha virt. eigenvalues --    0.36449   0.40238   0.41742   0.42593   0.43486
 Alpha virt. eigenvalues --    0.49289   0.49968   0.50092   0.51664   0.52106
 Alpha virt. eigenvalues --    0.52409   0.53525   0.53778   0.54744   0.55158
 Alpha virt. eigenvalues --    0.55648   0.56591   0.57184   0.57984   0.58145
 Alpha virt. eigenvalues --    0.58832   0.59866   0.61401   0.63057   0.64280
 Alpha virt. eigenvalues --    0.64463   0.64880   0.66539   0.67617   0.67903
 Alpha virt. eigenvalues --    0.69191   0.69650   0.70980   0.71840   0.72703
 Alpha virt. eigenvalues --    0.73246   0.73584   0.75054   0.75962   0.76070
 Alpha virt. eigenvalues --    0.77501   0.78922   0.80002   0.81857   0.82101
 Alpha virt. eigenvalues --    0.83197   0.84100   0.84332   0.85074   0.85533
 Alpha virt. eigenvalues --    0.86320   0.86901   0.87151   0.87689   0.88411
 Alpha virt. eigenvalues --    0.89300   0.89726   0.90066   0.90296   0.90638
 Alpha virt. eigenvalues --    0.91408   0.92246   0.92837   0.93056   0.93688
 Alpha virt. eigenvalues --    0.94218   0.94314   0.95731   0.96205   0.97561
 Alpha virt. eigenvalues --    0.98014   0.98758   1.00125   1.01031   1.02810
 Alpha virt. eigenvalues --    1.03262   1.05544   1.07524   1.08556   1.09706
 Alpha virt. eigenvalues --    1.11040   1.12466   1.13848   1.16601   1.17420
 Alpha virt. eigenvalues --    1.20875   1.22460   1.23908   1.26466   1.26988
 Alpha virt. eigenvalues --    1.28559   1.30292   1.30512   1.31951   1.34287
 Alpha virt. eigenvalues --    1.34865   1.36409   1.37125   1.38124   1.39815
 Alpha virt. eigenvalues --    1.42473   1.45470   1.45634   1.47003   1.47633
 Alpha virt. eigenvalues --    1.49169   1.49950   1.51548   1.55587   1.57579
 Alpha virt. eigenvalues --    1.64210   1.66220   1.69366   1.70164   1.71260
 Alpha virt. eigenvalues --    1.72065   1.73191   1.75013   1.75722   1.77305
 Alpha virt. eigenvalues --    1.78217   1.79519   1.80471   1.82075   1.83109
 Alpha virt. eigenvalues --    1.83654   1.83903   1.84371   1.85025   1.85494
 Alpha virt. eigenvalues --    1.86414   1.87112   1.87839   1.88532   1.89534
 Alpha virt. eigenvalues --    1.92003   1.92227   1.93111   1.94108   1.95326
 Alpha virt. eigenvalues --    1.96799   1.98220   2.00305   2.00607   2.01241
 Alpha virt. eigenvalues --    2.03337   2.04370   2.05021   2.06275   2.07201
 Alpha virt. eigenvalues --    2.08169   2.11064   2.12107   2.14254   2.16388
 Alpha virt. eigenvalues --    2.18425   2.19648   2.20511   2.21448   2.24409
 Alpha virt. eigenvalues --    2.24443   2.26488   2.27820   2.28378   2.29390
 Alpha virt. eigenvalues --    2.29663   2.32209   2.32431   2.32833   2.33973
 Alpha virt. eigenvalues --    2.36206   2.38325   2.39951   2.42579   2.43974
 Alpha virt. eigenvalues --    2.44232   2.45241   2.46682   2.48420   2.50574
 Alpha virt. eigenvalues --    2.52152   2.56907   2.57608   2.60727   2.61401
 Alpha virt. eigenvalues --    2.62987   2.65025   2.66079   2.70197   2.72242
 Alpha virt. eigenvalues --    2.72837   2.74448   2.76760   2.81655   2.84458
 Alpha virt. eigenvalues --    2.89425   2.89975   2.94611   2.96573   2.97863
 Alpha virt. eigenvalues --    2.98999   3.02359   3.04681   3.15258   3.17832
 Alpha virt. eigenvalues --    3.23723   3.24645   3.96673   4.00124   4.01435
 Alpha virt. eigenvalues --    4.04285   4.05830   4.08373   4.09731   4.20116
 Alpha virt. eigenvalues --    4.21305   4.23034   4.28323   4.29442   4.30871
 Alpha virt. eigenvalues --    4.41758   4.44958   4.47478   4.53275   4.58378
 Alpha virt. eigenvalues --    4.62479   4.68135
          Condensed to atoms (all electrons):
              1          2          3          4          5          6
     1  H    0.505805   0.360408  -0.021687  -0.021576  -0.018274   0.005045
     2  C    0.360408   5.325180   0.351118   0.351891   0.358041  -0.079343
     3  H   -0.021687   0.351118   0.550383  -0.026558  -0.025109   0.001470
     4  H   -0.021576   0.351891  -0.026558   0.550489  -0.026561   0.001291
     5  C   -0.018274   0.358041  -0.025109  -0.026561   4.336803   0.593280
     6  O    0.005045  -0.079343   0.001470   0.001291   0.593280   8.084343
     7  N    0.004602  -0.135172   0.004196   0.004594   0.227549  -0.108103
     8  H   -0.000144  -0.001174   0.001157   0.000854  -0.015987   0.003086
     9  C   -0.000147   0.007420  -0.000277   0.000006  -0.021447   0.013463
    10  H    0.000002   0.000149  -0.000020  -0.000002  -0.001446   0.004984
    11  C    0.000014  -0.000751   0.000017   0.000031  -0.006187  -0.018474
    12  H    0.000000  -0.000004  -0.000001   0.000002   0.000872  -0.000159
    13  H    0.000000   0.000007   0.000000  -0.000001   0.000337   0.000331
    14  H    0.000000   0.000615  -0.000008  -0.000054   0.003087   0.023614
    15  C    0.000000  -0.000049  -0.000017  -0.000014   0.006670   0.000818
    16  O    0.000000  -0.000048   0.000000  -0.000001   0.000494  -0.000005
    17  N    0.000000   0.000000   0.000000   0.000000  -0.000073  -0.000003
    18  H    0.000000   0.000000   0.000000   0.000000   0.000002   0.000003
    19  C    0.000000   0.000000   0.000000   0.000000   0.000001   0.000000
    20  H    0.000000   0.000000   0.000000   0.000000   0.000000   0.000000
    21  C    0.000000   0.000000   0.000000   0.000000   0.000000   0.000000
    22  H    0.000000   0.000000   0.000000   0.000000   0.000000   0.000000
    23  H    0.000000   0.000000   0.000000   0.000000   0.000000   0.000000
    24  H    0.000000   0.000000   0.000000   0.000000   0.000000   0.000000
    25  C    0.000000   0.000000   0.000000   0.000000   0.000000   0.000000
    26  O    0.000000   0.000000   0.000000   0.000000   0.000000   0.000000
    27  N    0.000000   0.000000   0.000000   0.000000   0.000000   0.000000
    28  H    0.000000   0.000000   0.000000   0.000000   0.000000   0.000000
    29  C    0.000000   0.000000   0.000000   0.000000   0.000000   0.000000
    30  H    0.000000   0.000000   0.000000   0.000000   0.000000   0.000000
    31  C    0.000000   0.000000   0.000000   0.000000   0.000000   0.000000
    32  H    0.000000   0.000000   0.000000   0.000000   0.000000   0.000000
    33  H    0.000000   0.000000   0.000000   0.000000   0.000000   0.000000
    34  H    0.000000   0.000000   0.000000   0.000000   0.000000   0.000000
    35  C    0.000000   0.000000   0.000000   0.000000   0.000000   0.000000
    36  O    0.000000   0.000000   0.000000   0.000000   0.000000   0.000000
    37  N    0.000000   0.000000   0.000000   0.000000   0.000000   0.000000
    38  H    0.000000   0.000000   0.000000   0.000000   0.000000   0.000000
    39  C    0.000000   0.000000   0.000000   0.000000   0.000000   0.000000
    40  H    0.000000   0.000000   0.000000   0.000000   0.000000   0.000000
    41  H    0.000000   0.000000   0.000000   0.000000   0.000000   0.000000
    42  H    0.000000   0.000000   0.000000   0.000000   0.000000   0.000000
              7          8          9         10         11         12
     1  H    0.004602  -0.000144  -0.000147   0.000002   0.000014   0.000000
     2  C   -0.135172  -0.001174   0.007420   0.000149  -0.000751  -0.000004
     3  H    0.004196   0.001157  -0.000277  -0.000020   0.000017  -0.000001
     4  H    0.004594   0.000854   0.000006  -0.000002   0.000031   0.000002
     5  C    0.227549  -0.015987  -0.021447  -0.001446  -0.006187   0.000872
     6  O   -0.108103   0.003086   0.013463   0.004984  -0.018474  -0.000159
     7  N    7.196026   0.291630   0.248453  -0.048820  -0.054918   0.000163
     8  H    0.291630   0.386702  -0.051717   0.004071   0.004521   0.000616
     9  C    0.248453  -0.051717   5.089601   0.371298   0.345465  -0.037255
    10  H   -0.048820   0.004071   0.371298   0.580757  -0.051100   0.006197
    11  C   -0.054918   0.004521   0.345465  -0.051100   5.206763   0.368233
    12  H    0.000163   0.000616  -0.037255   0.006197   0.368233   0.560190
    13  H    0.005237  -0.000126  -0.036356  -0.000049   0.350891  -0.026912
    14  H   -0.010694  -0.000296  -0.020846  -0.005884   0.359513  -0.025470
    15  C   -0.026036   0.000840   0.309501  -0.034470  -0.045868  -0.002789
    16  O   -0.008890   0.030171  -0.082914   0.001068  -0.000732   0.000937
    17  N    0.003368   0.001306  -0.123281   0.000681   0.002818  -0.000441
    18  H    0.000055  -0.000050   0.001545   0.001030   0.000725  -0.000113
    19  C   -0.000064  -0.000033   0.006105  -0.000292   0.000124  -0.000109
    20  H    0.000001   0.000000  -0.000165  -0.000001   0.000008   0.000001
    21  C    0.000005   0.000016  -0.000277   0.000002  -0.000058   0.000048
    22  H   -0.000001  -0.000014   0.000483  -0.000005  -0.000053  -0.000003
    23  H    0.000000   0.000000   0.000005   0.000000   0.000000   0.000000
    24  H    0.000000  -0.000001  -0.000090   0.000000   0.000058   0.000037
    25  C    0.000001  -0.000002  -0.000467   0.000006   0.000013   0.000001
    26  O    0.000000   0.000001  -0.000018   0.000001   0.000000   0.000000
    27  N    0.000000   0.000000  -0.000097   0.000047   0.000000   0.000000
    28  H    0.000000   0.000000  -0.000004   0.000040  -0.000001   0.000000
    29  C    0.000000   0.000000   0.000004  -0.000001   0.000000   0.000000
    30  H    0.000000   0.000000   0.000000   0.000000   0.000000   0.000000
    31  C    0.000000   0.000000   0.000000   0.000000   0.000000   0.000000
    32  H    0.000001   0.000002  -0.000003   0.000004   0.000000   0.000000
    33  H    0.000000   0.000000   0.000000   0.000000   0.000000   0.000000
    34  H    0.000000   0.000000   0.000000   0.000000   0.000000   0.000000
    35  C    0.000000   0.000000   0.000000   0.000000   0.000000   0.000000
    36  O    0.000000   0.000000   0.000000   0.000000   0.000000   0.000000
    37  N    0.000000   0.000000   0.000000   0.000000   0.000000   0.000000
    38  H    0.000000   0.000000   0.000000   0.000000   0.000000   0.000000
    39  C    0.000000   0.000000   0.000000   0.000000   0.000000   0.000000
    40  H    0.000000   0.000000   0.000000   0.000000   0.000000   0.000000
    41  H    0.000000   0.000000   0.000000   0.000000   0.000000   0.000000
    42  H    0.000000   0.000000   0.000000   0.000000   0.000000   0.000000
             13         14         15         16         17         18
     1  H    0.000000   0.000000   0.000000   0.000000   0.000000   0.000000
     2  C    0.000007   0.000615  -0.000049  -0.000048   0.000000   0.000000
     3  H    0.000000  -0.000008  -0.000017   0.000000   0.000000   0.000000
     4  H   -0.000001  -0.000054  -0.000014  -0.000001   0.000000   0.000000
     5  C    0.000337   0.003087   0.006670   0.000494  -0.000073   0.000002
     6  O    0.000331   0.023614   0.000818  -0.000005  -0.000003   0.000003
     7  N    0.005237  -0.010694  -0.026036  -0.008890   0.003368   0.000055
     8  H   -0.000126  -0.000296   0.000840   0.030171   0.001306  -0.000050
     9  C   -0.036356  -0.020846   0.309501  -0.082914  -0.123281   0.001545
    10  H   -0.000049  -0.005884  -0.034470   0.001068   0.000681   0.001030
    11  C    0.350891   0.359513  -0.045868  -0.000732   0.002818   0.000725
    12  H   -0.026912  -0.025470  -0.002789   0.000937  -0.000441  -0.000113
    13  H    0.604204  -0.021373  -0.008335  -0.000030   0.003452   0.007435
    14  H   -0.021373   0.482277   0.004045  -0.000083   0.000177  -0.000182
    15  C   -0.008335   0.004045   4.411310   0.568295   0.244616  -0.022828
    16  O   -0.000030  -0.000083   0.568295   8.106486  -0.103648   0.003691
    17  N    0.003452   0.000177   0.244616  -0.103648   7.175445   0.301635
    18  H    0.007435  -0.000182  -0.022828   0.003691   0.301635   0.399979
    19  C    0.000130   0.000003  -0.026961   0.008118   0.238419  -0.026865
    20  H   -0.000017   0.000000   0.005516   0.000261  -0.037630  -0.006039
    21  C   -0.000021  -0.000001  -0.005630  -0.014948  -0.056156   0.004237
    22  H   -0.000006   0.000000   0.004942   0.015702  -0.009654  -0.000133
    23  H    0.000000   0.000000   0.000314   0.000346   0.004472  -0.000142
    24  H    0.000044   0.000001   0.000032  -0.000023   0.000742   0.000030
    25  C    0.000009   0.000000  -0.003867   0.008507  -0.058883   0.001778
    26  O    0.000000   0.000000  -0.000493  -0.001994   0.000827  -0.000073
    27  N   -0.000001   0.000000   0.002822  -0.001607   0.005646  -0.000034
    28  H   -0.000003   0.000000   0.000337  -0.000120   0.006164   0.000259
    29  C    0.000000   0.000000  -0.000150  -0.000022   0.000223   0.000010
    30  H    0.000000   0.000000   0.000008   0.000000  -0.000016   0.000001
    31  C    0.000000   0.000000   0.000081  -0.000035   0.000003  -0.000001
    32  H    0.000000   0.000000   0.000218   0.000138  -0.000039   0.000000
    33  H    0.000000   0.000000   0.000000   0.000002  -0.000001   0.000000
    34  H    0.000000   0.000000  -0.000029   0.000194  -0.000038   0.000001
    35  C    0.000000   0.000000  -0.000010  -0.000001  -0.000012   0.000002
    36  O    0.000000   0.000000   0.000000   0.000000  -0.000003   0.000000
    37  N    0.000000   0.000000   0.000000   0.000000   0.000000   0.000000
    38  H    0.000000   0.000000   0.000000   0.000000   0.000000   0.000000
    39  C    0.000000   0.000000   0.000000   0.000000   0.000000   0.000000
    40  H    0.000000   0.000000   0.000000   0.000000   0.000000   0.000000
    41  H    0.000000   0.000000   0.000000   0.000000   0.000000   0.000000
    42  H    0.000000   0.000000   0.000000   0.000000   0.000000   0.000000
             19         20         21         22         23         24
     1  H    0.000000   0.000000   0.000000   0.000000   0.000000   0.000000
     2  C    0.000000   0.000000   0.000000   0.000000   0.000000   0.000000
     3  H    0.000000   0.000000   0.000000   0.000000   0.000000   0.000000
     4  H    0.000000   0.000000   0.000000   0.000000   0.000000   0.000000
     5  C    0.000001   0.000000   0.000000   0.000000   0.000000   0.000000
     6  O    0.000000   0.000000   0.000000   0.000000   0.000000   0.000000
     7  N   -0.000064   0.000001   0.000005  -0.000001   0.000000   0.000000
     8  H   -0.000033   0.000000   0.000016  -0.000014   0.000000  -0.000001
     9  C    0.006105  -0.000165  -0.000277   0.000483   0.000005  -0.000090
    10  H   -0.000292  -0.000001   0.000002  -0.000005   0.000000   0.000000
    11  C    0.000124   0.000008  -0.000058  -0.000053   0.000000   0.000058
    12  H   -0.000109   0.000001   0.000048  -0.000003   0.000000   0.000037
    13  H    0.000130  -0.000017  -0.000021  -0.000006   0.000000   0.000044
    14  H    0.000003   0.000000  -0.000001   0.000000   0.000000   0.000001
    15  C   -0.026961   0.005516  -0.005630   0.004942   0.000314   0.000032
    16  O    0.008118   0.000261  -0.014948   0.015702   0.000346  -0.000023
    17  N    0.238419  -0.037630  -0.056156  -0.009654   0.004472   0.000742
    18  H   -0.026865  -0.006039   0.004237  -0.000133  -0.000142   0.000030
    19  C    5.141326   0.365307   0.369902  -0.024635  -0.027710  -0.034132
    20  H    0.365307   0.585784  -0.038494   0.004495  -0.002101  -0.003109
    21  C    0.369902  -0.038494   5.116399   0.377205   0.366695   0.350301
    22  H   -0.024635   0.004495   0.377205   0.471975  -0.019233  -0.027933
    23  H   -0.027710  -0.002101   0.366695  -0.019233   0.547425  -0.028622
    24  H   -0.034132  -0.003109   0.350301  -0.027933  -0.028622   0.609955
    25  C    0.313392  -0.034796  -0.047138  -0.008064  -0.001609   0.006461
    26  O   -0.090935   0.001984   0.004498   0.003683   0.002660   0.001060
    27  N   -0.131974   0.000201   0.006268   0.000272   0.000115  -0.000072
    28  H   -0.001513   0.001368   0.000190   0.000006  -0.000029  -0.000019
    29  C    0.007738  -0.000300  -0.000178  -0.000010  -0.000001   0.000001
    30  H    0.000018  -0.000017  -0.000007   0.000000   0.000004   0.000000
    31  C   -0.000778   0.000014   0.000030   0.000002   0.000000   0.000000
    32  H   -0.000010   0.000000  -0.000001   0.000000   0.000000   0.000000
    33  H    0.000007   0.000000   0.000000   0.000000   0.000000   0.000000
    34  H    0.000649  -0.000009  -0.000015  -0.000009   0.000000   0.000000
    35  C   -0.000022  -0.000017   0.000000   0.000000   0.000000   0.000000
    36  O   -0.000073   0.000000   0.000000   0.000000   0.000000   0.000000
    37  N    0.000000   0.000000   0.000000   0.000000   0.000000   0.000000
    38  H    0.000000   0.000000   0.000000   0.000000   0.000000   0.000000
    39  C    0.000000   0.000000   0.000000   0.000000   0.000000   0.000000
    40  H    0.000000   0.000000   0.000000   0.000000   0.000000   0.000000
    41  H    0.000000   0.000000   0.000000   0.000000   0.000000   0.000000
    42  H    0.000000   0.000000   0.000000   0.000000   0.000000   0.000000
             25         26         27         28         29         30
     1  H    0.000000   0.000000   0.000000   0.000000   0.000000   0.000000
     2  C    0.000000   0.000000   0.000000   0.000000   0.000000   0.000000
     3  H    0.000000   0.000000   0.000000   0.000000   0.000000   0.000000
     4  H    0.000000   0.000000   0.000000   0.000000   0.000000   0.000000
     5  C    0.000000   0.000000   0.000000   0.000000   0.000000   0.000000
     6  O    0.000000   0.000000   0.000000   0.000000   0.000000   0.000000
     7  N    0.000001   0.000000   0.000000   0.000000   0.000000   0.000000
     8  H   -0.000002   0.000001   0.000000   0.000000   0.000000   0.000000
     9  C   -0.000467  -0.000018  -0.000097  -0.000004   0.000004   0.000000
    10  H    0.000006   0.000001   0.000047   0.000040  -0.000001   0.000000
    11  C    0.000013   0.000000   0.000000  -0.000001   0.000000   0.000000
    12  H    0.000001   0.000000   0.000000   0.000000   0.000000   0.000000
    13  H    0.000009   0.000000  -0.000001  -0.000003   0.000000   0.000000
    14  H    0.000000   0.000000   0.000000   0.000000   0.000000   0.000000
    15  C   -0.003867  -0.000493   0.002822   0.000337  -0.000150   0.000008
    16  O    0.008507  -0.001994  -0.001607  -0.000120  -0.000022   0.000000
    17  N   -0.058883   0.000827   0.005646   0.006164   0.000223  -0.000016
    18  H    0.001778  -0.000073  -0.000034   0.000259   0.000010   0.000001
    19  C    0.313392  -0.090935  -0.131974  -0.001513   0.007738   0.000018
    20  H   -0.034796   0.001984   0.000201   0.001368  -0.000300  -0.000017
    21  C   -0.047138   0.004498   0.006268   0.000190  -0.000178  -0.000007
    22  H   -0.008064   0.003683   0.000272   0.000006  -0.000010   0.000000
    23  H   -0.001609   0.002660   0.000115  -0.000029  -0.000001   0.000004
    24  H    0.006461   0.001060  -0.000072  -0.000019   0.000001   0.000000
    25  C    4.400118   0.558495   0.251160  -0.025209  -0.023594  -0.001861
    26  O    0.558495   8.123836  -0.099531   0.003094   0.011512   0.005003
    27  N    0.251160  -0.099531   7.181891   0.291730   0.250263  -0.049599
    28  H   -0.025209   0.003094   0.291730   0.396119  -0.051280   0.004043
    29  C   -0.023594   0.011512   0.250263  -0.051280   5.093866   0.370568
    30  H   -0.001861   0.005003  -0.049599   0.004043   0.370568   0.583596
    31  C   -0.005513  -0.016837  -0.055565   0.004639   0.348792  -0.050300
    32  H    0.000621  -0.000160  -0.000215   0.000596  -0.036925   0.006184
    33  H    0.000315   0.000293   0.005272  -0.000140  -0.036032  -0.000153
    34  H    0.002715   0.021490  -0.009784  -0.000312  -0.021256  -0.005867
    35  C    0.005816   0.000655  -0.025511   0.000131   0.309091  -0.033702
    36  O    0.000841  -0.000004  -0.008654   0.032000  -0.090364   0.001310
    37  N   -0.000053  -0.000001   0.003409   0.001265  -0.121858   0.000791
    38  H    0.000001   0.000003   0.000050  -0.000051   0.000836   0.001084
    39  C    0.000001   0.000000  -0.000069  -0.000011   0.005802  -0.000273
    40  H    0.000000   0.000000  -0.000001  -0.000032   0.001193  -0.000035
    41  H    0.000000   0.000000   0.000000   0.000000  -0.000195   0.000022
    42  H    0.000000   0.000000   0.000001   0.000000  -0.000027  -0.000006
             31         32         33         34         35         36
     1  H    0.000000   0.000000   0.000000   0.000000   0.000000   0.000000
     2  C    0.000000   0.000000   0.000000   0.000000   0.000000   0.000000
     3  H    0.000000   0.000000   0.000000   0.000000   0.000000   0.000000
     4  H    0.000000   0.000000   0.000000   0.000000   0.000000   0.000000
     5  C    0.000000   0.000000   0.000000   0.000000   0.000000   0.000000
     6  O    0.000000   0.000000   0.000000   0.000000   0.000000   0.000000
     7  N    0.000000   0.000001   0.000000   0.000000   0.000000   0.000000
     8  H    0.000000   0.000002   0.000000   0.000000   0.000000   0.000000
     9  C    0.000000  -0.000003   0.000000   0.000000   0.000000   0.000000
    10  H    0.000000   0.000004   0.000000   0.000000   0.000000   0.000000
    11  C    0.000000   0.000000   0.000000   0.000000   0.000000   0.000000
    12  H    0.000000   0.000000   0.000000   0.000000   0.000000   0.000000
    13  H    0.000000   0.000000   0.000000   0.000000   0.000000   0.000000
    14  H    0.000000   0.000000   0.000000   0.000000   0.000000   0.000000
    15  C    0.000081   0.000218   0.000000  -0.000029  -0.000010   0.000000
    16  O   -0.000035   0.000138   0.000002   0.000194  -0.000001   0.000000
    17  N    0.000003  -0.000039  -0.000001  -0.000038  -0.000012  -0.000003
    18  H   -0.000001   0.000000   0.000000   0.000001   0.000002   0.000000
    19  C   -0.000778  -0.000010   0.000007   0.000649  -0.000022  -0.000073
    20  H    0.000014   0.000000   0.000000  -0.000009  -0.000017   0.000000
    21  C    0.000030  -0.000001   0.000000  -0.000015   0.000000   0.000000
    22  H    0.000002   0.000000   0.000000  -0.000009   0.000000   0.000000
    23  H    0.000000   0.000000   0.000000   0.000000   0.000000   0.000000
    24  H    0.000000   0.000000   0.000000   0.000000   0.000000   0.000000
    25  C   -0.005513   0.000621   0.000315   0.002715   0.005816   0.000841
    26  O   -0.016837  -0.000160   0.000293   0.021490   0.000655  -0.000004
    27  N   -0.055565  -0.000215   0.005272  -0.009784  -0.025511  -0.008654
    28  H    0.004639   0.000596  -0.000140  -0.000312   0.000131   0.032000
    29  C    0.348792  -0.036925  -0.036032  -0.021256   0.309091  -0.090364
    30  H   -0.050300   0.006184  -0.000153  -0.005867  -0.033702   0.001310
    31  C    5.194502   0.369253   0.350361   0.362826  -0.045109  -0.000677
    32  H    0.369253   0.556392  -0.027093  -0.024684  -0.002764   0.000969
    33  H    0.350361  -0.027093   0.606765  -0.021775  -0.008407  -0.000025
    34  H    0.362826  -0.024684  -0.021775   0.475080   0.003765  -0.000088
    35  C   -0.045109  -0.002764  -0.008407   0.003765   4.363077   0.598545
    36  O   -0.000677   0.000969  -0.000025  -0.000088   0.598545   8.092632
    37  N    0.002362  -0.000477   0.003407   0.000218   0.273866  -0.101604
    38  H    0.000667  -0.000105   0.007108  -0.000197  -0.021336   0.003610
    39  C    0.000016  -0.000072   0.000088   0.000005  -0.024539  -0.009088
    40  H   -0.000071  -0.000007  -0.000006   0.000001  -0.001307   0.020994
    41  H   -0.000005   0.000001   0.000004   0.000000   0.001299   0.000569
    42  H    0.000013   0.000002   0.000002  -0.000002   0.001376   0.000568
             37         38         39         40         41         42
     1  H    0.000000   0.000000   0.000000   0.000000   0.000000   0.000000
     2  C    0.000000   0.000000   0.000000   0.000000   0.000000   0.000000
     3  H    0.000000   0.000000   0.000000   0.000000   0.000000   0.000000
     4  H    0.000000   0.000000   0.000000   0.000000   0.000000   0.000000
     5  C    0.000000   0.000000   0.000000   0.000000   0.000000   0.000000
     6  O    0.000000   0.000000   0.000000   0.000000   0.000000   0.000000
     7  N    0.000000   0.000000   0.000000   0.000000   0.000000   0.000000
     8  H    0.000000   0.000000   0.000000   0.000000   0.000000   0.000000
     9  C    0.000000   0.000000   0.000000   0.000000   0.000000   0.000000
    10  H    0.000000   0.000000   0.000000   0.000000   0.000000   0.000000
    11  C    0.000000   0.000000   0.000000   0.000000   0.000000   0.000000
    12  H    0.000000   0.000000   0.000000   0.000000   0.000000   0.000000
    13  H    0.000000   0.000000   0.000000   0.000000   0.000000   0.000000
    14  H    0.000000   0.000000   0.000000   0.000000   0.000000   0.000000
    15  C    0.000000   0.000000   0.000000   0.000000   0.000000   0.000000
    16  O    0.000000   0.000000   0.000000   0.000000   0.000000   0.000000
    17  N    0.000000   0.000000   0.000000   0.000000   0.000000   0.000000
    18  H    0.000000   0.000000   0.000000   0.000000   0.000000   0.000000
    19  C    0.000000   0.000000   0.000000   0.000000   0.000000   0.000000
    20  H    0.000000   0.000000   0.000000   0.000000   0.000000   0.000000
    21  C    0.000000   0.000000   0.000000   0.000000   0.000000   0.000000
    22  H    0.000000   0.000000   0.000000   0.000000   0.000000   0.000000
    23  H    0.000000   0.000000   0.000000   0.000000   0.000000   0.000000
    24  H    0.000000   0.000000   0.000000   0.000000   0.000000   0.000000
    25  C   -0.000053   0.000001   0.000001   0.000000   0.000000   0.000000
    26  O   -0.000001   0.000003   0.000000   0.000000   0.000000   0.000000
    27  N    0.003409   0.000050  -0.000069  -0.000001   0.000000   0.000001
    28  H    0.001265  -0.000051  -0.000011  -0.000032   0.000000   0.000000
    29  C   -0.121858   0.000836   0.005802   0.001193  -0.000195  -0.000027
    30  H    0.000791   0.001084  -0.000273  -0.000035   0.000022  -0.000006
    31  C    0.002362   0.000667   0.000016  -0.000071  -0.000005   0.000013
    32  H   -0.000477  -0.000105  -0.000072  -0.000007   0.000001   0.000002
    33  H    0.003407   0.007108   0.000088  -0.000006   0.000004   0.000002
    34  H    0.000218  -0.000197   0.000005   0.000001   0.000000  -0.000002
    35  C    0.273866  -0.021336  -0.024539  -0.001307   0.001299   0.001376
    36  O   -0.101604   0.003610  -0.009088   0.020994   0.000569   0.000568
    37  N    7.082343   0.303255   0.265850  -0.036705  -0.043289  -0.044236
[...]
    29  C    0.000000   0.000000  -0.000186  -0.000096   0.000053   0.000015
    30  H    0.000000   0.000000   0.000005   0.000000  -0.000017   0.000001
    31  C    0.000000   0.000000   0.000143   0.000027   0.000016  -0.000002
    32  H    0.000000   0.000000   0.000112   0.000054  -0.000019   0.000001
    33  H    0.000000   0.000000   0.000000   0.000003  -0.000001   0.000000
    34  H    0.000000   0.000000   0.000002   0.000532  -0.000046   0.000001
    35  C    0.000000   0.000000  -0.000007  -0.000001  -0.000009   0.000001
    36  O    0.000000   0.000000  -0.000001   0.000000  -0.000009   0.000000
    37  N    0.000000   0.000000   0.000000   0.000000   0.000000   0.000000
    38  H    0.000000   0.000000   0.000000   0.000000   0.000000   0.000000
    39  C    0.000000   0.000000   0.000000   0.000000   0.000000   0.000000
    40  H    0.000000   0.000000   0.000000   0.000000   0.000000   0.000000
    41  H    0.000000   0.000000   0.000000   0.000000   0.000000   0.000000
    42  H    0.000000   0.000000   0.000000   0.000000   0.000000   0.000000
             19         20         21         22         23         24
     1  H    0.000000   0.000000   0.000000   0.000000   0.000000   0.000000
     2  C    0.000000   0.000000   0.000000   0.000000   0.000000   0.000000
     3  H    0.000000   0.000000   0.000000   0.000000   0.000000   0.000000
     4  H    0.000000   0.000000   0.000000   0.000000   0.000000   0.000000
     5  C    0.000001   0.000000   0.000000   0.000000   0.000000   0.000000
     6  O    0.000000   0.000000   0.000000   0.000000   0.000000   0.000000
     7  N   -0.000094   0.000001   0.000001   0.000000   0.000000   0.000001
     8  H   -0.000038   0.000000   0.000005  -0.000006   0.000000   0.000000
     9  C    0.005984  -0.000198  -0.000213   0.000177   0.000004  -0.000085
    10  H    0.000059  -0.000008   0.000000  -0.000002   0.000000  -0.000001
    11  C   -0.000441   0.000006   0.000091  -0.000026   0.000000   0.000059
    12  H   -0.000009   0.000000   0.000028   0.000016   0.000000   0.000011
    13  H   -0.000105  -0.000008   0.000017  -0.000009   0.000000   0.000139
    14  H    0.000005   0.000000  -0.000001   0.000001   0.000000   0.000001
    15  C   -0.025135   0.005314  -0.003115   0.005493   0.000104  -0.000266
    16  O    0.006270   0.000215  -0.004631   0.006835   0.000053  -0.000011
    17  N    0.232893  -0.038921  -0.057243  -0.008202   0.004477   0.000630
    18  H   -0.027317  -0.006458   0.002262  -0.000167  -0.000124   0.000735
    19  C    5.124703   0.367245   0.363499  -0.026576  -0.025923  -0.031934
    20  H    0.367245   0.588150  -0.042078   0.004555  -0.001754  -0.003094
    21  C    0.363499  -0.042078   5.101595   0.379007   0.366726   0.356098
    22  H   -0.026576   0.004555   0.379007   0.499492  -0.022784  -0.028671
    23  H   -0.025923  -0.001754   0.366726  -0.022784   0.540211  -0.028124
    24  H   -0.031934  -0.003094   0.356098  -0.028671  -0.028124   0.598021
    25  C    0.308000  -0.034046  -0.039379  -0.005741  -0.001520   0.005228
    26  O   -0.083074   0.001401   0.007069   0.003138   0.003240   0.000554
    27  N   -0.124636   0.001070   0.005635   0.000201   0.000063  -0.000062
    28  H   -0.002436   0.000539   0.000202   0.000001  -0.000027  -0.000014
    29  C    0.007767  -0.000182  -0.000158  -0.000005  -0.000006   0.000001
    30  H    0.000272  -0.000038  -0.000010  -0.000001   0.000002   0.000000
    31  C   -0.000441   0.000006   0.000013   0.000000   0.000000   0.000000
    32  H   -0.000010   0.000000   0.000000   0.000000   0.000000   0.000000
    33  H    0.000000   0.000000   0.000000   0.000000   0.000000   0.000000
    34  H    0.000307  -0.000001  -0.000007  -0.000002   0.000000   0.000000
    35  C   -0.000081  -0.000016   0.000000   0.000000   0.000000   0.000000
    36  O   -0.000071   0.000001   0.000000   0.000000   0.000000   0.000000
    37  N    0.000001   0.000000   0.000000   0.000000   0.000000   0.000000
    38  H    0.000000   0.000000   0.000000   0.000000   0.000000   0.000000
    39  C    0.000000   0.000000   0.000000   0.000000   0.000000   0.000000
    40  H    0.000000   0.000000   0.000000   0.000000   0.000000   0.000000
    41  H    0.000000   0.000000   0.000000   0.000000   0.000000   0.000000
    42  H    0.000000   0.000000   0.000000   0.000000   0.000000   0.000000
             25         26         27         28         29         30
     1  H    0.000000   0.000000   0.000000   0.000000   0.000000   0.000000
     2  C    0.000000   0.000000   0.000000   0.000000   0.000000   0.000000
     3  H    0.000000   0.000000   0.000000   0.000000   0.000000   0.000000
     4  H    0.000000   0.000000   0.000000   0.000000   0.000000   0.000000
     5  C    0.000000   0.000000   0.000000   0.000000   0.000000   0.000000
     6  O    0.000000   0.000000   0.000000   0.000000   0.000000   0.000000
     7  N    0.000005   0.000000   0.000000  -0.000001   0.000000   0.000000
     8  H   -0.000006   0.000001   0.000001   0.000000   0.000000   0.000000
     9  C   -0.000242  -0.000011  -0.000025  -0.000006   0.000000   0.000000
    10  H   -0.000021   0.000000   0.000009   0.000019   0.000000   0.000000
    11  C    0.000005   0.000000   0.000000   0.000001   0.000000   0.000000
    12  H   -0.000001   0.000000   0.000000   0.000000   0.000000   0.000000
    13  H    0.000004   0.000000   0.000000   0.000000   0.000000   0.000000
    14  H    0.000000   0.000000   0.000000   0.000000   0.000000   0.000000
    15  C   -0.004095  -0.000384   0.001995   0.000648  -0.000186   0.000005
    16  O    0.011397  -0.001565  -0.001581  -0.000196  -0.000096   0.000000
    17  N   -0.049024   0.000835   0.004277   0.008049   0.000053  -0.000017
    18  H    0.003198  -0.000065  -0.000317  -0.000095   0.000015   0.000001
    19  C    0.308000  -0.083074  -0.124636  -0.002436   0.007767   0.000272
    20  H   -0.034046   0.001401   0.001070   0.000539  -0.000182  -0.000038
    21  C   -0.039379   0.007069   0.005635   0.000202  -0.000158  -0.000010
    22  H   -0.005741   0.003138   0.000201   0.000001  -0.000005  -0.000001
    23  H   -0.001520   0.003240   0.000063  -0.000027  -0.000006   0.000002
    24  H    0.005228   0.000554  -0.000062  -0.000014   0.000001   0.000000
    25  C    4.367329   0.572836   0.252503  -0.021553  -0.022876  -0.001974
    26  O    0.572836   8.096687  -0.098143   0.002680   0.009374   0.009278
    27  N    0.252503  -0.098143   7.182149   0.284541   0.255739  -0.050468
    28  H   -0.021553   0.002680   0.284541   0.389352  -0.048945   0.005148
    29  C   -0.022876   0.009374   0.255739  -0.048945   5.072217   0.367396
    30  H   -0.001974   0.009278  -0.050468   0.005148   0.367396   0.582617
    31  C   -0.004375  -0.006459  -0.055422   0.002573   0.355097  -0.047477
    32  H    0.000188   0.000006  -0.001230   0.001568  -0.034459   0.005513
    33  H    0.000062  -0.000008   0.005182  -0.000104  -0.029663  -0.000361
    34  H    0.004709   0.009094  -0.009332  -0.000369  -0.022258  -0.004587
    35  C    0.005532   0.000497  -0.028639  -0.003533   0.305081  -0.035393
    36  O    0.000775  -0.000004  -0.012851   0.035859  -0.083303   0.002291
    37  N   -0.000082  -0.000001   0.002455   0.001527  -0.108122   0.002092
    38  H   -0.000008   0.000001   0.000025  -0.000063   0.001920   0.002592
    39  C    0.000001   0.000000  -0.000099  -0.000011   0.005827  -0.000088
    40  H    0.000000   0.000000   0.000005  -0.000041   0.001110  -0.000036
    41  H    0.000000   0.000000   0.000004   0.000000  -0.000155  -0.000001
    42  H    0.000000   0.000000  -0.000001   0.000000  -0.000114  -0.000007
             31         32         33         34         35         36
     1  H    0.000000   0.000000   0.000000   0.000000   0.000000   0.000000
     2  C    0.000000   0.000000   0.000000   0.000000   0.000000   0.000000
     3  H    0.000000   0.000000   0.000000   0.000000   0.000000   0.000000
     4  H    0.000000   0.000000   0.000000   0.000000   0.000000   0.000000
     5  C    0.000000   0.000000   0.000000   0.000000   0.000000   0.000000
     6  O    0.000000   0.000000   0.000000   0.000000   0.000000   0.000000
     7  N    0.000000   0.000002   0.000000   0.000000   0.000000   0.000000
     8  H    0.000000   0.000004   0.000000   0.000001   0.000000   0.000000
     9  C    0.000002  -0.000004   0.000000   0.000001   0.000000   0.000000
    10  H    0.000000   0.000000   0.000000   0.000000   0.000000   0.000000
    11  C    0.000000   0.000000   0.000000   0.000000   0.000000   0.000000
    12  H    0.000000   0.000000   0.000000   0.000000   0.000000   0.000000
    13  H    0.000000   0.000000   0.000000   0.000000   0.000000   0.000000
    14  H    0.000000   0.000000   0.000000   0.000000   0.000000   0.000000
    15  C    0.000143   0.000112   0.000000   0.000002  -0.000007  -0.000001
    16  O    0.000027   0.000054   0.000003   0.000532  -0.000001   0.000000
    17  N    0.000016  -0.000019  -0.000001  -0.000046  -0.000009  -0.000009
    18  H   -0.000002   0.000001   0.000000   0.000001   0.000001   0.000000
    19  C   -0.000441  -0.000010   0.000000   0.000307  -0.000081  -0.000071
    20  H    0.000006   0.000000   0.000000  -0.000001  -0.000016   0.000001
    21  C    0.000013   0.000000   0.000000  -0.000007   0.000000   0.000000
    22  H    0.000000   0.000000   0.000000  -0.000002   0.000000   0.000000
    23  H    0.000000   0.000000   0.000000   0.000000   0.000000   0.000000
    24  H    0.000000   0.000000   0.000000   0.000000   0.000000   0.000000
    25  C   -0.004375   0.000188   0.000062   0.004709   0.005532   0.000775
    26  O   -0.006459   0.000006  -0.000008   0.009094   0.000497  -0.000004
    27  N   -0.055422  -0.001230   0.005182  -0.009332  -0.028639  -0.012851
    28  H    0.002573   0.001568  -0.000104  -0.000369  -0.003533   0.035859
    29  C    0.355097  -0.034459  -0.029663  -0.022258   0.305081  -0.083303
    30  H   -0.047477   0.005513  -0.000361  -0.004587  -0.035393   0.002291
    31  C    5.148630   0.370755   0.353186   0.371175  -0.037086  -0.002649
    32  H    0.370755   0.554050  -0.028014  -0.025959  -0.004398   0.002316
    33  H    0.353186  -0.028014   0.589056  -0.025629  -0.002399  -0.000021
    34  H    0.371175  -0.025959  -0.025629   0.497223   0.003583  -0.000070
    35  C   -0.037086  -0.004398  -0.002399   0.003583   4.374306   0.574026
    36  O   -0.002649   0.002316  -0.000021  -0.000070   0.574026   8.092306
    37  N   -0.000579   0.000046   0.003290   0.000002   0.284007  -0.092245
    38  H    0.000067  -0.000009   0.001342  -0.000063  -0.021151   0.003318
    39  C   -0.000256   0.000003  -0.000075   0.000004  -0.023403  -0.007555
    40  H   -0.000038  -0.000010  -0.000002   0.000001  -0.001162   0.019923
    41  H   -0.000007   0.000000   0.000004   0.000000   0.000531   0.000416
    42  H    0.000047  -0.000001  -0.000016  -0.000001   0.001739   0.000441
             37         38         39         40         41         42
     1  H    0.000000   0.000000   0.000000   0.000000   0.000000   0.000000
     2  C    0.000000   0.000000   0.000000   0.000000   0.000000   0.000000
     3  H    0.000000   0.000000   0.000000   0.000000   0.000000   0.000000
     4  H    0.000000   0.000000   0.000000   0.000000   0.000000   0.000000
     5  C    0.000000   0.000000   0.000000   0.000000   0.000000   0.000000
     6  O    0.000000   0.000000   0.000000   0.000000   0.000000   0.000000
     7  N    0.000000   0.000000   0.000000   0.000000   0.000000   0.000000
     8  H    0.000000   0.000000   0.000000   0.000000   0.000000   0.000000
     9  C    0.000000   0.000000   0.000000   0.000000   0.000000   0.000000
    10  H    0.000000   0.000000   0.000000   0.000000   0.000000   0.000000
    11  C    0.000000   0.000000   0.000000   0.000000   0.000000   0.000000
    12  H    0.000000   0.000000   0.000000   0.000000   0.000000   0.000000
    13  H    0.000000   0.000000   0.000000   0.000000   0.000000   0.000000
    14  H    0.000000   0.000000   0.000000   0.000000   0.000000   0.000000
    15  C    0.000000   0.000000   0.000000   0.000000   0.000000   0.000000
    16  O    0.000000   0.000000   0.000000   0.000000   0.000000   0.000000
    17  N    0.000000   0.000000   0.000000   0.000000   0.000000   0.000000
    18  H    0.000000   0.000000   0.000000   0.000000   0.000000   0.000000
    19  C    0.000001   0.000000   0.000000   0.000000   0.000000   0.000000
    20  H    0.000000   0.000000   0.000000   0.000000   0.000000   0.000000
    21  C    0.000000   0.000000   0.000000   0.000000   0.000000   0.000000
    22  H    0.000000   0.000000   0.000000   0.000000   0.000000   0.000000
    23  H    0.000000   0.000000   0.000000   0.000000   0.000000   0.000000
    24  H    0.000000   0.000000   0.000000   0.000000   0.000000   0.000000
    25  C   -0.000082  -0.000008   0.000001   0.000000   0.000000   0.000000
    26  O   -0.000001   0.000001   0.000000   0.000000   0.000000   0.000000
    27  N    0.002455   0.000025  -0.000099   0.000005   0.000004  -0.000001
    28  H    0.001527  -0.000063  -0.000011  -0.000041   0.000000   0.000000
    29  C   -0.108122   0.001920   0.005827   0.001110  -0.000155  -0.000114
    30  H    0.002092   0.002592  -0.000088  -0.000036  -0.000001  -0.000007
    31  C   -0.000579   0.000067  -0.000256  -0.000038  -0.000007   0.000047
    32  H    0.000046  -0.000009   0.000003  -0.000010   0.000000  -0.000001
    33  H    0.003290   0.001342  -0.000075  -0.000002   0.000004  -0.000016
    34  H    0.000002  -0.000063   0.000004   0.000001   0.000000  -0.000001
    35  C    0.284007  -0.021151  -0.023403  -0.001162   0.000531   0.001739
    36  O   -0.092245   0.003318  -0.007555   0.019923   0.000416   0.000441
    37  N    7.050269   0.305899   0.265223  -0.039400  -0.040552  -0.041102
    38  H    0.305899   0.404214  -0.031711   0.004038  -0.000857  -0.000953
    39  C    0.265223  -0.031711   4.964517   0.377816   0.382302   0.381048
    40  H   -0.039400   0.004038   0.377816   0.479035  -0.024690  -0.023954
    41  H   -0.040552  -0.000857   0.382302  -0.024690   0.559685  -0.039616
    42  H   -0.041102  -0.000953   0.381048  -0.023954  -0.039616   0.560020
 Mulliken atomic charges:
              1
     1  H    0.182549
     2  C   -0.533430
     3  H    0.182267
     4  H    0.148824
     5  C    0.597212
     6  O   -0.524069
     7  N   -0.605618
     8  H    0.347568
     9  C   -0.034572
    10  H    0.173864
    11  C   -0.447178
    12  H    0.159501
    13  H    0.131477
    14  H    0.194295
    15  C    0.612972
    16  O   -0.520672
    17  N   -0.613633
    18  H    0.333554
    19  C   -0.068683
    20  H    0.158300
    21  C   -0.435416
    22  H    0.193276
    23  H    0.165383
    24  H    0.130785
    25  C    0.653171
    26  O   -0.526975
    27  N   -0.613048
    28  H    0.344689
    29  C   -0.031070
    30  H    0.163252
    31  C   -0.446948
    32  H    0.159495
    33  H    0.134166
    34  H    0.201692
    35  C    0.607975
    36  O   -0.532891
    37  N   -0.592725
    38  H    0.331399
    39  C   -0.313546
    40  H    0.207405
    41  H    0.162936
    42  H    0.162468
 Sum of Mulliken atomic charges =   0.00000
 Mulliken charges with hydrogens summed into heavy atoms:
              1
     2  C   -0.019790
     5  C    0.597212
     6  O   -0.524069
     7  N   -0.258050
     9  C    0.139292
    11  C    0.038094
    15  C    0.612972
    16  O   -0.520672
    17  N   -0.280079
    19  C    0.089617
    21  C    0.054027
    25  C    0.653171
    26  O   -0.526975
    27  N   -0.268360
    29  C    0.132182
    31  C    0.048405
    35  C    0.607975
    36  O   -0.532891
    37  N   -0.261326
    39  C    0.219263
 Sum of Mulliken charges with hydrogens summed into heavy atoms =   0.00000
 Electronic spatial extent (au):  <R**2>=           8266.3072
 Charge=              0.0000 electrons
 Dipole moment (field-independent basis, Debye):
    X=              3.9468    Y=              0.1977    Z=             -0.2586  Tot=              3.9602
 Quadrupole moment (field-independent basis, Debye-Ang):
   XX=           -102.1038   YY=           -121.4790   ZZ=           -121.8649
   XY=            -16.1369   XZ=             -2.9320   YZ=            -19.3147
 Traceless Quadrupole moment (field-independent basis, Debye-Ang):
   XX=             13.0454   YY=             -6.3297   ZZ=             -6.7157
   XY=            -16.1369   XZ=             -2.9320   YZ=            -19.3147
 Octapole moment (field-independent basis, Debye-Ang**2):
  XXX=            212.4490  YYY=             -5.5322  ZZZ=             -7.4596  XYY=             17.3025
  XXY=            -15.3278  XXZ=             70.7449  XZZ=             -3.0549  YZZ=              0.2361
  YYZ=             -2.0370  XYZ=             20.4485
 Hexadecapole moment (field-independent basis, Debye-Ang**3):
 XXXX=          -6609.0672 YYYY=          -2461.5360 ZZZZ=           -795.9853 XXXY=           -419.0492
 XXXZ=           -147.3522 YYYX=            -62.9129 YYYZ=            -52.4919 ZZZX=              5.1689
 ZZZY=            -22.0034 XXYY=          -1639.0054 XXZZ=          -1381.2482 YYZZ=           -578.4698
 XXYZ=           -151.4700 YYXZ=            -97.9665 ZZXY=            -30.2693
 N-N= 1.631027579576D+03 E-N=-5.571635833542D+03  KE= 9.813203033994D+02
 1\1\GINC-NODE007\FOpt\RB3LYP\6-31G(d)\C12H22N4O4\MANAGER\30-Dec-2016\0
 \\# b3lyp/6-31G* Opt=(ModRedundant, maxcycles=1000, calcfc) geom=nocro
 wd\\Phi Psi fixed scan\\0,1\H,7.6016200472,1.378397485,3.6655852767\C,
 8.0909972337,2.1587853611,3.0747579756\H,8.9643522005,1.7047599267,2.5
 959726223\H,8.4255070609,2.9565299135,3.7449230728\C,7.1298652078,2.63
 17426688,1.9942191238\O,6.6427506713,1.8618707919,1.1706982629\N,6.843
 6907439,3.9639663645,2.0051492813\H,7.3004696287,4.6120338394,2.636442
 4709\C,6.0026882626,4.576364757,0.9969130293\H,6.2537398483,4.13600725
 69,0.0233711558\C,4.5044667031,4.332300034,1.2696994196\H,4.2119604092
 ,4.7733757128,2.2281908665\H,3.874936508,4.762666135,0.4818788183\H,4.
 3268929931,3.2547179049,1.3019577181\C,6.3334951475,6.0782531322,0.992
 0570825\O,6.9443671049,6.6079369181,1.9153989657\N,5.9081646739,6.7640
 649416,-0.1071928136\H,5.3348719488,6.2626829539,-0.772608475\C,5.9020
 462667,8.234295005,-0.193301286\H,5.5971977117,8.4594961633,-1.2221047
 365\C,4.9244276217,8.8834805222,0.7869029526\H,5.223680292,8.669878517
 5,1.8147353186\H,4.9252177444,9.9685546923,0.6547520175\H,3.9112495634
 ,8.5047239211,0.6143353511\C,7.3316760919,8.8103041189,-0.0194529776\O
 ,7.5939917809,9.6742634964,0.806725212\N,8.2207258225,8.3793727758,-0.
 9539685192\H,8.0083675707,7.600269587,-1.5676558432\C,9.6172170111,8.7
 716969495,-0.9315425837\H,9.6606918783,9.8620478728,-0.8220067099\C,10
 .3938583932,8.1238965262,0.2330413141\H,10.3918496581,7.033844807,0.13
 03673836\H,11.4337719841,8.4695628129,0.2545418723\H,9.9136416454,8.39
 28491937,1.1766408996\C,10.2117078067,8.3440110881,-2.2821226094\O,9.7
 121173987,7.4317847821,-2.9369203765\N,11.3325449317,9.015099349,-2.65
 85096188\H,11.658398056,9.7712749108,-2.0731863634\C,12.0764463571,8.6
 995675868,-3.8665957654\H,11.5790310559,7.8552443906,-4.345075245\H,12
 .0848162581,9.549676817,-4.5584765599\H,13.1105907062,8.4230480169,-3.
 6313369802\\Version=EM64L-G09RevA.02\State=1-A\HF=-990.5010185\RMSD=3.
 428e-09\RMSF=8.270e-04\Dipole=0.7133396,1.0683781,-0.8816637\Quadrupol
 e=16.6078353,-15.8126027,-0.7952326,4.4395661,-2.0919161,-11.7533494\P
 G=C01 [X(C12H22N4O4)]\\@


 ANYONE WHO IS NOT SHOCKED BY QUANTUM THEORY HAS
 NOT UNDERSTOOD IT. -- NIELS BOHR(1885-1962)
 Job cpu time:  0 days  3 hours  1 minutes 21.5 seconds.
 File lengths (MBytes):  RWF=    608 Int=      0 D2E=      0 Chk=     11 Scr=      1
 Normal termination of Gaussian 09 at Fri Dec 30 07:22:08 2016.
