 Entering Gaussian System, Link 0=g09
 Initial command:
 /home/steboss/Software/g09/l1.exe /home/steboss/projects/phi_psi_scan/alanine/MP2/60/5671/Gau-28404.inp -scrdir=/home/steboss/projects/phi_psi_scan/alanine/MP2/60/5671/
 Entering Link 1 = /home/steboss/Software/g09/l1.exe PID=     28406.
  
 Copyright (c) 1988,1990,1992,1993,1995,1998,2003,2009, Gaussian, Inc.
                  All Rights Reserved.
  
 This is part of the Gaussian(R) 09 program.  It is based on
 the Gaussian(R) 03 system (copyright 2003, Gaussian, Inc.),
 the Gaussian(R) 98 system (copyright 1998, Gaussian, Inc.),
 the Gaussian(R) 94 system (copyright 1995, Gaussian, Inc.),
 the Gaussian 92(TM) system (copyright 1992, Gaussian, Inc.),
 the Gaussian 90(TM) system (copyright 1990, Gaussian, Inc.),
 the Gaussian 88(TM) system (copyright 1988, Gaussian, Inc.),
 the Gaussian 86(TM) system (copyright 1986, Carnegie Mellon
 University), and the Gaussian 82(TM) system (copyright 1983,
 Carnegie Mellon University). Gaussian is a federally registered
 trademark of Gaussian, Inc.
  
 This software contains proprietary and confidential information,
 including trade secrets, belonging to Gaussian, Inc.
  
 This software is provided under written license and may be
 used, copied, transmitted, or stored only in accord with that
 written license.
  
 The following legend is applicable only to US Government
 contracts under FAR:
  
                    RESTRICTED RIGHTS LEGEND
  
 Use, reproduction and disclosure by the US Government is
 subject to restrictions as set forth in subparagraphs (a)
 and (c) of the Commercial Computer Software - Restricted
 Rights clause in FAR 52.227-19.
  
 Gaussian, Inc.
 340 Quinnipiac St., Bldg. 40, Wallingford CT 06492
  
  
 ---------------------------------------------------------------
 Warning -- This program may not be used in any manner that
 competes with the business of Gaussian, Inc. or will provide
 assistance to any competitor of Gaussian, Inc.  The licensee
 of this program is prohibited from giving any competitor of
 Gaussian, Inc. access to this program.  By using this program,
 the user acknowledges that Gaussian, Inc. is engaged in the
 business of creating and licensing software in the field of
 computational chemistry and represents and warrants to the
 licensee that it is not a competitor of Gaussian, Inc. and that
 it will not use this program in any manner prohibited above.
 ---------------------------------------------------------------
  

 Cite this work as:
 Gaussian 09, Revision A.02,
 M. J. Frisch, G. W. Trucks, H. B. Schlegel, G. E. Scuseria, 
 M. A. Robb, J. R. Cheeseman, G. Scalmani, V. Barone, B. Mennucci, 
 G. A. Petersson, H. Nakatsuji, M. Caricato, X. Li, H. P. Hratchian, 
 A. F. Izmaylov, J. Bloino, G. Zheng, J. L. Sonnenberg, M. Hada, 
 M. Ehara, K. Toyota, R. Fukuda, J. Hasegawa, M. Ishida, T. Nakajima, 
 Y. Honda, O. Kitao, H. Nakai, T. Vreven, J. A. Montgomery, Jr., 
 J. E. Peralta, F. Ogliaro, M. Bearpark, J. J. Heyd, E. Brothers, 
 K. N. Kudin, V. N. Staroverov, R. Kobayashi, J. Normand, 
 K. Raghavachari, A. Rendell, J. C. Burant, S. S. Iyengar, J. Tomasi, 
 M. Cossi, N. Rega, J. M. Millam, M. Klene, J. E. Knox, J. B. Cross, 
 V. Bakken, C. Adamo, J. Jaramillo, R. Gomperts, R. E. Stratmann, 
 O. Yazyev, A. J. Austin, R. Cammi, C. Pomelli, J. W. Ochterski, 
 R. L. Martin, K. Morokuma, V. G. Zakrzewski, G. A. Voth, 
 P. Salvador, J. J. Dannenberg, S. Dapprich, A. D. Daniels, 
 O. Farkas, J. B. Foresman, J. V. Ortiz, J. Cioslowski, 
 and D. J. Fox, Gaussian, Inc., Wallingford CT, 2009.
 
 ******************************************
 Gaussian 09:  EM64L-G09RevA.02 11-Jun-2009
                14-Feb-2017 
 ******************************************
 %chk=structure_255.chk
 %NProcShared=8
 Will use up to    8 processors via shared memory.
 -------------------
 #SP MP2/aug-cc-pVDZ
 -------------------
 1/38=1/1;
 2/12=2,17=6,18=5,40=1/2;
 3/5=16,7=10,11=9,16=1,25=1,30=1/1,2,3;
 4//1;
 5/5=2,38=5/2;
 8/10=1/1;
 9/16=-3/6;
 6/7=2,8=2,9=2,10=2/1;
 99/5=1,9=1/99;
 -------------------------------
 Single Point calculation at MP2
 -------------------------------
 Symbolic Z-matrix:
 Charge =  0 Multiplicity = 1
 H                     2.7418   -2.0806    0.749 
 C                     3.002    -1.1081    0.3163 
 H                     3.6541   -1.2932   -0.541 
 H                     3.547    -0.5252    1.0651 
 C                     1.7325   -0.4306   -0.1748 
 O                     1.1455   -0.8111   -1.1857 
 N                     1.3       0.6305    0.5727 
 H                     1.7128    0.7545    1.4864 
 C                    -0.014     1.258     0.3544 
 H                    -0.146     1.9459    1.1941 
 C                    -0.0527    2.0654   -0.9486 
 H                     0.1721    1.443    -1.8173 
 H                    -1.0382    2.5223   -1.0835 
 H                     0.6965    2.8627   -0.9056 
 C                    -1.1434    0.2168    0.5681 
 O                    -1.4787   -0.0838    1.7087 
 N                    -1.7556   -0.265    -0.5508 
 H                    -1.1806   -0.2665   -1.3847 
 C                    -2.7412   -1.33     -0.4326 
 H                    -3.4099   -1.0973    0.3975 
 H                    -3.318    -1.3895   -1.3595 
 H                    -2.2767   -2.3051   -0.2349 
 
                          Input orientation:                          
 ---------------------------------------------------------------------
 Center     Atomic      Atomic             Coordinates (Angstroms)
 Number     Number       Type             X           Y           Z
 ---------------------------------------------------------------------
      1          1           0        2.741800   -2.080600    0.749000
      2          6           0        3.002000   -1.108100    0.316300
      3          1           0        3.654100   -1.293200   -0.541000
      4          1           0        3.547000   -0.525200    1.065100
      5          6           0        1.732500   -0.430600   -0.174800
      6          8           0        1.145500   -0.811100   -1.185700
      7          7           0        1.300000    0.630500    0.572700
      8          1           0        1.712800    0.754500    1.486400
      9          6           0       -0.014000    1.258000    0.354400
     10          1           0       -0.146000    1.945900    1.194100
     11          6           0       -0.052700    2.065400   -0.948600
     12          1           0        0.172100    1.443000   -1.817300
     13          1           0       -1.038200    2.522300   -1.083500
     14          1           0        0.696500    2.862700   -0.905600
     15          6           0       -1.143400    0.216800    0.568100
     16          8           0       -1.478700   -0.083800    1.708700
     17          7           0       -1.755600   -0.265000   -0.550800
     18          1           0       -1.180600   -0.266500   -1.384700
     19          6           0       -2.741200   -1.330000   -0.432600
     20          1           0       -3.409900   -1.097300    0.397500
     21          1           0       -3.318000   -1.389500   -1.359500
     22          1           0       -2.276700   -2.305100   -0.234900
 ---------------------------------------------------------------------
                    Distance matrix (angstroms):
                    1          2          3          4          5
     1  H    0.000000
     2  C    1.095760   0.000000
     3  H    1.765330   1.092913   0.000000
     4  H    1.779757   1.094303   1.783494   0.000000
     5  C    2.143500   1.520466   2.137926   2.199707   0.000000
     6  O    2.811204   2.406409   2.634603   3.303792   1.229336
     7  N    3.075700   2.446482   3.237705   2.574317   1.368118
     8  H    3.104898   2.549598   3.474489   2.275833   2.040695
     9  C    4.346998   3.833554   4.556898   4.045444   2.486299
    10  H    4.974958   4.472958   5.286123   4.445360   3.324214
    11  C    5.280189   4.582823   5.018635   4.870733   3.164762
    12  H    5.060139   4.366772   4.608694   4.855099   2.939903
    13  H    6.231625   5.609141   6.072069   5.909974   4.149956
    14  H    5.599747   4.751381   5.113887   4.846326   3.528908
    15  C    4.517250   4.359255   5.150360   4.774665   3.040037
    16  O    4.766640   4.802566   5.733187   5.085933   3.738937
    17  N    5.021204   4.908914   5.506555   5.549451   3.512213
    18  H    4.819632   4.593020   5.014007   5.330914   3.158629
    19  C    5.658875   5.796071   6.396324   6.514005   4.570489
    20  H    6.239699   6.412423   7.128763   7.012235   5.216924
    21  H    6.453260   6.544455   7.020641   7.331707   5.275467
    22  H    5.118965   5.440708   6.024286   6.226839   4.426177
                    6          7          8          9         10
     6  O    0.000000
     7  N    2.279046   0.000000
     8  H    3.148500   1.010261   0.000000
     9  C    2.827989   1.472415   2.125270   0.000000
    10  H    3.864255   2.051178   2.227108   1.093493   0.000000
    11  C    3.125084   2.490600   3.280956   1.533363   2.148057
    12  H    2.535230   2.764853   3.709747   2.187496   3.069630
    13  H    3.986295   3.433524   4.159027   2.171404   2.513110
    14  H    3.711720   2.744504   3.346496   2.160433   2.441120
    15  C    3.061283   2.478179   3.047995   1.550906   2.092001
    16  O    3.974034   3.085757   3.307240   2.404143   2.482052
    17  N    3.019554   3.376517   4.149622   2.484368   3.244005
    18  H    2.397276   3.284722   4.202073   2.590275   3.551805
    19  C    3.992850   4.602769   5.278808   3.841189   4.484723
    20  H    4.831159   5.019875   5.554901   4.132969   4.533065
    21  H    4.504174   5.398122   6.164806   4.567617   5.263777
    22  H    3.853247   4.697100   5.314145   4.261780   4.965171
                   11         12         13         14         15
    11  C    0.000000
    12  H    1.092042   0.000000
    13  H    1.094608   1.779937   0.000000
    14  H    1.094914   1.766845   1.776712   0.000000
    15  C    2.628179   2.987347   2.837989   3.543700   0.000000
    16  O    3.703212   4.181977   3.844760   4.499769   1.226277
    17  N    2.913568   2.870072   2.927025   3.990136   1.363399
    18  H    2.626804   2.222460   2.808630   3.680344   2.012061
    19  C    4.361540   4.253732   4.261936   5.442448   2.438638
    20  H    4.804732   4.918250   4.573820   5.851683   2.625450
    21  H    4.771515   4.518123   4.536060   5.865445   3.320350
    22  H    4.955483   4.748564   5.055472   5.999659   2.879090
                   16         17         18         19         20
    16  O    0.000000
    17  N    2.283604   0.000000
    18  H    3.113096   1.012925   0.000000
    19  C    2.780663   1.455886   2.114947   0.000000
    20  H    2.544791   2.080554   2.972582   1.091043   0.000000
    21  H    3.808113   2.087963   2.414590   1.093335   1.783501
    22  H    3.057541   2.129166   2.584447   1.098028   1.772809
                   21         22
    21  H    0.000000
    22  H    1.785316   0.000000
 Stoichiometry    C6H12N2O2
 Framework group  C1[X(C6H12N2O2)]
 Deg. of freedom    60
 Full point group                 C1      NOp   1
 Largest Abelian subgroup         C1      NOp   1
 Largest concise Abelian subgroup C1      NOp   1
                         Standard orientation:                         
 ---------------------------------------------------------------------
 Center     Atomic      Atomic             Coordinates (Angstroms)
 Number     Number       Type             X           Y           Z
 ---------------------------------------------------------------------
      1          1           0        2.741814   -2.080584    0.749004
      2          6           0        3.002012   -1.108083    0.316304
      3          1           0        3.654112   -1.293182   -0.540996
      4          1           0        3.547010   -0.525182    1.065104
      5          6           0        1.732510   -0.430587   -0.174796
      6          8           0        1.145511   -0.811088   -1.185696
      7          7           0        1.300007    0.630512    0.572704
      8          1           0        1.712807    0.754513    1.486404
      9          6           0       -0.013994    1.258009    0.354404
     10          1           0       -0.145996    1.945909    1.194104
     11          6           0       -0.052696    2.065409   -0.948596
     12          1           0        0.172105    1.443009   -1.817296
     13          1           0       -1.038198    2.522306   -1.083496
     14          1           0        0.696502    2.862711   -0.905596
     15          6           0       -1.143392    0.216806    0.568104
     16          8           0       -1.478691   -0.083795    1.708704
     17          7           0       -1.755590   -0.264996   -0.550796
     18          1           0       -1.180590   -0.266494   -1.384696
     19          6           0       -2.741188   -1.329998   -0.432596
     20          1           0       -3.409888   -1.097300    0.397504
     21          1           0       -3.317987   -1.389500   -1.359496
     22          1           0       -2.276685   -2.305097   -0.234896
 ---------------------------------------------------------------------
 Rotational constants (GHZ):      1.8394113      0.9133135      0.8375413
 Standard basis: Aug-CC-pVDZ (5D, 7F)
 There are   338 symmetry adapted basis functions of A   symmetry.
 Integral buffers will be    131072 words long.
 Raffenetti 1 integral format.
 Two-electron integral symmetry is turned on.
   338 basis functions,   562 primitive gaussians,   358 cartesian basis functions
    39 alpha electrons       39 beta electrons
       nuclear repulsion energy       566.4213695728 Hartrees.
 NAtoms=   22 NActive=   22 NUniq=   22 SFac= 7.50D-01 NAtFMM=   80 NAOKFM=F Big=F
 One-electron integrals computed using PRISM.
 NBasis=   338 RedAO= T  NBF=   338
 NBsUse=   338 1.00D-06 NBFU=   338
 Harris functional with IExCor=  205 diagonalized for initial guess.
 ExpMin= 2.97D-02 ExpMax= 1.17D+04 ExpMxC= 4.01D+02 IAcc=3 IRadAn=         0 AccDes= 0.00D+00
 HarFok:  IExCor=  205 AccDes= 0.00D+00 IRadAn=         0 IDoV= 1
 ScaDFX=  1.000000  1.000000  1.000000  1.000000
 FoFCou: FMM=F IPFlag=           0 FMFlag=      100000 FMFlg1=           0
         NFxFlg=           0 DoJE=T BraDBF=F KetDBF=T FulRan=T
         Omega=  0.000000  0.000000  1.000000  0.000000  0.000000 ICntrl=     500 IOpCl=  0
         NMat0=    1 NMatS0=    1 NMatT0=    0 NMatD0=    1 NMtDS0=    0 NMtDT0=    0
         I1Cent=           4 NGrid=           0.
 Petite list used in FoFCou.
 Initial guess orbital symmetries:
       Occupied  (A) (A) (A) (A) (A) (A) (A) (A) (A) (A) (A) (A)
                 (A) (A) (A) (A) (A) (A) (A) (A) (A) (A) (A) (A)
                 (A) (A) (A) (A) (A) (A) (A) (A) (A) (A) (A) (A)
                 (A) (A) (A)
       Virtual   (A) (A) (A) (A) (A) (A) (A) (A) (A) (A) (A) (A)
                 (A) (A) (A) (A) (A) (A) (A) (A) (A) (A) (A) (A)
                 (A) (A) (A) (A) (A) (A) (A) (A) (A) (A) (A) (A)
                 (A) (A) (A) (A) (A) (A) (A) (A) (A) (A) (A) (A)
                 (A) (A) (A) (A) (A) (A) (A) (A) (A) (A) (A) (A)
                 (A) (A) (A) (A) (A) (A) (A) (A) (A) (A) (A) (A)
                 (A) (A) (A) (A) (A) (A) (A) (A) (A) (A) (A) (A)
                 (A) (A) (A) (A) (A) (A) (A) (A) (A) (A) (A) (A)
                 (A) (A) (A) (A) (A) (A) (A) (A) (A) (A) (A) (A)
                 (A) (A) (A) (A) (A) (A) (A) (A) (A) (A) (A) (A)
                 (A) (A) (A) (A) (A) (A) (A) (A) (A) (A) (A) (A)
                 (A) (A) (A) (A) (A) (A) (A) (A) (A) (A) (A) (A)
                 (A) (A) (A) (A) (A) (A) (A) (A) (A) (A) (A) (A)
                 (A) (A) (A) (A) (A) (A) (A) (A) (A) (A) (A) (A)
                 (A) (A) (A) (A) (A) (A) (A) (A) (A) (A) (A) (A)
                 (A) (A) (A) (A) (A) (A) (A) (A) (A) (A) (A) (A)
                 (A) (A) (A) (A) (A) (A) (A) (A) (A) (A) (A) (A)
                 (A) (A) (A) (A) (A) (A) (A) (A) (A) (A) (A) (A)
                 (A) (A) (A) (A) (A) (A) (A) (A) (A) (A) (A) (A)
                 (A) (A) (A) (A) (A) (A) (A) (A) (A) (A) (A) (A)
                 (A) (A) (A) (A) (A) (A) (A) (A) (A) (A) (A) (A)
                 (A) (A) (A) (A) (A) (A) (A) (A) (A) (A) (A) (A)
                 (A) (A) (A) (A) (A) (A) (A) (A) (A) (A) (A) (A)
                 (A) (A) (A) (A) (A) (A) (A) (A) (A) (A) (A) (A)
                 (A) (A) (A) (A) (A) (A) (A) (A) (A) (A) (A)
 The electronic state of the initial guess is 1-A.
 Requested convergence on RMS density matrix=1.00D-08 within 128 cycles.
 Requested convergence on MAX density matrix=1.00D-06.
 Requested convergence on             energy=1.00D-06.
 No special actions if energy rises.
 Initial convergence to 1.0D-05 achieved.  Increase integral accuracy.
 SCF Done:  E(RHF) =  -492.922522885     A.U. after   14 cycles
             Convg  =    0.9852D-08             -V/T =  2.0017
 ExpMin= 2.97D-02 ExpMax= 1.17D+04 ExpMxC= 4.01D+02 IAcc=3 IRadAn=         5 AccDes= 0.00D+00
 HarFok:  IExCor=  205 AccDes= 0.00D+00 IRadAn=         5 IDoV=-2
 ScaDFX=  1.000000  1.000000  1.000000  1.000000
 Range of M.O.s used for correlation:    11   338
 NBasis=   338 NAE=    39 NBE=    39 NFC=    10 NFV=     0
 NROrb=    328 NOA=    29 NOB=    29 NVA=   299 NVB=   299

 **** Warning!!: The largest alpha MO coefficient is  0.90543517D+02

 Disk-based method using OVN memory for 29 occupieds at a time.
 Estimated scratch disk usage=  1396913611 words.
 Actual    scratch disk usage=  1383898321 words.
 JobTyp=1 Pass  1:  I=   1 to  29 NPSUse=  8 ParTrn=T ParDer=T DoDerP=F.
 Spin components of T(2) and E(2):
     alpha-alpha T2 =       0.6797542200D-01 E2=     -0.2059151552D+00
     alpha-beta  T2 =       0.3769336043D+00 E2=     -0.1191056106D+01
     beta-beta   T2 =       0.6797542200D-01 E2=     -0.2059151552D+00
 ANorm=    0.1229993678D+01
 E2 =    -0.1602886416D+01 EUMP2 =    -0.49452540930144D+03

 **********************************************************************

            Population analysis using the SCF density.

 **********************************************************************

 Orbital symmetries:
       Occupied  (A) (A) (A) (A) (A) (A) (A) (A) (A) (A) (A) (A)
                 (A) (A) (A) (A) (A) (A) (A) (A) (A) (A) (A) (A)
                 (A) (A) (A) (A) (A) (A) (A) (A) (A) (A) (A) (A)
                 (A) (A) (A)
       Virtual   (A) (A) (A) (A) (A) (A) (A) (A) (A) (A) (A) (A)
                 (A) (A) (A) (A) (A) (A) (A) (A) (A) (A) (A) (A)
                 (A) (A) (A) (A) (A) (A) (A) (A) (A) (A) (A) (A)
                 (A) (A) (A) (A) (A) (A) (A) (A) (A) (A) (A) (A)
                 (A) (A) (A) (A) (A) (A) (A) (A) (A) (A) (A) (A)
                 (A) (A) (A) (A) (A) (A) (A) (A) (A) (A) (A) (A)
                 (A) (A) (A) (A) (A) (A) (A) (A) (A) (A) (A) (A)
                 (A) (A) (A) (A) (A) (A) (A) (A) (A) (A) (A) (A)
                 (A) (A) (A) (A) (A) (A) (A) (A) (A) (A) (A) (A)
                 (A) (A) (A) (A) (A) (A) (A) (A) (A) (A) (A) (A)
                 (A) (A) (A) (A) (A) (A) (A) (A) (A) (A) (A) (A)
                 (A) (A) (A) (A) (A) (A) (A) (A) (A) (A) (A) (A)
                 (A) (A) (A) (A) (A) (A) (A) (A) (A) (A) (A) (A)
                 (A) (A) (A) (A) (A) (A) (A) (A) (A) (A) (A) (A)
                 (A) (A) (A) (A) (A) (A) (A) (A) (A) (A) (A) (A)
                 (A) (A) (A) (A) (A) (A) (A) (A) (A) (A) (A) (A)
                 (A) (A) (A) (A) (A) (A) (A) (A) (A) (A) (A) (A)
                 (A) (A) (A) (A) (A) (A) (A) (A) (A) (A) (A) (A)
                 (A) (A) (A) (A) (A) (A) (A) (A) (A) (A) (A) (A)
                 (A) (A) (A) (A) (A) (A) (A) (A) (A) (A) (A) (A)
                 (A) (A) (A) (A) (A) (A) (A) (A) (A) (A) (A) (A)
                 (A) (A) (A) (A) (A) (A) (A) (A) (A) (A) (A) (A)
                 (A) (A) (A) (A) (A) (A) (A) (A) (A) (A) (A) (A)
                 (A) (A) (A) (A) (A) (A) (A) (A) (A) (A) (A) (A)
                 (A) (A) (A) (A) (A) (A) (A) (A) (A) (A) (A)
 The electronic state is 1-A.
 Alpha  occ. eigenvalues --  -20.54057 -20.52881 -15.60673 -15.58216 -11.37295
 Alpha  occ. eigenvalues --  -11.35337 -11.29648 -11.25826 -11.25343 -11.23504
 Alpha  occ. eigenvalues --   -1.39524  -1.37898  -1.24497  -1.22247  -1.05688
 Alpha  occ. eigenvalues --   -0.99703  -0.94509  -0.88728  -0.80551  -0.76450
 Alpha  occ. eigenvalues --   -0.71764  -0.70285  -0.65129  -0.64069  -0.62258
 Alpha  occ. eigenvalues --   -0.61410  -0.59852  -0.58059  -0.57065  -0.56047
 Alpha  occ. eigenvalues --   -0.54532  -0.53966  -0.52323  -0.51499  -0.50798
 Alpha  occ. eigenvalues --   -0.43763  -0.43296  -0.40044  -0.38242
 Alpha virt. eigenvalues --    0.02937   0.03974   0.04190   0.04789   0.05771
 Alpha virt. eigenvalues --    0.06087   0.06393   0.06724   0.07495   0.08153
 Alpha virt. eigenvalues --    0.08862   0.10134   0.11076   0.11573   0.12735
 Alpha virt. eigenvalues --    0.13499   0.13776   0.14445   0.14810   0.15209
 Alpha virt. eigenvalues --    0.15708   0.15956   0.16382   0.17041   0.17462
 Alpha virt. eigenvalues --    0.17787   0.17934   0.18223   0.18908   0.19135
 Alpha virt. eigenvalues --    0.19811   0.20381   0.20765   0.21101   0.22657
 Alpha virt. eigenvalues --    0.23012   0.23912   0.24671   0.25428   0.27334
 Alpha virt. eigenvalues --    0.27758   0.28764   0.29025   0.29788   0.30882
 Alpha virt. eigenvalues --    0.31002   0.32135   0.32720   0.33211   0.33971
 Alpha virt. eigenvalues --    0.34410   0.34442   0.35566   0.36197   0.37583
 Alpha virt. eigenvalues --    0.37735   0.38404   0.40066   0.40447   0.40503
 Alpha virt. eigenvalues --    0.41528   0.41849   0.42333   0.42577   0.43194
 Alpha virt. eigenvalues --    0.43595   0.44088   0.45515   0.45641   0.45984
 Alpha virt. eigenvalues --    0.46565   0.46963   0.47746   0.48249   0.49491
 Alpha virt. eigenvalues --    0.50449   0.50737   0.51257   0.52305   0.53042
 Alpha virt. eigenvalues --    0.53308   0.54186   0.55595   0.56242   0.56755
 Alpha virt. eigenvalues --    0.57155   0.57380   0.57554   0.58048   0.59142
 Alpha virt. eigenvalues --    0.59798   0.60147   0.61186   0.61644   0.62761
 Alpha virt. eigenvalues --    0.63417   0.63747   0.64080   0.64702   0.65586
 Alpha virt. eigenvalues --    0.66272   0.66837   0.67722   0.68149   0.68668
 Alpha virt. eigenvalues --    0.69241   0.69856   0.70612   0.71499   0.71735
 Alpha virt. eigenvalues --    0.72615   0.73247   0.74097   0.74716   0.75009
 Alpha virt. eigenvalues --    0.75369   0.77059   0.77966   0.79078   0.80444
 Alpha virt. eigenvalues --    0.80737   0.80835   0.82755   0.82929   0.84005
 Alpha virt. eigenvalues --    0.84302   0.85797   0.86675   0.88462   0.88709
 Alpha virt. eigenvalues --    0.89853   0.90676   0.91084   0.92744   0.93667
 Alpha virt. eigenvalues --    0.94722   0.96212   0.97916   0.98662   0.99867
 Alpha virt. eigenvalues --    1.00665   1.01052   1.03162   1.04418   1.04764
 Alpha virt. eigenvalues --    1.05983   1.06702   1.08348   1.09511   1.10995
 Alpha virt. eigenvalues --    1.12182   1.13085   1.15681   1.16132   1.17110
 Alpha virt. eigenvalues --    1.17743   1.18061   1.21000   1.21106   1.22696
 Alpha virt. eigenvalues --    1.23696   1.24477   1.26386   1.28410   1.30643
 Alpha virt. eigenvalues --    1.33639   1.35141   1.36554   1.37716   1.39151
 Alpha virt. eigenvalues --    1.39693   1.42274   1.43314   1.45081   1.47659
 Alpha virt. eigenvalues --    1.47920   1.50473   1.51882   1.55259   1.55595
 Alpha virt. eigenvalues --    1.56730   1.57181   1.59677   1.61219   1.63405
 Alpha virt. eigenvalues --    1.64858   1.67525   1.69485   1.71569   1.73122
 Alpha virt. eigenvalues --    1.76075   1.77394   1.78863   1.80759   1.82653
 Alpha virt. eigenvalues --    1.83468   1.85455   1.87707   1.88884   1.89600
 Alpha virt. eigenvalues --    1.90755   1.91581   1.92499   1.94195   1.94469
 Alpha virt. eigenvalues --    1.96085   1.96994   1.97399   1.98548   2.01684
 Alpha virt. eigenvalues --    2.02365   2.05307   2.05593   2.07045   2.08890
 Alpha virt. eigenvalues --    2.10334   2.10652   2.15585   2.16250   2.17627
 Alpha virt. eigenvalues --    2.17973   2.20491   2.21055   2.22979   2.24533
 Alpha virt. eigenvalues --    2.25914   2.27171   2.28503   2.29293   2.31702
 Alpha virt. eigenvalues --    2.32168   2.34101   2.35195   2.36512   2.37769
 Alpha virt. eigenvalues --    2.39989   2.41558   2.43122   2.44159   2.45311
 Alpha virt. eigenvalues --    2.48092   2.49483   2.51230   2.51608   2.52306
 Alpha virt. eigenvalues --    2.53392   2.54766   2.56884   2.58698   2.61947
 Alpha virt. eigenvalues --    2.62512   2.64362   2.66541   2.68476   2.69865
 Alpha virt. eigenvalues --    2.71466   2.74990   2.77195   2.78932   2.80305
 Alpha virt. eigenvalues --    2.82323   2.85483   2.86425   2.87080   2.89476
 Alpha virt. eigenvalues --    2.91147   2.92640   2.94731   2.95447   2.97608
 Alpha virt. eigenvalues --    2.99881   3.03886   3.04759   3.07334   3.08697
 Alpha virt. eigenvalues --    3.12137   3.13587   3.16427   3.22294   3.27722
 Alpha virt. eigenvalues --    3.28015   3.34835   3.42827   3.54890   3.57172
 Alpha virt. eigenvalues --    3.62083   3.66674   3.77559   3.83538   3.84553
 Alpha virt. eigenvalues --    3.88816   3.93161   3.93940   3.96831   4.04704
 Alpha virt. eigenvalues --    4.08063   4.11339   4.23569   4.28442
          Condensed to atoms (all electrons):
              1          2          3          4          5          6
     1  H    0.720946   0.295418  -0.042870  -0.073753   0.003203   0.012286
     2  C    0.295418   4.588579   0.390911   0.380762   0.120955  -0.056516
     3  H   -0.042870   0.390911   0.742677  -0.086343  -0.102105   0.023351
     4  H   -0.073753   0.380762  -0.086343   1.029981   0.034418  -0.004787
     5  C    0.003203   0.120955  -0.102105   0.034418   5.375781   0.207898
     6  O    0.012286  -0.056516   0.023351  -0.004787   0.207898   8.746182
     7  N    0.033549  -0.030035   0.042136  -0.178158   0.068868  -0.036556
     8  H   -0.002929  -0.058754  -0.004717   0.010061  -0.081695   0.003355
     9  C    0.002568   0.009730   0.014563   0.011237  -0.184378  -0.169424
    10  H   -0.001089   0.007060   0.000143   0.003972   0.013335   0.002454
    11  C    0.000498  -0.042642   0.000947  -0.015446  -0.055566   0.039750
    12  H   -0.000811  -0.005201   0.000362  -0.000703  -0.036787   0.006461
    13  H    0.000140   0.000015   0.000054  -0.000945  -0.031585   0.011304
    14  H    0.000488   0.003591  -0.000290   0.000122   0.044215  -0.006113
    15  C   -0.006667  -0.011661  -0.000176  -0.008086  -0.037963   0.045793
    16  O    0.001048   0.007697  -0.000254   0.000880   0.022815   0.005777
    17  N   -0.000790  -0.012673  -0.000922   0.000559   0.015791   0.045827
    18  H    0.000287  -0.005082  -0.000091   0.000833   0.012804  -0.036910
    19  C    0.000330   0.005943  -0.000398   0.000412  -0.001724   0.001578
    20  H    0.000089   0.001053  -0.000057   0.000031  -0.002853  -0.002096
    21  H   -0.000074   0.000640   0.000026   0.000055   0.000819   0.001673
    22  H   -0.000123  -0.003104  -0.000290   0.000057   0.004681   0.002061
              7          8          9         10         11         12
     1  H    0.033549  -0.002929   0.002568  -0.001089   0.000498  -0.000811
     2  C   -0.030035  -0.058754   0.009730   0.007060  -0.042642  -0.005201
     3  H    0.042136  -0.004717   0.014563   0.000143   0.000947   0.000362
     4  H   -0.178158   0.010061   0.011237   0.003972  -0.015446  -0.000703
     5  C    0.068868  -0.081695  -0.184378   0.013335  -0.055566  -0.036787
     6  O   -0.036556   0.003355  -0.169424   0.002454   0.039750   0.006461
     7  N    7.628386   0.321001  -0.591562  -0.001216   0.042393  -0.024920
     8  H    0.321001   0.938114  -0.020794  -0.030281  -0.008797  -0.011352
     9  C   -0.591562  -0.020794   8.343841  -0.370264  -0.024891   0.058958
    10  H   -0.001216  -0.030281  -0.370264   1.403758   0.000216   0.049571
    11  C    0.042393  -0.008797  -0.024891   0.000216   4.278421   0.396814
    12  H   -0.024920  -0.011352   0.058958   0.049571   0.396814   0.941115
    13  H    0.107332   0.000524  -0.210829  -0.051862   0.321136  -0.131173
    14  H   -0.085578   0.006893   0.061148  -0.029868   0.219402  -0.197611
    15  C    0.021845   0.027661  -0.510429   0.098276  -0.015694  -0.013827
    16  O    0.058297  -0.002094  -0.109354   0.021690   0.000388   0.000469
    17  N    0.093187   0.002623  -0.385460   0.050094   0.030559  -0.008493
    18  H   -0.050453   0.000974   0.160365   0.000899  -0.018133   0.024463
    19  C    0.009640   0.001268  -0.115686   0.009887   0.006675  -0.001359
    20  H   -0.002958  -0.000218   0.022219   0.004124  -0.010495   0.001267
    21  H    0.001979  -0.000162  -0.037371  -0.001520   0.008836   0.000353
    22  H   -0.002793   0.000535   0.030158   0.000811  -0.001271  -0.002362
             13         14         15         16         17         18
     1  H    0.000140   0.000488  -0.006667   0.001048  -0.000790   0.000287
     2  C    0.000015   0.003591  -0.011661   0.007697  -0.012673  -0.005082
     3  H    0.000054  -0.000290  -0.000176  -0.000254  -0.000922  -0.000091
     4  H   -0.000945   0.000122  -0.008086   0.000880   0.000559   0.000833
     5  C   -0.031585   0.044215  -0.037963   0.022815   0.015791   0.012804
     6  O    0.011304  -0.006113   0.045793   0.005777   0.045827  -0.036910
     7  N    0.107332  -0.085578   0.021845   0.058297   0.093187  -0.050453
     8  H    0.000524   0.006893   0.027661  -0.002094   0.002623   0.000974
     9  C   -0.210829   0.061148  -0.510429  -0.109354  -0.385460   0.160365
    10  H   -0.051862  -0.029868   0.098276   0.021690   0.050094   0.000899
    11  C    0.321136   0.219402  -0.015694   0.000388   0.030559  -0.018133
    12  H   -0.131173  -0.197611  -0.013827   0.000469  -0.008493   0.024463
    13  H    1.193768  -0.200259  -0.002004  -0.006710   0.044102  -0.024532
    14  H   -0.200259   1.218047   0.042089  -0.001813  -0.001068  -0.000055
    15  C   -0.002004   0.042089   5.136589   0.184550   0.314176  -0.116477
    16  O   -0.006710  -0.001813   0.184550   8.826874  -0.093875   0.012506
    17  N    0.044102  -0.001068   0.314176  -0.093875   7.171449   0.266540
    18  H   -0.024532  -0.000055  -0.116477   0.012506   0.266540   0.855548
    19  C    0.005697   0.003379  -0.084753  -0.003456   0.217536  -0.129130
    20  H   -0.000182  -0.000391   0.063493  -0.033301  -0.105835   0.005162
    21  H   -0.000613   0.000813  -0.049541   0.012373  -0.139410   0.009657
    22  H   -0.000794   0.000818  -0.015072   0.002466   0.138711  -0.005352
             19         20         21         22
     1  H    0.000330   0.000089  -0.000074  -0.000123
     2  C    0.005943   0.001053   0.000640  -0.003104
     3  H   -0.000398  -0.000057   0.000026  -0.000290
     4  H    0.000412   0.000031   0.000055   0.000057
     5  C   -0.001724  -0.002853   0.000819   0.004681
     6  O    0.001578  -0.002096   0.001673   0.002061
     7  N    0.009640  -0.002958   0.001979  -0.002793
     8  H    0.001268  -0.000218  -0.000162   0.000535
     9  C   -0.115686   0.022219  -0.037371   0.030158
    10  H    0.009887   0.004124  -0.001520   0.000811
    11  C    0.006675  -0.010495   0.008836  -0.001271
    12  H   -0.001359   0.001267   0.000353  -0.002362
    13  H    0.005697  -0.000182  -0.000613  -0.000794
    14  H    0.003379  -0.000391   0.000813   0.000818
    15  C   -0.084753   0.063493  -0.049541  -0.015072
    16  O   -0.003456  -0.033301   0.012373   0.002466
    17  N    0.217536  -0.105835  -0.139410   0.138711
    18  H   -0.129130   0.005162   0.009657  -0.005352
    19  C    4.171706   0.414568   0.499410   0.222788
    20  H    0.414568   1.054525  -0.187508  -0.099471
    21  H    0.499410  -0.187508   1.247897  -0.183192
    22  H    0.222788  -0.099471  -0.183192   0.971043
 Mulliken atomic charges:
              1
     1  H    0.058256
     2  C    0.413315
     3  H    0.023342
     4  H   -0.105157
     5  C    0.609073
     6  O   -0.843347
     7  N   -0.424385
     8  H   -0.091216
     9  C    0.015658
    10  H   -0.180191
    11  C    0.846900
    12  H   -0.045235
    13  H   -0.022582
    14  H   -0.077958
    15  C    0.937877
    16  O   -0.906976
    17  N   -0.642628
    18  H    0.036177
    19  C    0.765688
    20  H   -0.121166
    21  H   -0.185139
    22  H   -0.060307
 Sum of Mulliken atomic charges =   0.00000
 Mulliken charges with hydrogens summed into heavy atoms:
              1
     2  C    0.389757
     5  C    0.609073
     6  O   -0.843347
     7  N   -0.515601
     9  C   -0.164533
    11  C    0.701125
    15  C    0.937877
    16  O   -0.906976
    17  N   -0.606451
    19  C    0.399076
 Sum of Mulliken charges with hydrogens summed into heavy atoms =   0.00000
 Electronic spatial extent (au):  <R**2>=           1621.0757
 Charge=              0.0000 electrons
 Dipole moment (field-independent basis, Debye):
    X=              2.3912    Y=              1.2830    Z=             -0.4226  Tot=              2.7463
 Quadrupole moment (field-independent basis, Debye-Ang):
   XX=            -54.7550   YY=            -58.1523   ZZ=            -67.4179
   XY=              0.9847   XZ=             10.9671   YZ=              0.1260
 Traceless Quadrupole moment (field-independent basis, Debye-Ang):
   XX=              5.3534   YY=              1.9561   ZZ=             -7.3095
   XY=              0.9847   XZ=             10.9671   YZ=              0.1260
 Octapole moment (field-independent basis, Debye-Ang**2):
  XXX=             16.3742  YYY=             -0.6565  ZZZ=             -8.2331  XYY=             -1.9377
  XXY=            -12.9127  XXZ=             -1.4811  XZZ=              9.5184  YZZ=              5.3381
  YYZ=              5.6658  XYZ=             -4.2237
 Hexadecapole moment (field-independent basis, Debye-Ang**3):
 XXXX=          -1180.4687 YYYY=           -522.4538 ZZZZ=           -363.5847 XXXY=             -1.0252
 XXXZ=             14.2269 YYYX=             -2.5838 YYYZ=              2.1631 ZZZX=             36.2778
 ZZZY=              9.7690 XXYY=           -287.0648 XXZZ=           -271.5526 YYZZ=           -147.5030
 XXYZ=              8.4185 YYXZ=              4.7028 ZZXY=              9.4357
 N-N= 5.664213695728D+02 E-N=-2.288219580014D+03  KE= 4.920712802106D+02
 1\1\GINC-NODE003\SP\RMP2-FC\Aug-CC-pVDZ\C6H12N2O2\STEBOSS\14-Feb-2017\
 0\\#SP MP2/aug-cc-pVDZ\\Single Point calculation at MP2\\0,1\H,0,2.741
 8,-2.0806,0.749\C,0,3.002,-1.1081,0.3163\H,0,3.6541,-1.2932,-0.541\H,0
 ,3.547,-0.5252,1.0651\C,0,1.7325,-0.4306,-0.1748\O,0,1.1455,-0.8111,-1
 .1857\N,0,1.3,0.6305,0.5727\H,0,1.7128,0.7545,1.4864\C,0,-0.014,1.258,
 0.3544\H,0,-0.146,1.9459,1.1941\C,0,-0.0527,2.0654,-0.9486\H,0,0.1721,
 1.443,-1.8173\H,0,-1.0382,2.5223,-1.0835\H,0,0.6965,2.8627,-0.9056\C,0
 ,-1.1434,0.2168,0.5681\O,0,-1.4787,-0.0838,1.7087\N,0,-1.7556,-0.265,-
 0.5508\H,0,-1.1806,-0.2665,-1.3847\C,0,-2.7412,-1.33,-0.4326\H,0,-3.40
 99,-1.0973,0.3975\H,0,-3.318,-1.3895,-1.3595\H,0,-2.2767,-2.3051,-0.23
 49\\Version=EM64L-G09RevA.02\State=1-A\HF=-492.9225229\MP2=-494.525409
 3\RMSD=9.852e-09\PG=C01 [X(C6H12N2O2)]\\@


 The mind is not a vessel to be filled but a fire to be kindled.
                                  -- Plutarch
 Job cpu time:  0 days 13 hours 47 minutes 26.3 seconds.
 File lengths (MBytes):  RWF=  10675 Int=      0 D2E=      0 Chk=      7 Scr=      2
 Normal termination of Gaussian 09 at Tue Feb 14 02:21:17 2017.
