 Entering Gaussian System, Link 0=g09
 Initial command:
 /home/steboss/Software/g09/l1.exe /home/steboss/projects/phi_psi_scan/alanine/MP2/60/5667/Gau-23255.inp -scrdir=/home/steboss/projects/phi_psi_scan/alanine/MP2/60/5667/
 Entering Link 1 = /home/steboss/Software/g09/l1.exe PID=     23290.
  
 Copyright (c) 1988,1990,1992,1993,1995,1998,2003,2009, Gaussian, Inc.
                  All Rights Reserved.
  
 This is part of the Gaussian(R) 09 program.  It is based on
 the Gaussian(R) 03 system (copyright 2003, Gaussian, Inc.),
 the Gaussian(R) 98 system (copyright 1998, Gaussian, Inc.),
 the Gaussian(R) 94 system (copyright 1995, Gaussian, Inc.),
 the Gaussian 92(TM) system (copyright 1992, Gaussian, Inc.),
 the Gaussian 90(TM) system (copyright 1990, Gaussian, Inc.),
 the Gaussian 88(TM) system (copyright 1988, Gaussian, Inc.),
 the Gaussian 86(TM) system (copyright 1986, Carnegie Mellon
 University), and the Gaussian 82(TM) system (copyright 1983,
 Carnegie Mellon University). Gaussian is a federally registered
 trademark of Gaussian, Inc.
  
 This software contains proprietary and confidential information,
 including trade secrets, belonging to Gaussian, Inc.
  
 This software is provided under written license and may be
 used, copied, transmitted, or stored only in accord with that
 written license.
  
 The following legend is applicable only to US Government
 contracts under FAR:
  
                    RESTRICTED RIGHTS LEGEND
  
 Use, reproduction and disclosure by the US Government is
 subject to restrictions as set forth in subparagraphs (a)
 and (c) of the Commercial Computer Software - Restricted
 Rights clause in FAR 52.227-19.
  
 Gaussian, Inc.
 340 Quinnipiac St., Bldg. 40, Wallingford CT 06492
  
  
 ---------------------------------------------------------------
 Warning -- This program may not be used in any manner that
 competes with the business of Gaussian, Inc. or will provide
 assistance to any competitor of Gaussian, Inc.  The licensee
 of this program is prohibited from giving any competitor of
 Gaussian, Inc. access to this program.  By using this program,
 the user acknowledges that Gaussian, Inc. is engaged in the
 business of creating and licensing software in the field of
 computational chemistry and represents and warrants to the
 licensee that it is not a competitor of Gaussian, Inc. and that
 it will not use this program in any manner prohibited above.
 ---------------------------------------------------------------
  

 Cite this work as:
 Gaussian 09, Revision A.02,
 M. J. Frisch, G. W. Trucks, H. B. Schlegel, G. E. Scuseria, 
 M. A. Robb, J. R. Cheeseman, G. Scalmani, V. Barone, B. Mennucci, 
 G. A. Petersson, H. Nakatsuji, M. Caricato, X. Li, H. P. Hratchian, 
 A. F. Izmaylov, J. Bloino, G. Zheng, J. L. Sonnenberg, M. Hada, 
 M. Ehara, K. Toyota, R. Fukuda, J. Hasegawa, M. Ishida, T. Nakajima, 
 Y. Honda, O. Kitao, H. Nakai, T. Vreven, J. A. Montgomery, Jr., 
 J. E. Peralta, F. Ogliaro, M. Bearpark, J. J. Heyd, E. Brothers, 
 K. N. Kudin, V. N. Staroverov, R. Kobayashi, J. Normand, 
 K. Raghavachari, A. Rendell, J. C. Burant, S. S. Iyengar, J. Tomasi, 
 M. Cossi, N. Rega, J. M. Millam, M. Klene, J. E. Knox, J. B. Cross, 
 V. Bakken, C. Adamo, J. Jaramillo, R. Gomperts, R. E. Stratmann, 
 O. Yazyev, A. J. Austin, R. Cammi, C. Pomelli, J. W. Ochterski, 
 R. L. Martin, K. Morokuma, V. G. Zakrzewski, G. A. Voth, 
 P. Salvador, J. J. Dannenberg, S. Dapprich, A. D. Daniels, 
 O. Farkas, J. B. Foresman, J. V. Ortiz, J. Cioslowski, 
 and D. J. Fox, Gaussian, Inc., Wallingford CT, 2009.
 
 ******************************************
 Gaussian 09:  EM64L-G09RevA.02 11-Jun-2009
                14-Feb-2017 
 ******************************************
 %chk=structure_195.chk
 %NProcShared=8
 Will use up to    8 processors via shared memory.
 -------------------
 #SP MP2/aug-cc-pVDZ
 -------------------
 1/38=1/1;
 2/12=2,17=6,18=5,40=1/2;
 3/5=16,7=10,11=9,16=1,25=1,30=1/1,2,3;
 4//1;
 5/5=2,38=5/2;
 8/10=1/1;
 9/16=-3/6;
 6/7=2,8=2,9=2,10=2/1;
 99/5=1,9=1/99;
 -------------------------------
 Single Point calculation at MP2
 -------------------------------
 Symbolic Z-matrix:
 Charge =  0 Multiplicity = 1
 H                    -3.7421   -1.0805    0.8586 
 C                    -3.0969   -1.0326   -0.0204 
 H                    -3.6686   -0.6622   -0.8778 
 H                    -2.7492   -2.0472   -0.2496 
 C                    -1.8915   -0.1634    0.2972 
 O                    -1.4819    0.0046    1.437 
 N                    -1.3038    0.4365   -0.8008 
 H                    -1.5211   -0.0082   -1.6839 
 C                     0.0668    0.934    -0.7078 
 H                     0.3383    1.2341   -1.7288 
 C                     0.1765    2.1781    0.187 
 H                     0.0354    1.9195    1.2372 
 H                     1.1431    2.6791    0.0519 
 H                    -0.5995    2.8946   -0.0984 
 C                     1.0244   -0.2403   -0.3614 
 O                     0.7022   -1.3995   -0.5893 
 N                     2.2703    0.1145    0.0672 
 H                     2.4129    1.0584    0.3944 
 C                     3.2656   -0.8837    0.426 
 H                     3.0488   -1.7914   -0.1381 
 H                     4.2655   -0.5217    0.1675 
 H                     3.2385   -1.1254    1.4965 
 
                          Input orientation:                          
 ---------------------------------------------------------------------
 Center     Atomic      Atomic             Coordinates (Angstroms)
 Number     Number       Type             X           Y           Z
 ---------------------------------------------------------------------
      1          1           0       -3.742100   -1.080500    0.858600
      2          6           0       -3.096900   -1.032600   -0.020400
      3          1           0       -3.668600   -0.662200   -0.877800
      4          1           0       -2.749200   -2.047200   -0.249600
      5          6           0       -1.891500   -0.163400    0.297200
      6          8           0       -1.481900    0.004600    1.437000
      7          7           0       -1.303800    0.436500   -0.800800
      8          1           0       -1.521100   -0.008200   -1.683900
      9          6           0        0.066800    0.934000   -0.707800
     10          1           0        0.338300    1.234100   -1.728800
     11          6           0        0.176500    2.178100    0.187000
     12          1           0        0.035400    1.919500    1.237200
     13          1           0        1.143100    2.679100    0.051900
     14          1           0       -0.599500    2.894600   -0.098400
     15          6           0        1.024400   -0.240300   -0.361400
     16          8           0        0.702200   -1.399500   -0.589300
     17          7           0        2.270300    0.114500    0.067200
     18          1           0        2.412900    1.058400    0.394400
     19          6           0        3.265600   -0.883700    0.426000
     20          1           0        3.048800   -1.791400   -0.138100
     21          1           0        4.265500   -0.521700    0.167500
     22          1           0        3.238500   -1.125400    1.496500
 ---------------------------------------------------------------------
                    Distance matrix (angstroms):
                    1          2          3          4          5
     1  H    0.000000
     2  C    1.091430   0.000000
     3  H    1.787586   1.095067   0.000000
     4  H    1.774392   1.096741   1.777120   0.000000
     5  C    2.140318   1.519660   2.188038   2.140874   0.000000
     6  O    2.573032   2.409984   3.253395   2.942882   1.222759
     7  N    3.316656   2.445912   2.608707   2.926050   1.382344
     8  H    3.542171   2.509935   2.385219   2.779023   2.021396
     9  C    4.584707   3.788012   4.065706   4.126422   2.459522
    10  H    5.357395   4.456137   4.513912   4.742111   3.321098
    11  C    5.140520   4.589854   4.897540   5.157858   3.125922
    12  H    4.838682   4.484167   4.985781   5.069446   2.989150
    13  H    6.216956   5.635561   5.931364   6.130156   4.165186
    14  H    5.156860   4.654674   4.762107   5.391239   3.343221
    15  C    4.991378   4.210598   4.740139   4.185385   2.990341
    16  O    4.685080   3.858941   4.441929   3.528041   3.006843
    17  N    6.180881   5.489112   6.063565   5.474367   4.177404
    18  H    6.532565   5.907811   6.446984   6.058611   4.475500
    19  C    7.023798   6.379879   7.059185   6.163440   5.208752
    20  H    6.900370   6.193485   6.851694   5.804711   5.219812
    21  H    8.056769   7.382497   8.003895   7.190768   6.168780
    22  H    7.009829   6.515128   7.318462   6.304850   5.355433
                    6          7          8          9         10
     6  O    0.000000
     7  N    2.286046   0.000000
     8  H    3.121172   1.012345   0.000000
     9  C    2.804001   1.461061   2.088525   0.000000
    10  H    3.853192   2.047887   2.236670   1.098277   0.000000
    11  C    3.006143   2.490022   3.340961   1.536387   2.141869
    12  H    2.451318   2.854153   3.830345   2.180647   3.059196
    13  H    3.995257   3.426904   4.163237   2.186536   2.430354
    14  H    3.389422   2.651728   3.433570   2.158536   2.508971
    15  C    3.094472   2.464071   2.877924   1.554339   2.124705
    16  O    3.293582   2.727575   2.841994   2.421363   2.892530
    17  N    3.995927   3.692059   4.178052   2.475402   2.865614
    18  H    4.167370   3.953368   4.575295   2.595093   2.973687
    19  C    4.934567   4.911963   5.303836   3.849917   4.206819
    20  H    5.121894   4.934353   5.143276   4.079790   4.362429
    21  H    5.909419   5.733485   6.097221   4.529271   4.701243
    22  H    4.854134   5.324435   5.832398   4.377185   4.937708
                   11         12         13         14         15
    11  C    0.000000
    12  H    1.090735   0.000000
    13  H    1.097073   1.791348   0.000000
    14  H    1.094076   1.771368   1.762295   0.000000
    15  C    2.620751   2.863281   2.950899   3.540313   0.000000
    16  O    3.698408   3.846620   4.152169   4.513834   1.224539
    17  N    2.942243   3.101887   2.801426   3.999016   1.364495
    18  H    2.509627   2.665391   2.087191   3.562167   2.045920
    19  C    4.355948   4.353179   4.163953   5.430428   2.461085
    20  H    4.910471   4.974214   4.863452   5.938877   2.560072
    21  H    4.899921   4.999746   4.473015   5.950633   3.296005
    22  H    4.690815   4.427020   4.577313   5.782244   3.022819
                   16         17         18         19         20
    16  O    0.000000
    17  N    2.276428   0.000000
    18  H    3.152052   1.009129   0.000000
    19  C    2.804978   1.454566   2.121285   0.000000
    20  H    2.421508   2.068977   2.968044   1.090473   0.000000
    21  H    3.747050   2.096577   2.445471   1.094379   1.784906
    22  H    3.295225   2.125479   2.581709   1.097781   1.775235
                   21         22
    21  H    0.000000
    22  H    1.784776   0.000000
 Stoichiometry    C6H12N2O2
 Framework group  C1[X(C6H12N2O2)]
 Deg. of freedom    60
 Full point group                 C1      NOp   1
 Largest Abelian subgroup         C1      NOp   1
 Largest concise Abelian subgroup C1      NOp   1
                         Standard orientation:                         
 ---------------------------------------------------------------------
 Center     Atomic      Atomic             Coordinates (Angstroms)
 Number     Number       Type             X           Y           Z
 ---------------------------------------------------------------------
      1          1           0       -3.742083   -1.080522    0.858606
      2          6           0       -3.096883   -1.032617   -0.020394
      3          1           0       -3.668586   -0.662222   -0.877794
      4          1           0       -2.749175   -2.047215   -0.249594
      5          6           0       -1.891490   -0.163408    0.297206
      6          8           0       -1.481891    0.004595    1.437006
      7          7           0       -1.303794    0.436496   -0.800794
      8          1           0       -1.521091   -0.008205   -1.683894
      9          6           0        0.066802    0.934007   -0.707794
     10          1           0        0.338300    1.234109   -1.728794
     11          6           0        0.176492    2.178108    0.187006
     12          1           0        0.035394    1.919507    1.237206
     13          1           0        1.143089    2.679115    0.051906
     14          1           0       -0.599513    2.894602   -0.098394
     15          6           0        1.024411   -0.240286   -0.361394
     16          8           0        0.702220   -1.399488   -0.589294
     17          7           0        2.270308    0.114524    0.067206
     18          1           0        2.412901    1.058425    0.394406
     19          6           0        3.265616   -0.883669    0.426006
     20          1           0        3.048823   -1.791370   -0.138094
     21          1           0        4.265513   -0.521661    0.167506
     22          1           0        3.238518   -1.125369    1.496506
 ---------------------------------------------------------------------
 Rotational constants (GHZ):      2.2216009      0.8537723      0.7441793
 Standard basis: Aug-CC-pVDZ (5D, 7F)
 There are   338 symmetry adapted basis functions of A   symmetry.
 Integral buffers will be    131072 words long.
 Raffenetti 1 integral format.
 Two-electron integral symmetry is turned on.
   338 basis functions,   562 primitive gaussians,   358 cartesian basis functions
    39 alpha electrons       39 beta electrons
       nuclear repulsion energy       564.5363931534 Hartrees.
 NAtoms=   22 NActive=   22 NUniq=   22 SFac= 7.50D-01 NAtFMM=   80 NAOKFM=F Big=F
 One-electron integrals computed using PRISM.
 NBasis=   338 RedAO= T  NBF=   338
 NBsUse=   338 1.00D-06 NBFU=   338
 Harris functional with IExCor=  205 diagonalized for initial guess.
 ExpMin= 2.97D-02 ExpMax= 1.17D+04 ExpMxC= 4.01D+02 IAcc=3 IRadAn=         0 AccDes= 0.00D+00
 HarFok:  IExCor=  205 AccDes= 0.00D+00 IRadAn=         0 IDoV= 1
 ScaDFX=  1.000000  1.000000  1.000000  1.000000
 FoFCou: FMM=F IPFlag=           0 FMFlag=      100000 FMFlg1=           0
         NFxFlg=           0 DoJE=T BraDBF=F KetDBF=T FulRan=T
         Omega=  0.000000  0.000000  1.000000  0.000000  0.000000 ICntrl=     500 IOpCl=  0
         NMat0=    1 NMatS0=    1 NMatT0=    0 NMatD0=    1 NMtDS0=    0 NMtDT0=    0
         I1Cent=           4 NGrid=           0.
 Petite list used in FoFCou.
 Initial guess orbital symmetries:
       Occupied  (A) (A) (A) (A) (A) (A) (A) (A) (A) (A) (A) (A)
                 (A) (A) (A) (A) (A) (A) (A) (A) (A) (A) (A) (A)
                 (A) (A) (A) (A) (A) (A) (A) (A) (A) (A) (A) (A)
                 (A) (A) (A)
       Virtual   (A) (A) (A) (A) (A) (A) (A) (A) (A) (A) (A) (A)
                 (A) (A) (A) (A) (A) (A) (A) (A) (A) (A) (A) (A)
                 (A) (A) (A) (A) (A) (A) (A) (A) (A) (A) (A) (A)
                 (A) (A) (A) (A) (A) (A) (A) (A) (A) (A) (A) (A)
                 (A) (A) (A) (A) (A) (A) (A) (A) (A) (A) (A) (A)
                 (A) (A) (A) (A) (A) (A) (A) (A) (A) (A) (A) (A)
                 (A) (A) (A) (A) (A) (A) (A) (A) (A) (A) (A) (A)
                 (A) (A) (A) (A) (A) (A) (A) (A) (A) (A) (A) (A)
                 (A) (A) (A) (A) (A) (A) (A) (A) (A) (A) (A) (A)
                 (A) (A) (A) (A) (A) (A) (A) (A) (A) (A) (A) (A)
                 (A) (A) (A) (A) (A) (A) (A) (A) (A) (A) (A) (A)
                 (A) (A) (A) (A) (A) (A) (A) (A) (A) (A) (A) (A)
                 (A) (A) (A) (A) (A) (A) (A) (A) (A) (A) (A) (A)
                 (A) (A) (A) (A) (A) (A) (A) (A) (A) (A) (A) (A)
                 (A) (A) (A) (A) (A) (A) (A) (A) (A) (A) (A) (A)
                 (A) (A) (A) (A) (A) (A) (A) (A) (A) (A) (A) (A)
                 (A) (A) (A) (A) (A) (A) (A) (A) (A) (A) (A) (A)
                 (A) (A) (A) (A) (A) (A) (A) (A) (A) (A) (A) (A)
                 (A) (A) (A) (A) (A) (A) (A) (A) (A) (A) (A) (A)
                 (A) (A) (A) (A) (A) (A) (A) (A) (A) (A) (A) (A)
                 (A) (A) (A) (A) (A) (A) (A) (A) (A) (A) (A) (A)
                 (A) (A) (A) (A) (A) (A) (A) (A) (A) (A) (A) (A)
                 (A) (A) (A) (A) (A) (A) (A) (A) (A) (A) (A) (A)
                 (A) (A) (A) (A) (A) (A) (A) (A) (A) (A) (A) (A)
                 (A) (A) (A) (A) (A) (A) (A) (A) (A) (A) (A)
 The electronic state of the initial guess is 1-A.
 Requested convergence on RMS density matrix=1.00D-08 within 128 cycles.
 Requested convergence on MAX density matrix=1.00D-06.
 Requested convergence on             energy=1.00D-06.
 No special actions if energy rises.
 Initial convergence to 1.0D-05 achieved.  Increase integral accuracy.
 SCF Done:  E(RHF) =  -492.921077279     A.U. after   15 cycles
             Convg  =    0.3257D-08             -V/T =  2.0017
 ExpMin= 2.97D-02 ExpMax= 1.17D+04 ExpMxC= 4.01D+02 IAcc=3 IRadAn=         5 AccDes= 0.00D+00
 HarFok:  IExCor=  205 AccDes= 0.00D+00 IRadAn=         5 IDoV=-2
 ScaDFX=  1.000000  1.000000  1.000000  1.000000
 Range of M.O.s used for correlation:    11   338
 NBasis=   338 NAE=    39 NBE=    39 NFC=    10 NFV=     0
 NROrb=    328 NOA=    29 NOB=    29 NVA=   299 NVB=   299

 **** Warning!!: The largest alpha MO coefficient is  0.10297040D+03

 Disk-based method using OVN memory for 29 occupieds at a time.
 Estimated scratch disk usage=  1390155466 words.
 Actual    scratch disk usage=  1377269480 words.
 JobTyp=1 Pass  1:  I=   1 to  29 NPSUse=  8 ParTrn=T ParDer=T DoDerP=F.
 Spin components of T(2) and E(2):
     alpha-alpha T2 =       0.6787390462D-01 E2=     -0.2057790471D+00
     alpha-beta  T2 =       0.3762152300D+00 E2=     -0.1190177588D+01
     beta-beta   T2 =       0.6787390462D-01 E2=     -0.2057790471D+00
 ANorm=    0.1229619063D+01
 E2 =    -0.1601735682D+01 EUMP2 =    -0.49452281296112D+03

 **********************************************************************

            Population analysis using the SCF density.

 **********************************************************************

 Orbital symmetries:
       Occupied  (A) (A) (A) (A) (A) (A) (A) (A) (A) (A) (A) (A)
                 (A) (A) (A) (A) (A) (A) (A) (A) (A) (A) (A) (A)
                 (A) (A) (A) (A) (A) (A) (A) (A) (A) (A) (A) (A)
                 (A) (A) (A)
       Virtual   (A) (A) (A) (A) (A) (A) (A) (A) (A) (A) (A) (A)
                 (A) (A) (A) (A) (A) (A) (A) (A) (A) (A) (A) (A)
                 (A) (A) (A) (A) (A) (A) (A) (A) (A) (A) (A) (A)
                 (A) (A) (A) (A) (A) (A) (A) (A) (A) (A) (A) (A)
                 (A) (A) (A) (A) (A) (A) (A) (A) (A) (A) (A) (A)
                 (A) (A) (A) (A) (A) (A) (A) (A) (A) (A) (A) (A)
                 (A) (A) (A) (A) (A) (A) (A) (A) (A) (A) (A) (A)
                 (A) (A) (A) (A) (A) (A) (A) (A) (A) (A) (A) (A)
                 (A) (A) (A) (A) (A) (A) (A) (A) (A) (A) (A) (A)
                 (A) (A) (A) (A) (A) (A) (A) (A) (A) (A) (A) (A)
                 (A) (A) (A) (A) (A) (A) (A) (A) (A) (A) (A) (A)
                 (A) (A) (A) (A) (A) (A) (A) (A) (A) (A) (A) (A)
                 (A) (A) (A) (A) (A) (A) (A) (A) (A) (A) (A) (A)
                 (A) (A) (A) (A) (A) (A) (A) (A) (A) (A) (A) (A)
                 (A) (A) (A) (A) (A) (A) (A) (A) (A) (A) (A) (A)
                 (A) (A) (A) (A) (A) (A) (A) (A) (A) (A) (A) (A)
                 (A) (A) (A) (A) (A) (A) (A) (A) (A) (A) (A) (A)
                 (A) (A) (A) (A) (A) (A) (A) (A) (A) (A) (A) (A)
                 (A) (A) (A) (A) (A) (A) (A) (A) (A) (A) (A) (A)
                 (A) (A) (A) (A) (A) (A) (A) (A) (A) (A) (A) (A)
                 (A) (A) (A) (A) (A) (A) (A) (A) (A) (A) (A) (A)
                 (A) (A) (A) (A) (A) (A) (A) (A) (A) (A) (A) (A)
                 (A) (A) (A) (A) (A) (A) (A) (A) (A) (A) (A) (A)
                 (A) (A) (A) (A) (A) (A) (A) (A) (A) (A) (A) (A)
                 (A) (A) (A) (A) (A) (A) (A) (A) (A) (A) (A)
 The electronic state is 1-A.
 Alpha  occ. eigenvalues --  -20.52984 -20.52954 -15.59521 -15.58916 -11.35894
 Alpha  occ. eigenvalues --  -11.35752 -11.29662 -11.26685 -11.23937 -11.23633
 Alpha  occ. eigenvalues --   -1.38971  -1.37733  -1.23385  -1.23116  -1.05217
 Alpha  occ. eigenvalues --   -0.98761  -0.95191  -0.88373  -0.79807  -0.76780
 Alpha  occ. eigenvalues --   -0.71395  -0.69819  -0.65177  -0.63569  -0.61600
 Alpha  occ. eigenvalues --   -0.61424  -0.59619  -0.58332  -0.56151  -0.55881
 Alpha  occ. eigenvalues --   -0.54845  -0.54092  -0.52915  -0.50778  -0.49797
 Alpha  occ. eigenvalues --   -0.42941  -0.41995  -0.39754  -0.39357
 Alpha virt. eigenvalues --    0.02864   0.03750   0.04444   0.04666   0.05878
 Alpha virt. eigenvalues --    0.06068   0.06202   0.06737   0.07603   0.08034
 Alpha virt. eigenvalues --    0.09070   0.09336   0.11270   0.11662   0.12957
 Alpha virt. eigenvalues --    0.13390   0.14292   0.14587   0.14961   0.15307
 Alpha virt. eigenvalues --    0.16012   0.16324   0.16502   0.17285   0.17635
 Alpha virt. eigenvalues --    0.17958   0.18116   0.18196   0.18803   0.18853
 Alpha virt. eigenvalues --    0.19534   0.20656   0.21299   0.21614   0.22459
 Alpha virt. eigenvalues --    0.23315   0.24580   0.24972   0.25851   0.26567
 Alpha virt. eigenvalues --    0.26875   0.27976   0.28975   0.29526   0.30961
 Alpha virt. eigenvalues --    0.31531   0.32314   0.32828   0.33312   0.33841
 Alpha virt. eigenvalues --    0.34811   0.35683   0.36325   0.36508   0.36899
 Alpha virt. eigenvalues --    0.37557   0.38484   0.39061   0.39688   0.40793
 Alpha virt. eigenvalues --    0.41588   0.42048   0.42820   0.43084   0.43516
 Alpha virt. eigenvalues --    0.43860   0.44611   0.44951   0.46036   0.46112
 Alpha virt. eigenvalues --    0.46776   0.47390   0.48078   0.48807   0.49100
 Alpha virt. eigenvalues --    0.49947   0.50367   0.51027   0.52644   0.52906
 Alpha virt. eigenvalues --    0.53523   0.54576   0.54931   0.55768   0.56544
 Alpha virt. eigenvalues --    0.56632   0.57320   0.58337   0.58591   0.59553
 Alpha virt. eigenvalues --    0.60400   0.60654   0.61419   0.61951   0.62909
 Alpha virt. eigenvalues --    0.63350   0.63942   0.64142   0.64867   0.65274
 Alpha virt. eigenvalues --    0.66515   0.66620   0.67174   0.67255   0.67532
 Alpha virt. eigenvalues --    0.68077   0.69641   0.70110   0.70794   0.72126
 Alpha virt. eigenvalues --    0.72471   0.73183   0.73500   0.74569   0.75804
 Alpha virt. eigenvalues --    0.76093   0.76527   0.77495   0.78375   0.78903
 Alpha virt. eigenvalues --    0.80562   0.81756   0.82349   0.82857   0.84354
 Alpha virt. eigenvalues --    0.84965   0.85583   0.86530   0.87516   0.88654
 Alpha virt. eigenvalues --    0.89272   0.90643   0.91987   0.92496   0.93692
 Alpha virt. eigenvalues --    0.94447   0.95746   0.97707   0.98910   0.99733
 Alpha virt. eigenvalues --    1.00111   1.01662   1.02886   1.05163   1.06763
 Alpha virt. eigenvalues --    1.07088   1.07848   1.08208   1.10530   1.11850
 Alpha virt. eigenvalues --    1.13691   1.14626   1.15304   1.15780   1.16742
 Alpha virt. eigenvalues --    1.18169   1.18813   1.19790   1.20897   1.22991
 Alpha virt. eigenvalues --    1.24437   1.25863   1.26130   1.29120   1.31557
 Alpha virt. eigenvalues --    1.32200   1.33834   1.36596   1.38124   1.39284
 Alpha virt. eigenvalues --    1.39649   1.40469   1.45462   1.46744   1.48055
 Alpha virt. eigenvalues --    1.49866   1.50989   1.52445   1.53856   1.56265
 Alpha virt. eigenvalues --    1.58547   1.59353   1.60136   1.61694   1.62670
 Alpha virt. eigenvalues --    1.64303   1.67074   1.69712   1.72065   1.73330
 Alpha virt. eigenvalues --    1.75488   1.77092   1.78523   1.79819   1.81030
 Alpha virt. eigenvalues --    1.82133   1.84303   1.86492   1.88078   1.88994
 Alpha virt. eigenvalues --    1.89505   1.90549   1.92451   1.92778   1.95623
 Alpha virt. eigenvalues --    1.96227   1.97253   1.98183   2.00504   2.01521
 Alpha virt. eigenvalues --    2.02856   2.03812   2.05566   2.07372   2.09092
 Alpha virt. eigenvalues --    2.10014   2.11450   2.13769   2.16587   2.17085
 Alpha virt. eigenvalues --    2.18806   2.20265   2.21589   2.23269   2.24463
 Alpha virt. eigenvalues --    2.25898   2.27882   2.29130   2.30525   2.30718
 Alpha virt. eigenvalues --    2.31858   2.33660   2.34944   2.35806   2.37605
 Alpha virt. eigenvalues --    2.39947   2.41414   2.42788   2.43731   2.45781
 Alpha virt. eigenvalues --    2.47762   2.49136   2.50210   2.51092   2.53143
 Alpha virt. eigenvalues --    2.54519   2.56841   2.57789   2.58826   2.60982
 Alpha virt. eigenvalues --    2.62437   2.64181   2.66085   2.67599   2.70715
 Alpha virt. eigenvalues --    2.72193   2.75008   2.76214   2.77511   2.79603
 Alpha virt. eigenvalues --    2.83491   2.84492   2.86473   2.88985   2.89135
 Alpha virt. eigenvalues --    2.91511   2.93124   2.94501   2.96062   2.96978
 Alpha virt. eigenvalues --    3.00152   3.01144   3.05005   3.06835   3.09523
 Alpha virt. eigenvalues --    3.11248   3.14656   3.17842   3.21383   3.24183
 Alpha virt. eigenvalues --    3.27974   3.31866   3.45800   3.50606   3.56365
 Alpha virt. eigenvalues --    3.62497   3.63120   3.77668   3.83536   3.85395
 Alpha virt. eigenvalues --    3.86664   3.88321   3.95680   4.02529   4.04840
 Alpha virt. eigenvalues --    4.06746   4.07908   4.23601   4.24847
          Condensed to atoms (all electrons):
              1          2          3          4          5          6
     1  H    0.811218   0.366276  -0.098046  -0.049972  -0.054248   0.025056
     2  C    0.366276   4.535940   0.358836   0.319371   0.221211  -0.068097
     3  H   -0.098046   0.358836   0.936162  -0.074116   0.022606  -0.006006
     4  H   -0.049972   0.319371  -0.074116   0.697686  -0.008431   0.011328
     5  C   -0.054248   0.221211   0.022606  -0.008431   5.002178   0.233982
     6  O    0.025056  -0.068097  -0.006006   0.011328   0.233982   8.738915
     7  N    0.029194  -0.055732  -0.120698   0.011988   0.167639  -0.092311
     8  H   -0.004995  -0.041554   0.012347   0.001439  -0.085813   0.006565
     9  C    0.006233   0.047244   0.005673   0.022959  -0.124563  -0.093513
    10  H   -0.000753   0.006349   0.003608   0.000745  -0.008335   0.007330
    11  C    0.002279  -0.020798  -0.010887  -0.000383   0.001693   0.007997
    12  H    0.000609  -0.001839   0.000222   0.000038  -0.000518  -0.022147
    13  H    0.000121  -0.004419  -0.000984  -0.000001  -0.032372   0.002732
    14  H   -0.000452   0.008836   0.000572   0.000288   0.038816   0.005489
    15  C   -0.007243  -0.023165   0.000872  -0.013167  -0.102581   0.070713
    16  O    0.000444   0.004144  -0.001831   0.006321   0.021123   0.005414
    17  N    0.000249   0.001263  -0.000187  -0.000819   0.015533   0.007109
    18  H   -0.000211   0.000853   0.000013   0.000381  -0.002805   0.000723
    19  C   -0.000054  -0.000605   0.000104  -0.001010   0.003146   0.009317
    20  H    0.000001  -0.000226   0.000042  -0.000245  -0.004056   0.000421
    21  H    0.000005  -0.000090   0.000002   0.000007   0.002847   0.000318
    22  H   -0.000057   0.000008   0.000030  -0.000208  -0.002151   0.001318
              7          8          9         10         11         12
     1  H    0.029194  -0.004995   0.006233  -0.000753   0.002279   0.000609
     2  C   -0.055732  -0.041554   0.047244   0.006349  -0.020798  -0.001839
     3  H   -0.120698   0.012347   0.005673   0.003608  -0.010887   0.000222
     4  H    0.011988   0.001439   0.022959   0.000745  -0.000383   0.000038
     5  C    0.167639  -0.085813  -0.124563  -0.008335   0.001693  -0.000518
     6  O   -0.092311   0.006565  -0.093513   0.007330   0.007997  -0.022147
     7  N    7.512571   0.309007  -0.544983  -0.098969   0.024528  -0.021195
     8  H    0.309007   0.871736   0.016257  -0.012295  -0.017682  -0.004995
     9  C   -0.544983   0.016257   7.990591  -0.001430   0.119124  -0.012480
    10  H   -0.098969  -0.012295  -0.001430   1.278309  -0.035147   0.063556
    11  C    0.024528  -0.017682   0.119124  -0.035147   4.370908   0.358320
    12  H   -0.021195  -0.004995  -0.012480   0.063556   0.358320   1.025139
    13  H    0.089312   0.000000  -0.071107  -0.078697   0.293167  -0.175599
    14  H   -0.051937   0.002437  -0.044003  -0.034625   0.268740  -0.181593
    15  C    0.301768  -0.011464  -0.957213  -0.007552  -0.165963  -0.029605
    16  O   -0.043091   0.002125  -0.029045  -0.003451   0.034172  -0.003869
    17  N    0.029183   0.003583  -0.274533   0.039981   0.121498   0.012327
    18  H   -0.005911  -0.000145   0.034534  -0.005166  -0.046139  -0.008126
    19  C    0.005837   0.001792  -0.145013   0.000180   0.012342   0.000988
    20  H   -0.000333  -0.000054  -0.006603   0.001778  -0.005518  -0.000244
    21  H    0.002921   0.000347  -0.023914  -0.004033  -0.000419  -0.000424
    22  H    0.000097  -0.000369   0.013587   0.000909   0.007085   0.000183
             13         14         15         16         17         18
     1  H    0.000121  -0.000452  -0.007243   0.000444   0.000249  -0.000211
     2  C   -0.004419   0.008836  -0.023165   0.004144   0.001263   0.000853
     3  H   -0.000984   0.000572   0.000872  -0.001831  -0.000187   0.000013
     4  H   -0.000001   0.000288  -0.013167   0.006321  -0.000819   0.000381
     5  C   -0.032372   0.038816  -0.102581   0.021123   0.015533  -0.002805
     6  O    0.002732   0.005489   0.070713   0.005414   0.007109   0.000723
     7  N    0.089312  -0.051937   0.301768  -0.043091   0.029183  -0.005911
     8  H    0.000000   0.002437  -0.011464   0.002125   0.003583  -0.000145
     9  C   -0.071107  -0.044003  -0.957213  -0.029045  -0.274533   0.034534
    10  H   -0.078697  -0.034625  -0.007552  -0.003451   0.039981  -0.005166
    11  C    0.293167   0.268740  -0.165963   0.034172   0.121498  -0.046139
    12  H   -0.175599  -0.181593  -0.029605  -0.003869   0.012327  -0.008126
    13  H    1.215440  -0.230124   0.068943  -0.002387  -0.042321   0.024925
    14  H   -0.230124   1.252498   0.035285   0.002587   0.012388   0.001416
    15  C    0.068943   0.035285   5.869569   0.154969   0.026997  -0.004463
    16  O   -0.002387   0.002587   0.154969   8.821965  -0.141596   0.004916
    17  N   -0.042321   0.012388   0.026997  -0.141596   7.283962   0.216705
    18  H    0.024925   0.001416  -0.004463   0.004916   0.216705   1.039161
    19  C   -0.012074   0.007644  -0.094239   0.013847   0.275065  -0.145479
    20  H    0.001979  -0.000170   0.041538  -0.010209  -0.062925   0.005900
    21  H   -0.000166   0.000687   0.003501   0.015785  -0.138840   0.006750
    22  H   -0.002693   0.000978  -0.030974   0.003019   0.091935  -0.009936
             19         20         21         22
     1  H   -0.000054   0.000001   0.000005  -0.000057
     2  C   -0.000605  -0.000226  -0.000090   0.000008
     3  H    0.000104   0.000042   0.000002   0.000030
     4  H   -0.001010  -0.000245   0.000007  -0.000208
     5  C    0.003146  -0.004056   0.002847  -0.002151
     6  O    0.009317   0.000421   0.000318   0.001318
     7  N    0.005837  -0.000333   0.002921   0.000097
     8  H    0.001792  -0.000054   0.000347  -0.000369
     9  C   -0.145013  -0.006603  -0.023914   0.013587
    10  H    0.000180   0.001778  -0.004033   0.000909
    11  C    0.012342  -0.005518  -0.000419   0.007085
    12  H    0.000988  -0.000244  -0.000424   0.000183
    13  H   -0.012074   0.001979  -0.000166  -0.002693
    14  H    0.007644  -0.000170   0.000687   0.000978
    15  C   -0.094239   0.041538   0.003501  -0.030974
    16  O    0.013847  -0.010209   0.015785   0.003019
    17  N    0.275065  -0.062925  -0.138840   0.091935
    18  H   -0.145479   0.005900   0.006750  -0.009936
    19  C    4.195371   0.463780   0.402635   0.277043
    20  H    0.463780   0.974307  -0.174295  -0.089514
    21  H    0.402635  -0.174295   1.243093  -0.164862
    22  H    0.277043  -0.089514  -0.164862   0.976518
 Mulliken atomic charges:
              1
     1  H   -0.025655
     2  C    0.346194
     3  H   -0.028335
     4  H    0.075799
     5  C    0.695099
     6  O   -0.852653
     7  N   -0.448883
     8  H   -0.048270
     9  C    0.072195
    10  H   -0.112291
    11  C    0.681084
    12  H    0.001251
    13  H   -0.043676
    14  H   -0.095758
    15  C    0.873475
    16  O   -0.855351
    17  N   -0.476557
    18  H   -0.107897
    19  C    0.729383
    20  H   -0.135355
    21  H   -0.171853
    22  H   -0.071945
 Sum of Mulliken atomic charges =   0.00000
 Mulliken charges with hydrogens summed into heavy atoms:
              1
     2  C    0.368003
     5  C    0.695099
     6  O   -0.852653
     7  N   -0.497153
     9  C   -0.040096
    11  C    0.542900
    15  C    0.873475
    16  O   -0.855351
    17  N   -0.584454
    19  C    0.350230
 Sum of Mulliken charges with hydrogens summed into heavy atoms =   0.00000
 Electronic spatial extent (au):  <R**2>=           1692.8015
 Charge=              0.0000 electrons
 Dipole moment (field-independent basis, Debye):
    X=              1.2148    Y=              2.3697    Z=             -2.3377  Tot=              3.5434
 Quadrupole moment (field-independent basis, Debye-Ang):
   XX=            -49.2372   YY=            -62.2670   ZZ=            -63.7574
   XY=              5.0880   XZ=              7.2862   YZ=             -1.3930
 Traceless Quadrupole moment (field-independent basis, Debye-Ang):
   XX=              9.1834   YY=             -3.8465   ZZ=             -5.3369
   XY=              5.0880   XZ=              7.2862   YZ=             -1.3930
 Octapole moment (field-independent basis, Debye-Ang**2):
  XXX=              7.6010  YYY=              3.9521  ZZZ=            -13.1830  XYY=              0.7415
  XXY=            -10.5145  XXZ=              0.7049  XZZ=              3.7328  YZZ=              0.4845
  YYZ=              4.2044  XYZ=             -1.7268
 Hexadecapole moment (field-independent basis, Debye-Ang**3):
 XXXX=          -1354.7199 YYYY=           -511.7351 ZZZZ=           -236.5337 XXXY=             13.7556
 XXXZ=             15.8491 YYYX=              7.4297 YYYZ=             -1.4888 ZZZX=             20.2345
 ZZZY=             -0.6214 XXYY=           -317.4551 XXZZ=           -293.3307 YYZZ=           -128.3748
 XXYZ=              2.0495 YYXZ=              0.3892 ZZXY=              1.7569
 N-N= 5.645363931534D+02 E-N=-2.284648579943D+03  KE= 4.920678623955D+02
 1\1\GINC-NODE012\SP\RMP2-FC\Aug-CC-pVDZ\C6H12N2O2\MANAGER\14-Feb-2017\
 0\\#SP MP2/aug-cc-pVDZ\\Single Point calculation at MP2\\0,1\H,0,-3.74
 21,-1.0805,0.8586\C,0,-3.0969,-1.0326,-0.0204\H,0,-3.6686,-0.6622,-0.8
 778\H,0,-2.7492,-2.0472,-0.2496\C,0,-1.8915,-0.1634,0.2972\O,0,-1.4819
 ,0.0046,1.437\N,0,-1.3038,0.4365,-0.8008\H,0,-1.5211,-0.0082,-1.6839\C
 ,0,0.0668,0.934,-0.7078\H,0,0.3383,1.2341,-1.7288\C,0,0.1765,2.1781,0.
 187\H,0,0.0354,1.9195,1.2372\H,0,1.1431,2.6791,0.0519\H,0,-0.5995,2.89
 46,-0.0984\C,0,1.0244,-0.2403,-0.3614\O,0,0.7022,-1.3995,-0.5893\N,0,2
 .2703,0.1145,0.0672\H,0,2.4129,1.0584,0.3944\C,0,3.2656,-0.8837,0.426\
 H,0,3.0488,-1.7914,-0.1381\H,0,4.2655,-0.5217,0.1675\H,0,3.2385,-1.125
 4,1.4965\\Version=EM64L-G09RevA.02\State=1-A\HF=-492.9210773\MP2=-494.
 522813\RMSD=3.257e-09\PG=C01 [X(C6H12N2O2)]\\@


 THERE IS NO SCIENCE WITHOUT FANCY, NOR ART WITHOUT FACTS.
     -- VLADIMIR NABAKOV
 Job cpu time:  0 days 11 hours 22 minutes 29.9 seconds.
 File lengths (MBytes):  RWF=  10624 Int=      0 D2E=      0 Chk=      7 Scr=      2
 Normal termination of Gaussian 09 at Tue Feb 14 01:53:07 2017.
