 Entering Gaussian System, Link 0=g09
 Initial command:
 /home/steboss/Software/g09/l1.exe /tmp/Gau-7532.inp -scrdir=/tmp/
 Entering Link 1 = /home/steboss/Software/g09/l1.exe PID=      7534.
  
 Copyright (c) 1988,1990,1992,1993,1995,1998,2003,2009, Gaussian, Inc.
                  All Rights Reserved.
  
 This is part of the Gaussian(R) 09 program.  It is based on
 the Gaussian(R) 03 system (copyright 2003, Gaussian, Inc.),
 the Gaussian(R) 98 system (copyright 1998, Gaussian, Inc.),
 the Gaussian(R) 94 system (copyright 1995, Gaussian, Inc.),
 the Gaussian 92(TM) system (copyright 1992, Gaussian, Inc.),
 the Gaussian 90(TM) system (copyright 1990, Gaussian, Inc.),
 the Gaussian 88(TM) system (copyright 1988, Gaussian, Inc.),
 the Gaussian 86(TM) system (copyright 1986, Carnegie Mellon
 University), and the Gaussian 82(TM) system (copyright 1983,
 Carnegie Mellon University). Gaussian is a federally registered
 trademark of Gaussian, Inc.
  
 This software contains proprietary and confidential information,
 including trade secrets, belonging to Gaussian, Inc.
  
 This software is provided under written license and may be
 used, copied, transmitted, or stored only in accord with that
 written license.
  
 The following legend is applicable only to US Government
 contracts under FAR:
  
                    RESTRICTED RIGHTS LEGEND
  
 Use, reproduction and disclosure by the US Government is
 subject to restrictions as set forth in subparagraphs (a)
 and (c) of the Commercial Computer Software - Restricted
 Rights clause in FAR 52.227-19.
  
 Gaussian, Inc.
 340 Quinnipiac St., Bldg. 40, Wallingford CT 06492
  
  
 ---------------------------------------------------------------
 Warning -- This program may not be used in any manner that
 competes with the business of Gaussian, Inc. or will provide
 assistance to any competitor of Gaussian, Inc.  The licensee
 of this program is prohibited from giving any competitor of
 Gaussian, Inc. access to this program.  By using this program,
 the user acknowledges that Gaussian, Inc. is engaged in the
 business of creating and licensing software in the field of
 computational chemistry and represents and warrants to the
 licensee that it is not a competitor of Gaussian, Inc. and that
 it will not use this program in any manner prohibited above.
 ---------------------------------------------------------------
  

 Cite this work as:
 Gaussian 09, Revision A.02,
 M. J. Frisch, G. W. Trucks, H. B. Schlegel, G. E. Scuseria, 
 M. A. Robb, J. R. Cheeseman, G. Scalmani, V. Barone, B. Mennucci, 
 G. A. Petersson, H. Nakatsuji, M. Caricato, X. Li, H. P. Hratchian, 
 A. F. Izmaylov, J. Bloino, G. Zheng, J. L. Sonnenberg, M. Hada, 
 M. Ehara, K. Toyota, R. Fukuda, J. Hasegawa, M. Ishida, T. Nakajima, 
 Y. Honda, O. Kitao, H. Nakai, T. Vreven, J. A. Montgomery, Jr., 
 J. E. Peralta, F. Ogliaro, M. Bearpark, J. J. Heyd, E. Brothers, 
 K. N. Kudin, V. N. Staroverov, R. Kobayashi, J. Normand, 
 K. Raghavachari, A. Rendell, J. C. Burant, S. S. Iyengar, J. Tomasi, 
 M. Cossi, N. Rega, J. M. Millam, M. Klene, J. E. Knox, J. B. Cross, 
 V. Bakken, C. Adamo, J. Jaramillo, R. Gomperts, R. E. Stratmann, 
 O. Yazyev, A. J. Austin, R. Cammi, C. Pomelli, J. W. Ochterski, 
 R. L. Martin, K. Morokuma, V. G. Zakrzewski, G. A. Voth, 
 P. Salvador, J. J. Dannenberg, S. Dapprich, A. D. Daniels, 
 O. Farkas, J. B. Foresman, J. V. Ortiz, J. Cioslowski, 
 and D. J. Fox, Gaussian, Inc., Wallingford CT, 2009.
 
 ******************************************
 Gaussian 09:  EM64L-G09RevA.02 11-Jun-2009
                27-Dec-2016 
 ******************************************
 %chk=structure_330.chk
 -------------------------------------------------------------------
 # HF/6-31G* Opt=(ModRedundant, maxcycles=1000, calcfc) geom=nocrowd
 -------------------------------------------------------------------
 1/6=1000,10=4,18=120,19=15,38=1/1,3;
 2/9=110,12=1,17=6,18=5,40=1/2;
 3/5=1,6=6,7=1,11=9,16=1,25=1,30=1,71=2/1,2,3;
 4//1;
 5/5=2,38=5/2;
 8/6=4,10=90,11=11/1;
 11/6=1,8=1,9=11,15=111,16=1/1,2,10;
 10/6=1,7=6,13=1/2;
 6/7=2,8=2,9=2,10=2,28=1/1;
 7/10=1,18=20,25=1/1,2,3,16;
 1/6=1000,10=4,18=20,19=15/3(2);
 2/9=110,12=1/2;
 99//99;
 2/9=110,12=1/2;
 3/5=1,6=6,7=1,11=9,16=1,25=1,30=1,71=1/1,2,3;
 4/5=5,16=3/1;
 5/5=2,38=5/2;
 7//1,2,3,16;
 1/6=1000,18=20,19=15/3(-5);
 2/9=110,12=1/2;
 6/7=2,8=2,9=2,10=2,19=2,28=1/1;
 99/9=1/99;
 ------------------
 Phi Psi fixed scan
 ------------------
 Symbolic Z-matrix:
 Charge =  0 Multiplicity = 1
 H                     7.7691    1.       -3.3308 
 C                     7.7691    2.09     -3.3308 
 H                     7.2553    2.4539   -4.2206 
 H                     8.7965    2.4539   -3.3308 
 C                     7.0554    2.6408   -2.0946 
 O                     6.5738    1.8774   -1.2605 
 N                     6.9914    3.9697   -1.9838 
 H                     7.4025    4.5562   -2.6959 
 C                     6.3425    4.6139   -0.8598 
 H                     5.2947    4.3155   -0.8246 
 C                     7.0055    4.2208    0.4561 
 H                     8.0531    4.5213    0.4396 
 H                     6.4981    4.7189    1.2822 
 H                     6.9399    3.1409    0.5882 
 C                     6.4127    6.1294   -0.9815 
 O                     6.9688    6.6527   -1.9446 
 N                     5.846     6.8349    0. 
 H                     5.4006    6.3592    0.7716 
 C                     5.8461    8.2839    0. 
 H                     5.3323    8.6477   -0.8898 
 C                     5.1347    8.8329    1.2322 
 H                     5.6431    8.4846    2.1312 
 H                     5.1499    9.9224    1.2058 
 H                     4.1019    8.4846    1.2414 
 C                     7.266     8.8318    0. 
 O                     7.5178    9.9119   -0.5295 
 N                     8.1959    8.0825    0.5968 
 H                     7.94      7.2011    1.0184 
 C                     9.5837    8.4938    0.6638 
 H                     9.9771    8.6124   -0.3458 
 C                     9.7281    9.8203    1.402 
 H                     9.3467    9.7149    2.4177 
 H                     10.7799   10.1045   1.4371 
 H                     9.1613    10.591    0.8797 
 C                     10.4269   7.4597    1.396 
 O                     9.9117    6.4361    1.8403 
 N                     11.7283   7.7297    1.5211 
 H                     12.1056   8.585     1.1388 
 C                     12.6364   6.8252    2.197 
 H                     12.0854   5.9542    2.5517 
 H                     13.4141   6.505     1.5036 
 H                     13.0938   7.3352    3.0448 
 
 The following ModRedundant input section has been read:
 D   15   17   19   25 F                                                       
 D   17   19   25   27 F                                                       

 GradGradGradGradGradGradGradGradGradGradGradGradGradGradGradGradGradGrad
 Berny optimization.
 Initialization pass.
                           ----------------------------
                           !    Initial Parameters    !
                           ! (Angstroms and Degrees)  !
 --------------------------                            --------------------------
 ! Name  Definition              Value          Derivative Info.                !
 --------------------------------------------------------------------------------
 ! R1    R(1,2)                  1.09           calculate D2E/DX2 analytically  !
 ! R2    R(2,3)                  1.09           calculate D2E/DX2 analytically  !
 ! R3    R(2,4)                  1.0899         calculate D2E/DX2 analytically  !
 ! R4    R(2,5)                  1.53           calculate D2E/DX2 analytically  !
 ! R5    R(5,6)                  1.229          calculate D2E/DX2 analytically  !
 ! R6    R(5,7)                  1.335          calculate D2E/DX2 analytically  !
 ! R7    R(7,8)                  1.01           calculate D2E/DX2 analytically  !
 ! R8    R(7,9)                  1.4489         calculate D2E/DX2 analytically  !
 ! R9    R(9,10)                 1.09           calculate D2E/DX2 analytically  !
 ! R10   R(9,11)                 1.525          calculate D2E/DX2 analytically  !
 ! R11   R(9,15)                 1.522          calculate D2E/DX2 analytically  !
 ! R12   R(11,12)                1.09           calculate D2E/DX2 analytically  !
 ! R13   R(11,13)                1.09           calculate D2E/DX2 analytically  !
 ! R14   R(11,14)                1.0899         calculate D2E/DX2 analytically  !
 ! R15   R(15,16)                1.2291         calculate D2E/DX2 analytically  !
 ! R16   R(15,17)                1.335          calculate D2E/DX2 analytically  !
 ! R17   R(17,18)                1.01           calculate D2E/DX2 analytically  !
 ! R18   R(17,19)                1.449          calculate D2E/DX2 analytically  !
 ! R19   R(19,20)                1.09           calculate D2E/DX2 analytically  !
 ! R20   R(19,21)                1.5251         calculate D2E/DX2 analytically  !
 ! R21   R(19,25)                1.5219         calculate D2E/DX2 analytically  !
 ! R22   R(21,22)                1.0899         calculate D2E/DX2 analytically  !
 ! R23   R(21,23)                1.0899         calculate D2E/DX2 analytically  !
 ! R24   R(21,24)                1.09           calculate D2E/DX2 analytically  !
 ! R25   R(25,26)                1.229          calculate D2E/DX2 analytically  !
 ! R26   R(25,27)                1.335          calculate D2E/DX2 analytically  !
 ! R27   R(27,28)                1.01           calculate D2E/DX2 analytically  !
 ! R28   R(27,29)                1.449          calculate D2E/DX2 analytically  !
 ! R29   R(29,30)                1.09           calculate D2E/DX2 analytically  !
 ! R30   R(29,31)                1.5249         calculate D2E/DX2 analytically  !
 ! R31   R(29,35)                1.522          calculate D2E/DX2 analytically  !
 ! R32   R(31,32)                1.0901         calculate D2E/DX2 analytically  !
 ! R33   R(31,33)                1.0901         calculate D2E/DX2 analytically  !
 ! R34   R(31,34)                1.09           calculate D2E/DX2 analytically  !
 ! R35   R(35,36)                1.2291         calculate D2E/DX2 analytically  !
 ! R36   R(35,37)                1.335          calculate D2E/DX2 analytically  !
 ! R37   R(37,38)                1.01           calculate D2E/DX2 analytically  !
 ! R38   R(37,39)                1.449          calculate D2E/DX2 analytically  !
 ! R39   R(39,40)                1.09           calculate D2E/DX2 analytically  !
 ! R40   R(39,41)                1.09           calculate D2E/DX2 analytically  !
 ! R41   R(39,42)                1.09           calculate D2E/DX2 analytically  !
 ! A1    A(1,2,3)              109.5023         calculate D2E/DX2 analytically  !
 ! A2    A(1,2,4)              109.5039         calculate D2E/DX2 analytically  !
 ! A3    A(1,2,5)              111.1            calculate D2E/DX2 analytically  !
 ! A4    A(3,2,4)              109.4422         calculate D2E/DX2 analytically  !
 ! A5    A(3,2,5)              108.6323         calculate D2E/DX2 analytically  !
 ! A6    A(4,2,5)              108.6332         calculate D2E/DX2 analytically  !
 ! A7    A(2,5,6)              120.4994         calculate D2E/DX2 analytically  !
 ! A8    A(2,5,7)              116.5999         calculate D2E/DX2 analytically  !
 ! A9    A(6,5,7)              122.9007         calculate D2E/DX2 analytically  !
 ! A10   A(5,7,8)              120.0            calculate D2E/DX2 analytically  !
 ! A11   A(5,7,9)              121.8976         calculate D2E/DX2 analytically  !
 ! A12   A(8,7,9)              118.1024         calculate D2E/DX2 analytically  !
 ! A13   A(7,9,10)             109.5016         calculate D2E/DX2 analytically  !
 ! A14   A(7,9,11)             111.1039         calculate D2E/DX2 analytically  !
 ! A15   A(7,9,15)             111.1012         calculate D2E/DX2 analytically  !
 ! A16   A(10,9,11)            108.6312         calculate D2E/DX2 analytically  !
 ! A17   A(10,9,15)            108.6329         calculate D2E/DX2 analytically  !
 ! A18   A(11,9,15)            107.7949         calculate D2E/DX2 analytically  !
 ! A19   A(9,11,12)            109.4947         calculate D2E/DX2 analytically  !
 ! A20   A(9,11,13)            109.5            calculate D2E/DX2 analytically  !
 ! A21   A(9,11,14)            109.5002         calculate D2E/DX2 analytically  !
 ! A22   A(12,11,13)           109.4455         calculate D2E/DX2 analytically  !
 ! A23   A(12,11,14)           109.4414         calculate D2E/DX2 analytically  !
 ! A24   A(13,11,14)           109.4454         calculate D2E/DX2 analytically  !
 ! A25   A(9,15,16)            120.4955         calculate D2E/DX2 analytically  !
 ! A26   A(9,15,17)            116.6053         calculate D2E/DX2 analytically  !
 ! A27   A(16,15,17)           122.8992         calculate D2E/DX2 analytically  !
 ! A28   A(15,17,18)           119.9987         calculate D2E/DX2 analytically  !
 ! A29   A(15,17,19)           121.8998         calculate D2E/DX2 analytically  !
 ! A30   A(18,17,19)           118.1015         calculate D2E/DX2 analytically  !
 ! A31   A(17,19,20)           109.4954         calculate D2E/DX2 analytically  !
 ! A32   A(17,19,21)           111.0974         calculate D2E/DX2 analytically  !
 ! A33   A(17,19,25)           111.1042         calculate D2E/DX2 analytically  !
 ! A34   A(20,19,21)           108.6349         calculate D2E/DX2 analytically  !
 ! A35   A(20,19,25)           108.6399         calculate D2E/DX2 analytically  !
 ! A36   A(21,19,25)           107.7944         calculate D2E/DX2 analytically  !
 ! A37   A(19,21,22)           109.4996         calculate D2E/DX2 analytically  !
 ! A38   A(19,21,23)           109.4977         calculate D2E/DX2 analytically  !
 ! A39   A(19,21,24)           109.4988         calculate D2E/DX2 analytically  !
 ! A40   A(22,21,23)           109.4452         calculate D2E/DX2 analytically  !
 ! A41   A(22,21,24)           109.4447         calculate D2E/DX2 analytically  !
 ! A42   A(23,21,24)           109.4412         calculate D2E/DX2 analytically  !
 ! A43   A(19,25,26)           120.5            calculate D2E/DX2 analytically  !
 ! A44   A(19,25,27)           116.6013         calculate D2E/DX2 analytically  !
 ! A45   A(26,25,27)           122.8987         calculate D2E/DX2 analytically  !
 ! A46   A(25,27,28)           119.9945         calculate D2E/DX2 analytically  !
 ! A47   A(25,27,29)           121.9018         calculate D2E/DX2 analytically  !
 ! A48   A(28,27,29)           118.1037         calculate D2E/DX2 analytically  !
 ! A49   A(27,29,30)           109.495          calculate D2E/DX2 analytically  !
 ! A50   A(27,29,31)           111.0996         calculate D2E/DX2 analytically  !
 ! A51   A(27,29,35)           111.0997         calculate D2E/DX2 analytically  !
 ! A52   A(30,29,31)           108.636          calculate D2E/DX2 analytically  !
 ! A53   A(30,29,35)           108.6368         calculate D2E/DX2 analytically  !
 ! A54   A(31,29,35)           107.7992         calculate D2E/DX2 analytically  !
 ! A55   A(29,31,32)           109.5011         calculate D2E/DX2 analytically  !
 ! A56   A(29,31,33)           109.4962         calculate D2E/DX2 analytically  !
 ! A57   A(29,31,34)           109.5036         calculate D2E/DX2 analytically  !
 ! A58   A(32,31,33)           109.4393         calculate D2E/DX2 analytically  !
 ! A59   A(32,31,34)           109.4462         calculate D2E/DX2 analytically  !
 ! A60   A(33,31,34)           109.4409         calculate D2E/DX2 analytically  !
 ! A61   A(29,35,36)           120.4997         calculate D2E/DX2 analytically  !
 ! A62   A(29,35,37)           116.5986         calculate D2E/DX2 analytically  !
 ! A63   A(36,35,37)           122.9017         calculate D2E/DX2 analytically  !
 ! A64   A(35,37,38)           119.9986         calculate D2E/DX2 analytically  !
 ! A65   A(35,37,39)           121.8976         calculate D2E/DX2 analytically  !
 ! A66   A(38,37,39)           118.1038         calculate D2E/DX2 analytically  !
 ! A67   A(37,39,40)           109.4996         calculate D2E/DX2 analytically  !
 ! A68   A(37,39,41)           109.4981         calculate D2E/DX2 analytically  !
 ! A69   A(37,39,42)           109.4955         calculate D2E/DX2 analytically  !
 ! A70   A(40,39,41)           109.4474         calculate D2E/DX2 analytically  !
 ! A71   A(40,39,42)           109.4457         calculate D2E/DX2 analytically  !
 ! A72   A(41,39,42)           109.441          calculate D2E/DX2 analytically  !
 ! D1    D(1,2,5,6)             -0.0022         calculate D2E/DX2 analytically  !
 ! D2    D(1,2,5,7)           -179.9987         calculate D2E/DX2 analytically  !
 ! D3    D(3,2,5,6)            120.5106         calculate D2E/DX2 analytically  !
 ! D4    D(3,2,5,7)            -59.486          calculate D2E/DX2 analytically  !
 ! D5    D(4,2,5,6)           -120.5174         calculate D2E/DX2 analytically  !
 ! D6    D(4,2,5,7)             59.4861         calculate D2E/DX2 analytically  !
 ! D7    D(2,5,7,8)             -0.0002         calculate D2E/DX2 analytically  !
 ! D8    D(2,5,7,9)           -179.9989         calculate D2E/DX2 analytically  !
 ! D9    D(6,5,7,8)           -179.9966         calculate D2E/DX2 analytically  !
 ! D10   D(6,5,7,9)              0.0046         calculate D2E/DX2 analytically  !
 ! D11   D(5,7,9,10)           -60.0012         calculate D2E/DX2 analytically  !
 ! D12   D(5,7,9,11)            59.9966         calculate D2E/DX2 analytically  !
 ! D13   D(5,7,9,15)          -179.9994         calculate D2E/DX2 analytically  !
 ! D14   D(8,7,9,10)           120.0            calculate D2E/DX2 analytically  !
 ! D15   D(8,7,9,11)          -120.0021         calculate D2E/DX2 analytically  !
 ! D16   D(8,7,9,15)             0.0018         calculate D2E/DX2 analytically  !
 ! D17   D(7,9,11,12)           59.997          calculate D2E/DX2 analytically  !
 ! D18   D(7,9,11,13)          179.9976         calculate D2E/DX2 analytically  !
 ! D19   D(7,9,11,14)          -59.9986         calculate D2E/DX2 analytically  !
 ! D20   D(10,9,11,12)        -179.4894         calculate D2E/DX2 analytically  !
 ! D21   D(10,9,11,13)         -59.4889         calculate D2E/DX2 analytically  !
 ! D22   D(10,9,11,14)          60.515          calculate D2E/DX2 analytically  !
 ! D23   D(15,9,11,12)         -61.9521         calculate D2E/DX2 analytically  !
 ! D24   D(15,9,11,13)          58.0485         calculate D2E/DX2 analytically  !
 ! D25   D(15,9,11,14)         178.0523         calculate D2E/DX2 analytically  !
 ! D26   D(7,9,15,16)           -0.0061         calculate D2E/DX2 analytically  !
 ! D27   D(7,9,15,17)          179.9974         calculate D2E/DX2 analytically  !
 ! D28   D(10,9,15,16)        -120.519          calculate D2E/DX2 analytically  !
 ! D29   D(10,9,15,17)          59.4845         calculate D2E/DX2 analytically  !
 ! D30   D(11,9,15,16)         121.9447         calculate D2E/DX2 analytically  !
 ! D31   D(11,9,15,17)         -58.0518         calculate D2E/DX2 analytically  !
 ! D32   D(9,15,17,18)           0.0036         calculate D2E/DX2 analytically  !
 ! D33   D(9,15,17,19)         179.9935         calculate D2E/DX2 analytically  !
 ! D34   D(16,15,17,18)       -179.9928         calculate D2E/DX2 analytically  !
 ! D35   D(16,15,17,19)         -0.0029         calculate D2E/DX2 analytically  !
 ! D36   D(15,17,19,20)         60.0082         calculate D2E/DX2 analytically  !
 ! D37   D(15,17,19,21)       -179.9975         calculate D2E/DX2 analytically  !
 ! D38   D(15,17,19,25)        -59.9965         frozen, calculate D2E/DX2 analyt!
 ! D39   D(18,17,19,20)       -120.0017         calculate D2E/DX2 analytically  !
 ! D40   D(18,17,19,21)         -0.0074         calculate D2E/DX2 analytically  !
 ! D41   D(18,17,19,25)        119.9935         calculate D2E/DX2 analytically  !
 ! D42   D(17,19,21,22)         60.0039         calculate D2E/DX2 analytically  !
 ! D43   D(17,19,21,23)       -179.9943         calculate D2E/DX2 analytically  !
 ! D44   D(17,19,21,24)        -59.998          calculate D2E/DX2 analytically  !
 ! D45   D(20,19,21,22)       -179.4919         calculate D2E/DX2 analytically  !
 ! D46   D(20,19,21,23)        -59.4901         calculate D2E/DX2 analytically  !
 ! D47   D(20,19,21,24)         60.5062         calculate D2E/DX2 analytically  !
 ! D48   D(25,19,21,22)        -61.9445         calculate D2E/DX2 analytically  !
 ! D49   D(25,19,21,23)         58.0573         calculate D2E/DX2 analytically  !
 ! D50   D(25,19,21,24)        178.0536         calculate D2E/DX2 analytically  !
 ! D51   D(17,19,25,26)        149.9976         calculate D2E/DX2 analytically  !
 ! D52   D(17,19,25,27)        -29.9967         frozen, calculate D2E/DX2 analyt!
 ! D53   D(20,19,25,26)         29.486          calculate D2E/DX2 analytically  !
 ! D54   D(20,19,25,27)       -150.5084         calculate D2E/DX2 analytically  !
 ! D55   D(21,19,25,26)        -88.0582         calculate D2E/DX2 analytically  !
 ! D56   D(21,19,25,27)         91.9475         calculate D2E/DX2 analytically  !
 ! D57   D(19,25,27,28)         -0.0049         calculate D2E/DX2 analytically  !
 ! D58   D(19,25,27,29)       -179.9959         calculate D2E/DX2 analytically  !
 ! D59   D(26,25,27,28)       -179.9991         calculate D2E/DX2 analytically  !
 ! D60   D(26,25,27,29)          0.0099         calculate D2E/DX2 analytically  !
 ! D61   D(25,27,29,30)        -60.0042         calculate D2E/DX2 analytically  !
 ! D62   D(25,27,29,31)         59.9925         calculate D2E/DX2 analytically  !
 ! D63   D(25,27,29,35)        179.998          calculate D2E/DX2 analytically  !
 ! D64   D(28,27,29,30)        120.0047         calculate D2E/DX2 analytically  !
 ! D65   D(28,27,29,31)       -119.9987         calculate D2E/DX2 analytically  !
 ! D66   D(28,27,29,35)          0.0069         calculate D2E/DX2 analytically  !
 ! D67   D(27,29,31,32)         60.0056         calculate D2E/DX2 analytically  !
 ! D68   D(27,29,31,33)       -179.9999         calculate D2E/DX2 analytically  !
 ! D69   D(27,29,31,34)        -60.002          calculate D2E/DX2 analytically  !
 ! D70   D(30,29,31,32)       -179.4887         calculate D2E/DX2 analytically  !
 ! D71   D(30,29,31,33)        -59.4941         calculate D2E/DX2 analytically  !
 ! D72   D(30,29,31,34)         60.5038         calculate D2E/DX2 analytically  !
 ! D73   D(35,29,31,32)        -61.9418         calculate D2E/DX2 analytically  !
 ! D74   D(35,29,31,33)         58.0527         calculate D2E/DX2 analytically  !
 ! D75   D(35,29,31,34)        178.0506         calculate D2E/DX2 analytically  !
 ! D76   D(27,29,35,36)         -0.0069         calculate D2E/DX2 analytically  !
 ! D77   D(27,29,35,37)        179.9985         calculate D2E/DX2 analytically  !
 ! D78   D(30,29,35,36)       -120.5132         calculate D2E/DX2 analytically  !
 ! D79   D(30,29,35,37)         59.4922         calculate D2E/DX2 analytically  !
 ! D80   D(31,29,35,36)        121.9404         calculate D2E/DX2 analytically  !
 ! D81   D(31,29,35,37)        -58.0542         calculate D2E/DX2 analytically  !
 ! D82   D(29,35,37,38)         -0.0052         calculate D2E/DX2 analytically  !
 ! D83   D(29,35,37,39)        179.9997         calculate D2E/DX2 analytically  !
 ! D84   D(36,35,37,38)       -179.9997         calculate D2E/DX2 analytically  !
 ! D85   D(36,35,37,39)          0.0053         calculate D2E/DX2 analytically  !
 ! D86   D(35,37,39,40)         -0.0066         calculate D2E/DX2 analytically  !
 ! D87   D(35,37,39,41)        119.9981         calculate D2E/DX2 analytically  !
 ! D88   D(35,37,39,42)       -120.0076         calculate D2E/DX2 analytically  !
 ! D89   D(38,37,39,40)        179.9982         calculate D2E/DX2 analytically  !
 ! D90   D(38,37,39,41)        -59.9971         calculate D2E/DX2 analytically  !
 ! D91   D(38,37,39,42)         59.9972         calculate D2E/DX2 analytically  !
 --------------------------------------------------------------------------------
 Trust Radius=3.00D-01 FncErr=1.00D-07 GrdErr=1.00D-07
 Number of steps in this run= 252 maximum allowed number of steps= 252.
 GradGradGradGradGradGradGradGradGradGradGradGradGradGradGradGradGradGrad

                          Input orientation:                          
 ---------------------------------------------------------------------
 Center     Atomic      Atomic             Coordinates (Angstroms)
 Number     Number       Type             X           Y           Z
 ---------------------------------------------------------------------
      1          1           0        7.769100    1.000000   -3.330800
      2          6           0        7.769100    2.090000   -3.330800
      3          1           0        7.255300    2.453900   -4.220600
      4          1           0        8.796500    2.453900   -3.330800
      5          6           0        7.055400    2.640800   -2.094600
      6          8           0        6.573800    1.877400   -1.260500
      7          7           0        6.991400    3.969700   -1.983800
      8          1           0        7.402500    4.556200   -2.695900
      9          6           0        6.342500    4.613900   -0.859800
     10          1           0        5.294700    4.315500   -0.824600
     11          6           0        7.005500    4.220800    0.456100
     12          1           0        8.053100    4.521300    0.439600
     13          1           0        6.498100    4.718900    1.282200
     14          1           0        6.939900    3.140900    0.588200
     15          6           0        6.412700    6.129400   -0.981500
     16          8           0        6.968800    6.652700   -1.944600
     17          7           0        5.846000    6.834900    0.000000
     18          1           0        5.400600    6.359200    0.771600
     19          6           0        5.846100    8.283900    0.000000
     20          1           0        5.332300    8.647700   -0.889800
     21          6           0        5.134700    8.832900    1.232200
     22          1           0        5.643100    8.484600    2.131200
     23          1           0        5.149900    9.922400    1.205800
     24          1           0        4.101900    8.484600    1.241400
     25          6           0        7.266000    8.831800    0.000000
     26          8           0        7.517800    9.911900   -0.529500
     27          7           0        8.195900    8.082500    0.596800
     28          1           0        7.940000    7.201100    1.018400
     29          6           0        9.583700    8.493800    0.663800
     30          1           0        9.977100    8.612400   -0.345800
     31          6           0        9.728100    9.820300    1.402000
     32          1           0        9.346700    9.714900    2.417700
     33          1           0       10.779900   10.104500    1.437100
     34          1           0        9.161300   10.591000    0.879700
     35          6           0       10.426900    7.459700    1.396000
     36          8           0        9.911700    6.436100    1.840300
     37          7           0       11.728300    7.729700    1.521100
     38          1           0       12.105600    8.585000    1.138800
     39          6           0       12.636400    6.825200    2.197000
     40          1           0       12.085400    5.954200    2.551700
     41          1           0       13.414100    6.505000    1.503600
     42          1           0       13.093800    7.335200    3.044800
 ---------------------------------------------------------------------
                    Distance matrix (angstroms):
                    1          2          3          4          5
     1  H    0.000000
     2  C    1.090000   0.000000
     3  H    1.780326   1.090026   0.000000
     4  H    1.780274   1.089942   1.779618   0.000000
     5  C    2.174806   1.530013   2.143541   2.143490   0.000000
     6  O    2.546510   2.400017   3.091761   3.091745   1.229000
     7  N    3.352364   2.439774   2.714879   2.714856   1.335046
     8  H    3.630985   2.572865   2.601162   2.601153   2.037351
     9  C    4.604487   3.809344   4.098022   4.097994   2.434354
    10  H    4.836965   4.166119   4.340774   4.691396   2.741821
    11  C    5.029637   4.411803   5.005583   4.546452   3.000827
    12  H    5.166829   4.495308   5.160241   4.363795   3.309661
    13  H    6.060151   5.459517   5.998699   5.629621   4.003981
    14  H    4.541980   4.141319   4.867854   4.390614   2.731457
    15  C    5.802566   4.865777   4.971020   4.971017   3.717847
    16  O    5.874951   4.835314   4.784577   4.784554   4.015637
    17  N    6.988462   6.107914   6.244418   6.244425   4.841536
    18  H    7.152657   6.376954   6.604040   6.604028   4.977948
    19  C    8.236951   7.290854   7.334045   7.334030   6.139571
    20  H    8.389505   7.409447   7.290769   7.504820   6.364233
    21  C    9.440093   8.557320   8.655727   8.655714   7.286892
    22  H    9.506448   8.674343   8.905835   8.726209   7.348604
    23  H   10.346505   9.422709   9.468739   9.468734   8.218593
    24  H    9.506451   8.674346   8.726209   8.905820   7.348609
    25  C    8.525516   7.536525   7.647953   7.356240   6.539127
    26  O    9.345180   8.312193   8.325556   8.068712   7.451996
    27  N    8.109871   7.177622   7.468146   6.889695   6.177093
    28  H    7.576172   6.713277   7.102946   6.495001   5.591925
    29  C    8.683700   7.762619   8.109205   7.284017   6.946847
    30  H    8.469600   7.505144   7.768487   6.944866   6.874201
    31  C   10.199744   9.273328   9.591257   8.805176   8.421090
    32  H   10.558577   9.678490  10.057987   9.277397   8.697919
    33  H   10.709328   9.799490  10.147121   9.230299   9.058235
    34  H   10.566637   9.588198   9.790725   9.169176   8.745682
    35  C    8.434113   7.631528   8.164758   7.075230   6.839086
    36  O    7.802704   7.086579   7.723269   6.621319   6.168159
    37  N    9.192663   8.427480   8.989378   7.744059   7.797832
    38  H    9.814009   8.998199   9.478342   8.277551   8.443513
    39  C    9.390428   8.756101   9.447227   8.025563   8.189908
    40  H    8.819203   8.256288   9.024745   7.594259   7.607077
    41  H    9.248917   8.644633   9.333204   7.816973   8.265116
    42  H   10.446792   9.824094  10.521464   9.107258   9.214830
                    6          7          8          9         10
     6  O    0.000000
     7  N    2.252836   0.000000
     8  H    3.150093   1.009986   0.000000
     9  C    2.775336   1.448945   2.120894   0.000000
    10  H    2.787550   2.083774   2.828873   1.090030   0.000000
    11  C    2.936768   2.452827   3.194559   1.525021   2.139158
    12  H    3.474029   2.702654   3.202477   2.150155   3.041270
    13  H    3.813814   3.386946   4.082853   2.150209   2.459575
    14  H    2.268954   2.702729   3.605882   2.150191   2.466247
    15  C    4.264188   2.450266   2.528602   1.521998   2.136533
    16  O    4.840197   2.683382   2.268890   2.392854   3.085371
    17  N    5.166755   3.668348   3.857855   2.432819   2.707632
    18  H    5.058889   3.979018   4.391124   2.568017   2.595338
    19  C    6.569753   4.884618   4.856543   3.801916   4.090502
    20  H    6.893163   5.082631   4.928296   4.158479   4.332854
    21  C    7.527519   6.118881   6.234024   4.861605   4.966179
    22  H    7.484980   6.255834   6.467512   4.941413   5.122454
    23  H    8.534176   6.999951   7.006681   5.819723   5.964966
    24  H    7.484977   6.255833   6.467505   4.941422   4.803387
    25  C    7.101527   5.258411   5.056408   4.402589   4.996294
    26  O    8.122727   6.140181   5.778417   5.436840   6.029009
    27  N    6.677128   5.002543   4.889391   4.193800   4.962623
    28  H    5.949930   4.511651   4.591343   3.573968   4.326771
    29  C    7.519254   5.847845   5.616931   5.280185   6.170012
    30  H    7.601273   5.757787   5.348298   5.427938   6.373184
    31  C    8.951434   7.292646   7.064839   6.609435   7.410506
    32  H    9.090904   7.611042   7.519375   6.766641   7.488974
    33  H    9.625669   7.980668   7.698841   7.423810   8.289465
    34  H    9.338225   7.533240   7.231674   6.833536   7.565523
    35  C    7.284603   5.950278   5.858409   5.465303   6.415336
    36  O    6.445020   5.406942   5.514274   4.832198   5.737188
    37  N    8.279830   6.990003   6.823982   6.662112   7.651815
    38  H    9.019387   7.563509   7.283907   7.278555   8.274777
    39  C    8.555124   7.582809   7.515487   7.338055   8.326417
    40  H    7.844164   7.103368   7.170862   6.812902   7.758759
    41  H    8.708883   7.735682   7.587685   7.692168   8.725771
    42  H    9.530666   8.593759   8.548063   8.260232   9.215031
                   11         12         13         14         15
    11  C    0.000000
    12  H    1.089972   0.000000
    13  H    1.089954   1.779619   0.000000
    14  H    1.089926   1.779551   1.779581   0.000000
    15  C    2.461881   2.701189   2.668547   3.416582   0.000000
    16  O    3.417433   3.376830   3.791224   4.329971   1.229086
    17  N    2.895857   3.227582   2.558657   3.897208   1.334999
    18  H    2.692211   3.244049   2.038579   3.572189   2.037281
    19  C    4.249826   4.384205   3.844264   5.290825   2.434389
    20  H    4.920212   5.118323   4.638118   5.923994   2.741807
    21  C    5.037230   5.266419   4.334323   6.006026   3.720573
    22  H    4.779339   4.937343   3.953773   5.711188   3.978461
    23  H    6.042644   6.179605   5.375862   7.040900   4.556950
    24  H    5.218005   5.653549   4.463624   6.085725   3.978448
    25  C    4.640820   4.403769   4.376032   5.730503   2.999071
    26  O    5.798489   5.503115   5.593683   6.886920   3.966466
    27  N    4.043461   3.567527   3.829635   5.098727   3.079843
    28  H    3.173588   2.743926   2.882704   4.203629   2.735103
    29  C    4.994876   4.263069   4.914592   5.970673   4.283998
    30  H    5.362798   4.588652   5.469293   6.327263   4.390256
    31  C    6.297752   5.640145   6.039167   7.283592   5.504152
    32  H    6.286034   5.706116   5.862073   7.235830   5.746192
    33  H    7.058780   6.293057   6.882041   7.997372   6.381495
    34  H    6.738424   6.185714   6.460356   7.779690   5.561002
    35  C    4.804151   3.896642   4.791702   5.609255   4.851392
    36  O    3.907629   3.013771   3.861725   4.610607   4.505510
    37  N    5.979251   4.997056   6.039618   6.697474   6.089300
    38  H    6.747099   5.781461   6.812588   7.525014   6.552462
    39  C    6.443653   5.422458   6.553784   6.972260   7.022923
    40  H    5.762083   4.772171   5.861358   6.184348   6.685336
    41  H    6.883675   5.814420   7.146344   7.353257   7.438844
    42  H    7.312199   6.333542   7.311296   7.842036   7.893171
                   16         17         18         19         20
    16  O    0.000000
    17  N    2.252853   0.000000
    18  H    3.150101   1.009969   0.000000
    19  C    2.775381   1.449000   2.120921   0.000000
    20  H    2.787608   2.083717   2.828807   1.089993   0.000000
    21  C    4.267230   2.452808   2.530227   1.525060   2.139212
    22  H    4.661060   2.702719   2.534688   2.150233   3.041322
    23  H    4.891253   3.386911   3.598302   2.150193   2.459608
    24  H    4.661070   2.702678   2.534691   2.150253   2.466272
    25  C    2.935690   2.450308   3.191995   1.521943   2.136547
    26  O    3.595316   3.541640   4.335559   2.392767   2.550378
    27  N    3.163671   2.726666   3.288468   2.432754   3.275612
    28  H    3.165966   2.357133   2.686682   2.567881   3.540336
    29  C    4.126876   4.142823   4.697495   3.801887   4.528991
    30  H    3.930198   4.510551   5.222054   4.158443   4.676681
    31  C    5.370955   5.094008   5.577085   4.404095   5.094153
    32  H    5.836192   5.137565   5.435262   4.488567   5.309791
    33  H    6.154291   6.090887   6.588401   5.451809   6.100252
    34  H    5.319204   5.086588   5.662392   4.133659   4.644221
    35  C    4.875378   4.829476   5.183114   4.859203   5.708868
    36  O    4.799275   4.480587   4.636600   4.830132   5.771960
    37  N    5.985302   6.141324   6.517654   6.100915   6.896664
    38  H    6.295066   6.598660   7.074323   6.369369   7.070837
    39  C    7.021702   7.136977   7.389569   7.284421   8.136321
    40  H    6.847205   6.798303   6.929598   7.132148   8.043831
    41  H    7.311210   7.723068   8.048184   7.918328   8.696840
    42  H    7.929410   7.877291   8.081172   7.918333   8.800262
                   21         22         23         24         25
    21  C    0.000000
    22  H    1.089947   0.000000
    23  H    1.089926   1.779573   0.000000
    24  H    1.089988   1.779618   1.779562   0.000000
    25  C    2.461861   2.701179   2.668565   3.416599   0.000000
    26  O    3.153885   3.554013   2.935699   4.103857   1.228979
    27  N    3.215242   3.005471   3.610295   4.163896   1.335041
    28  H    3.252413   2.856824   3.901955   4.053161   2.037301
    29  C    4.497963   4.204958   4.689696   5.512154   2.434463
    30  H    5.097798   4.993538   5.236929   6.087160   2.741857
    31  C    4.701395   4.359249   4.583539   5.784809   3.000779
    32  H    4.463662   3.913103   4.373201   5.514095   3.309751
    33  H    5.790271   5.430706   5.637691   6.874450   4.004062
    34  H    4.407798   4.287296   4.079791   5.492292   2.731450
    35  C    5.469908   4.947290   5.826474   6.409364   3.717898
    36  O    5.379049   4.743619   5.935623   6.189411   4.015696
    37  N    6.691493   6.162123   6.941376   7.668773   4.841538
    38  H    6.975932   6.539025   7.083424   8.004987   4.977902
    39  C    7.825420   7.187780   8.162280   8.746683   6.139581
    40  H    7.638077   6.934189   8.103038   8.476797   6.165904
    41  H    8.604722   8.043702   8.947866   9.523898   6.743437
    42  H    8.299150   7.593992   8.554594   9.242707   6.743432
                   26         27         28         29         30
    26  O    0.000000
    27  N    2.252793   0.000000
    28  H    3.150029   1.009999   0.000000
    29  C    2.775413   1.449015   2.120982   0.000000
    30  H    2.787580   2.083738   2.828884   1.090010   0.000000
    31  C    2.936751   2.452740   3.194473   1.524924   2.139119
    32  H    3.474143   2.702730   3.202505   2.150214   3.041355
    33  H    3.813910   3.386982   4.082900   2.150173   2.459590
    34  H    2.268946   2.702703   3.605861   2.150182   2.466219
    35  C    4.264235   2.450298   2.528661   1.521994   2.136564
    36  O    4.840237   2.683448   2.268997   2.392878   3.085384
    37  N    5.166746   3.668330   3.857893   2.432719   2.707615
    38  H    5.058834   3.978948   4.391116   2.567863   2.595246
    39  C    6.569748   4.884617   4.856601   3.801829   4.090451
    40  H    6.783815   4.845566   4.592397   4.033886   4.461666
    41  H    7.106815   5.526337   5.539472   4.396880   4.435582
    42  H    7.106812   5.526354   5.539489   4.396853   4.779250
                   31         32         33         34         35
    31  C    0.000000
    32  H    1.090056   0.000000
    33  H    1.090085   1.779727   0.000000
    34  H    1.089972   1.779710   1.779675   0.000000
    35  C    2.461867   2.701227   2.668570   3.416628   0.000000
    36  O    3.417400   3.376854   3.791240   4.330017   1.229061
    37  N    2.895789   3.227527   2.558553   3.897168   1.334988
    38  H    2.692164   3.244039   2.038466   3.572124   2.037274
    39  C    4.249807   4.384199   3.844197   5.290827   2.434354
    40  H    4.671767   4.654170   4.491286   5.731131   2.520475
    41  H    4.958642   5.261443   4.460923   5.930511   3.137896
    42  H    4.494714   4.482966   3.950678   5.545489   3.137897
                   36         37         38         39         40
    36  O    0.000000
    37  N    2.252848   0.000000
    38  H    3.150091   1.009974   0.000000
    39  C    2.775360   1.449002   2.120951   0.000000
    40  H    2.337368   2.083760   2.986269   1.089979   0.000000
    41  H    3.519221   2.083775   2.484281   1.090022   1.779702
    42  H    3.519227   2.083718   2.484225   1.089991   1.779657
                   41         42
    41  H    0.000000
    42  H    1.779641   0.000000
 Stoichiometry    C12H22N4O4
 Framework group  C1[X(C12H22N4O4)]
 Deg. of freedom   120
 Full point group                 C1      NOp   1
 Largest Abelian subgroup         C1      NOp   1
 Largest concise Abelian subgroup C1      NOp   1
                         Standard orientation:                         
 ---------------------------------------------------------------------
 Center     Atomic      Atomic             Coordinates (Angstroms)
 Number     Number       Type             X           Y           Z
 ---------------------------------------------------------------------
      1          1           0        5.849645    2.387570   -0.979784
      2          6           0        5.003373    1.806925   -1.346903
      3          1           0        5.350329    1.086495   -2.087687
      4          1           0        4.274499    2.475585   -1.804735
      5          6           0        4.321363    1.046676   -0.207684
      6          8           0        4.742451    1.138312    0.943285
      7          7           0        3.266824    0.296900   -0.536520
      8          1           0        2.958005    0.253372   -1.497149
      9          6           0        2.535375   -0.470713    0.450998
     10          1           0        3.206186   -1.187623    0.924516
     11          6           0        1.951721    0.436135    1.529267
     12          1           0        1.270828    1.153760    1.071624
     13          1           0        1.408247   -0.166747    2.256708
     14          1           0        2.758335    0.970466    2.031065
     15          6           0        1.383816   -1.232114   -0.189828
     16          8           0        1.175674   -1.147114   -1.398175
     17          7           0        0.634126   -1.978628    0.624362
     18          1           0        0.844656   -2.016549    1.611417
     19          6           0       -0.490915   -2.750428    0.136297
     20          1           0       -0.143882   -3.470804   -0.604453
     21          6           0       -1.170701   -3.508216    1.271839
     22          1           0       -1.531623   -2.799644    2.017256
     23          1           0       -2.011135   -4.078659    0.876611
     24          1           0       -0.455793   -4.188734    1.734304
     25          6           0       -1.533164   -1.850278   -0.511591
     26          8           0       -2.239379   -2.270936   -1.425208
     27          7           0       -1.627887   -0.606588   -0.035569
     28          1           0       -1.024895   -0.306768    0.717164
     29          6           0       -2.580726    0.346552   -0.567798
     30          1           0       -2.382746    0.505572   -1.627816
     31          6           0       -4.010400   -0.159837   -0.409702
     32          1           0       -4.226627   -0.315161    0.647341
     33          1           0       -4.704022    0.575521   -0.817652
     34          1           0       -4.124053   -1.102127   -0.945622
     35          6           0       -2.478487    1.683663    0.152026
     36          8           0       -1.662806    1.843978    1.057318
     37          7           0       -3.310613    2.645759   -0.253102
     38          1           0       -3.964026    2.465966   -1.001950
     39          6           0       -3.311484    3.962290    0.352168
     40          1           0       -2.557818    4.001670    1.138610
     41          1           0       -3.084150    4.711527   -0.406193
     42          1           0       -4.293253    4.165349    0.779926
 ---------------------------------------------------------------------
 Rotational constants (GHZ):      0.3924459      0.2011058      0.1513279
 Standard basis: 6-31G(d) (6D, 7F)
 There are   344 symmetry adapted basis functions of A   symmetry.
 Integral buffers will be    131072 words long.
 Raffenetti 1 integral format.
 Two-electron integral symmetry is turned on.
   344 basis functions,   648 primitive gaussians,   344 cartesian basis functions
    77 alpha electrons       77 beta electrons
       nuclear repulsion energy      1675.8356366990 Hartrees.
 NAtoms=   42 NActive=   42 NUniq=   42 SFac= 7.50D-01 NAtFMM=   80 NAOKFM=F Big=F
 One-electron integrals computed using PRISM.
 NBasis=   344 RedAO= T  NBF=   344
 NBsUse=   344 1.00D-06 NBFU=   344
 Harris functional with IExCor=  205 diagonalized for initial guess.
 ExpMin= 1.61D-01 ExpMax= 5.48D+03 ExpMxC= 8.25D+02 IAcc=1 IRadAn=         1 AccDes= 0.00D+00
 HarFok:  IExCor=  205 AccDes= 0.00D+00 IRadAn=         1 IDoV= 1
 ScaDFX=  1.000000  1.000000  1.000000  1.000000
 FoFCou: FMM=F IPFlag=           0 FMFlag=      100000 FMFlg1=           0
         NFxFlg=           0 DoJE=T BraDBF=F KetDBF=T FulRan=T
         Omega=  0.000000  0.000000  1.000000  0.000000  0.000000 ICntrl=     500 IOpCl=  0
         NMat0=    1 NMatS0=    1 NMatT0=    0 NMatD0=    1 NMtDS0=    0 NMtDT0=    0
         I1Cent=           4 NGrid=           0.
 Petite list used in FoFCou.
 Initial guess orbital symmetries:
       Occupied  (A) (A) (A) (A) (A) (A) (A) (A) (A) (A) (A) (A)
                 (A) (A) (A) (A) (A) (A) (A) (A) (A) (A) (A) (A)
                 (A) (A) (A) (A) (A) (A) (A) (A) (A) (A) (A) (A)
                 (A) (A) (A) (A) (A) (A) (A) (A) (A) (A) (A) (A)
                 (A) (A) (A) (A) (A) (A) (A) (A) (A) (A) (A) (A)
                 (A) (A) (A) (A) (A) (A) (A) (A) (A) (A) (A) (A)
                 (A) (A) (A) (A) (A)
       Virtual   (A) (A) (A) (A) (A) (A) (A) (A) (A) (A) (A) (A)
                 (A) (A) (A) (A) (A) (A) (A) (A) (A) (A) (A) (A)
                 (A) (A) (A) (A) (A) (A) (A) (A) (A) (A) (A) (A)
                 (A) (A) (A) (A) (A) (A) (A) (A) (A) (A) (A) (A)
                 (A) (A) (A) (A) (A) (A) (A) (A) (A) (A) (A) (A)
                 (A) (A) (A) (A) (A) (A) (A) (A) (A) (A) (A) (A)
                 (A) (A) (A) (A) (A) (A) (A) (A) (A) (A) (A) (A)
                 (A) (A) (A) (A) (A) (A) (A) (A) (A) (A) (A) (A)
                 (A) (A) (A) (A) (A) (A) (A) (A) (A) (A) (A) (A)
                 (A) (A) (A) (A) (A) (A) (A) (A) (A) (A) (A) (A)
                 (A) (A) (A) (A) (A) (A) (A) (A) (A) (A) (A) (A)
                 (A) (A) (A) (A) (A) (A) (A) (A) (A) (A) (A) (A)
                 (A) (A) (A) (A) (A) (A) (A) (A) (A) (A) (A) (A)
                 (A) (A) (A) (A) (A) (A) (A) (A) (A) (A) (A) (A)
                 (A) (A) (A) (A) (A) (A) (A) (A) (A) (A) (A) (A)
                 (A) (A) (A) (A) (A) (A) (A) (A) (A) (A) (A) (A)
                 (A) (A) (A) (A) (A) (A) (A) (A) (A) (A) (A) (A)
                 (A) (A) (A) (A) (A) (A) (A) (A) (A) (A) (A) (A)
                 (A) (A) (A) (A) (A) (A) (A) (A) (A) (A) (A) (A)
                 (A) (A) (A) (A) (A) (A) (A) (A) (A) (A) (A) (A)
                 (A) (A) (A) (A) (A) (A) (A) (A) (A) (A) (A) (A)
                 (A) (A) (A) (A) (A) (A) (A) (A) (A) (A) (A) (A)
                 (A) (A) (A)
 The electronic state of the initial guess is 1-A.
 Requested convergence on RMS density matrix=1.00D-08 within 128 cycles.
 Requested convergence on MAX density matrix=1.00D-06.
 Requested convergence on             energy=1.00D-06.
 No special actions if energy rises.
 Integral accuracy reduced to 1.0D-05 until final iterations.
 Initial convergence to 1.0D-05 achieved.  Increase integral accuracy.
 SCF Done:  E(RHF) =  -984.542387099     A.U. after   15 cycles
             Convg  =    0.3290D-08             -V/T =  2.0020
 Range of M.O.s used for correlation:     1   344
 NBasis=   344 NAE=    77 NBE=    77 NFC=     0 NFV=     0
 NROrb=    344 NOA=    77 NOB=    77 NVA=   267 NVB=   267
 Symmetrizing basis deriv contribution to polar:
 IMax=3 JMax=2 DiffMx= 0.00D+00
 G2DrvN: will do    43 centers at a time, making    1 passes doing MaxLOS=2.
 Calling FoFCou, ICntrl=  3107 FMM=F I1Cent=   0 AccDes= 0.00D+00.
 FoFDir/FoFCou used for L=0 through L=2.
 End of G2Drv Frequency-dependent properties file   721 does not exist.
 End of G2Drv Frequency-dependent properties file   722 does not exist.
          IDoAtm=111111111111111111111111111111111111111111
          Differentiating once with respect to nuclear coordinates.
          There are   129 degrees of freedom in the 1st order CPHF.  IDoFFX=5.
    123 vectors produced by pass  0 Test12= 2.06D-10 1.00D-07 XBig12= 9.69D-02 5.47D-02.
 AX will form   123 AO Fock derivatives at one time.
    123 vectors produced by pass  1 Test12= 2.06D-10 1.00D-07 XBig12= 5.84D-03 2.08D-02.
    123 vectors produced by pass  2 Test12= 2.06D-10 1.00D-07 XBig12= 7.65D-05 1.34D-03.
    123 vectors produced by pass  3 Test12= 2.06D-10 1.00D-07 XBig12= 8.72D-07 1.07D-04.
    123 vectors produced by pass  4 Test12= 2.06D-10 1.00D-07 XBig12= 5.64D-09 7.11D-06.
     35 vectors produced by pass  5 Test12= 2.06D-10 1.00D-07 XBig12= 3.33D-11 4.51D-07.
 Inverted reduced A of dimension   650 with in-core refinement.
 End of Minotr Frequency-dependent properties file   721 does not exist.
 End of Minotr Frequency-dependent properties file   722 does not exist.

 **********************************************************************

            Population analysis using the SCF density.

 **********************************************************************

 Orbital symmetries:
       Occupied  (A) (A) (A) (A) (A) (A) (A) (A) (A) (A) (A) (A)
                 (A) (A) (A) (A) (A) (A) (A) (A) (A) (A) (A) (A)
                 (A) (A) (A) (A) (A) (A) (A) (A) (A) (A) (A) (A)
                 (A) (A) (A) (A) (A) (A) (A) (A) (A) (A) (A) (A)
                 (A) (A) (A) (A) (A) (A) (A) (A) (A) (A) (A) (A)
                 (A) (A) (A) (A) (A) (A) (A) (A) (A) (A) (A) (A)
                 (A) (A) (A) (A) (A)
       Virtual   (A) (A) (A) (A) (A) (A) (A) (A) (A) (A) (A) (A)
                 (A) (A) (A) (A) (A) (A) (A) (A) (A) (A) (A) (A)
                 (A) (A) (A) (A) (A) (A) (A) (A) (A) (A) (A) (A)
                 (A) (A) (A) (A) (A) (A) (A) (A) (A) (A) (A) (A)
                 (A) (A) (A) (A) (A) (A) (A) (A) (A) (A) (A) (A)
                 (A) (A) (A) (A) (A) (A) (A) (A) (A) (A) (A) (A)
                 (A) (A) (A) (A) (A) (A) (A) (A) (A) (A) (A) (A)
                 (A) (A) (A) (A) (A) (A) (A) (A) (A) (A) (A) (A)
                 (A) (A) (A) (A) (A) (A) (A) (A) (A) (A) (A) (A)
                 (A) (A) (A) (A) (A) (A) (A) (A) (A) (A) (A) (A)
                 (A) (A) (A) (A) (A) (A) (A) (A) (A) (A) (A) (A)
                 (A) (A) (A) (A) (A) (A) (A) (A) (A) (A) (A) (A)
                 (A) (A) (A) (A) (A) (A) (A) (A) (A) (A) (A) (A)
                 (A) (A) (A) (A) (A) (A) (A) (A) (A) (A) (A) (A)
                 (A) (A) (A) (A) (A) (A) (A) (A) (A) (A) (A) (A)
                 (A) (A) (A) (A) (A) (A) (A) (A) (A) (A) (A) (A)
                 (A) (A) (A) (A) (A) (A) (A) (A) (A) (A) (A) (A)
                 (A) (A) (A) (A) (A) (A) (A) (A) (A) (A) (A) (A)
                 (A) (A) (A) (A) (A) (A) (A) (A) (A) (A) (A) (A)
                 (A) (A) (A) (A) (A) (A) (A) (A) (A) (A) (A) (A)
                 (A) (A) (A) (A) (A) (A) (A) (A) (A) (A) (A) (A)
                 (A) (A) (A) (A) (A) (A) (A) (A) (A) (A) (A) (A)
                 (A) (A) (A)
 The electronic state is 1-A.
 Alpha  occ. eigenvalues --  -20.53976 -20.53352 -20.51583 -20.51219 -15.61101
 Alpha  occ. eigenvalues --  -15.60449 -15.58649 -15.58609 -11.36509 -11.36147
 Alpha  occ. eigenvalues --  -11.34650 -11.34556 -11.29059 -11.28632 -11.28601
 Alpha  occ. eigenvalues --  -11.26923 -11.24587 -11.23189 -11.22336 -11.21826
 Alpha  occ. eigenvalues --   -1.39934  -1.39194  -1.37257  -1.36857  -1.26556
 Alpha  occ. eigenvalues --   -1.24775  -1.23538  -1.23261  -1.08449  -1.05481
 Alpha  occ. eigenvalues --   -1.03642  -0.98300  -0.96372  -0.91643  -0.89690
 Alpha  occ. eigenvalues --   -0.87420  -0.82510  -0.80740  -0.78066  -0.77928
 Alpha  occ. eigenvalues --   -0.75295  -0.72867  -0.69034  -0.68253  -0.67473
 Alpha  occ. eigenvalues --   -0.65860  -0.64999  -0.64594  -0.63170  -0.62597
 Alpha  occ. eigenvalues --   -0.61537  -0.60774  -0.60063  -0.58424  -0.57994
 Alpha  occ. eigenvalues --   -0.57160  -0.56610  -0.56337  -0.56271  -0.55642
 Alpha  occ. eigenvalues --   -0.55416  -0.54869  -0.54468  -0.53156  -0.52454
 Alpha  occ. eigenvalues --   -0.52354  -0.51653  -0.49628  -0.48701  -0.43335
 Alpha  occ. eigenvalues --   -0.42991  -0.42669  -0.40662  -0.40385  -0.39771
 Alpha  occ. eigenvalues --   -0.38455  -0.38330
 Alpha virt. eigenvalues --    0.17898   0.18390   0.19382   0.20016   0.20637
 Alpha virt. eigenvalues --    0.21251   0.23995   0.25656   0.26022   0.26851
 Alpha virt. eigenvalues --    0.27915   0.28414   0.29281   0.29330   0.30040
 Alpha virt. eigenvalues --    0.30813   0.31017   0.31233   0.31686   0.32022
 Alpha virt. eigenvalues --    0.32944   0.33373   0.33498   0.34421   0.35109
 Alpha virt. eigenvalues --    0.35797   0.36469   0.36995   0.38868   0.39673
 Alpha virt. eigenvalues --    0.40235   0.42302   0.42975   0.43394   0.45826
 Alpha virt. eigenvalues --    0.48188   0.48953   0.52392   0.52995   0.53539
 Alpha virt. eigenvalues --    0.54167   0.59421   0.60787   0.61442   0.66616
 Alpha virt. eigenvalues --    0.70187   0.71164   0.71463   0.72610   0.74189
 Alpha virt. eigenvalues --    0.74620   0.75377   0.75727   0.76158   0.77055
 Alpha virt. eigenvalues --    0.77102   0.77883   0.78320   0.79737   0.81569
 Alpha virt. eigenvalues --    0.82612   0.83511   0.83764   0.86477   0.88167
 Alpha virt. eigenvalues --    0.88908   0.90605   0.91842   0.92428   0.93420
 Alpha virt. eigenvalues --    0.93772   0.93978   0.95803   0.96792   0.97772
 Alpha virt. eigenvalues --    0.98856   0.99515   0.99846   1.00285   1.01053
 Alpha virt. eigenvalues --    1.01997   1.02623   1.04733   1.06016   1.09049
 Alpha virt. eigenvalues --    1.09566   1.09942   1.10210   1.10713   1.11791
 Alpha virt. eigenvalues --    1.12291   1.13225   1.14224   1.14292   1.14740
 Alpha virt. eigenvalues --    1.15282   1.15648   1.16086   1.16228   1.17414
 Alpha virt. eigenvalues --    1.17551   1.18290   1.18832   1.19866   1.20585
 Alpha virt. eigenvalues --    1.21103   1.21490   1.22075   1.22439   1.22847
 Alpha virt. eigenvalues --    1.23378   1.24975   1.26355   1.27427   1.29779
 Alpha virt. eigenvalues --    1.32334   1.33695   1.34958   1.36038   1.36478
 Alpha virt. eigenvalues --    1.37379   1.38598   1.40035   1.42923   1.44430
 Alpha virt. eigenvalues --    1.46593   1.47653   1.50638   1.51695   1.53318
 Alpha virt. eigenvalues --    1.54840   1.56099   1.56757   1.60396   1.61167
 Alpha virt. eigenvalues --    1.61878   1.63201   1.63720   1.65092   1.66834
 Alpha virt. eigenvalues --    1.68825   1.70990   1.72553   1.74019   1.74323
 Alpha virt. eigenvalues --    1.76451   1.77528   1.79599   1.80137   1.88606
 Alpha virt. eigenvalues --    1.91186   1.93445   1.95848   1.97808   1.99047
 Alpha virt. eigenvalues --    1.99880   2.02079   2.03901   2.04456   2.05853
 Alpha virt. eigenvalues --    2.06180   2.09164   2.09483   2.11010   2.12918
 Alpha virt. eigenvalues --    2.13193   2.14044   2.14272   2.14728   2.15485
 Alpha virt. eigenvalues --    2.16071   2.16352   2.17641   2.18570   2.20213
 Alpha virt. eigenvalues --    2.22043   2.22387   2.23968   2.25922   2.26560
 Alpha virt. eigenvalues --    2.27128   2.28737   2.29338   2.31254   2.33173
 Alpha virt. eigenvalues --    2.34066   2.36080   2.36651   2.37760   2.39527
 Alpha virt. eigenvalues --    2.40692   2.40752   2.42253   2.45826   2.46843
 Alpha virt. eigenvalues --    2.48352   2.50546   2.52076   2.54463   2.57263
 Alpha virt. eigenvalues --    2.57815   2.59051   2.61052   2.61535   2.62547
 Alpha virt. eigenvalues --    2.63289   2.63745   2.64692   2.66191   2.66956
 Alpha virt. eigenvalues --    2.68301   2.71013   2.72911   2.74777   2.77261
 Alpha virt. eigenvalues --    2.77939   2.79174   2.80918   2.82199   2.84855
 Alpha virt. eigenvalues --    2.88472   2.89384   2.92567   2.94321   2.96803
 Alpha virt. eigenvalues --    2.99190   3.00162   3.00668   3.03366   3.06346
 Alpha virt. eigenvalues --    3.08018   3.08995   3.11971   3.16719   3.17977
 Alpha virt. eigenvalues --    3.24871   3.27162   3.30760   3.31954   3.34633
 Alpha virt. eigenvalues --    3.37172   3.39303   3.40867   3.52321   3.56340
 Alpha virt. eigenvalues --    3.61405   3.62579   4.39856   4.43859   4.45399
 Alpha virt. eigenvalues --    4.46558   4.50128   4.50653   4.53692   4.63037
 Alpha virt. eigenvalues --    4.64233   4.64637   4.66056   4.72093   4.73543
 Alpha virt. eigenvalues --    4.84683   4.86206   4.88107   4.90264   5.01682
 Alpha virt. eigenvalues --    5.06493   5.15660
          Condensed to atoms (all electrons):
              1          2          3          4          5          6
     1  H    0.458954   0.385653  -0.018821  -0.018777  -0.030788   0.003532
     2  C    0.385653   5.244838   0.374611   0.374875   0.378128  -0.067243
     3  H   -0.018821   0.374611   0.510832  -0.023643  -0.034495   0.001267
     4  H   -0.018777   0.374875  -0.023643   0.511940  -0.035410   0.001178
     5  C   -0.030788   0.378128  -0.034495  -0.035410   4.185627   0.587182
     6  O    0.003532  -0.067243   0.001267   0.001178   0.587182   8.210870
     7  N    0.003857  -0.119942   0.003489   0.003714   0.246973  -0.107597
     8  H   -0.000018  -0.001187   0.000640   0.000477  -0.017338   0.002015
     9  C   -0.000076   0.004567  -0.000243  -0.000089  -0.029911   0.014474
    10  H    0.000002  -0.000015  -0.000004  -0.000002  -0.001851   0.002982
    11  C    0.000006  -0.000505   0.000008   0.000029  -0.003734  -0.015873
    12  H    0.000000  -0.000040   0.000000   0.000002  -0.000047  -0.000048
    13  H    0.000000   0.000007   0.000000  -0.000001   0.000279   0.000274
    14  H    0.000001   0.000304  -0.000005  -0.000025   0.000522   0.011100
    15  C    0.000000   0.000009  -0.000010  -0.000006   0.004080   0.000549
    16  O    0.000000  -0.000040  -0.000001  -0.000001   0.000273  -0.000003
    17  N    0.000000   0.000000   0.000000   0.000000  -0.000087  -0.000002
    18  H    0.000000   0.000000   0.000000   0.000000   0.000000   0.000001
    19  C    0.000000   0.000000   0.000000   0.000000   0.000001   0.000000
    20  H    0.000000   0.000000   0.000000   0.000000   0.000000   0.000000
    21  C    0.000000   0.000000   0.000000   0.000000   0.000000   0.000000
    22  H    0.000000   0.000000   0.000000   0.000000   0.000000   0.000000
    23  H    0.000000   0.000000   0.000000   0.000000   0.000000   0.000000
    24  H    0.000000   0.000000   0.000000   0.000000   0.000000   0.000000
    25  C    0.000000   0.000000   0.000000   0.000000   0.000000   0.000000
    26  O    0.000000   0.000000   0.000000   0.000000   0.000000   0.000000
    27  N    0.000000   0.000000   0.000000   0.000000   0.000000   0.000000
    28  H    0.000000   0.000000   0.000000   0.000000   0.000000   0.000000
    29  C    0.000000   0.000000   0.000000   0.000000   0.000000   0.000000
    30  H    0.000000   0.000000   0.000000   0.000000   0.000000   0.000000
    31  C    0.000000   0.000000   0.000000   0.000000   0.000000   0.000000
    32  H    0.000000   0.000000   0.000000   0.000000   0.000000   0.000000
    33  H    0.000000   0.000000   0.000000   0.000000   0.000000   0.000000
    34  H    0.000000   0.000000   0.000000   0.000000   0.000000   0.000000
    35  C    0.000000   0.000000   0.000000   0.000000   0.000000   0.000000
    36  O    0.000000   0.000000   0.000000   0.000000   0.000000   0.000000
    37  N    0.000000   0.000000   0.000000   0.000000   0.000000   0.000000
    38  H    0.000000   0.000000   0.000000   0.000000   0.000000   0.000000
    39  C    0.000000   0.000000   0.000000   0.000000   0.000000   0.000000
    40  H    0.000000   0.000000   0.000000   0.000000   0.000000   0.000000
    41  H    0.000000   0.000000   0.000000   0.000000   0.000000   0.000000
    42  H    0.000000   0.000000   0.000000   0.000000   0.000000   0.000000
              7          8          9         10         11         12
     1  H    0.003857  -0.000018  -0.000076   0.000002   0.000006   0.000000
     2  C   -0.119942  -0.001187   0.004567  -0.000015  -0.000505  -0.000040
     3  H    0.003489   0.000640  -0.000243  -0.000004   0.000008   0.000000
     4  H    0.003714   0.000477  -0.000089  -0.000002   0.000029   0.000002
     5  C    0.246973  -0.017338  -0.029911  -0.001851  -0.003734  -0.000047
     6  O   -0.107597   0.002015   0.014474   0.002982  -0.015873  -0.000048
     7  N    7.417461   0.311597   0.197997  -0.041417  -0.062629   0.001582
     8  H    0.311597   0.287658  -0.026711   0.002365   0.002992   0.000229
     9  C    0.197997  -0.026711   5.025514   0.404619   0.328045  -0.041283
    10  H   -0.041417   0.002365   0.404619   0.503257  -0.045813   0.004245
    11  C   -0.062629   0.002992   0.328045  -0.045813   5.237097   0.384292
    12  H    0.001582   0.000229  -0.041283   0.004245   0.384292   0.490899
    13  H    0.004980  -0.000080  -0.043984   0.000222   0.377522  -0.023662
    14  H   -0.005636  -0.000196  -0.026107  -0.003998   0.386239  -0.018119
    15  C   -0.037550  -0.005708   0.384862  -0.039139  -0.065238  -0.002315
    16  O   -0.006253   0.020004  -0.074774   0.000995  -0.000126   0.000617
    17  N    0.002779   0.000736  -0.116095   0.002170   0.002057  -0.000163
    18  H    0.000031  -0.000019   0.000001   0.000617   0.000574   0.000001
    19  C   -0.000048  -0.000023   0.003980  -0.000264   0.000176  -0.000080
    20  H   -0.000002  -0.000001  -0.000040   0.000003  -0.000009  -0.000001
    21  C    0.000000   0.000000  -0.000051  -0.000004  -0.000019   0.000001
    22  H    0.000000   0.000000  -0.000010   0.000001  -0.000006  -0.000001
    23  H    0.000000   0.000000   0.000001   0.000000   0.000000   0.000000
    24  H    0.000000   0.000000  -0.000002   0.000000   0.000000   0.000000
    25  C    0.000000   0.000000  -0.000072   0.000002  -0.000127   0.000050
    26  O    0.000000   0.000000  -0.000005   0.000000   0.000000   0.000000
    27  N    0.000003   0.000004  -0.000406  -0.000003   0.000126   0.000094
    28  H    0.000007   0.000002  -0.000778   0.000015   0.000485   0.000761
    29  C    0.000000   0.000000   0.000007   0.000000   0.000009  -0.000061
    30  H    0.000000   0.000000   0.000002   0.000000   0.000000  -0.000012
    31  C    0.000000   0.000000   0.000000   0.000000   0.000000   0.000002
    32  H    0.000000   0.000000   0.000000   0.000000   0.000000   0.000000
    33  H    0.000000   0.000000   0.000000   0.000000   0.000000   0.000000
    34  H    0.000000   0.000000   0.000000   0.000000   0.000000   0.000000
    35  C    0.000000   0.000000  -0.000004   0.000000   0.000004   0.000184
    36  O    0.000000   0.000000   0.000016   0.000000  -0.000915   0.003576
    37  N    0.000000   0.000000   0.000000   0.000000   0.000000   0.000001
    38  H    0.000000   0.000000   0.000000   0.000000   0.000000   0.000000
    39  C    0.000000   0.000000   0.000000   0.000000   0.000000   0.000001
    40  H    0.000000   0.000000   0.000000   0.000000   0.000000   0.000000
    41  H    0.000000   0.000000   0.000000   0.000000   0.000000   0.000000
    42  H    0.000000   0.000000   0.000000   0.000000   0.000000   0.000000
             13         14         15         16         17         18
     1  H    0.000000   0.000001   0.000000   0.000000   0.000000   0.000000
     2  C    0.000007   0.000304   0.000009  -0.000040   0.000000   0.000000
     3  H    0.000000  -0.000005  -0.000010  -0.000001   0.000000   0.000000
     4  H   -0.000001  -0.000025  -0.000006  -0.000001   0.000000   0.000000
     5  C    0.000279   0.000522   0.004080   0.000273  -0.000087   0.000000
     6  O    0.000274   0.011100   0.000549  -0.000003  -0.000002   0.000001
     7  N    0.004980  -0.005636  -0.037550  -0.006253   0.002779   0.000031
     8  H   -0.000080  -0.000196  -0.005708   0.020004   0.000736  -0.000019
     9  C   -0.043984  -0.026107   0.384862  -0.074774  -0.116095   0.000001
    10  H    0.000222  -0.003998  -0.039139   0.000995   0.002170   0.000617
    11  C    0.377522   0.386239  -0.065238  -0.000126   0.002057   0.000574
    12  H   -0.023662  -0.018119  -0.002315   0.000617  -0.000163   0.000001
    13  H    0.574331  -0.019662  -0.007413   0.000027   0.000363   0.003335
    14  H   -0.019662   0.422319   0.004085  -0.000059   0.000042  -0.000091
    15  C   -0.007413   0.004085   4.173527   0.589264   0.259012  -0.019723
    16  O    0.000027  -0.000059   0.589264   8.202558  -0.103198   0.002314
    17  N    0.000363   0.000042   0.259012  -0.103198   7.495680   0.317492
    18  H    0.003335  -0.000091  -0.019723   0.002314   0.317492   0.310292
    19  C    0.000372   0.000000  -0.031320   0.008956   0.139012  -0.022012
    20  H    0.000001   0.000000  -0.001674   0.002566  -0.042263   0.001358
    21  C   -0.000023   0.000000   0.003772   0.000343  -0.051715  -0.004431
    22  H    0.000029   0.000000  -0.000217  -0.000005  -0.000820   0.001444
    23  H    0.000000   0.000000  -0.000012   0.000002   0.003820   0.000026
    24  H   -0.000006   0.000000  -0.000189  -0.000002  -0.001789   0.001942
    25  C   -0.000077   0.000000  -0.005546   0.005088  -0.058787   0.003103
    26  O    0.000000   0.000000  -0.000258  -0.000656   0.002448  -0.000048
    27  N   -0.000017   0.000002   0.002800  -0.002636  -0.004598  -0.000395
    28  H    0.000140   0.000017  -0.000793  -0.000903   0.009380  -0.000380
    29  C    0.000003   0.000000   0.000001   0.000006  -0.000135   0.000016
    30  H    0.000000   0.000000  -0.000022   0.000168  -0.000043   0.000000
    31  C    0.000000   0.000000   0.000006   0.000002  -0.000003   0.000000
    32  H    0.000000   0.000000   0.000000   0.000000  -0.000001   0.000000
    33  H    0.000000   0.000000   0.000000   0.000000   0.000000   0.000000
    34  H    0.000000   0.000000   0.000000   0.000000  -0.000006   0.000000
    35  C   -0.000003   0.000000  -0.000033  -0.000020  -0.000005   0.000001
    36  O    0.000000   0.000008  -0.000017   0.000001  -0.000025  -0.000001
    37  N    0.000000   0.000000   0.000000   0.000000   0.000000   0.000000
    38  H    0.000000   0.000000   0.000000   0.000000   0.000000   0.000000
    39  C    0.000000   0.000000   0.000000   0.000000   0.000000   0.000000
    40  H    0.000000   0.000000   0.000000   0.000000   0.000000   0.000000
    41  H    0.000000   0.000000   0.000000   0.000000   0.000000   0.000000
    42  H    0.000000   0.000000   0.000000   0.000000   0.000000   0.000000
             19         20         21         22         23         24
     1  H    0.000000   0.000000   0.000000   0.000000   0.000000   0.000000
     2  C    0.000000   0.000000   0.000000   0.000000   0.000000   0.000000
     3  H    0.000000   0.000000   0.000000   0.000000   0.000000   0.000000
     4  H    0.000000   0.000000   0.000000   0.000000   0.000000   0.000000
     5  C    0.000001   0.000000   0.000000   0.000000   0.000000   0.000000
     6  O    0.000000   0.000000   0.000000   0.000000   0.000000   0.000000
     7  N   -0.000048  -0.000002   0.000000   0.000000   0.000000   0.000000
     8  H   -0.000023  -0.000001   0.000000   0.000000   0.000000   0.000000
     9  C    0.003980  -0.000040  -0.000051  -0.000010   0.000001  -0.000002
    10  H   -0.000264   0.000003  -0.000004   0.000001   0.000000   0.000000
    11  C    0.000176  -0.000009  -0.000019  -0.000006   0.000000   0.000000
    12  H   -0.000080  -0.000001   0.000001  -0.000001   0.000000   0.000000
    13  H    0.000372   0.000001  -0.000023   0.000029   0.000000  -0.000006
    14  H    0.000000   0.000000   0.000000   0.000000   0.000000   0.000000
    15  C   -0.031320  -0.001674   0.003772  -0.000217  -0.000012  -0.000189
    16  O    0.008956   0.002566   0.000343  -0.000005   0.000002  -0.000002
    17  N    0.139012  -0.042263  -0.051715  -0.000820   0.003820  -0.001789
    18  H   -0.022012   0.001358  -0.004431   0.001444   0.000026   0.001942
    19  C    5.047888   0.413490   0.339085  -0.039959  -0.036419  -0.038877
    20  H    0.413490   0.454871  -0.029904   0.003999  -0.000984  -0.004230
    21  C    0.339085  -0.029904   5.158198   0.385778   0.393267   0.388827
    22  H   -0.039959   0.003999   0.385778   0.527273  -0.019787  -0.026859
    23  H   -0.036419  -0.000984   0.393267  -0.019787   0.460618  -0.019263
    24  H   -0.038877  -0.004230   0.388827  -0.026859  -0.019263   0.512876
    25  C    0.395503  -0.046006  -0.058733  -0.007870  -0.001945   0.005810
    26  O   -0.059536   0.004601  -0.001547   0.000119   0.003071  -0.000071
    27  N   -0.115180   0.003404   0.001756   0.003211   0.000375  -0.000136
    28  H   -0.004576   0.000214   0.000512   0.000629  -0.000035  -0.000030
    29  C    0.004333  -0.000086  -0.000229  -0.000110  -0.000021   0.000004
    30  H    0.000017   0.000009  -0.000004   0.000003  -0.000001   0.000000
    31  C   -0.000615  -0.000002   0.000087  -0.000001   0.000026  -0.000001
    32  H   -0.000044   0.000001   0.000014   0.000058  -0.000004   0.000000
    33  H    0.000008   0.000000  -0.000001   0.000000   0.000000   0.000000
    34  H    0.000252  -0.000002  -0.000033  -0.000004   0.000002   0.000001
    35  C    0.000060  -0.000001  -0.000004  -0.000008   0.000000   0.000000
    36  O   -0.000035   0.000000   0.000001  -0.000004   0.000000   0.000000
    37  N    0.000000   0.000000   0.000000   0.000000   0.000000   0.000000
    38  H    0.000000   0.000000   0.000000   0.000000   0.000000   0.000000
    39  C    0.000000   0.000000   0.000000   0.000000   0.000000   0.000000
    40  H    0.000000   0.000000   0.000000   0.000000   0.000000   0.000000
    41  H    0.000000   0.000000   0.000000   0.000000   0.000000   0.000000
    42  H    0.000000   0.000000   0.000000   0.000000   0.000000   0.000000
             25         26         27         28         29         30
     1  H    0.000000   0.000000   0.000000   0.000000   0.000000   0.000000
     2  C    0.000000   0.000000   0.000000   0.000000   0.000000   0.000000
     3  H    0.000000   0.000000   0.000000   0.000000   0.000000   0.000000
     4  H    0.000000   0.000000   0.000000   0.000000   0.000000   0.000000
     5  C    0.000000   0.000000   0.000000   0.000000   0.000000   0.000000
     6  O    0.000000   0.000000   0.000000   0.000000   0.000000   0.000000
     7  N    0.000000   0.000000   0.000003   0.000007   0.000000   0.000000
     8  H    0.000000   0.000000   0.000004   0.000002   0.000000   0.000000
     9  C   -0.000072  -0.000005  -0.000406  -0.000778   0.000007   0.000002
    10  H    0.000002   0.000000  -0.000003   0.000015   0.000000   0.000000
    11  C   -0.000127   0.000000   0.000126   0.000485   0.000009   0.000000
    12  H    0.000050   0.000000   0.000094   0.000761  -0.000061  -0.000012
    13  H   -0.000077   0.000000  -0.000017   0.000140   0.000003   0.000000
    14  H    0.000000   0.000000   0.000002   0.000017   0.000000   0.000000
    15  C   -0.005546  -0.000258   0.002800  -0.000793   0.000001  -0.000022
    16  O    0.005088  -0.000656  -0.002636  -0.000903   0.000006   0.000168
    17  N   -0.058787   0.002448  -0.004598   0.009380  -0.000135  -0.000043
    18  H    0.003103  -0.000048  -0.000395  -0.000380   0.000016   0.000000
    19  C    0.395503  -0.059536  -0.115180  -0.004576   0.004333   0.000017
    20  H   -0.046006   0.004601   0.003404   0.000214  -0.000086   0.000009
    21  C   -0.058733  -0.001547   0.001756   0.000512  -0.000229  -0.000004
    22  H   -0.007870   0.000119   0.003211   0.000629  -0.000110   0.000003
    23  H   -0.001945   0.003071   0.000375  -0.000035  -0.000021  -0.000001
    24  H    0.005810  -0.000071  -0.000136  -0.000030   0.000004   0.000000
    25  C    4.190250   0.563129   0.259532  -0.016823  -0.033527  -0.001696
    26  O    0.563129   8.241636  -0.104260   0.002132   0.013283   0.002959
    27  N    0.259532  -0.104260   7.427198   0.303298   0.202275  -0.040168
    28  H   -0.016823   0.002132   0.303298   0.282320  -0.027731   0.002587
    29  C   -0.033527   0.013283   0.202275  -0.027731   5.031332   0.403008
    30  H   -0.001696   0.002959  -0.040168   0.002587   0.403008   0.490293
    31  C   -0.003422  -0.015603  -0.063565   0.002560   0.335286  -0.045093
    32  H   -0.000155  -0.000010   0.001982   0.000313  -0.042878   0.004460
    33  H    0.000312   0.000255   0.004948  -0.000065  -0.042267   0.000391
    34  H    0.000691   0.010887  -0.005736  -0.000219  -0.026572  -0.003988
    35  C    0.003639   0.000487  -0.036826  -0.005381   0.378652  -0.036614
    36  O    0.000453  -0.000003  -0.005727   0.020937  -0.078387   0.000945
    37  N   -0.000079  -0.000002   0.002831   0.000695  -0.115694   0.002050
    38  H    0.000000   0.000001   0.000020  -0.000020   0.001158   0.000475
    39  C    0.000001   0.000000  -0.000051  -0.000010   0.003619  -0.000214
    40  H    0.000000   0.000000  -0.000004  -0.000010   0.000579  -0.000017
    41  H    0.000000   0.000000   0.000000   0.000000  -0.000108   0.000010
    42  H    0.000000   0.000000   0.000001   0.000000  -0.000005  -0.000002
             31         32         33         34         35         36
     1  H    0.000000   0.000000   0.000000   0.000000   0.000000   0.000000
     2  C    0.000000   0.000000   0.000000   0.000000   0.000000   0.000000
     3  H    0.000000   0.000000   0.000000   0.000000   0.000000   0.000000
     4  H    0.000000   0.000000   0.000000   0.000000   0.000000   0.000000
     5  C    0.000000   0.000000   0.000000   0.000000   0.000000   0.000000
     6  O    0.000000   0.000000   0.000000   0.000000   0.000000   0.000000
     7  N    0.000000   0.000000   0.000000   0.000000   0.000000   0.000000
     8  H    0.000000   0.000000   0.000000   0.000000   0.000000   0.000000
     9  C    0.000000   0.000000   0.000000   0.000000  -0.000004   0.000016
    10  H    0.000000   0.000000   0.000000   0.000000   0.000000   0.000000
    11  C    0.000000   0.000000   0.000000   0.000000   0.000004  -0.000915
    12  H    0.000002   0.000000   0.000000   0.000000   0.000184   0.003576
    13  H    0.000000   0.000000   0.000000   0.000000  -0.000003   0.000000
    14  H    0.000000   0.000000   0.000000   0.000000   0.000000   0.000008
    15  C    0.000006   0.000000   0.000000   0.000000  -0.000033  -0.000017
    16  O    0.000002   0.000000   0.000000   0.000000  -0.000020   0.000001
    17  N   -0.000003  -0.000001   0.000000  -0.000006  -0.000005  -0.000025
    18  H    0.000000   0.000000   0.000000   0.000000   0.000001  -0.000001
    19  C   -0.000615  -0.000044   0.000008   0.000252   0.000060  -0.000035
    20  H   -0.000002   0.000001   0.000000  -0.000002  -0.000001   0.000000
    21  C    0.000087   0.000014  -0.000001  -0.000033  -0.000004   0.000001
    22  H   -0.000001   0.000058   0.000000  -0.000004  -0.000008  -0.000004
    23  H    0.000026  -0.000004   0.000000   0.000002   0.000000   0.000000
    24  H   -0.000001   0.000000   0.000000   0.000001   0.000000   0.000000
    25  C   -0.003422  -0.000155   0.000312   0.000691   0.003639   0.000453
    26  O   -0.015603  -0.000010   0.000255   0.010887   0.000487  -0.000003
    27  N   -0.063565   0.001982   0.004948  -0.005736  -0.036826  -0.005727
    28  H    0.002560   0.000313  -0.000065  -0.000219  -0.005381   0.020937
    29  C    0.335286  -0.042878  -0.042267  -0.026572   0.378652  -0.078387
    30  H   -0.045093   0.004460   0.000391  -0.003988  -0.036614   0.000945
    31  C    5.208704   0.384811   0.378287   0.387653  -0.062957   0.000110
    32  H    0.384811   0.529016  -0.024038  -0.020808  -0.002835   0.000617
    33  H    0.378287  -0.024038   0.567831  -0.020246  -0.006857   0.000026
    34  H    0.387653  -0.020808  -0.020246   0.427562   0.003937  -0.000064
    35  C   -0.062957  -0.002835  -0.006857   0.003937   4.145834   0.588387
    36  O    0.000110   0.000617   0.000026  -0.000064   0.588387   8.221672
    37  N    0.002246   0.000216   0.000324   0.000087   0.289804  -0.098197
    38  H    0.000043  -0.000005   0.002612  -0.000081  -0.020763   0.002343
    39  C   -0.000076  -0.000043   0.000160   0.000003  -0.025456  -0.004799
    40  H   -0.000049  -0.000002  -0.000008   0.000000  -0.001967   0.009932
    41  H   -0.000004   0.000001   0.000002   0.000000   0.000786   0.000365
    42  H    0.000013   0.000002  -0.000002  -0.000001   0.000904   0.000371
             37         38         39         40         41         42
     1  H    0.000000   0.000000   0.000000   0.000000   0.000000   0.000000
     2  C    0.000000   0.000000   0.000000   0.000000   0.000000   0.000000
     3  H    0.000000   0.000000   0.000000   0.000000   0.000000   0.000000
     4  H    0.000000   0.000000   0.000000   0.000000   0.000000   0.000000
     5  C    0.000000   0.000000   0.000000   0.000000   0.000000   0.000000
     6  O    0.000000   0.000000   0.000000   0.000000   0.000000   0.000000
     7  N    0.000000   0.000000   0.000000   0.000000   0.000000   0.000000
     8  H    0.000000   0.000000   0.000000   0.000000   0.000000   0.000000
     9  C    0.000000   0.000000   0.000000   0.000000   0.000000   0.000000
    10  H    0.000000   0.000000   0.000000   0.000000   0.000000   0.000000
    11  C    0.000000   0.000000   0.000000   0.000000   0.000000   0.000000
    12  H    0.000001   0.000000   0.000001   0.000000   0.000000   0.000000
    13  H    0.000000   0.000000   0.000000   0.000000   0.000000   0.000000
    14  H    0.000000   0.000000   0.000000   0.000000   0.000000   0.000000
    15  C    0.000000   0.000000   0.000000   0.000000   0.000000   0.000000
    16  O    0.000000   0.000000   0.000000   0.000000   0.000000   0.000000
    17  N    0.000000   0.000000   0.000000   0.000000   0.000000   0.000000
    18  H    0.000000   0.000000   0.000000   0.000000   0.000000   0.000000
    19  C    0.000000   0.000000   0.000000   0.000000   0.000000   0.000000
    20  H    0.000000   0.000000   0.000000   0.000000   0.000000   0.000000
    21  C    0.000000   0.000000   0.000000   0.000000   0.000000   0.000000
    22  H    0.000000   0.000000   0.000000   0.000000   0.000000   0.000000
    23  H    0.000000   0.000000   0.000000   0.000000   0.000000   0.000000
    24  H    0.000000   0.000000   0.000000   0.000000   0.000000   0.000000
    25  C   -0.000079   0.000000   0.000001   0.000000   0.000000   0.000000
    26  O   -0.000002   0.000001   0.000000   0.000000   0.000000   0.000000
    27  N    0.002831   0.000020  -0.000051  -0.000004   0.000000   0.000001
    28  H    0.000695  -0.000020  -0.000010  -0.000010   0.000000   0.000000
    29  C   -0.115694   0.001158   0.003619   0.000579  -0.000108  -0.000005
    30  H    0.002050   0.000475  -0.000214  -0.000017   0.000010  -0.000002
    31  C    0.002246   0.000043  -0.000076  -0.000049  -0.000004   0.000013
    32  H    0.000216  -0.000005  -0.000043  -0.000002   0.000001   0.000002
    33  H    0.000324   0.002612   0.000160  -0.000008   0.000002  -0.000002
    34  H    0.000087  -0.000081   0.000003   0.000000   0.000000  -0.000001
    35  C    0.289804  -0.020763  -0.025456  -0.001967   0.000786   0.000904
    36  O   -0.098197   0.002343  -0.004799   0.009932   0.000365   0.000371
    37  N    7.329466   0.322684   0.185753  -0.031810  -0.047003  -0.048090
[...]
    30  H    0.000000   0.000000  -0.000034   0.000047  -0.000045   0.000000
    31  C    0.000000   0.000000   0.000007   0.000001  -0.000004   0.000000
    32  H    0.000000   0.000000   0.000000   0.000000   0.000000   0.000000
    33  H    0.000000   0.000000   0.000000   0.000000   0.000000   0.000000
    34  H    0.000000   0.000000   0.000000   0.000000  -0.000002   0.000000
    35  C   -0.000005   0.000000   0.000134   0.000076  -0.000062  -0.000001
    36  O    0.000013   0.000016   0.000082  -0.000024  -0.000033  -0.000001
    37  N    0.000000   0.000000  -0.000001   0.000000   0.000000   0.000000
    38  H    0.000000   0.000000   0.000000   0.000000   0.000000   0.000000
    39  C    0.000000   0.000000   0.000000   0.000000   0.000000   0.000000
    40  H    0.000000   0.000000   0.000000   0.000000   0.000000   0.000000
    41  H    0.000000   0.000000   0.000000   0.000000   0.000000   0.000000
    42  H    0.000000   0.000000   0.000000   0.000000   0.000000   0.000000
             19         20         21         22         23         24
     1  H    0.000000   0.000000   0.000000   0.000000   0.000000   0.000000
     2  C    0.000000   0.000000   0.000000   0.000000   0.000000   0.000000
     3  H    0.000000   0.000000   0.000000   0.000000   0.000000   0.000000
     4  H    0.000000   0.000000   0.000000   0.000000   0.000000   0.000000
     5  C    0.000001   0.000000   0.000000   0.000000   0.000000   0.000000
     6  O    0.000000   0.000000   0.000000   0.000000   0.000000   0.000000
     7  N   -0.000076   0.000001   0.000000   0.000000   0.000000   0.000000
     8  H   -0.000027   0.000000   0.000000   0.000000   0.000000   0.000000
     9  C    0.003756  -0.000043  -0.000064  -0.000006   0.000002  -0.000010
    10  H   -0.000103  -0.000003  -0.000015   0.000001   0.000000   0.000000
    11  C   -0.000180  -0.000008   0.000000  -0.000002   0.000000   0.000001
    12  H   -0.000010   0.000000   0.000000   0.000000   0.000000   0.000000
    13  H    0.000049   0.000002  -0.000007   0.000009   0.000000  -0.000001
    14  H    0.000001   0.000000   0.000000   0.000000   0.000000   0.000000
    15  C   -0.028855  -0.002129   0.003464  -0.000195  -0.000013  -0.000171
    16  O    0.008471   0.002689   0.000322  -0.000005   0.000003  -0.000002
    17  N    0.133863  -0.044804  -0.053515  -0.001076   0.003946  -0.001984
    18  H   -0.022094   0.001371  -0.004125   0.001228   0.000040   0.001844
    19  C    5.046766   0.415119   0.341342  -0.036918  -0.036387  -0.037512
    20  H    0.415119   0.469293  -0.029206   0.003872  -0.000874  -0.004277
    21  C    0.341342  -0.029206   5.145246   0.386236   0.393783   0.390344
    22  H   -0.036918   0.003872   0.386236   0.523895  -0.020656  -0.028309
    23  H   -0.036387  -0.000874   0.393783  -0.020656   0.463770  -0.020846
    24  H   -0.037512  -0.004277   0.390344  -0.028309  -0.020846   0.516113
    25  C    0.394812  -0.053155  -0.048465  -0.007290  -0.002174   0.005226
    26  O   -0.066479   0.005759  -0.002302   0.000138   0.003873  -0.000069
    27  N   -0.115150   0.004100   0.001980   0.002682   0.000312  -0.000133
    28  H   -0.004416   0.000229   0.000324   0.000285  -0.000022  -0.000018
    29  C    0.004485  -0.000093  -0.000257  -0.000080  -0.000014   0.000004
    30  H    0.000340   0.000002  -0.000008   0.000001  -0.000003   0.000000
    31  C   -0.000342  -0.000001   0.000051   0.000007   0.000007  -0.000001
    32  H   -0.000004   0.000000  -0.000001   0.000011   0.000000   0.000000
    33  H    0.000004   0.000000   0.000000   0.000000   0.000000   0.000000
    34  H    0.000045   0.000000  -0.000008   0.000005   0.000001   0.000000
    35  C    0.000070  -0.000001  -0.000001   0.000000   0.000000   0.000000
    36  O   -0.000018   0.000000   0.000000  -0.000001   0.000000   0.000000
    37  N    0.000000   0.000000   0.000000   0.000000   0.000000   0.000000
    38  H    0.000000   0.000000   0.000000   0.000000   0.000000   0.000000
    39  C    0.000000   0.000000   0.000000   0.000000   0.000000   0.000000
    40  H    0.000000   0.000000   0.000000   0.000000   0.000000   0.000000
    41  H    0.000000   0.000000   0.000000   0.000000   0.000000   0.000000
    42  H    0.000000   0.000000   0.000000   0.000000   0.000000   0.000000
             25         26         27         28         29         30
     1  H    0.000000   0.000000   0.000000   0.000000   0.000000   0.000000
     2  C    0.000000   0.000000   0.000000   0.000000   0.000000   0.000000
     3  H    0.000000   0.000000   0.000000   0.000000   0.000000   0.000000
     4  H    0.000000   0.000000   0.000000   0.000000   0.000000   0.000000
     5  C    0.000000   0.000000   0.000000   0.000000   0.000000   0.000000
     6  O    0.000000   0.000000   0.000000   0.000000   0.000000   0.000000
     7  N   -0.000001   0.000000   0.000002   0.000009   0.000000   0.000000
     8  H   -0.000002   0.000000   0.000002   0.000002   0.000000   0.000000
     9  C   -0.000010  -0.000002  -0.000244  -0.000608   0.000008   0.000000
    10  H   -0.000002   0.000000  -0.000001   0.000010   0.000000   0.000000
    11  C   -0.000018   0.000000   0.000064   0.000450  -0.000005   0.000000
    12  H    0.000002   0.000000  -0.000007   0.000242  -0.000011  -0.000003
    13  H   -0.000026   0.000000  -0.000016   0.000291   0.000002   0.000000
    14  H    0.000000   0.000000   0.000001   0.000005   0.000000   0.000000
    15  C   -0.003458  -0.000147   0.004181   0.000496  -0.000210  -0.000034
    16  O    0.004653  -0.000400  -0.002364  -0.000944  -0.000051   0.000047
    17  N   -0.051543   0.002570   0.000996   0.008610   0.000024  -0.000045
    18  H    0.002273  -0.000045  -0.000319  -0.000154   0.000014   0.000000
    19  C    0.394812  -0.066479  -0.115150  -0.004416   0.004485   0.000340
    20  H   -0.053155   0.005759   0.004100   0.000229  -0.000093   0.000002
    21  C   -0.048465  -0.002302   0.001980   0.000324  -0.000257  -0.000008
    22  H   -0.007290   0.000138   0.002682   0.000285  -0.000080   0.000001
    23  H   -0.002174   0.003873   0.000312  -0.000022  -0.000014  -0.000003
    24  H    0.005226  -0.000069  -0.000133  -0.000018   0.000004   0.000000
    25  C    4.162415   0.582049   0.265912  -0.015458  -0.029476  -0.001002
    26  O    0.582049   8.196449  -0.104213   0.001994   0.008417   0.007186
    27  N    0.265912  -0.104213   7.413316   0.306088   0.202905  -0.043365
    28  H   -0.015458   0.001994   0.306088   0.281330  -0.029442   0.002760
    29  C   -0.029476   0.008417   0.202905  -0.029442   5.042812   0.410481
    30  H   -0.001002   0.007186  -0.043365   0.002760   0.410481   0.480132
    31  C   -0.001602  -0.003240  -0.064281   0.002353   0.336872  -0.041216
    32  H    0.000177  -0.000015   0.000300   0.000465  -0.037789   0.003941
    33  H    0.000020   0.000002   0.004616  -0.000054  -0.037749   0.000193
    34  H    0.001772   0.003971  -0.005182  -0.000176  -0.030015  -0.003541
    35  C    0.003177   0.000483  -0.041679  -0.007097   0.379479  -0.041637
    36  O    0.000489  -0.000004  -0.009270   0.022945  -0.074487   0.001682
    37  N   -0.000071  -0.000001   0.002672   0.001017  -0.115263   0.003514
    38  H   -0.000009  -0.000001   0.000003  -0.000029   0.000622   0.001376
    39  C    0.000001   0.000000  -0.000084  -0.000031   0.004337  -0.000097
    40  H    0.000000   0.000000  -0.000003  -0.000003   0.000152  -0.000002
    41  H    0.000000   0.000000   0.000006   0.000001  -0.000166  -0.000002
    42  H    0.000000   0.000000   0.000000   0.000000   0.000001  -0.000011
             31         32         33         34         35         36
     1  H    0.000000   0.000000   0.000000   0.000000   0.000000   0.000000
     2  C    0.000000   0.000000   0.000000   0.000000   0.000000   0.000000
     3  H    0.000000   0.000000   0.000000   0.000000   0.000000   0.000000
     4  H    0.000000   0.000000   0.000000   0.000000   0.000000   0.000000
     5  C    0.000000   0.000000   0.000000   0.000000   0.000000   0.000000
     6  O    0.000000   0.000000   0.000000   0.000000   0.000000   0.000000
     7  N    0.000000   0.000000   0.000000   0.000000   0.000000   0.000000
     8  H    0.000000   0.000000   0.000000   0.000000   0.000000   0.000000
     9  C    0.000000   0.000000   0.000000   0.000000  -0.000007  -0.000029
    10  H    0.000000   0.000000   0.000000   0.000000   0.000000   0.000000
    11  C    0.000000   0.000000   0.000000   0.000000   0.000010  -0.000939
    12  H    0.000001   0.000000   0.000000   0.000000   0.000140   0.003717
    13  H    0.000000   0.000000   0.000000   0.000000  -0.000005   0.000013
    14  H    0.000000   0.000000   0.000000   0.000000   0.000000   0.000016
    15  C    0.000007   0.000000   0.000000   0.000000   0.000134   0.000082
    16  O    0.000001   0.000000   0.000000   0.000000   0.000076  -0.000024
    17  N   -0.000004   0.000000   0.000000  -0.000002  -0.000062  -0.000033
    18  H    0.000000   0.000000   0.000000   0.000000  -0.000001  -0.000001
    19  C   -0.000342  -0.000004   0.000004   0.000045   0.000070  -0.000018
    20  H   -0.000001   0.000000   0.000000   0.000000  -0.000001   0.000000
    21  C    0.000051  -0.000001   0.000000  -0.000008  -0.000001   0.000000
    22  H    0.000007   0.000011   0.000000   0.000005   0.000000  -0.000001
    23  H    0.000007   0.000000   0.000000   0.000001   0.000000   0.000000
    24  H   -0.000001   0.000000   0.000000   0.000000   0.000000   0.000000
    25  C   -0.001602   0.000177   0.000020   0.001772   0.003177   0.000489
    26  O   -0.003240  -0.000015   0.000002   0.003971   0.000483  -0.000004
    27  N   -0.064281   0.000300   0.004616  -0.005182  -0.041679  -0.009270
    28  H    0.002353   0.000465  -0.000054  -0.000176  -0.007097   0.022945
    29  C    0.336872  -0.037789  -0.037749  -0.030015   0.379479  -0.074487
    30  H   -0.041216   0.003941   0.000193  -0.003541  -0.041637   0.001682
    31  C    5.142224   0.388288   0.381576   0.391692  -0.053364  -0.000772
    32  H    0.388288   0.518138  -0.024785  -0.023474  -0.004043   0.001458
    33  H    0.381576  -0.024785   0.540768  -0.023106  -0.002960   0.000021
    34  H    0.391692  -0.023474  -0.023106   0.477360   0.004252  -0.000073
    35  C   -0.053364  -0.004043  -0.002960   0.004252   4.163243   0.589642
    36  O   -0.000772   0.001458   0.000021  -0.000073   0.589642   8.190973
    37  N    0.001931   0.000411   0.002245  -0.000053   0.284827  -0.103748
    38  H    0.000347   0.000009   0.000481  -0.000038  -0.022356   0.002506
    39  C   -0.000264  -0.000009  -0.000003   0.000003  -0.028780   0.008233
    40  H   -0.000001   0.000002  -0.000011   0.000000  -0.003027   0.003309
    41  H   -0.000005   0.000000   0.000003   0.000000  -0.003678   0.001202
    42  H    0.000004  -0.000001  -0.000007   0.000000   0.004479   0.000355
             37         38         39         40         41         42
     1  H    0.000000   0.000000   0.000000   0.000000   0.000000   0.000000
     2  C    0.000000   0.000000   0.000000   0.000000   0.000000   0.000000
     3  H    0.000000   0.000000   0.000000   0.000000   0.000000   0.000000
     4  H    0.000000   0.000000   0.000000   0.000000   0.000000   0.000000
     5  C    0.000000   0.000000   0.000000   0.000000   0.000000   0.000000
     6  O    0.000000   0.000000   0.000000   0.000000   0.000000   0.000000
     7  N    0.000000   0.000000   0.000000   0.000000   0.000000   0.000000
     8  H    0.000000   0.000000   0.000000   0.000000   0.000000   0.000000
     9  C    0.000000   0.000000   0.000000   0.000000   0.000000   0.000000
    10  H    0.000000   0.000000   0.000000   0.000000   0.000000   0.000000
    11  C    0.000002   0.000000  -0.000001   0.000000  -0.000001   0.000000
    12  H   -0.000014   0.000000   0.000009  -0.000003   0.000013   0.000000
    13  H    0.000000   0.000000   0.000000   0.000000   0.000000   0.000000
    14  H    0.000000   0.000000   0.000000   0.000000   0.000000   0.000000
    15  C   -0.000001   0.000000   0.000000   0.000000   0.000000   0.000000
    16  O    0.000000   0.000000   0.000000   0.000000   0.000000   0.000000
    17  N    0.000000   0.000000   0.000000   0.000000   0.000000   0.000000
    18  H    0.000000   0.000000   0.000000   0.000000   0.000000   0.000000
    19  C    0.000000   0.000000   0.000000   0.000000   0.000000   0.000000
    20  H    0.000000   0.000000   0.000000   0.000000   0.000000   0.000000
    21  C    0.000000   0.000000   0.000000   0.000000   0.000000   0.000000
    22  H    0.000000   0.000000   0.000000   0.000000   0.000000   0.000000
    23  H    0.000000   0.000000   0.000000   0.000000   0.000000   0.000000
    24  H    0.000000   0.000000   0.000000   0.000000   0.000000   0.000000
    25  C   -0.000071  -0.000009   0.000001   0.000000   0.000000   0.000000
    26  O   -0.000001  -0.000001   0.000000   0.000000   0.000000   0.000000
    27  N    0.002672   0.000003  -0.000084  -0.000003   0.000006   0.000000
    28  H    0.001017  -0.000029  -0.000031  -0.000003   0.000001   0.000000
    29  C   -0.115263   0.000622   0.004337   0.000152  -0.000166   0.000001
    30  H    0.003514   0.001376  -0.000097  -0.000002  -0.000002  -0.000011
    31  C    0.001931   0.000347  -0.000264  -0.000001  -0.000005   0.000004
    32  H    0.000411   0.000009  -0.000009   0.000002   0.000000  -0.000001
    33  H    0.002245   0.000481  -0.000003  -0.000011   0.000003  -0.000007
    34  H   -0.000053  -0.000038   0.000003   0.000000   0.000000   0.000000
    35  C    0.284827  -0.022356  -0.028780  -0.003027  -0.003678   0.004479
    36  O   -0.103748   0.002506   0.008233   0.003309   0.001202   0.000355
    37  N    7.318207   0.328493   0.195652  -0.040072  -0.045931  -0.037410
    38  H    0.328493   0.320782  -0.022335   0.002562   0.001233  -0.004462
    39  C    0.195652  -0.022335   4.908900   0.403992   0.406257   0.397736
    40  H   -0.040072   0.002562   0.403992   0.486879  -0.032659  -0.024629
    41  H   -0.045931   0.001233   0.406257  -0.032659   0.521221  -0.031246
    42  H   -0.037410  -0.004462   0.397736  -0.024629  -0.031246   0.522509
 Mulliken atomic charges:
              1
     1  H    0.202806
     2  C   -0.575180
     3  H    0.207502
     4  H    0.173087
     5  C    0.755401
     6  O   -0.622497
     7  N   -0.822725
     8  H    0.419504
     9  C   -0.031923
    10  H    0.216110
    11  C   -0.497617
    12  H    0.205472
    13  H    0.151932
    14  H    0.211150
    15  C    0.785579
    16  O   -0.623565
    17  N   -0.856653
    18  H    0.396302
    19  C   -0.000553
    20  H    0.232160
    21  C   -0.525118
    22  H    0.176169
    23  H    0.215254
    24  H    0.179804
    25  C    0.790786
    26  O   -0.635970
    27  N   -0.823823
    28  H    0.428548
    29  C   -0.035509
    30  H    0.219310
    31  C   -0.480266
    32  H    0.176921
    33  H    0.158747
    34  H    0.206569
    35  C    0.778686
    36  O   -0.637242
    37  N   -0.796408
    38  H    0.390816
    39  C   -0.273514
    40  H    0.203516
    41  H    0.183752
    42  H    0.172680
 Sum of Mulliken atomic charges =   0.00000
 Mulliken charges with hydrogens summed into heavy atoms:
              1
     2  C    0.008215
     5  C    0.755401
     6  O   -0.622497
     7  N   -0.403221
     9  C    0.184187
    11  C    0.070937
    15  C    0.785579
    16  O   -0.623565
    17  N   -0.460351
    19  C    0.231608
    21  C    0.046109
    25  C    0.790786
    26  O   -0.635970
    27  N   -0.395275
    29  C    0.183802
    31  C    0.061970
    35  C    0.778686
    36  O   -0.637242
    37  N   -0.405592
    39  C    0.286434
 Sum of Mulliken charges with hydrogens summed into heavy atoms =   0.00000
 Electronic spatial extent (au):  <R**2>=           7427.0133
 Charge=              0.0000 electrons
 Dipole moment (field-independent basis, Debye):
    X=             -2.9229    Y=              1.5489    Z=              0.1382  Tot=              3.3108
 Quadrupole moment (field-independent basis, Debye-Ang):
   XX=           -127.0871   YY=           -105.0705   ZZ=           -125.6603
   XY=            -12.5935   XZ=            -11.0538   YZ=            -17.5365
 Traceless Quadrupole moment (field-independent basis, Debye-Ang):
   XX=             -7.8145   YY=             14.2022   ZZ=             -6.3877
   XY=            -12.5935   XZ=            -11.0538   YZ=            -17.5365
 Octapole moment (field-independent basis, Debye-Ang**2):
  XXX=           -139.1768  YYY=             25.8036  ZZZ=              4.2162  XYY=             -4.3735
  XXY=             65.0024  XXZ=            -79.1647  XZZ=              6.6309  YZZ=              9.9638
  YYZ=              4.5871  XYZ=             17.4592
 Hexadecapole moment (field-independent basis, Debye-Ang**3):
 XXXX=          -6629.4625 YYYY=          -2543.1192 ZZZZ=           -672.3005 XXXY=           -116.4890
 XXXZ=           -347.6963 YYYX=           -144.6992 YYYZ=            -56.7345 ZZZX=             -0.6957
 ZZZY=            -28.1268 XXYY=          -1376.2934 XXZZ=          -1173.0367 YYZZ=           -592.9724
 XXYZ=           -140.9326 YYXZ=              4.1619 ZZXY=            -42.5172
 N-N= 1.671725636764D+03 E-N=-5.651524232532D+03  KE= 9.830997522973D+02
 1\1\GINC-NODE006\FOpt\RHF\6-31G(d)\C12H22N4O4\MANAGER\27-Dec-2016\0\\#
  HF/6-31G* Opt=(ModRedundant, maxcycles=1000, calcfc) geom=nocrowd\\Ph
 i Psi fixed scan\\0,1\H,8.2715143271,1.2998435987,-2.9824441239\C,7.54
 05561149,2.0240073892,-3.3256043299\H,6.8142849162,1.4998446412,-3.932
 3697068\H,8.0453844925,2.7704449626,-3.9267091094\C,6.8353527075,2.604
 6329767,-2.1191320527\O,6.0242183408,1.9701746813,-1.4959160486\N,7.19
 19013026,3.8595828449,-1.7780085207\H,7.8205816438,4.3879096849,-2.339
 9623416\C,6.5929990187,4.5489089144,-0.6621779118\H,5.5374783101,4.305
 1046209,-0.6396794819\C,7.2250585216,4.1453534267,0.6777413923\H,8.270
 3828097,4.4285883521,0.7133716165\H,6.717133941,4.6162066624,1.5135780
 543\H,7.1417391447,3.0731548655,0.7942848954\C,6.7557063083,6.04544542
 14,-0.9103377457\O,7.5399108583,6.4796377757,-1.7115030109\N,5.9810937
 799,6.8527778379,-0.1507262858\H,5.2980299307,6.4415255726,0.443994773
 3\C,5.9989864335,8.2990131656,-0.2845285152\H,5.7675018703,8.566324461
 7,-1.3068521168\C,4.955920659,8.9141622025,0.6478866109\H,5.1693381535
 ,8.6759778704,1.6853651935\H,4.9576955808,9.990166636,0.5356051934\H,3
 .9644004376,8.5468196248,0.403541287\C,7.3606388482,8.9441805433,-0.02
 22128346\O,7.6148585399,10.0052989988,-0.5281289986\N,8.176147472,8.32
 48177084,0.8477674818\H,7.9684894368,7.4054448427,1.1658873831\C,9.520
 4021132,8.7901876841,1.0879074063\H,9.8921871135,9.2369890581,0.174166
 3351\C,9.573021164,9.8341219053,2.2104274195\H,9.2141733969,9.40665854
 2,3.1403519079\H,10.5831653531,10.1987274085,2.3655645851\H,8.94256999
 11,10.6723053844,1.9435492148\C,10.3704685167,7.5737195027,1.444822764
 6\O,9.8742946824,6.5582006876,1.862920146\N,11.6981572125,7.7308583348
 ,1.3050614021\H,12.0389208575,8.5425058194,0.8442223624\C,12.627241220
 4,6.6594171233,1.600018994\H,12.4059925283,6.2375704465,2.5695645256\H
 ,12.5737697541,5.8687213904,0.8603227988\H,13.6300321965,7.0644664295,
 1.6120693911\\Version=EM64L-G09RevA.02\State=1-A\HF=-984.5648303\RMSD=
 6.303e-09\RMSF=7.184e-04\Dipole=0.9766198,0.582543,0.6352529\Quadrupol
 e=17.7365784,-17.7957795,0.0592011,-4.3044739,-2.1722831,8.3789043\PG=
 C01 [X(C12H22N4O4)]\\@


 IT IS BY EATING THE LIGHT OF A STAR THAT WE EXIST, 
 IN THE FINAL ANALYSIS, 
 JUST AS IT IS BY PERCEIVING THE LIGHT OF STARS
 THAT WE DEFINE THE WORLD AROUND US.

                                    -- GILBERT GROSVENOR
 Job cpu time:  0 days  3 hours  4 minutes 29.3 seconds.
 File lengths (MBytes):  RWF=    553 Int=      0 D2E=      0 Chk=     11 Scr=      1
 Normal termination of Gaussian 09 at Tue Dec 27 10:50:15 2016.
