 Entering Gaussian System, Link 0=g09
 Initial command:
 /home/steboss/Software/g09/l1.exe /home/steboss/projects/phi_psi_scan/alanine/270/4448/Gau-25193.inp -scrdir=/home/steboss/projects/phi_psi_scan/alanine/270/4448/
 Entering Link 1 = /home/steboss/Software/g09/l1.exe PID=     25204.
  
 Copyright (c) 1988,1990,1992,1993,1995,1998,2003,2009, Gaussian, Inc.
                  All Rights Reserved.
  
 This is part of the Gaussian(R) 09 program.  It is based on
 the Gaussian(R) 03 system (copyright 2003, Gaussian, Inc.),
 the Gaussian(R) 98 system (copyright 1998, Gaussian, Inc.),
 the Gaussian(R) 94 system (copyright 1995, Gaussian, Inc.),
 the Gaussian 92(TM) system (copyright 1992, Gaussian, Inc.),
 the Gaussian 90(TM) system (copyright 1990, Gaussian, Inc.),
 the Gaussian 88(TM) system (copyright 1988, Gaussian, Inc.),
 the Gaussian 86(TM) system (copyright 1986, Carnegie Mellon
 University), and the Gaussian 82(TM) system (copyright 1983,
 Carnegie Mellon University). Gaussian is a federally registered
 trademark of Gaussian, Inc.
  
 This software contains proprietary and confidential information,
 including trade secrets, belonging to Gaussian, Inc.
  
 This software is provided under written license and may be
 used, copied, transmitted, or stored only in accord with that
 written license.
  
 The following legend is applicable only to US Government
 contracts under FAR:
  
                    RESTRICTED RIGHTS LEGEND
  
 Use, reproduction and disclosure by the US Government is
 subject to restrictions as set forth in subparagraphs (a)
 and (c) of the Commercial Computer Software - Restricted
 Rights clause in FAR 52.227-19.
  
 Gaussian, Inc.
 340 Quinnipiac St., Bldg. 40, Wallingford CT 06492
  
  
 ---------------------------------------------------------------
 Warning -- This program may not be used in any manner that
 competes with the business of Gaussian, Inc. or will provide
 assistance to any competitor of Gaussian, Inc.  The licensee
 of this program is prohibited from giving any competitor of
 Gaussian, Inc. access to this program.  By using this program,
 the user acknowledges that Gaussian, Inc. is engaged in the
 business of creating and licensing software in the field of
 computational chemistry and represents and warrants to the
 licensee that it is not a competitor of Gaussian, Inc. and that
 it will not use this program in any manner prohibited above.
 ---------------------------------------------------------------
  

 Cite this work as:
 Gaussian 09, Revision A.02,
 M. J. Frisch, G. W. Trucks, H. B. Schlegel, G. E. Scuseria, 
 M. A. Robb, J. R. Cheeseman, G. Scalmani, V. Barone, B. Mennucci, 
 G. A. Petersson, H. Nakatsuji, M. Caricato, X. Li, H. P. Hratchian, 
 A. F. Izmaylov, J. Bloino, G. Zheng, J. L. Sonnenberg, M. Hada, 
 M. Ehara, K. Toyota, R. Fukuda, J. Hasegawa, M. Ishida, T. Nakajima, 
 Y. Honda, O. Kitao, H. Nakai, T. Vreven, J. A. Montgomery, Jr., 
 J. E. Peralta, F. Ogliaro, M. Bearpark, J. J. Heyd, E. Brothers, 
 K. N. Kudin, V. N. Staroverov, R. Kobayashi, J. Normand, 
 K. Raghavachari, A. Rendell, J. C. Burant, S. S. Iyengar, J. Tomasi, 
 M. Cossi, N. Rega, J. M. Millam, M. Klene, J. E. Knox, J. B. Cross, 
 V. Bakken, C. Adamo, J. Jaramillo, R. Gomperts, R. E. Stratmann, 
 O. Yazyev, A. J. Austin, R. Cammi, C. Pomelli, J. W. Ochterski, 
 R. L. Martin, K. Morokuma, V. G. Zakrzewski, G. A. Voth, 
 P. Salvador, J. J. Dannenberg, S. Dapprich, A. D. Daniels, 
 O. Farkas, J. B. Foresman, J. V. Ortiz, J. Cioslowski, 
 and D. J. Fox, Gaussian, Inc., Wallingford CT, 2009.
 
 ******************************************
 Gaussian 09:  EM64L-G09RevA.02 11-Jun-2009
                10-Feb-2017 
 ******************************************
 %chk=structure_210.chk
 %NProcShared=8
 Will use up to    8 processors via shared memory.
 ----------------------------------------------------------------------
 # b3lyp/6-31G* Opt=(ModRedundant, maxcycles=1000, calcfc) geom=nocrowd
 ----------------------------------------------------------------------
 1/6=1000,10=4,14=-1,18=120,19=15,26=3,38=1/1,3;
 2/9=110,12=1,17=6,18=5,40=1/2;
 3/5=1,6=6,7=1,11=2,16=1,25=1,30=1,71=2,74=-5/1,2,3;
 4//1;
 5/5=2,38=5/2;
 8/6=4,10=90,11=11/1;
 11/6=1,8=1,9=11,15=111,16=1/1,2,10;
 10/6=1,7=6,13=1/2;
 6/7=2,8=2,9=2,10=2,28=1/1;
 7/10=1,18=20,25=1/1,2,3,16;
 1/6=1000,10=4,14=-1,18=20,19=15/3(2);
 2/9=110,12=1/2;
 99//99;
 2/9=110,12=1/2;
 3/5=1,6=6,7=1,11=2,16=1,25=1,30=1,71=1,74=-5/1,2,3;
 4/5=5,16=3/1;
 5/5=2,38=5/2;
 7//1,2,3,16;
 1/6=1000,14=-1,18=20,19=15/3(-5);
 2/9=110,12=1/2;
 6/7=2,8=2,9=2,10=2,19=2,28=1/1;
 99/9=1/99;
 ------------------
 Phi Psi fixed scan
 ------------------
 Symbolic Z-matrix:
 Charge =  0 Multiplicity = 1
 H                     1.1248    2.7631    1.9684 
 C                     1.5589    2.9786    0.992 
 H                     0.896     3.6429    0.4377 
 H                     1.6873    2.0489    0.4377 
 C                     2.9235    3.656     1.1334 
 O                     3.3922    3.8886    2.2454 
 N                     3.5554    3.9697    0. 
 H                     3.1293    3.7581   -0.891 
 C                     4.8533    4.6139    0. 
 H                     5.4076    4.3155    0.8898 
 C                     5.6613    4.2208   -1.2322 
 H                     5.1233    4.5214   -2.1312 
 H                     6.6305    4.7189   -1.2058 
 H                     5.8085    3.1409   -1.2414 
 C                     4.7127    6.1294    0. 
 O                     3.7419    6.6658    0.5295 
 N                     5.6868    6.8201   -0.5968 
 H                     6.4653    6.334    -1.0185 
 C                     5.669     8.2675   -0.6638 
 H                     4.7735    8.6435   -0.169 
 H                     6.553     8.6657   -0.1657 
 H                     5.667     8.5835   -1.7069 
 
 The following ModRedundant input section has been read:
 D    5    7    9   15 F                                                       
 D    7    9   15   17 F                                                       

 GradGradGradGradGradGradGradGradGradGradGradGradGradGradGradGradGradGrad
 Berny optimization.
 Initialization pass.
                           ----------------------------
                           !    Initial Parameters    !
                           ! (Angstroms and Degrees)  !
 --------------------------                            --------------------------
 ! Name  Definition              Value          Derivative Info.                !
 --------------------------------------------------------------------------------
 ! R1    R(1,2)                  1.0901         calculate D2E/DX2 analytically  !
 ! R2    R(2,3)                  1.0899         calculate D2E/DX2 analytically  !
 ! R3    R(2,4)                  1.09           calculate D2E/DX2 analytically  !
 ! R4    R(2,5)                  1.53           calculate D2E/DX2 analytically  !
 ! R5    R(5,6)                  1.229          calculate D2E/DX2 analytically  !
 ! R6    R(5,7)                  1.335          calculate D2E/DX2 analytically  !
 ! R7    R(7,8)                  1.0101         calculate D2E/DX2 analytically  !
 ! R8    R(7,9)                  1.449          calculate D2E/DX2 analytically  !
 ! R9    R(9,10)                 1.09           calculate D2E/DX2 analytically  !
 ! R10   R(9,11)                 1.525          calculate D2E/DX2 analytically  !
 ! R11   R(9,15)                 1.522          calculate D2E/DX2 analytically  !
 ! R12   R(11,12)                1.09           calculate D2E/DX2 analytically  !
 ! R13   R(11,13)                1.09           calculate D2E/DX2 analytically  !
 ! R14   R(11,14)                1.0899         calculate D2E/DX2 analytically  !
 ! R15   R(15,16)                1.229          calculate D2E/DX2 analytically  !
 ! R16   R(15,17)                1.335          calculate D2E/DX2 analytically  !
 ! R17   R(17,18)                1.01           calculate D2E/DX2 analytically  !
 ! R18   R(17,19)                1.4491         calculate D2E/DX2 analytically  !
 ! R19   R(19,20)                1.09           calculate D2E/DX2 analytically  !
 ! R20   R(19,21)                1.09           calculate D2E/DX2 analytically  !
 ! R21   R(19,22)                1.0899         calculate D2E/DX2 analytically  !
 ! A1    A(1,2,3)              109.5006         calculate D2E/DX2 analytically  !
 ! A2    A(1,2,4)              109.4995         calculate D2E/DX2 analytically  !
 ! A3    A(1,2,5)              111.0954         calculate D2E/DX2 analytically  !
 ! A4    A(3,2,4)              109.4435         calculate D2E/DX2 analytically  !
 ! A5    A(3,2,5)              108.6385         calculate D2E/DX2 analytically  !
 ! A6    A(4,2,5)              108.6365         calculate D2E/DX2 analytically  !
 ! A7    A(2,5,6)              120.5016         calculate D2E/DX2 analytically  !
 ! A8    A(2,5,7)              116.5975         calculate D2E/DX2 analytically  !
 ! A9    A(6,5,7)              122.901          calculate D2E/DX2 analytically  !
 ! A10   A(5,7,8)              120.0            calculate D2E/DX2 analytically  !
 ! A11   A(5,7,9)              121.9001         calculate D2E/DX2 analytically  !
 ! A12   A(8,7,9)              118.0999         calculate D2E/DX2 analytically  !
 ! A13   A(7,9,10)             109.5            calculate D2E/DX2 analytically  !
 ! A14   A(7,9,11)             111.0992         calculate D2E/DX2 analytically  !
 ! A15   A(7,9,15)             111.0966         calculate D2E/DX2 analytically  !
 ! A16   A(10,9,11)            108.6382         calculate D2E/DX2 analytically  !
 ! A17   A(10,9,15)            108.6373         calculate D2E/DX2 analytically  !
 ! A18   A(11,9,15)            107.7947         calculate D2E/DX2 analytically  !
 ! A19   A(9,11,12)            109.5007         calculate D2E/DX2 analytically  !
 ! A20   A(9,11,13)            109.4959         calculate D2E/DX2 analytically  !
 ! A21   A(9,11,14)            109.4978         calculate D2E/DX2 analytically  !
 ! A22   A(12,11,13)           109.441          calculate D2E/DX2 analytically  !
 ! A23   A(12,11,14)           109.4482         calculate D2E/DX2 analytically  !
 ! A24   A(13,11,14)           109.4436         calculate D2E/DX2 analytically  !
 ! A25   A(9,15,16)            120.5            calculate D2E/DX2 analytically  !
 ! A26   A(9,15,17)            116.6011         calculate D2E/DX2 analytically  !
 ! A27   A(16,15,17)           122.8989         calculate D2E/DX2 analytically  !
 ! A28   A(15,17,18)           120.0038         calculate D2E/DX2 analytically  !
 ! A29   A(15,17,19)           121.9048         calculate D2E/DX2 analytically  !
 ! A30   A(18,17,19)           118.0914         calculate D2E/DX2 analytically  !
 ! A31   A(17,19,20)           109.491          calculate D2E/DX2 analytically  !
 ! A32   A(17,19,21)           109.5001         calculate D2E/DX2 analytically  !
 ! A33   A(17,19,22)           109.504          calculate D2E/DX2 analytically  !
 ! A34   A(20,19,21)           109.4404         calculate D2E/DX2 analytically  !
 ! A35   A(20,19,22)           109.4463         calculate D2E/DX2 analytically  !
 ! A36   A(21,19,22)           109.4456         calculate D2E/DX2 analytically  !
 ! D1    D(1,2,5,6)              0.0028         calculate D2E/DX2 analytically  !
 ! D2    D(1,2,5,7)           -179.9996         calculate D2E/DX2 analytically  !
 ! D3    D(3,2,5,6)            120.5145         calculate D2E/DX2 analytically  !
 ! D4    D(3,2,5,7)            -59.4879         calculate D2E/DX2 analytically  !
 ! D5    D(4,2,5,6)           -120.5064         calculate D2E/DX2 analytically  !
 ! D6    D(4,2,5,7)             59.4912         calculate D2E/DX2 analytically  !
 ! D7    D(2,5,7,8)             -0.0055         calculate D2E/DX2 analytically  !
 ! D8    D(2,5,7,9)           -179.9962         calculate D2E/DX2 analytically  !
 ! D9    D(6,5,7,8)            179.992          calculate D2E/DX2 analytically  !
 ! D10   D(6,5,7,9)              0.0013         calculate D2E/DX2 analytically  !
 ! D11   D(5,7,9,10)            29.997          calculate D2E/DX2 analytically  !
 ! D12   D(5,7,9,11)           149.9996         calculate D2E/DX2 analytically  !
 ! D13   D(5,7,9,15)           -90.0028         frozen, calculate D2E/DX2 analyt!
 ! D14   D(8,7,9,10)          -149.9939         calculate D2E/DX2 analytically  !
 ! D15   D(8,7,9,11)           -29.9913         calculate D2E/DX2 analytically  !
 ! D16   D(8,7,9,15)            90.0063         calculate D2E/DX2 analytically  !
 ! D17   D(7,9,11,12)           60.0024         calculate D2E/DX2 analytically  !
 ! D18   D(7,9,11,13)          179.9986         calculate D2E/DX2 analytically  !
 ! D19   D(7,9,11,14)          -60.0038         calculate D2E/DX2 analytically  !
 ! D20   D(10,9,11,12)        -179.4843         calculate D2E/DX2 analytically  !
 ! D21   D(10,9,11,13)         -59.4881         calculate D2E/DX2 analytically  !
 ! D22   D(10,9,11,14)          60.5095         calculate D2E/DX2 analytically  !
 ! D23   D(15,9,11,12)         -61.938          calculate D2E/DX2 analytically  !
 ! D24   D(15,9,11,13)          58.0582         calculate D2E/DX2 analytically  !
 ! D25   D(15,9,11,14)         178.0558         calculate D2E/DX2 analytically  !
 ! D26   D(7,9,15,16)           30.0006         calculate D2E/DX2 analytically  !
 ! D27   D(7,9,15,17)         -150.0013         frozen, calculate D2E/DX2 analyt!
 ! D28   D(10,9,15,16)         -90.5105         calculate D2E/DX2 analytically  !
 ! D29   D(10,9,15,17)          89.4877         calculate D2E/DX2 analytically  !
 ! D30   D(11,9,15,16)         151.9427         calculate D2E/DX2 analytically  !
 ! D31   D(11,9,15,17)         -28.0592         calculate D2E/DX2 analytically  !
 ! D32   D(9,15,17,18)           0.0058         calculate D2E/DX2 analytically  !
 ! D33   D(9,15,17,19)         179.9984         calculate D2E/DX2 analytically  !
 ! D34   D(16,15,17,18)       -179.9962         calculate D2E/DX2 analytically  !
 ! D35   D(16,15,17,19)         -0.0036         calculate D2E/DX2 analytically  !
 ! D36   D(15,17,19,20)          0.0048         calculate D2E/DX2 analytically  !
 ! D37   D(15,17,19,21)        119.9969         calculate D2E/DX2 analytically  !
 ! D38   D(15,17,19,22)       -119.9968         calculate D2E/DX2 analytically  !
 ! D39   D(18,17,19,20)        179.9976         calculate D2E/DX2 analytically  !
 ! D40   D(18,17,19,21)        -60.0103         calculate D2E/DX2 analytically  !
 ! D41   D(18,17,19,22)         59.996          calculate D2E/DX2 analytically  !
 --------------------------------------------------------------------------------
 Trust Radius=3.00D-01 FncErr=1.00D-07 GrdErr=1.00D-06
 Number of steps in this run= 132 maximum allowed number of steps= 132.
 GradGradGradGradGradGradGradGradGradGradGradGradGradGradGradGradGradGrad

                          Input orientation:                          
 ---------------------------------------------------------------------
 Center     Atomic      Atomic             Coordinates (Angstroms)
 Number     Number       Type             X           Y           Z
 ---------------------------------------------------------------------
      1          1           0        1.124800    2.763100    1.968400
      2          6           0        1.558900    2.978600    0.992000
      3          1           0        0.896000    3.642900    0.437700
      4          1           0        1.687300    2.048900    0.437700
      5          6           0        2.923500    3.656000    1.133400
      6          8           0        3.392200    3.888600    2.245400
      7          7           0        3.555400    3.969700    0.000000
      8          1           0        3.129300    3.758100   -0.891000
      9          6           0        4.853300    4.613900    0.000000
     10          1           0        5.407600    4.315500    0.889800
     11          6           0        5.661300    4.220800   -1.232200
     12          1           0        5.123300    4.521400   -2.131200
     13          1           0        6.630500    4.718900   -1.205800
     14          1           0        5.808500    3.140900   -1.241400
     15          6           0        4.712700    6.129400    0.000000
     16          8           0        3.741900    6.665800    0.529500
     17          7           0        5.686800    6.820100   -0.596800
     18          1           0        6.465300    6.334000   -1.018500
     19          6           0        5.669000    8.267500   -0.663800
     20          1           0        4.773500    8.643500   -0.169000
     21          1           0        6.553000    8.665700   -0.165700
     22          1           0        5.667000    8.583500   -1.706900
 ---------------------------------------------------------------------
                    Distance matrix (angstroms):
                    1          2          3          4          5
     1  H    0.000000
     2  C    1.090064   0.000000
     3  H    1.780292   1.089945   0.000000
     4  H    1.780317   1.089990   1.779604   0.000000
     5  C    2.174814   1.530032   2.143578   2.143586   0.000000
     6  O    2.546484   2.400021   3.091789   3.091757   1.228953
     7  N    3.352357   2.439745   2.714919   2.714931   1.335028
     8  H    3.631007   2.572832   2.601220   2.601187   2.037394
     9  C    4.604538   3.809375   4.098127   4.098093   2.434398
    10  H    4.681421   4.075566   4.583811   4.379783   2.581673
    11  C    5.740084   4.829059   5.082383   4.826841   3.662050
    12  H    5.990521   4.983930   5.024050   4.951626   4.030589
    13  H    6.649318   5.794834   6.061630   5.853650   4.510373
    14  H    5.690571   4.803490   5.215749   4.582153   3.772032
    15  C    5.299019   4.567062   4.576184   5.098540   3.256308
    16  O    4.914337   4.309854   4.152770   5.054263   3.177006
    17  N    6.622035   5.858410   5.840938   6.311144   4.543231
    18  H    7.084761   6.274837   6.354498   6.581177   4.934238
    19  C    7.607670   6.899787   6.736598   7.465804   5.659826
    20  H    7.242969   6.616091   6.356815   7.306262   5.476669
    21  H    8.298218   7.656658   7.589088   8.235361   6.321236
    22  H    8.247210   7.454894   7.195226   7.945962   6.314614
                    6          7          8          9         10
     6  O    0.000000
     7  N    2.252783   0.000000
     8  H    3.150103   1.010058   0.000000
     9  C    2.775373   1.448978   2.120955   0.000000
    10  H    2.466117   2.083739   2.944927   1.089970   0.000000
    11  C    4.165678   2.452791   2.596446   1.525027   2.139209
    12  H    4.748870   2.702720   2.469162   2.150225   3.041326
    13  H    4.804869   3.386959   3.644261   2.150214   2.459625
    14  H    4.307590   2.702673   2.771611   2.150165   2.466256
    15  C    3.436092   2.450234   2.987323   1.522008   2.136554
    16  O    3.283206   2.753926   3.293603   2.392880   2.903150
    17  N    4.683693   3.608852   4.000400   2.432737   2.925911
    18  H    5.106561   3.885199   4.216683   2.568001   2.972319
    19  C    5.729051   4.835186   5.180385   3.801946   4.254446
    20  H    5.508756   4.832881   5.204979   4.033932   4.500525
    21  H    6.214881   5.573641   6.027630   4.396990   4.620634
    22  H    6.545034   5.353458   5.512722   4.396969   5.002596
                   11         12         13         14         15
    11  C    0.000000
    12  H    1.089957   0.000000
    13  H    1.090023   1.779613   0.000000
    14  H    1.089925   1.779613   1.779617   0.000000
    15  C    2.461892   2.701161   2.668599   3.416575   0.000000
    16  O    3.572913   3.685925   3.891747   4.453296   1.229043
    17  N    2.675957   2.820627   2.382539   3.737223   1.334956
    18  H    2.271057   2.514873   1.634295   3.267562   2.037354
    19  C    4.086431   4.060088   3.716290   5.160921   2.434463
    20  H    4.634529   4.578679   4.463842   5.700866   2.520507
    21  H    4.657219   4.804420   4.082284   5.677572   3.137990
    22  H    4.388453   4.120230   4.014295   5.464303   3.137962
                   16         17         18         19         20
    16  O    0.000000
    17  N    2.252775   0.000000
    18  H    3.150127   1.010043   0.000000
    19  C    2.775450   1.449059   2.120926   0.000000
    20  H    2.337391   2.083727   2.986240   1.090011   0.000000
    21  H    3.519259   2.083840   2.484308   1.090010   1.779642
    22  H    3.519243   2.083817   2.484236   1.089916   1.779629
                   21         22
    21  H    0.000000
    22  H    1.779621   0.000000
 Stoichiometry    C6H12N2O2
 Framework group  C1[X(C6H12N2O2)]
 Deg. of freedom    60
 Full point group                 C1      NOp   1
 Largest Abelian subgroup         C1      NOp   1
 Largest concise Abelian subgroup C1      NOp   1
                         Standard orientation:                         
 ---------------------------------------------------------------------
 Center     Atomic      Atomic             Coordinates (Angstroms)
 Number     Number       Type             X           Y           Z
 ---------------------------------------------------------------------
      1          1           0        4.145828   -0.990004   -0.223942
      2          6           0        3.403601   -0.366340   -0.722321
      3          1           0        3.115774   -0.827770   -1.666893
      4          1           0        3.826651    0.619698   -0.914244
      5          6           0        2.152381   -0.201629    0.142733
      6          8           0        2.081033   -0.739804    1.245277
      7          7           0        1.168967    0.545179   -0.364687
      8          1           0        1.274349    0.967454   -1.276167
      9          6           0       -0.066349    0.777120    0.356240
     10          1           0        0.128550    0.755522    1.428426
     11          6           0       -0.665422    2.132755   -0.003024
     12          1           0       -0.874595    2.166284   -1.072196
     13          1           0       -1.591554    2.279983    0.552632
     14          1           0        0.040982    2.922144    0.253480
     15          6           0       -1.100711   -0.290147    0.028299
     16          8           0       -0.748627   -1.429168   -0.270389
     17          7           0       -2.381648    0.081508    0.084713
     18          1           0       -2.621777    1.030059    0.335261
     19          6           0       -3.460370   -0.841504   -0.205424
     20          1           0       -3.045910   -1.817648   -0.457396
     21          1           0       -4.104001   -0.935457    0.669240
     22          1           0       -4.043564   -0.466827   -1.046506
 ---------------------------------------------------------------------
 Rotational constants (GHZ):      2.6101272      0.7446738      0.6494329
 Standard basis: 6-31G(d) (6D, 7F)
 There are   174 symmetry adapted basis functions of A   symmetry.
 Integral buffers will be    131072 words long.
 Raffenetti 2 integral format.
 Two-electron integral symmetry is turned on.
   174 basis functions,   328 primitive gaussians,   174 cartesian basis functions
    39 alpha electrons       39 beta electrons
       nuclear repulsion energy       558.9532095762 Hartrees.
 NAtoms=   22 NActive=   22 NUniq=   22 SFac= 7.50D-01 NAtFMM=   80 NAOKFM=F Big=F
 One-electron integrals computed using PRISM.
 NBasis=   174 RedAO= T  NBF=   174
 NBsUse=   174 1.00D-06 NBFU=   174
 Harris functional with IExCor=  402 diagonalized for initial guess.
 ExpMin= 1.61D-01 ExpMax= 5.48D+03 ExpMxC= 8.25D+02 IAcc=1 IRadAn=         1 AccDes= 0.00D+00
 HarFok:  IExCor=  402 AccDes= 0.00D+00 IRadAn=         1 IDoV= 1
 ScaDFX=  1.000000  1.000000  1.000000  1.000000
 FoFCou: FMM=F IPFlag=           0 FMFlag=      100000 FMFlg1=           0
         NFxFlg=           0 DoJE=T BraDBF=F KetDBF=T FulRan=T
         Omega=  0.000000  0.000000  1.000000  0.000000  0.000000 ICntrl=     500 IOpCl=  0
         NMat0=    1 NMatS0=    1 NMatT0=    0 NMatD0=    1 NMtDS0=    0 NMtDT0=    0
         I1Cent=           4 NGrid=           0.
 Petite list used in FoFCou.
 Initial guess orbital symmetries:
       Occupied  (A) (A) (A) (A) (A) (A) (A) (A) (A) (A) (A) (A)
                 (A) (A) (A) (A) (A) (A) (A) (A) (A) (A) (A) (A)
                 (A) (A) (A) (A) (A) (A) (A) (A) (A) (A) (A) (A)
                 (A) (A) (A)
       Virtual   (A) (A) (A) (A) (A) (A) (A) (A) (A) (A) (A) (A)
                 (A) (A) (A) (A) (A) (A) (A) (A) (A) (A) (A) (A)
                 (A) (A) (A) (A) (A) (A) (A) (A) (A) (A) (A) (A)
                 (A) (A) (A) (A) (A) (A) (A) (A) (A) (A) (A) (A)
                 (A) (A) (A) (A) (A) (A) (A) (A) (A) (A) (A) (A)
                 (A) (A) (A) (A) (A) (A) (A) (A) (A) (A) (A) (A)
                 (A) (A) (A) (A) (A) (A) (A) (A) (A) (A) (A) (A)
                 (A) (A) (A) (A) (A) (A) (A) (A) (A) (A) (A) (A)
                 (A) (A) (A) (A) (A) (A) (A) (A) (A) (A) (A) (A)
                 (A) (A) (A) (A) (A) (A) (A) (A) (A) (A) (A) (A)
                 (A) (A) (A) (A) (A) (A) (A) (A) (A) (A) (A) (A)
                 (A) (A) (A)
 The electronic state of the initial guess is 1-A.
 Requested convergence on RMS density matrix=1.00D-08 within 128 cycles.
 Requested convergence on MAX density matrix=1.00D-06.
 Requested convergence on             energy=1.00D-06.
 No special actions if energy rises.
 Integral accuracy reduced to 1.0D-05 until final iterations.
 Initial convergence to 1.0D-05 achieved.  Increase integral accuracy.
 SCF Done:  E(RB3LYP) =  -495.829616513     A.U. after   15 cycles
             Convg  =    0.7083D-08             -V/T =  2.0087
 Range of M.O.s used for correlation:     1   174
 NBasis=   174 NAE=    39 NBE=    39 NFC=     0 NFV=     0
 NROrb=    174 NOA=    39 NOB=    39 NVA=   135 NVB=   135
 Symmetrizing basis deriv contribution to polar:
 IMax=3 JMax=2 DiffMx= 0.00D+00
 G2DrvN: will do    23 centers at a time, making    1 passes doing MaxLOS=2.
 Calling FoFCou, ICntrl=  3107 FMM=F I1Cent=   0 AccDes= 0.00D+00.
 FoFDir/FoFCou used for L=0 through L=2.
 End of G2Drv Frequency-dependent properties file   721 does not exist.
 End of G2Drv Frequency-dependent properties file   722 does not exist.
          IDoAtm=1111111111111111111111
          Differentiating once with respect to nuclear coordinates.
          There are    69 degrees of freedom in the 1st order CPHF.  IDoFFX=5.
     63 vectors produced by pass  0 Test12= 7.63D-11 1.45D-07 XBig12= 1.83D-01 8.85D-02.
 AX will form    63 AO Fock derivatives at one time.
     63 vectors produced by pass  1 Test12= 7.63D-11 1.45D-07 XBig12= 3.25D-02 4.88D-02.
     63 vectors produced by pass  2 Test12= 7.63D-11 1.45D-07 XBig12= 4.33D-05 1.10D-03.
     63 vectors produced by pass  3 Test12= 7.63D-11 1.45D-07 XBig12= 8.80D-08 5.48D-05.
     29 vectors produced by pass  4 Test12= 7.63D-11 1.45D-07 XBig12= 1.08D-10 1.21D-06.
 Inverted reduced A of dimension   281 with in-core refinement.
 End of Minotr Frequency-dependent properties file   721 does not exist.
 End of Minotr Frequency-dependent properties file   722 does not exist.

 **********************************************************************

            Population analysis using the SCF density.

 **********************************************************************

 Orbital symmetries:
       Occupied  (A) (A) (A) (A) (A) (A) (A) (A) (A) (A) (A) (A)
                 (A) (A) (A) (A) (A) (A) (A) (A) (A) (A) (A) (A)
                 (A) (A) (A) (A) (A) (A) (A) (A) (A) (A) (A) (A)
                 (A) (A) (A)
       Virtual   (A) (A) (A) (A) (A) (A) (A) (A) (A) (A) (A) (A)
                 (A) (A) (A) (A) (A) (A) (A) (A) (A) (A) (A) (A)
                 (A) (A) (A) (A) (A) (A) (A) (A) (A) (A) (A) (A)
                 (A) (A) (A) (A) (A) (A) (A) (A) (A) (A) (A) (A)
                 (A) (A) (A) (A) (A) (A) (A) (A) (A) (A) (A) (A)
                 (A) (A) (A) (A) (A) (A) (A) (A) (A) (A) (A) (A)
                 (A) (A) (A) (A) (A) (A) (A) (A) (A) (A) (A) (A)
                 (A) (A) (A) (A) (A) (A) (A) (A) (A) (A) (A) (A)
                 (A) (A) (A) (A) (A) (A) (A) (A) (A) (A) (A) (A)
                 (A) (A) (A) (A) (A) (A) (A) (A) (A) (A) (A) (A)
                 (A) (A) (A) (A) (A) (A) (A) (A) (A) (A) (A) (A)
                 (A) (A) (A)
 The electronic state is 1-A.
 Alpha  occ. eigenvalues --  -19.09716 -19.08992 -14.36295 -14.35692 -10.27382
 Alpha  occ. eigenvalues --  -10.27163 -10.23483 -10.21688 -10.20338 -10.18037
 Alpha  occ. eigenvalues --   -1.02766  -1.01232  -0.92529  -0.92151  -0.79424
 Alpha  occ. eigenvalues --   -0.72627  -0.70885  -0.65550  -0.59237  -0.59100
 Alpha  occ. eigenvalues --   -0.53838  -0.49464  -0.46887  -0.45747  -0.45021
 Alpha  occ. eigenvalues --   -0.43669  -0.42908  -0.42438  -0.39794  -0.39610
 Alpha  occ. eigenvalues --   -0.38798  -0.37875  -0.37593  -0.35234  -0.34293
 Alpha  occ. eigenvalues --   -0.25690  -0.24707  -0.23444  -0.22641
 Alpha virt. eigenvalues --    0.03197   0.04829   0.05959   0.08252   0.11527
 Alpha virt. eigenvalues --    0.12280   0.13236   0.14841   0.15759   0.16349
 Alpha virt. eigenvalues --    0.16660   0.17070   0.18244   0.18425   0.21263
 Alpha virt. eigenvalues --    0.21967   0.24060   0.25424   0.29704   0.33167
 Alpha virt. eigenvalues --    0.35051   0.39502   0.42901   0.50658   0.51049
 Alpha virt. eigenvalues --    0.51882   0.53375   0.53803   0.55500   0.56310
 Alpha virt. eigenvalues --    0.56924   0.60249   0.61064   0.62660   0.65975
 Alpha virt. eigenvalues --    0.68164   0.69712   0.71567   0.72248   0.74089
 Alpha virt. eigenvalues --    0.75791   0.78115   0.78955   0.80433   0.83804
 Alpha virt. eigenvalues --    0.85017   0.86156   0.87186   0.87764   0.89334
 Alpha virt. eigenvalues --    0.89767   0.90229   0.91668   0.92966   0.93331
 Alpha virt. eigenvalues --    0.94626   0.95506   0.96291   0.97514   1.04457
 Alpha virt. eigenvalues --    1.05549   1.07924   1.08510   1.11179   1.17109
 Alpha virt. eigenvalues --    1.18689   1.27927   1.30035   1.32787   1.35436
 Alpha virt. eigenvalues --    1.38673   1.39106   1.42829   1.46846   1.47614
 Alpha virt. eigenvalues --    1.50449   1.54673   1.61770   1.66841   1.68719
 Alpha virt. eigenvalues --    1.73815   1.77428   1.80712   1.80802   1.84026
 Alpha virt. eigenvalues --    1.85242   1.85815   1.86577   1.91879   1.93396
 Alpha virt. eigenvalues --    1.95983   1.96709   1.99811   2.00822   2.03078
 Alpha virt. eigenvalues --    2.05712   2.08316   2.11352   2.13654   2.15386
 Alpha virt. eigenvalues --    2.20549   2.21137   2.25951   2.26469   2.28554
 Alpha virt. eigenvalues --    2.30391   2.32828   2.34410   2.40644   2.40955
 Alpha virt. eigenvalues --    2.42838   2.48566   2.55961   2.59163   2.65179
 Alpha virt. eigenvalues --    2.66914   2.70212   2.72512   2.76656   2.88837
 Alpha virt. eigenvalues --    2.95029   2.98328   3.04681   3.18495   3.18530
 Alpha virt. eigenvalues --    3.94394   4.03957   4.06058   4.16147   4.22443
 Alpha virt. eigenvalues --    4.23064   4.25477   4.39101   4.48236   4.67452
          Condensed to atoms (all electrons):
              1          2          3          4          5          6
     1  H    0.499793   0.361586  -0.020555  -0.021907  -0.017429   0.005161
     2  C    0.361586   5.347310   0.351387   0.345951   0.348659  -0.082195
     3  H   -0.020555   0.351387   0.548290  -0.027866  -0.026370   0.001174
     4  H   -0.021907   0.345951  -0.027866   0.567080  -0.025231   0.001594
     5  C   -0.017429   0.348659  -0.026370  -0.025231   4.314213   0.608372
     6  O    0.005161  -0.082195   0.001174   0.001594   0.608372   8.058544
     7  N    0.004405  -0.136652   0.004664   0.004719   0.216566  -0.105952
     8  H   -0.000167  -0.000146   0.000845   0.001068  -0.015871   0.003646
     9  C   -0.000139   0.007525  -0.000251  -0.000295  -0.020450   0.007706
    10  H   -0.000006   0.000886  -0.000016  -0.000058   0.001177   0.016129
    11  C    0.000002  -0.000154  -0.000012  -0.000002   0.006074   0.000781
    12  H    0.000000  -0.000011   0.000001   0.000002  -0.000188  -0.000012
    13  H    0.000000   0.000004   0.000000   0.000000  -0.000019   0.000006
    14  H    0.000000  -0.000013   0.000000   0.000001  -0.000014  -0.000003
    15  C    0.000001  -0.000170   0.000034   0.000007  -0.000245  -0.001960
    16  O    0.000001  -0.000120   0.000102   0.000000   0.010847  -0.001455
    17  N    0.000000   0.000002   0.000000   0.000000   0.000312  -0.000015
    18  H    0.000000   0.000000   0.000000   0.000000  -0.000032   0.000000
    19  C    0.000000   0.000000   0.000000   0.000000  -0.000003   0.000001
    20  H    0.000000   0.000000   0.000000   0.000000  -0.000005   0.000000
    21  H    0.000000   0.000000   0.000000   0.000000   0.000000   0.000000
    22  H    0.000000   0.000000   0.000000   0.000000   0.000000   0.000000
              7          8          9         10         11         12
     1  H    0.004405  -0.000167  -0.000139  -0.000006   0.000002   0.000000
     2  C   -0.136652  -0.000146   0.007525   0.000886  -0.000154  -0.000011
     3  H    0.004664   0.000845  -0.000251  -0.000016  -0.000012   0.000001
     4  H    0.004719   0.001068  -0.000295  -0.000058  -0.000002   0.000002
     5  C    0.216566  -0.015871  -0.020450   0.001177   0.006074  -0.000188
     6  O   -0.105952   0.003646   0.007706   0.016129   0.000781  -0.000012
     7  N    7.160854   0.300966   0.267350  -0.044799  -0.051453  -0.004775
     8  H    0.300966   0.417972  -0.037005   0.004520  -0.002949   0.004727
     9  C    0.267350  -0.037005   5.140470   0.370076   0.307572  -0.034056
    10  H   -0.044799   0.004520   0.370076   0.520716  -0.035169   0.004920
    11  C   -0.051453  -0.002949   0.307572  -0.035169   5.213905   0.372880
    12  H   -0.004775   0.004727  -0.034056   0.004920   0.372880   0.562990
    13  H    0.004524  -0.000023  -0.028085  -0.003332   0.361432  -0.032932
    14  H    0.000335   0.000384  -0.026520  -0.004429   0.363133  -0.029131
    15  C   -0.056202   0.000761   0.311782  -0.032665  -0.052051  -0.003947
    16  O   -0.002018   0.000434  -0.093573  -0.000714   0.002684   0.000124
    17  N    0.001551  -0.000059  -0.130381   0.000726   0.000631   0.000879
    18  H    0.000206  -0.000009  -0.002055   0.000426   0.002424  -0.000219
    19  C   -0.000127   0.000002   0.006843  -0.000251   0.000130  -0.000285
    20  H   -0.000012   0.000000   0.001268  -0.000022  -0.000093  -0.000013
    21  H   -0.000001   0.000000  -0.000280   0.000030   0.000063   0.000007
    22  H    0.000008   0.000000   0.000009  -0.000003  -0.000122   0.000010
             13         14         15         16         17         18
     1  H    0.000000   0.000000   0.000001   0.000001   0.000000   0.000000
     2  C    0.000004  -0.000013  -0.000170  -0.000120   0.000002   0.000000
     3  H    0.000000   0.000000   0.000034   0.000102   0.000000   0.000000
     4  H    0.000000   0.000001   0.000007   0.000000   0.000000   0.000000
     5  C   -0.000019  -0.000014  -0.000245   0.010847   0.000312  -0.000032
     6  O    0.000006  -0.000003  -0.001960  -0.001455  -0.000015   0.000000
     7  N    0.004524   0.000335  -0.056202  -0.002018   0.001551   0.000206
     8  H   -0.000023   0.000384   0.000761   0.000434  -0.000059  -0.000009
     9  C   -0.028085  -0.026520   0.311782  -0.093573  -0.130381  -0.002055
    10  H   -0.003332  -0.004429  -0.032665  -0.000714   0.000726   0.000426
    11  C    0.361432   0.363133  -0.052051   0.002684   0.000631   0.002424
    12  H   -0.032932  -0.029131  -0.003947   0.000124   0.000879  -0.000219
    13  H    0.575675  -0.021557  -0.008237  -0.000044  -0.006622   0.013510
    14  H   -0.021557   0.546449   0.003880  -0.000082   0.000647  -0.000272
    15  C   -0.008237   0.003880   4.375996   0.619310   0.263751  -0.019809
    16  O   -0.000044  -0.000082   0.619310   8.065249  -0.101847   0.003855
    17  N   -0.006622   0.000647   0.263751  -0.101847   7.134274   0.292338
    18  H    0.013510  -0.000272  -0.019809   0.003855   0.292338   0.413056
    19  C    0.000681   0.000001  -0.027050  -0.009726   0.263204  -0.030188
    20  H   -0.000011   0.000002   0.000473   0.022823  -0.038454   0.003679
    21  H   -0.000094   0.000001   0.001975   0.000587  -0.043307  -0.000978
    22  H    0.000067  -0.000003   0.001215   0.000617  -0.045194  -0.000325
             19         20         21         22
     1  H    0.000000   0.000000   0.000000   0.000000
     2  C    0.000000   0.000000   0.000000   0.000000
     3  H    0.000000   0.000000   0.000000   0.000000
     4  H    0.000000   0.000000   0.000000   0.000000
     5  C   -0.000003  -0.000005   0.000000   0.000000
     6  O    0.000001   0.000000   0.000000   0.000000
     7  N   -0.000127  -0.000012  -0.000001   0.000008
     8  H    0.000002   0.000000   0.000000   0.000000
     9  C    0.006843   0.001268  -0.000280   0.000009
    10  H   -0.000251  -0.000022   0.000030  -0.000003
    11  C    0.000130  -0.000093   0.000063  -0.000122
    12  H   -0.000285  -0.000013   0.000007   0.000010
    13  H    0.000681  -0.000011  -0.000094   0.000067
    14  H    0.000001   0.000002   0.000001  -0.000003
    15  C   -0.027050   0.000473   0.001975   0.001215
    16  O   -0.009726   0.022823   0.000587   0.000617
    17  N    0.263204  -0.038454  -0.043307  -0.045194
    18  H   -0.030188   0.003679  -0.000978  -0.000325
    19  C    4.969624   0.375138   0.381793   0.383312
    20  H    0.375138   0.470910  -0.023161  -0.024562
    21  H    0.381793  -0.023161   0.563984  -0.039102
    22  H    0.383312  -0.024562  -0.039102   0.569258
 Mulliken atomic charges:
              1
     1  H    0.189254
     2  C   -0.543850
     3  H    0.168575
     4  H    0.154939
     5  C    0.599638
     6  O   -0.511523
     7  N   -0.564158
     8  H    0.320905
     9  C   -0.047511
    10  H    0.201858
    11  C   -0.489705
    12  H    0.159031
    13  H    0.145056
    14  H    0.167190
    15  C    0.623152
    16  O   -0.517054
    17  N   -0.592434
    18  H    0.324392
    19  C   -0.313096
    20  H    0.212041
    21  H    0.158485
    22  H    0.154816
 Sum of Mulliken atomic charges =   0.00000
 Mulliken charges with hydrogens summed into heavy atoms:
              1
     2  C   -0.031082
     5  C    0.599638
     6  O   -0.511523
     7  N   -0.243253
     9  C    0.154347
    11  C   -0.018429
    15  C    0.623152
    16  O   -0.517054
    17  N   -0.268042
    19  C    0.212246
 Sum of Mulliken charges with hydrogens summed into heavy atoms =   0.00000
 APT atomic charges:
              1
     1  H    0.679891
     2  C   -1.237401
     3  H    0.301317
     4  H    0.454106
     5  C    0.026744
     6  O   -0.210575
     7  N   -0.687568
     8  H    0.576734
     9  C   -0.386945
    10  H    0.419553
    11  C   -1.223323
    12  H    0.347103
    13  H    0.413431
    14  H    0.469867
    15  C    0.075466
    16  O   -0.315222
    17  N   -0.431985
    18  H    0.583534
    19  C   -1.359480
    20  H    0.347599
    21  H    0.594822
    22  H    0.562331
 Sum of APT charges=   0.00000
 APT Atomic charges with hydrogens summed into heavy atoms:
              1
     1  H    0.000000
     2  C    0.197913
     3  H    0.000000
     4  H    0.000000
     5  C    0.026744
     6  O   -0.210575
     7  N   -0.110835
     8  H    0.000000
     9  C    0.032608
    10  H    0.000000
    11  C    0.007078
    12  H    0.000000
    13  H    0.000000
    14  H    0.000000
    15  C    0.075466
    16  O   -0.315222
    17  N    0.151549
    18  H    0.000000
    19  C    0.145272
    20  H    0.000000
    21  H    0.000000
    22  H    0.000000
 Sum of APT charges=   0.00000
 Electronic spatial extent (au):  <R**2>=           1839.7459
 Charge=              0.0000 electrons
 Dipole moment (field-independent basis, Debye):
    X=             -2.7381    Y=              4.8605    Z=             -2.3388  Tot=              6.0491
 Quadrupole moment (field-independent basis, Debye-Ang):
   XX=            -49.7870   YY=            -61.7433   ZZ=            -60.8407
   XY=              0.7220   XZ=             -7.5225   YZ=              1.3034
 Traceless Quadrupole moment (field-independent basis, Debye-Ang):
   XX=              7.6700   YY=             -4.2863   ZZ=             -3.3837
   XY=              0.7220   XZ=             -7.5225   YZ=              1.3034
 Octapole moment (field-independent basis, Debye-Ang**2):
  XXX=            -22.6678  YYY=              1.8720  ZZZ=             -4.6285  XYY=             -2.5042
  XXY=              1.1128  XXZ=            -11.5137  XZZ=             -5.6058  YZZ=              3.6939
  YYZ=             -0.1569  XYZ=              2.0642
 Hexadecapole moment (field-independent basis, Debye-Ang**3):
 XXXX=          -1606.6798 YYYY=           -463.4925 ZZZZ=           -178.4396 XXXY=              3.7301
 XXXZ=            -17.8164 YYYX=              2.1400 YYYZ=              0.2595 ZZZX=             -5.6721
 ZZZY=             -0.5193 XXYY=           -350.2751 XXZZ=           -334.1025 YYZZ=           -105.0889
 XXYZ=             11.1624 YYXZ=             -5.2162 ZZXY=              7.2512
 N-N= 5.589532095762D+02 E-N=-2.274416454056D+03  KE= 4.915463579248D+02
  Exact polarizability:   0.000   0.000   0.000   0.000   0.000   0.000
 Approx polarizability: 119.815 -14.596 111.945  -0.926  -5.932 103.652
 Calling FoFJK, ICntrl=    100147 FMM=F ISym2X=0 I1Cent= 0 IOpClX= 0 NMat=1 NMatS=1 NMatT=0.
 ***** Axes restored to original set *****
 -------------------------------------------------------------------
 Center     Atomic                   Forces (Hartrees/Bohr)
 Number     Number              X              Y              Z
 -------------------------------------------------------------------
      1        1           0.003480674    0.001749240    0.000827998
      2        6           0.008536601    0.003965985   -0.006143931
      3        1          -0.005402145   -0.000468714   -0.002969207
      4        1          -0.004175015   -0.004370989   -0.003335595
      5        6          -0.018947892   -0.004911217    0.044104773
      6        8           0.003792660   -0.001837320   -0.004520983
      7        7           0.017659014    0.001055843   -0.021672663
      8        1          -0.000831974    0.001838321   -0.000400548
      9        6           0.007790199    0.000989104   -0.013576121
     10        1          -0.004303472   -0.001101696    0.005908164
     11        6          -0.004739967   -0.015213749    0.002953357
     12        1           0.001803038    0.000143806   -0.005990498
     13        1           0.003661080   -0.010138878   -0.003903488
     14        1           0.003424987   -0.002644642   -0.003275146
     15        6          -0.032795273    0.000432020    0.024146174
     16        8           0.000943091    0.001252729   -0.003232660
     17        7           0.017592183    0.015957925   -0.008733667
     18        1          -0.003316943    0.007748903    0.002037719
     19        6           0.003242112    0.000041009   -0.000339187
     20        1          -0.000300161   -0.003198136    0.000494470
     21        1           0.002587558    0.004611787    0.001040898
     22        1           0.000299643    0.004098667   -0.003419862
 -------------------------------------------------------------------
 Cartesian Forces:  Max     0.044104773 RMS     0.010008308

 GradGradGradGradGradGradGradGradGradGradGradGradGradGradGradGradGradGrad
 Berny optimization.
 Internal  Forces:  Max     0.036161216 RMS     0.009199060
 Search for a local minimum.
 Step number   1 out of a maximum of  132
 All quantities printed in internal units (Hartrees-Bohrs-Radians)
 Mixed Optimization -- RFO/linear search
 Second derivative matrix not updated -- analytic derivatives used.
     Eigenvalues ---   -0.00066  -0.00061   0.00053   0.00064   0.00384
     Eigenvalues ---    0.01285   0.01785   0.01937   0.03915   0.04423
     Eigenvalues ---    0.04589   0.05015   0.05105   0.05518   0.05830
     Eigenvalues ---    0.05992   0.06401   0.06618   0.10736   0.12185
     Eigenvalues ---    0.12371   0.12474   0.13246   0.13348   0.13617
     Eigenvalues ---    0.14270   0.15357   0.17665   0.17965   0.18519
     Eigenvalues ---    0.18712   0.19948   0.21506   0.22213   0.24118
     Eigenvalues ---    0.24360   0.30194   0.30774   0.33027   0.34566
     Eigenvalues ---    0.34634   0.34670   0.34902   0.35059   0.35064
     Eigenvalues ---    0.35479   0.35684   0.35879   0.35901   0.37614
     Eigenvalues ---    0.39429   0.45670   0.46770   0.53546   0.53640
     Eigenvalues ---    0.71831   0.82429   0.829751000.000001000.00000
     Eigenvalues --- 1000.000001000.000001000.000001000.000001000.00000
     Eigenvalues --- 1000.000001000.000001000.000001000.000001000.00000
     Eigenvalues --- 1000.000001000.000001000.000001000.000001000.00000
     Eigenvalues --- 1000.000001000.000001000.000001000.000001000.00000
     Eigenvalues --- 1000.000001000.000001000.000001000.000001000.00000
     Eigenvalues --- 1000.000001000.000001000.000001000.000001000.00000
     Eigenvalues --- 1000.000001000.000001000.000001000.000001000.00000
     Eigenvalues --- 1000.000001000.000001000.00000
 RFO step:  Lambda=-1.81048559D-02 EMin=-6.55023956D-04
 Linear search not attempted -- first point.
 Maximum step size (   0.300) exceeded in Quadratic search.
    -- Step size scaled by   0.269
 Iteration  1 RMS(Cart)=  0.05541409 RMS(Int)=  0.00216492
 Iteration  2 RMS(Cart)=  0.00230820 RMS(Int)=  0.00008584
 Iteration  3 RMS(Cart)=  0.00000368 RMS(Int)=  0.00008579
 Iteration  4 RMS(Cart)=  0.00000000 RMS(Int)=  0.00008579
 Iteration  1 RMS(Cart)=  0.00001390 RMS(Int)=  0.00000402
 Iteration  2 RMS(Cart)=  0.00000749 RMS(Int)=  0.00000448
 Iteration  3 RMS(Cart)=  0.00000409 RMS(Int)=  0.00000506
 Iteration  4 RMS(Cart)=  0.00000228 RMS(Int)=  0.00000545
 Iteration  5 RMS(Cart)=  0.00000130 RMS(Int)=  0.00000569
 Iteration  6 RMS(Cart)=  0.00000076 RMS(Int)=  0.00000584
 Variable       Old X    -DE/DX   Delta X   Delta X   Delta X     New X
                                 (Linear)    (Quad)   (Total)
    R1        2.05992  -0.00099   0.00000   0.00005   0.00005   2.05997
    R2        2.05970   0.00451   0.00000   0.00306   0.00306   2.06275
    R3        2.05978   0.00494   0.00000   0.00316   0.00316   2.06294
    R4        2.89134  -0.00149   0.00000  -0.00364  -0.00364   2.88770
    R5        2.32239  -0.00299   0.00000  -0.00327  -0.00327   2.31912
    R6        2.52284   0.03113   0.00000   0.01676   0.01676   2.53960
    R7        1.90873   0.00032   0.00000   0.00007   0.00007   1.90880
    R8        2.73817  -0.00236   0.00000  -0.00143  -0.00143   2.73674
    R9        2.05975   0.00294   0.00000   0.00244   0.00244   2.06218
   R10        2.88188   0.01763   0.00000   0.00447   0.00447   2.88635
   R11        2.87618   0.03191   0.00000   0.01425   0.01425   2.89043
   R12        2.05972   0.00409   0.00000   0.00348   0.00348   2.06320
   R13        2.05984  -0.00147   0.00000   0.00389   0.00389   2.06373
   R14        2.05966   0.00311   0.00000   0.00186   0.00186   2.06152
   R15        2.32256  -0.00159   0.00000  -0.00298  -0.00298   2.31958
   R16        2.52270   0.03379   0.00000   0.01451   0.01451   2.53721
   R17        1.90870  -0.00714   0.00000  -0.00175  -0.00175   1.90696
   R18        2.73833   0.00558   0.00000   0.00202   0.00202   2.74034
   R19        2.05982  -0.00063   0.00000   0.00019   0.00019   2.06001
   R20        2.05982   0.00426   0.00000   0.00248   0.00248   2.06230
   R21        2.05964   0.00446   0.00000   0.00382   0.00382   2.06346
    A1        1.91115   0.00001   0.00000  -0.00283  -0.00286   1.90829
    A2        1.91113  -0.00016   0.00000   0.00095   0.00098   1.91211
    A3        1.93898  -0.00801   0.00000  -0.01022  -0.01022   1.92876
    A4        1.91015  -0.00493   0.00000  -0.00622  -0.00626   1.90389
    A5        1.89610   0.00605   0.00000   0.00092   0.00089   1.89699
    A6        1.89607   0.00710   0.00000   0.01749   0.01749   1.91355
    A7        2.10315   0.00948   0.00000   0.01090   0.01090   2.11405
    A8        2.03501  -0.00908   0.00000  -0.00968  -0.00968   2.02532
    A9        2.14503  -0.00040   0.00000  -0.00122  -0.00122   2.14381
   A10        2.09440  -0.00031   0.00000  -0.00205  -0.00213   2.09227
   A11        2.12756   0.00111   0.00000   0.00115   0.00107   2.12863
   A12        2.06123  -0.00079   0.00000   0.00091   0.00083   2.06206
   A13        1.91114   0.00330   0.00000  -0.01288  -0.01296   1.89818
   A14        1.93905  -0.01450   0.00000   0.00023   0.00020   1.93924
   A15        1.93900  -0.01448   0.00000  -0.00570  -0.00588   1.93312
   A16        1.89609  -0.00328   0.00000   0.00075   0.00077   1.89686
   A17        1.89608  -0.00660   0.00000  -0.00905  -0.00921   1.88687
   A18        1.88137   0.03616   0.00000   0.02705   0.02706   1.90843
   A19        1.91115   0.00499   0.00000   0.01007   0.01003   1.92118
   A20        1.91106   0.01083   0.00000   0.00605   0.00603   1.91709
   A21        1.91110   0.00240   0.00000   0.00284   0.00283   1.91393
   A22        1.91011  -0.00513   0.00000  -0.00326  -0.00331   1.90679
   A23        1.91023  -0.00409   0.00000  -0.00503  -0.00505   1.90518
   A24        1.91015  -0.00902   0.00000  -0.01069  -0.01069   1.89946
   A25        2.10312  -0.00967   0.00000   0.00227   0.00226   2.10538
   A26        2.03507   0.02464   0.00000  -0.00229  -0.00230   2.03278
   A27        2.14499  -0.01497   0.00000   0.00002   0.00001   2.14500
   A28        2.09446   0.00489   0.00000  -0.00193  -0.00237   2.09209
   A29        2.12764  -0.00043   0.00000   0.00151   0.00107   2.12871
   A30        2.06108  -0.00447   0.00000   0.00041  -0.00003   2.06105
   A31        1.91098  -0.00654   0.00000  -0.00908  -0.00907   1.90191
   A32        1.91114   0.00514   0.00000   0.00358   0.00356   1.91470
   A33        1.91120   0.00452   0.00000   0.01012   0.01012   1.92132
   A34        1.91010  -0.00013   0.00000   0.00166   0.00167   1.91176
   A35        1.91020   0.00017   0.00000  -0.00325  -0.00323   1.90697
   A36        1.91019  -0.00317   0.00000  -0.00304  -0.00307   1.90711
    D1        0.00005   0.00075   0.00000  -0.08728  -0.08731  -0.08726
    D2       -3.14159  -0.00057   0.00000  -0.08264  -0.08266   3.05894
    D3        2.10338  -0.00029   0.00000  -0.09651  -0.09652   2.00686
    D4       -1.03826  -0.00160   0.00000  -0.09187  -0.09187  -1.13013
    D5       -2.10323   0.00132   0.00000  -0.09344  -0.09342  -2.19666
    D6        1.03832   0.00000   0.00000  -0.08881  -0.08877   0.94954
    D7       -0.00010  -0.00065   0.00000  -0.00895  -0.00894  -0.00904
    D8       -3.14153  -0.00141   0.00000  -0.03284  -0.03283   3.10883
    D9        3.14145  -0.00200   0.00000  -0.00419  -0.00421   3.13725
   D10        0.00002  -0.00276   0.00000  -0.02809  -0.02810  -0.02807
   D11        0.52355  -0.00266   0.00000  -0.02323  -0.02318   0.50037
   D12        2.61799  -0.01376   0.00000  -0.03051  -0.03044   2.58754
   D13       -1.57085   0.01255   0.00000   0.00000   0.00000  -1.57085
   D14       -2.61789  -0.00340   0.00000  -0.04668  -0.04667  -2.66456
   D15       -0.52345  -0.01450   0.00000  -0.05397  -0.05394  -0.57738
   D16        1.57091   0.01181   0.00000  -0.02345  -0.02349   1.54741
   D17        1.04724   0.00153   0.00000   0.01679   0.01683   1.06407
   D18        3.14157   0.00495   0.00000   0.02268   0.02275  -3.11887
   D19       -1.04726   0.00201   0.00000   0.01503   0.01507  -1.03219
   D20       -3.13259  -0.00548   0.00000   0.00148   0.00144  -3.13116
   D21       -1.03826  -0.00206   0.00000   0.00737   0.00736  -1.03091
   D22        1.05609  -0.00500   0.00000  -0.00028  -0.00032   1.05577
   D23       -1.08102   0.00474   0.00000   0.00599   0.00596  -1.07506
   D24        1.01331   0.00816   0.00000   0.01188   0.01188   1.02518
   D25        3.10766   0.00523   0.00000   0.00423   0.00420   3.11186
   D26        0.52361  -0.00364   0.00000   0.00709   0.00710   0.53071
   D27       -2.61802  -0.00487   0.00000   0.00000   0.00000  -2.61802
   D28       -1.57971   0.00550   0.00000   0.03241   0.03236  -1.54734
   D29        1.56185   0.00428   0.00000   0.02531   0.02526   1.58711
   D30        2.65190  -0.00687   0.00000   0.02156   0.02159   2.67349
   D31       -0.48973  -0.00810   0.00000   0.01447   0.01449  -0.47523
   D32        0.00010   0.00071   0.00000   0.05720   0.05717   0.05727
   D33        3.14156   0.00135   0.00000   0.00062   0.00064  -3.14098
   D34       -3.14153  -0.00054   0.00000   0.04992   0.04989  -3.09163
   D35       -0.00006   0.00010   0.00000  -0.00666  -0.00663  -0.00670
   D36        0.00008  -0.00031   0.00000   0.07693   0.07693   0.07702
   D37        2.09434  -0.00132   0.00000   0.07559   0.07559   2.16993
   D38       -2.09434   0.00072   0.00000   0.08027   0.08031  -2.01403
   D39        3.14155   0.00032   0.00000   0.02139   0.02137  -3.12026
   D40       -1.04738  -0.00069   0.00000   0.02005   0.02003  -1.02735
   D41        1.04713   0.00135   0.00000   0.02473   0.02474   1.07187
         Item               Value     Threshold  Converged?
 Maximum Force            0.033791     0.000450     NO 
 RMS     Force            0.009063     0.000300     NO 
 Maximum Displacement     0.200594     0.001800     NO 
 RMS     Displacement     0.055603     0.001200     NO 
 Predicted change in Energy=-4.505346D-03
 GradGradGradGradGradGradGradGradGradGradGradGradGradGradGradGradGradGrad

                          Input orientation:                          
 ---------------------------------------------------------------------
 Center     Atomic      Atomic             Coordinates (Angstroms)
 Number     Number       Type             X           Y           Z
 ---------------------------------------------------------------------
      1          1           0        1.155231    2.703322    1.949611
      2          6           0        1.552567    3.000255    0.978914
      3          1           0        0.879499    3.726627    0.519705
      4          1           0        1.627990    2.124494    0.331550
      5          6           0        2.930425    3.641626    1.137846
      6          8           0        3.408849    3.850025    2.248594
      7          7           0        3.567637    3.960806   -0.001517
      8          1           0        3.133563    3.765659   -0.892464
      9          6           0        4.861958    4.610478    0.000127
     10          1           0        5.396829    4.324815    0.907406
     11          6           0        5.691432    4.187300   -1.210582
     12          1           0        5.181055    4.472379   -2.132682
     13          1           0        6.670174    4.670568   -1.176569
     14          1           0        5.832243    3.105581   -1.199038
     15          6           0        4.704888    6.131942   -0.000074
     16          8           0        3.733880    6.660470    0.533288
     17          7           0        5.679572    6.834107   -0.599758
     18          1           0        6.435550    6.351051   -1.061792
     19          6           0        5.651461    8.282326   -0.668586
     20          1           0        4.792013    8.647241   -0.105979
     21          1           0        6.568417    8.688993   -0.238703
     22          1           0        5.565865    8.606735   -1.707699
 ---------------------------------------------------------------------
                    Distance matrix (angstroms):
                    1          2          3          4          5
     1  H    0.000000
     2  C    1.090091   0.000000
     3  H    1.779835   1.091563   0.000000
     4  H    1.782320   1.091662   1.778334   0.000000
     5  C    2.165800   1.528107   2.143740   2.155954   0.000000
     6  O    2.546196   2.404160   3.066251   3.134322   1.227225
     7  N    3.347816   2.438117   2.748199   2.691692   1.343899
     8  H    3.622119   2.566603   2.660178   2.541334   2.044213
     9  C    4.601908   3.808269   4.112314   4.092494   2.442109
    10  H    4.659033   4.066685   4.573228   4.401950   2.569630
    11  C    5.724171   4.830443   5.134278   4.810914   3.665519
    12  H    6.000162   5.001511   5.108296   4.920292   4.056087
    13  H    6.637594   5.798790   6.107396   5.846412   4.516742
    14  H    5.652455   4.803145   5.279152   4.580499   3.764162
    15  C    5.306295   4.550056   4.548549   5.063290   3.262706
    16  O    4.930966   4.284144   4.093300   5.005052   3.181895
    17  N    6.635686   5.850026   5.826691   6.281966   4.557303
    18  H    7.089164   6.263853   6.344954   6.551169   4.946241
    19  C    7.628651   6.885889   6.703584   7.423441   5.674798
    20  H    7.265109   6.599959   6.317569   7.262830   5.483502
    21  H    8.361792   7.681347   7.587097   8.235633   6.372268
    22  H    8.226779   7.399802   7.123117   7.853969   6.300395
                    6          7          8          9         10
     6  O    0.000000
     7  N    2.258426   0.000000
     8  H    3.154227   1.010093   0.000000
     9  C    2.783059   1.448220   2.120798   0.000000
    10  H    2.444642   2.074750   2.945261   1.091260   0.000000
    11  C    4.158105   2.454311   2.611833   1.527391   2.142796
    12  H    4.766930   2.721523   2.495961   2.160964   3.051306
    13  H    4.800133   3.392675   3.661584   2.158210   2.466557
    14  H    4.279393   2.700723   2.795097   2.155032   2.472493
    15  C    3.455918   2.450953   2.977367   1.529549   2.137291
    16  O    3.308553   2.757144   3.282237   2.399851   2.891480
    17  N    4.708931   3.615801   3.997901   2.443947   2.940754
    18  H    5.135631   3.881028   4.197147   2.575550   3.010368
    19  C    5.760602   4.843845   5.175926   3.814833   4.267374
    20  H    5.520003   4.844861   5.215252   4.038763   4.480639
    21  H    6.291671   5.605060   6.038613   4.427565   4.661785
    22  H    6.552195   5.337473   5.478751   4.402524   5.020178
                   11         12         13         14         15
    11  C    0.000000
    12  H    1.091798   0.000000
    13  H    1.092081   1.780704   0.000000
    14  H    1.090907   1.778728   1.775335   0.000000
    15  C    2.494038   2.743884   2.717003   3.444895   0.000000
    16  O    3.604117   3.740248   3.937657   4.476753   1.227466
    17  N    2.716400   2.859394   2.448449   3.779464   1.342634
    18  H    2.292961   2.499995   1.700660   3.303920   2.042167
    19  C    4.130931   4.108595   3.786900   5.206990   2.442757
    20  H    4.681898   4.657076   4.526321   5.743418   2.519035
    21  H    4.688165   4.826155   4.127674   5.713028   3.173043
    22  H    4.449078   4.173918   4.122500   5.531038   3.127597
                   16         17         18         19         20
    16  O    0.000000
    17  N    2.258243   0.000000
    18  H    3.152625   1.009119   0.000000
    19  C    2.784247   1.450126   2.121138   0.000000
    20  H    2.339993   2.078229   2.981154   1.090110   0.000000
    21  H    3.570081   2.088303   2.482157   1.091323   1.781845
    22  H    3.487998   2.093483   2.502330   1.091936   1.779323
                   21         22
    21  H    0.000000
    22  H    1.780401   0.000000
 Stoichiometry    C6H12N2O2
 Framework group  C1[X(C6H12N2O2)]
 Deg. of freedom    60
 Full point group                 C1      NOp   1
 Largest Abelian subgroup         C1      NOp   1
 Largest concise Abelian subgroup C1      NOp   1
                         Standard orientation:                         
 ---------------------------------------------------------------------
 Center     Atomic      Atomic             Coordinates (Angstroms)
 Number     Number       Type             X           Y           Z
 ---------------------------------------------------------------------
      1          1           0        4.159253   -0.949390   -0.200652
      2          6           0        3.381262   -0.410477   -0.741577
      3          1           0        3.081235   -0.990468   -1.616279
      4          1           0        3.767256    0.556504   -1.069723
      5          6           0        2.157760   -0.199560    0.149303
      6          8           0        2.098976   -0.689874    1.272788
      7          7           0        1.166798    0.541472   -0.375034
      8          1           0        1.263964    0.926907   -1.303628
      9          6           0       -0.067159    0.788699    0.341606
     10          1           0        0.138192    0.763371    1.413071
     11          6           0       -0.644897    2.157262   -0.013608
     12          1           0       -0.869072    2.203805   -1.081130
     13          1           0       -1.561036    2.331689    0.554639
     14          1           0        0.077281    2.936234    0.234863
     15          6           0       -1.101389   -0.294256    0.030004
     16          8           0       -0.747261   -1.438349   -0.238914
     17          7           0       -2.390516    0.077994    0.077434
     18          1           0       -2.629028    1.041213    0.260850
     19          6           0       -3.468778   -0.852206   -0.196326
     20          1           0       -3.048728   -1.846291   -0.350258
     21          1           0       -4.158948   -0.874506    0.648750
     22          1           0       -4.008862   -0.546308   -1.094691
 ---------------------------------------------------------------------
 Rotational constants (GHZ):      2.5668422      0.7432079      0.6476738
 Standard basis: 6-31G(d) (6D, 7F)
 There are   174 symmetry adapted basis functions of A   symmetry.
 Integral buffers will be    131072 words long.
 Raffenetti 2 integral format.
 Two-electron integral symmetry is turned on.
   174 basis functions,   328 primitive gaussians,   174 cartesian basis functions
    39 alpha electrons       39 beta electrons
       nuclear repulsion energy       557.5970315060 Hartrees.
 NAtoms=   22 NActive=   22 NUniq=   22 SFac= 7.50D-01 NAtFMM=   80 NAOKFM=F Big=F
 One-electron integrals computed using PRISM.
 NBasis=   174 RedAO= T  NBF=   174
 NBsUse=   174 1.00D-06 NBFU=   174
 Initial guess read from the read-write file.
 B after Tr=     0.000000    0.000000    0.000000
         Rot=    1.000000    0.000000    0.000000    0.000000 Ang=   0.00 deg.
 Initial guess orbital symmetries:
       Occupied  (A) (A) (A) (A) (A) (A) (A) (A) (A) (A) (A) (A)
                 (A) (A) (A) (A) (A) (A) (A) (A) (A) (A) (A) (A)
                 (A) (A) (A) (A) (A) (A) (A) (A) (A) (A) (A) (A)
                 (A) (A) (A)
       Virtual   (A) (A) (A) (A) (A) (A) (A) (A) (A) (A) (A) (A)
                 (A) (A) (A) (A) (A) (A) (A) (A) (A) (A) (A) (A)
                 (A) (A) (A) (A) (A) (A) (A) (A) (A) (A) (A) (A)
                 (A) (A) (A) (A) (A) (A) (A) (A) (A) (A) (A) (A)
                 (A) (A) (A) (A) (A) (A) (A) (A) (A) (A) (A) (A)
                 (A) (A) (A) (A) (A) (A) (A) (A) (A) (A) (A) (A)
                 (A) (A) (A) (A) (A) (A) (A) (A) (A) (A) (A) (A)
                 (A) (A) (A) (A) (A) (A) (A) (A) (A) (A) (A) (A)
                 (A) (A) (A) (A) (A) (A) (A) (A) (A) (A) (A) (A)
                 (A) (A) (A) (A) (A) (A) (A) (A) (A) (A) (A) (A)
                 (A) (A) (A) (A) (A) (A) (A) (A) (A) (A) (A) (A)
                 (A) (A) (A)
 Harris functional with IExCor=  402 diagonalized for initial guess.
 ExpMin= 1.61D-01 ExpMax= 5.48D+03 ExpMxC= 8.25D+02 IAcc=1 IRadAn=         1 AccDes= 0.00D+00
 HarFok:  IExCor=  402 AccDes= 0.00D+00 IRadAn=         1 IDoV= 1
 ScaDFX=  1.000000  1.000000  1.000000  1.000000
 FoFCou: FMM=F IPFlag=           0 FMFlag=      100000 FMFlg1=           0
         NFxFlg=           0 DoJE=T BraDBF=F KetDBF=T FulRan=T
         Omega=  0.000000  0.000000  1.000000  0.000000  0.000000 ICntrl=     500 IOpCl=  0
         NMat0=    1 NMatS0=    1 NMatT0=    0 NMatD0=    1 NMtDS0=    0 NMtDT0=    0
         I1Cent=           4 NGrid=           0.
 Petite list used in FoFCou.
 Requested convergence on RMS density matrix=1.00D-08 within 128 cycles.
 Requested convergence on MAX density matrix=1.00D-06.
 Requested convergence on             energy=1.00D-06.
 No special actions if energy rises.
 Integral accuracy reduced to 1.0D-05 until final iterations.
 Initial convergence to 1.0D-05 achieved.  Increase integral accuracy.
 SCF Done:  E(RB3LYP) =  -495.834131535     A.U. after   12 cycles
             Convg  =    0.6396D-08             -V/T =  2.0089
 Calling FoFJK, ICntrl=      2127 FMM=F ISym2X=0 I1Cent= 0 IOpClX= 0 NMat=1 NMatS=1 NMatT=0.
 ***** Axes restored to original set *****
 -------------------------------------------------------------------
 Center     Atomic                   Forces (Hartrees/Bohr)
 Number     Number              X              Y              Z
 -------------------------------------------------------------------
      1        1           0.002640542    0.001140924    0.000653251
      2        6           0.006692919    0.003023873   -0.004738276
      3        1          -0.004228084   -0.000090740   -0.001960960
      4        1          -0.003371351   -0.002888504   -0.002645389
      5        6          -0.014115426   -0.004164210    0.033006164
      6        8           0.002858504   -0.001547196   -0.003413952
      7        7           0.013911437   -0.000377727   -0.015709857
      8        1          -0.001043107    0.002078464   -0.000204339
      9        6           0.006739611    0.001695142   -0.011446696
     10        1          -0.003890551   -0.000611882    0.004762237
     11        6          -0.003593986   -0.011454594    0.002788764
     12        1           0.001587690    0.000025478   -0.004489805
     13        1           0.002663965   -0.007899783   -0.002827238
     14        1           0.002565787   -0.002043567   -0.002412839
     15        6          -0.025112345    0.000196533    0.017621768
     16        8           0.000781453    0.000940061   -0.002345587
     17        7           0.012954143    0.012105926   -0.006484326
     18        1          -0.002236452    0.005709672    0.001769343
     19        6           0.002505006   -0.000074464   -0.000419732
     20        1          -0.000171987   -0.002379227    0.000388550
     21        1           0.001920168    0.003488659    0.000632632
     22        1          -0.000057935    0.003127163   -0.002523713
 -------------------------------------------------------------------
 Cartesian Forces:  Max     0.033006164 RMS     0.007571753

 GradGradGradGradGradGradGradGradGradGradGradGradGradGradGradGradGradGrad
 Berny optimization.
 Using GEDIIS/GDIIS optimizer.
 Internal  Forces:  Max     0.027442323 RMS     0.006934843
 Search for a local minimum.
 Step number   2 out of a maximum of  132
 All quantities printed in internal units (Hartrees-Bohrs-Radians)
 Mixed Optimization -- RFO/linear search
 Update second derivatives using D2CorX and points    1    2
 DE= -4.52D-03 DEPred=-4.51D-03 R= 1.00D+00
 SS=  1.41D+00  RLast= 3.00D-01 DXNew= 5.0454D-01 8.9999D-01
 Trust test= 1.00D+00 RLast= 3.00D-01 DXMaxT set to 5.05D-01
 Use linear search instead of GDIIS.
 Linear search step of   0.594 exceeds DXMaxT=   0.505 but not scaled.
 Quartic linear search produced a step of  2.00000.
 Iteration  1 RMS(Cart)=  0.11029381 RMS(Int)=  0.00853283
 Iteration  2 RMS(Cart)=  0.00920756 RMS(Int)=  0.00051770
 Iteration  3 RMS(Cart)=  0.00006595 RMS(Int)=  0.00051532
 Iteration  4 RMS(Cart)=  0.00000001 RMS(Int)=  0.00051532
 Iteration  1 RMS(Cart)=  0.00009334 RMS(Int)=  0.00002708
 Iteration  2 RMS(Cart)=  0.00005072 RMS(Int)=  0.00003020
 Iteration  3 RMS(Cart)=  0.00002788 RMS(Int)=  0.00003412
 Iteration  4 RMS(Cart)=  0.00001556 RMS(Int)=  0.00003678
 Iteration  5 RMS(Cart)=  0.00000886 RMS(Int)=  0.00003841
 Iteration  6 RMS(Cart)=  0.00000516 RMS(Int)=  0.00003939
 Iteration  7 RMS(Cart)=  0.00000309 RMS(Int)=  0.00003997
 Iteration  8 RMS(Cart)=  0.00000189 RMS(Int)=  0.00004032
 Iteration  9 RMS(Cart)=  0.00000119 RMS(Int)=  0.00004054
 Iteration 10 RMS(Cart)=  0.00000076 RMS(Int)=  0.00004067
 Variable       Old X    -DE/DX   Delta X   Delta X   Delta X     New X
                                 (Linear)    (Quad)   (Total)
    R1        2.05997  -0.00069   0.00010   0.00000   0.00010   2.06007
    R2        2.06275   0.00337   0.00612   0.00000   0.00612   2.06887
    R3        2.06294   0.00366   0.00632   0.00000   0.00632   2.06926
    R4        2.88770  -0.00116  -0.00728   0.00000  -0.00728   2.88043
    R5        2.31912  -0.00224  -0.00653   0.00000  -0.00653   2.31259
    R6        2.53960   0.02330   0.03353   0.00000   0.03353   2.57313
    R7        1.90880   0.00023   0.00013   0.00000   0.00013   1.90893
    R8        2.73674  -0.00173  -0.00286   0.00000  -0.00286   2.73388
    R9        2.06218   0.00221   0.00487   0.00000   0.00487   2.06706
   R10        2.88635   0.01317   0.00893   0.00000   0.00893   2.89528
   R11        2.89043   0.02397   0.02850   0.00000   0.02850   2.91893
   R12        2.06320   0.00305   0.00696   0.00000   0.00696   2.07016
   R13        2.06373  -0.00119   0.00778   0.00000   0.00778   2.07151
   R14        2.06152   0.00233   0.00371   0.00000   0.00371   2.06523
   R15        2.31958  -0.00123  -0.00596   0.00000  -0.00596   2.31361
   R16        2.53721   0.02528   0.02902   0.00000   0.02902   2.56623
   R17        1.90696  -0.00522  -0.00349   0.00000  -0.00349   1.90347
   R18        2.74034   0.00417   0.00403   0.00000   0.00403   2.74437
   R19        2.06001  -0.00046   0.00038   0.00000   0.00038   2.06039
   R20        2.06230   0.00316   0.00496   0.00000   0.00496   2.06726
   R21        2.06346   0.00334   0.00763   0.00000   0.00763   2.07109
    A1        1.90829  -0.00005  -0.00571   0.00000  -0.00587   1.90242
    A2        1.91211  -0.00012   0.00196   0.00000   0.00211   1.91422
    A3        1.92876  -0.00599  -0.02043   0.00000  -0.02042   1.90834
    A4        1.90389  -0.00376  -0.01252   0.00000  -0.01274   1.89115
    A5        1.89699   0.00460   0.00178   0.00000   0.00159   1.89858
    A6        1.91355   0.00534   0.03498   0.00000   0.03495   1.94851
    A7        2.11405   0.00706   0.02179   0.00000   0.02177   2.13582
    A8        2.02532  -0.00675  -0.01937   0.00000  -0.01939   2.00594
    A9        2.14381  -0.00031  -0.00244   0.00000  -0.00246   2.14135
   A10        2.09227  -0.00027  -0.00426   0.00000  -0.00474   2.08753
   A11        2.12863   0.00082   0.00214   0.00000   0.00166   2.13028
   A12        2.06206  -0.00056   0.00165   0.00000   0.00117   2.06323
   A13        1.89818   0.00206  -0.02591   0.00000  -0.02641   1.87177
   A14        1.93924  -0.01082   0.00039   0.00000   0.00019   1.93943
   A15        1.93312  -0.01094  -0.01176   0.00000  -0.01282   1.92030
   A16        1.89686  -0.00244   0.00154   0.00000   0.00163   1.89850
   A17        1.88687  -0.00526  -0.01843   0.00000  -0.01944   1.86742
   A18        1.90843   0.02744   0.05412   0.00000   0.05417   1.96260
   A19        1.92118   0.00377   0.02006   0.00000   0.01981   1.94099
   A20        1.91709   0.00828   0.01205   0.00000   0.01189   1.92898
   A21        1.91393   0.00173   0.00566   0.00000   0.00560   1.91952
   A22        1.90679  -0.00403  -0.00663   0.00000  -0.00696   1.89983
   A23        1.90518  -0.00311  -0.01010   0.00000  -0.01024   1.89494
   A24        1.89946  -0.00685  -0.02138   0.00000  -0.02135   1.87811
   A25        2.10538  -0.00724   0.00453   0.00000   0.00448   2.10986
   A26        2.03278   0.01848  -0.00459   0.00000  -0.00464   2.02814
   A27        2.14500  -0.01124   0.00002   0.00000  -0.00003   2.14497
   A28        2.09209   0.00365  -0.00475   0.00000  -0.00739   2.08470
   A29        2.12871  -0.00035   0.00213   0.00000  -0.00052   2.12819
   A30        2.06105  -0.00327  -0.00006   0.00000  -0.00275   2.05830
   A31        1.90191  -0.00489  -0.01813   0.00000  -0.01805   1.88386
   A32        1.91470   0.00387   0.00712   0.00000   0.00703   1.92173
   A33        1.92132   0.00343   0.02024   0.00000   0.02020   1.94152
   A34        1.91176  -0.00011   0.00334   0.00000   0.00336   1.91512
   A35        1.90697   0.00010  -0.00645   0.00000  -0.00632   1.90065
   A36        1.90711  -0.00241  -0.00615   0.00000  -0.00635   1.90076
    D1       -0.08726   0.00051  -0.17461   0.00000  -0.17478  -0.26204
    D2        3.05894  -0.00055  -0.16531   0.00000  -0.16540   2.89354
    D3        2.00686  -0.00030  -0.19304   0.00000  -0.19310   1.81375
    D4       -1.13013  -0.00136  -0.18374   0.00000  -0.18372  -1.31385
    D5       -2.19666   0.00102  -0.18684   0.00000  -0.18674  -2.38339
    D6        0.94954  -0.00004  -0.17755   0.00000  -0.17735   0.77219
    D7       -0.00904  -0.00047  -0.01788   0.00000  -0.01782  -0.02685
    D8        3.10883  -0.00128  -0.06566   0.00000  -0.06560   3.04323
    D9        3.13725  -0.00157  -0.00841   0.00000  -0.00847   3.12878
   D10       -0.02807  -0.00238  -0.05619   0.00000  -0.05626  -0.08433
   D11        0.50037  -0.00233  -0.04636   0.00000  -0.04607   0.45430
   D12        2.58754  -0.01062  -0.06089   0.00000  -0.06043   2.52711
   D13       -1.57085   0.00934   0.00000   0.00000   0.00000  -1.57085
   D14       -2.66456  -0.00312  -0.09335   0.00000  -0.09329  -2.75785
   D15       -0.57738  -0.01141  -0.10787   0.00000  -0.10766  -0.68504
   D16        1.54741   0.00855  -0.04699   0.00000  -0.04722   1.50019
   D17        1.06407   0.00133   0.03365   0.00000   0.03392   1.09799
   D18       -3.11887   0.00398   0.04549   0.00000   0.04590  -3.07297
   D19       -1.03219   0.00173   0.03015   0.00000   0.03043  -1.00176
   D20       -3.13116  -0.00427   0.00287   0.00000   0.00263  -3.12852
   D21       -1.03091  -0.00162   0.01471   0.00000   0.01462  -1.01629
   D22        1.05577  -0.00387  -0.00063   0.00000  -0.00086   1.05491
   D23       -1.07506   0.00358   0.01191   0.00000   0.01173  -1.06333
   D24        1.02518   0.00622   0.02375   0.00000   0.02371   1.04890
   D25        3.11186   0.00397   0.00841   0.00000   0.00824   3.12010
   D26        0.53071  -0.00285   0.01420   0.00000   0.01427   0.54498
   D27       -2.61802  -0.00387   0.00000   0.00000   0.00000  -2.61802
   D28       -1.54734   0.00428   0.06472   0.00000   0.06444  -1.48290
   D29        1.58711   0.00326   0.05052   0.00000   0.05017   1.63729
   D30        2.67349  -0.00512   0.04319   0.00000   0.04339   2.71689
   D31       -0.47523  -0.00615   0.02899   0.00000   0.02913  -0.44611
   D32        0.05727   0.00062   0.11434   0.00000   0.11413   0.17140
   D33       -3.14098   0.00102   0.00129   0.00000   0.00150  -3.13948
   D34       -3.09163  -0.00041   0.09978   0.00000   0.09957  -2.99206
   D35       -0.00670  -0.00002  -0.01327   0.00000  -0.01306  -0.01976
   D36        0.07702  -0.00029   0.15387   0.00000   0.15384   0.23086
   D37        2.16993  -0.00109   0.15118   0.00000   0.15110   2.32104
   D38       -2.01403   0.00053   0.16061   0.00000   0.16076  -1.85328
   D39       -3.12026   0.00031   0.04275   0.00000   0.04269  -3.07757
   D40       -1.02735  -0.00048   0.04006   0.00000   0.03995  -0.98739
   D41        1.07187   0.00114   0.04949   0.00000   0.04961   1.12148
         Item               Value     Threshold  Converged?
 Maximum Force            0.025278     0.000450     NO 
 RMS     Force            0.006834     0.000300     NO 
 Maximum Displacement     0.383551     0.001800     NO 
 RMS     Displacement     0.111447     0.001200     NO 
 Predicted change in Energy=-5.737984D-03
 GradGradGradGradGradGradGradGradGradGradGradGradGradGradGradGradGradGrad

                          Input orientation:                          
 ---------------------------------------------------------------------
 Center     Atomic      Atomic             Coordinates (Angstroms)
 Number     Number       Type             X           Y           Z
 ---------------------------------------------------------------------
      1          1           0        1.208718    2.586659    1.882429
      2          6           0        1.541891    3.047991    0.952601
      3          1           0        0.862748    3.868156    0.698279
      4          1           0        1.510624    2.310906    0.143426
      5          6           0        2.944343    3.613578    1.143912
      6          8           0        3.441381    3.772569    2.250838
      7          7           0        3.592363    3.943045   -0.007428
      8          1           0        3.142240    3.781514   -0.897220
      9          6           0        4.880209    4.602119   -0.002070
     10          1           0        5.373909    4.341560    0.938597
     11          6           0        5.751786    4.120358   -1.166390
     12          1           0        5.299315    4.373550   -2.131398
     13          1           0        6.748777    4.572918   -1.113014
     14          1           0        5.877755    3.035998   -1.114819
     15          6           0        4.689924    6.134985   -0.002611
     16          8           0        3.718642    6.647912    0.538183
     17          7           0        5.665700    6.860143   -0.607712
     18          1           0        6.372097    6.386522   -1.147417
     19          6           0        5.613941    8.309778   -0.677974
     20          1           0        4.841717    8.652018    0.011457
     21          1           0        6.580121    8.734943   -0.390822
     22          1           0        5.362898    8.649578   -1.689248
 ---------------------------------------------------------------------
                    Distance matrix (angstroms):
                    1          2          3          4          5
     1  H    0.000000
     2  C    1.090143   0.000000
     3  H    1.778804   1.094799   0.000000
     4  H    1.786427   1.095006   1.775566   0.000000
     5  C    2.147641   1.524257   2.143930   2.180247   0.000000
     6  O    2.554778   2.412155   3.011465   3.210213   1.223768
     7  N    3.330631   2.434586   2.820359   2.649579   1.361640
     8  H    3.590632   2.553627   2.783740   2.430598   2.057568
     9  C    4.592740   3.804086   4.143570   4.077368   2.457247
    10  H    4.617284   4.044487   4.542294   4.436308   2.544583
    11  C    5.682165   4.833560   5.238633   4.793453   3.670975
    12  H    6.003063   5.038491   5.286361   4.876833   4.105010
    13  H    6.603798   5.805499   6.198613   5.842395   4.526341
    14  H    5.566444   4.803549   5.397231   4.602257   3.747048
    15  C    5.316276   4.511327   4.503003   4.975225   3.273999
    16  O    4.959889   4.227223   3.988584   4.882704   3.189613
    17  N    6.657939   5.828626   5.807404   6.206805   4.584120
    18  H    7.090798   6.235924   6.332589   6.473859   4.968793
    19  C    7.662620   6.850312   6.648001   7.314259   5.700906
    20  H    7.313535   6.571127   6.260131   7.164028   5.501669
    21  H    8.474729   7.715566   7.586837   8.200821   6.465498
    22  H    8.171479   7.277172   6.986675   7.640515   6.263984
                    6          7          8          9         10
     6  O    0.000000
     7  N    2.269719   0.000000
     8  H    3.162251   1.010164   0.000000
     9  C    2.798923   1.446705   2.120193   0.000000
    10  H    2.404245   2.056133   2.943504   1.093839   0.000000
    11  C    4.139611   2.457181   2.645183   1.532117   2.150044
    12  H    4.797613   2.758671   2.554735   2.182186   3.071068
[...]
    15  C    5.215837   4.327543   4.241401   4.720437   3.244205
    16  O    4.788099   3.913668   3.542437   4.430730   3.141803
    17  N    6.573839   5.671817   5.569211   5.989544   4.566668
    18  H    7.050125   6.173976   6.223564   6.423709   4.954652
    19  C    7.541406   6.636351   6.326009   7.005127   5.677390
    20  H    7.137634   6.237293   5.766170   6.647917   5.470035
    21  H    8.106812   7.283910   6.987187   7.761785   6.225138
    22  H    8.323951   7.359593   7.052922   7.601372   6.461981
                    6          7          8          9         10
     6  O    0.000000
     7  N    2.287482   0.000000
     8  H    3.131183   1.013698   0.000000
     9  C    2.795288   1.455953   2.092729   0.000000
    10  H    2.282610   2.032957   2.917482   1.096357   0.000000
    11  C    4.032890   2.464593   2.869175   1.535031   2.161013
    12  H    4.782320   2.819033   2.833353   2.194748   3.086788
    13  H    4.655886   3.418981   3.883328   2.196105   2.493632
    14  H    3.996142   2.642362   3.156266   2.156703   2.505904
    15  C    3.603333   2.444772   2.637925   1.551404   2.138441
    16  O    3.562550   2.728603   2.745908   2.418522   2.858931
    17  N    4.851231   3.635216   3.749780   2.481340   3.007327
    18  H    5.175766   3.917633   4.129078   2.595992   3.057242
    19  C    5.941368   4.873493   4.859060   3.855961   4.302821
    20  H    5.802007   4.819501   4.698537   4.066072   4.536873
    21  H    6.288633   5.550045   5.685416   4.409377   4.615849
    22  H    6.837661   5.510784   5.364836   4.524687   5.108795
                   11         12         13         14         15
    11  C    0.000000
    12  H    1.096407   0.000000
    13  H    1.096913   1.777517   0.000000
    14  H    1.093307   1.773100   1.762051   0.000000
    15  C    2.617673   2.880016   2.951096   3.536628   0.000000
    16  O    3.708507   3.895699   4.155201   4.522066   1.225420
    17  N    2.888620   2.976330   2.792810   3.959839   1.365190
    18  H    2.481723   2.616105   2.068608   3.536926   2.052684
    19  C    4.326764   4.289535   4.151920   5.406512   2.469143
    20  H    4.819086   4.758001   4.851367   5.864794   2.527322
    21  H    4.897520   5.034669   4.532959   5.941830   3.113746
    22  H    4.707087   4.445338   4.493497   5.799164   3.255031
                   16         17         18         19         20
    16  O    0.000000
    17  N    2.275922   0.000000
    18  H    3.161092   1.008393   0.000000
    19  C    2.815485   1.453619   2.124614   0.000000
    20  H    2.364819   2.062779   2.968137   1.090475   0.000000
    21  H    3.451245   2.120852   2.557875   1.097352   1.779120
    22  H    3.666408   2.103893   2.481783   1.095368   1.784561
                   21         22
    21  H    0.000000
    22  H    1.783388   0.000000
 Stoichiometry    C6H12N2O2
 Framework group  C1[X(C6H12N2O2)]
 Deg. of freedom    60
 Full point group                 C1      NOp   1
 Largest Abelian subgroup         C1      NOp   1
 Largest concise Abelian subgroup C1      NOp   1
                         Standard orientation:                         
 ---------------------------------------------------------------------
 Center     Atomic      Atomic             Coordinates (Angstroms)
 Number     Number       Type             X           Y           Z
 ---------------------------------------------------------------------
      1          1           0        4.082947   -1.007127   -0.161906
      2          6           0        3.141042   -0.890455   -0.700314
      3          1           0        2.732717   -1.886777   -0.908784
      4          1           0        3.322363   -0.387684   -1.656524
      5          6           0        2.158435   -0.132483    0.175140
      6          8           0        2.256964   -0.083066    1.391302
      7          7           0        1.154911    0.525259   -0.518671
      8          1           0        1.020918    0.205139   -1.471116
      9          6           0       -0.071337    0.880505    0.181269
     10          1           0        0.214241    0.924089    1.238881
     11          6           0       -0.577852    2.259347   -0.264332
     12          1           0       -0.932919    2.250053   -1.301612
     13          1           0       -1.391184    2.625095    0.374367
     14          1           0        0.239190    2.982076   -0.190672
     15          6           0       -1.079317   -0.291040    0.045944
     16          8           0       -0.684658   -1.443421   -0.087906
     17          7           0       -2.403131    0.042502    0.048846
     18          1           0       -2.664269    1.002753    0.211886
     19          6           0       -3.456213   -0.958961    0.015705
     20          1           0       -2.996841   -1.908634   -0.260401
     21          1           0       -3.940802   -1.071313    0.993832
     22          1           0       -4.215816   -0.691584   -0.726821
 ---------------------------------------------------------------------
 Rotational constants (GHZ):      2.3445934      0.7582582      0.6512230

 **********************************************************************

            Population analysis using the SCF density.

 **********************************************************************

 Orbital symmetries:
       Occupied  (A) (A) (A) (A) (A) (A) (A) (A) (A) (A) (A) (A)
                 (A) (A) (A) (A) (A) (A) (A) (A) (A) (A) (A) (A)
                 (A) (A) (A) (A) (A) (A) (A) (A) (A) (A) (A) (A)
                 (A) (A) (A)
       Virtual   (A) (A) (A) (A) (A) (A) (A) (A) (A) (A) (A) (A)
                 (A) (A) (A) (A) (A) (A) (A) (A) (A) (A) (A) (A)
                 (A) (A) (A) (A) (A) (A) (A) (A) (A) (A) (A) (A)
                 (A) (A) (A) (A) (A) (A) (A) (A) (A) (A) (A) (A)
                 (A) (A) (A) (A) (A) (A) (A) (A) (A) (A) (A) (A)
                 (A) (A) (A) (A) (A) (A) (A) (A) (A) (A) (A) (A)
                 (A) (A) (A) (A) (A) (A) (A) (A) (A) (A) (A) (A)
                 (A) (A) (A) (A) (A) (A) (A) (A) (A) (A) (A) (A)
                 (A) (A) (A) (A) (A) (A) (A) (A) (A) (A) (A) (A)
                 (A) (A) (A) (A) (A) (A) (A) (A) (A) (A) (A) (A)
                 (A) (A) (A) (A) (A) (A) (A) (A) (A) (A) (A) (A)
                 (A) (A) (A)
 The electronic state is 1-A.
 Alpha  occ. eigenvalues --  -19.11262 -19.10528 -14.36734 -14.35025 -10.28676
 Alpha  occ. eigenvalues --  -10.28010 -10.23313 -10.22141 -10.19626 -10.18341
 Alpha  occ. eigenvalues --   -1.03524  -1.02197  -0.92358  -0.91564  -0.77945
 Alpha  occ. eigenvalues --   -0.72566  -0.70830  -0.64667  -0.58747  -0.57543
 Alpha  occ. eigenvalues --   -0.53563  -0.47377  -0.47019  -0.46214  -0.45107
 Alpha  occ. eigenvalues --   -0.43773  -0.42767  -0.41801  -0.39922  -0.39389
 Alpha  occ. eigenvalues --   -0.39107  -0.38447  -0.37706  -0.35424  -0.34471
 Alpha  occ. eigenvalues --   -0.26248  -0.25460  -0.24893  -0.23890
 Alpha virt. eigenvalues --    0.02096   0.03677   0.06659   0.09079   0.11543
 Alpha virt. eigenvalues --    0.13046   0.13950   0.14508   0.15593   0.15835
 Alpha virt. eigenvalues --    0.16354   0.16568   0.18118   0.18723   0.20167
 Alpha virt. eigenvalues --    0.22180   0.22717   0.25136   0.28240   0.32671
 Alpha virt. eigenvalues --    0.33833   0.37663   0.40669   0.50072   0.50832
 Alpha virt. eigenvalues --    0.52430   0.52782   0.54781   0.55183   0.56642
 Alpha virt. eigenvalues --    0.58660   0.59520   0.61396   0.62955   0.65707
 Alpha virt. eigenvalues --    0.68174   0.69478   0.70873   0.73146   0.74071
 Alpha virt. eigenvalues --    0.74469   0.76810   0.78855   0.79995   0.83654
 Alpha virt. eigenvalues --    0.84587   0.86228   0.86374   0.87347   0.88147
 Alpha virt. eigenvalues --    0.89536   0.90092   0.91174   0.91963   0.93737
 Alpha virt. eigenvalues --    0.94550   0.95035   0.96766   0.98051   1.01785
 Alpha virt. eigenvalues --    1.03352   1.05807   1.08091   1.11317   1.15177
 Alpha virt. eigenvalues --    1.18830   1.23126   1.28598   1.29323   1.31436
 Alpha virt. eigenvalues --    1.37458   1.40459   1.42276   1.43771   1.47118
 Alpha virt. eigenvalues --    1.51054   1.53410   1.61213   1.65700   1.69221
 Alpha virt. eigenvalues --    1.73846   1.75825   1.77115   1.79611   1.80387
 Alpha virt. eigenvalues --    1.83501   1.83988   1.88376   1.89353   1.92243
 Alpha virt. eigenvalues --    1.92629   1.96462   1.99860   2.00337   2.01075
 Alpha virt. eigenvalues --    2.04194   2.06675   2.08432   2.13903   2.15918
 Alpha virt. eigenvalues --    2.19166   2.22610   2.23912   2.26135   2.27730
 Alpha virt. eigenvalues --    2.30272   2.32354   2.36453   2.40300   2.41329
 Alpha virt. eigenvalues --    2.43848   2.44156   2.52933   2.58992   2.59773
 Alpha virt. eigenvalues --    2.65182   2.68483   2.71062   2.73048   2.86330
 Alpha virt. eigenvalues --    2.93438   2.98086   3.02502   3.10904   3.13942
 Alpha virt. eigenvalues --    3.91190   3.98870   4.07464   4.11903   4.19843
 Alpha virt. eigenvalues --    4.21848   4.24454   4.38143   4.47171   4.63962
          Condensed to atoms (all electrons):
              1          2          3          4          5          6
     1  H    0.515584   0.355590  -0.020215  -0.024173  -0.019187   0.004330
     2  C    0.355590   5.344581   0.358041   0.343352   0.343271  -0.078820
     3  H   -0.020215   0.358041   0.516619  -0.026576  -0.020527  -0.000192
     4  H   -0.024173   0.343352  -0.026576   0.568443  -0.023516   0.002382
     5  C   -0.019187   0.343271  -0.020527  -0.023516   4.296207   0.597734
     6  O    0.004330  -0.078820  -0.000192   0.002382   0.597734   8.042261
     7  N    0.004474  -0.123788   0.000273   0.005788   0.254693  -0.095515
     8  H   -0.000012   0.000935   0.000502   0.000466  -0.018609   0.003379
     9  C   -0.000157   0.006515  -0.000524   0.000081  -0.022640  -0.006230
    10  H   -0.000010   0.001602  -0.000037  -0.000069  -0.000650   0.027521
    11  C    0.000005  -0.000246  -0.000003   0.000004   0.002434   0.000285
    12  H    0.000000  -0.000002   0.000000   0.000002  -0.000145  -0.000010
    13  H    0.000000   0.000004   0.000000   0.000000   0.000014   0.000008
    14  H    0.000000  -0.000006   0.000000  -0.000002   0.000460   0.000052
    15  C   -0.000001  -0.000032   0.000149  -0.000020   0.001043  -0.000959
    16  O    0.000006  -0.000837   0.001016   0.000009   0.010913  -0.000789
    17  N    0.000000   0.000001   0.000001   0.000000   0.000183  -0.000013
    18  H    0.000000   0.000000   0.000000   0.000000  -0.000025   0.000001
    19  C    0.000000   0.000000   0.000000   0.000000   0.000000   0.000000
    20  H    0.000000   0.000000   0.000000   0.000000  -0.000004   0.000000
    21  H    0.000000   0.000000   0.000000   0.000000   0.000000   0.000000
    22  H    0.000000   0.000000   0.000000   0.000000   0.000000   0.000000
              7          8          9         10         11         12
     1  H    0.004474  -0.000012  -0.000157  -0.000010   0.000005   0.000000
     2  C   -0.123788   0.000935   0.006515   0.001602  -0.000246  -0.000002
     3  H    0.000273   0.000502  -0.000524  -0.000037  -0.000003   0.000000
     4  H    0.005788   0.000466   0.000081  -0.000069   0.000004   0.000002
     5  C    0.254693  -0.018609  -0.022640  -0.000650   0.002434  -0.000145
     6  O   -0.095515   0.003379  -0.006230   0.027521   0.000285  -0.000010
     7  N    7.110298   0.295778   0.272024  -0.048968  -0.058642  -0.002634
     8  H    0.295778   0.429654  -0.044369   0.005796  -0.000135   0.002330
     9  C    0.272024  -0.044369   5.137406   0.359066   0.330426  -0.032964
    10  H   -0.048968   0.005796   0.359066   0.509724  -0.035945   0.004055
    11  C   -0.058642  -0.000135   0.330426  -0.035945   5.166876   0.372905
    12  H   -0.002634   0.002330  -0.032964   0.004055   0.372905   0.567589
    13  H    0.004472  -0.000165  -0.027217  -0.002590   0.353781  -0.033618
    14  H   -0.000238  -0.000213  -0.023721  -0.002425   0.368405  -0.027461
    15  C   -0.045782   0.000857   0.317498  -0.026136  -0.039496  -0.003424
    16  O   -0.008811   0.004828  -0.088324  -0.000677   0.002487   0.000043
    17  N    0.002445   0.000270  -0.114717   0.000471   0.001713   0.001820
    18  H    0.000248  -0.000020  -0.002021   0.000114   0.005336  -0.000210
    19  C   -0.000107  -0.000014   0.005880  -0.000176  -0.000127  -0.000127
    20  H   -0.000001  -0.000006   0.001045  -0.000017  -0.000056  -0.000008
    21  H   -0.000002   0.000000  -0.000233   0.000031   0.000024   0.000006
    22  H    0.000005   0.000000  -0.000038  -0.000003  -0.000029  -0.000008
             13         14         15         16         17         18
     1  H    0.000000   0.000000  -0.000001   0.000006   0.000000   0.000000
     2  C    0.000004  -0.000006  -0.000032  -0.000837   0.000001   0.000000
     3  H    0.000000   0.000000   0.000149   0.001016   0.000001   0.000000
     4  H    0.000000  -0.000002  -0.000020   0.000009   0.000000   0.000000
     5  C    0.000014   0.000460   0.001043   0.010913   0.000183  -0.000025
     6  O    0.000008   0.000052  -0.000959  -0.000789  -0.000013   0.000001
     7  N    0.004472  -0.000238  -0.045782  -0.008811   0.002445   0.000248
     8  H   -0.000165  -0.000213   0.000857   0.004828   0.000270  -0.000020
     9  C   -0.027217  -0.023721   0.317498  -0.088324  -0.114717  -0.002021
    10  H   -0.002590  -0.002425  -0.026136  -0.000677   0.000471   0.000114
    11  C    0.353781   0.368405  -0.039496   0.002487   0.001713   0.005336
    12  H   -0.033618  -0.027461  -0.003424   0.000043   0.001820  -0.000210
    13  H    0.585087  -0.024736  -0.000906  -0.000018  -0.002076   0.007625
    14  H   -0.024736   0.529872   0.002744  -0.000059   0.000186  -0.000207
    15  C   -0.000906   0.002744   4.371797   0.599028   0.270991  -0.017480
    16  O   -0.000018  -0.000059   0.599028   8.076070  -0.098402   0.003481
    17  N   -0.002076   0.000186   0.270991  -0.098402   7.091670   0.297402
    18  H    0.007625  -0.000207  -0.017480   0.003481   0.297402   0.407289
    19  C    0.000121   0.000003  -0.024196  -0.007829   0.266400  -0.032330
    20  H    0.000000   0.000001  -0.000995   0.020888  -0.040461   0.004112
    21  H   -0.000021   0.000000   0.000442   0.000560  -0.042883  -0.000877
    22  H    0.000010  -0.000001   0.002027   0.000461  -0.039679  -0.000722
             19         20         21         22
     1  H    0.000000   0.000000   0.000000   0.000000
     2  C    0.000000   0.000000   0.000000   0.000000
     3  H    0.000000   0.000000   0.000000   0.000000
     4  H    0.000000   0.000000   0.000000   0.000000
     5  C    0.000000  -0.000004   0.000000   0.000000
     6  O    0.000000   0.000000   0.000000   0.000000
     7  N   -0.000107  -0.000001  -0.000002   0.000005
     8  H   -0.000014  -0.000006   0.000000   0.000000
     9  C    0.005880   0.001045  -0.000233  -0.000038
    10  H   -0.000176  -0.000017   0.000031  -0.000003
    11  C   -0.000127  -0.000056   0.000024  -0.000029
    12  H   -0.000127  -0.000008   0.000006  -0.000008
    13  H    0.000121   0.000000  -0.000021   0.000010
    14  H    0.000003   0.000001   0.000000  -0.000001
    15  C   -0.024196  -0.000995   0.000442   0.002027
    16  O   -0.007829   0.020888   0.000560   0.000461
    17  N    0.266400  -0.040461  -0.042883  -0.039679
    18  H   -0.032330   0.004112  -0.000877  -0.000722
    19  C    4.964240   0.376897   0.383625   0.378521
    20  H    0.376897   0.482481  -0.026735  -0.022785
    21  H    0.383625  -0.026735   0.564782  -0.039930
    22  H    0.378521  -0.022785  -0.039930   0.566543
 Mulliken atomic charges:
              1
     1  H    0.183766
     2  C   -0.550161
     3  H    0.191473
     4  H    0.153830
     5  C    0.598349
     6  O   -0.495425
     7  N   -0.566009
     8  H    0.318743
     9  C   -0.066787
    10  H    0.209320
    11  C   -0.470002
    12  H    0.151863
    13  H    0.140224
    14  H    0.177344
    15  C    0.592852
    16  O   -0.514043
    17  N   -0.595323
    18  H    0.328285
    19  C   -0.310783
    20  H    0.205644
    21  H    0.161211
    22  H    0.155628
 Sum of Mulliken atomic charges =   0.00000
 Mulliken charges with hydrogens summed into heavy atoms:
              1
     2  C   -0.021092
     5  C    0.598349
     6  O   -0.495425
     7  N   -0.247266
     9  C    0.142533
    11  C   -0.000570
    15  C    0.592852
    16  O   -0.514043
    17  N   -0.267038
    19  C    0.211700
 Sum of Mulliken charges with hydrogens summed into heavy atoms =   0.00000
 Electronic spatial extent (au):  <R**2>=           1844.3000
 Charge=              0.0000 electrons
 Dipole moment (field-independent basis, Debye):
    X=             -3.2684    Y=              2.3320    Z=             -2.6740  Tot=              4.8240
 Quadrupole moment (field-independent basis, Debye-Ang):
   XX=            -51.7417   YY=            -60.8274   ZZ=            -61.6036
   XY=             -3.4891   XZ=             -7.8303   YZ=              1.2701
 Traceless Quadrupole moment (field-independent basis, Debye-Ang):
   XX=              6.3159   YY=             -2.7698   ZZ=             -3.5460
   XY=             -3.4891   XZ=             -7.8303   YZ=              1.2701
 Octapole moment (field-independent basis, Debye-Ang**2):
  XXX=            -28.9339  YYY=              1.6283  ZZZ=             -6.5282  XYY=             -1.7375
  XXY=             -7.9537  XXZ=            -12.0528  XZZ=             -7.3608  YZZ=             -0.6866
  YYZ=              2.6168  XYZ=              1.0627
 Hexadecapole moment (field-independent basis, Debye-Ang**3):
 XXXX=          -1546.4677 YYYY=           -509.8643 ZZZZ=           -191.6761 XXXY=             -3.9665
 XXXZ=            -26.4503 YYYX=             -1.8270 YYYZ=              5.1114 ZZZX=            -11.6715
 ZZZY=             -0.5755 XXYY=           -346.7581 XXZZ=           -331.8311 YYZZ=           -118.0499
 XXYZ=              4.5222 YYXZ=              1.8886 ZZXY=              2.7173
 N-N= 5.543960782746D+02 E-N=-2.264976829327D+03  KE= 4.912310525689D+02
 1\1\GINC-NODE006\FOpt\RB3LYP\6-31G(d)\C6H12N2O2\STEBOSS\10-Feb-2017\0\
 \# b3lyp/6-31G* Opt=(ModRedundant, maxcycles=1000, calcfc) geom=nocrow
 d\\Phi Psi fixed scan\\0,1\H,1.2590363424,2.5975262706,1.8574223455\C,
 1.5616232736,3.2275894061,1.0194826896\H,1.0219300528,4.1799982751,1.0
 865186256\H,1.2867076793,2.743833352,0.0758752612\C,3.0521499492,3.502
 10499,1.1165903199\O,3.6734257814,3.4202472729,2.1646917315\N,3.659593
 6881,3.8250467776,-0.0866457145\H,3.0199763203,4.114862276,-0.81772733
 96\C,4.9263860573,4.5424622779,-0.067876327\H,5.3586694211,4.318749054
 2,0.9145095633\C,5.8665970034,4.0247626204,-1.1652877447\H,5.505139467
 1,4.2795500227,-2.1685526604\H,6.8839938722,4.4198464251,-1.0556079901
 \H,5.934684152,2.9358869097,-1.0943349889\C,4.6360092258,6.066366172,-
 0.0837517745\O,3.5983380122,6.5103785387,0.3934741064\N,5.5733294628,6
 .8576823445,-0.6829124309\H,6.4284799713,6.4372230089,-1.0127424762\C,
 5.4725172699,8.3077543119,-0.6945732953\H,4.4570582625,8.5681467528,-0
 .3942807788\H,6.1785576423,8.7696424666,0.0071015121\H,5.6668970929,8.
 6971404742,-1.6997726342\\Version=EM64L-G09RevA.02\State=1-A\HF=-495.8
 447189\RMSD=4.958e-09\RMSF=7.820e-04\Dipole=0.7410482,0.3620441,-1.709
 3415\Quadrupole=5.5910926,-0.5489186,-5.042174,5.2545246,-0.8021831,1.
 1776256\PG=C01 [X(C6H12N2O2)]\\@


 ADVERTISING--  HE WHO HAS SOMETHING TO SELL AND GOES AND WHISPERS
                IN A WELL, IS NOT SO APT TO GET THE DOLLARS AS HE
                WHO CLIMBS A TREE AND HOLLERS.

                   -- FROM THE BACK OF A SUGAR PACKET
 Job cpu time:  0 days  1 hours 22 minutes 15.1 seconds.
 File lengths (MBytes):  RWF=    186 Int=      0 D2E=      0 Chk=      4 Scr=      2
 Normal termination of Gaussian 09 at Fri Feb 10 23:09:29 2017.
