 Entering Gaussian System, Link 0=g09
 Initial command:
 /home/steboss/Software/g09/l1.exe /tmp/Gau-16567.inp -scrdir=/tmp/
 Entering Link 1 = /home/steboss/Software/g09/l1.exe PID=     16574.
  
 Copyright (c) 1988,1990,1992,1993,1995,1998,2003,2009, Gaussian, Inc.
                  All Rights Reserved.
  
 This is part of the Gaussian(R) 09 program.  It is based on
 the Gaussian(R) 03 system (copyright 2003, Gaussian, Inc.),
 the Gaussian(R) 98 system (copyright 1998, Gaussian, Inc.),
 the Gaussian(R) 94 system (copyright 1995, Gaussian, Inc.),
 the Gaussian 92(TM) system (copyright 1992, Gaussian, Inc.),
 the Gaussian 90(TM) system (copyright 1990, Gaussian, Inc.),
 the Gaussian 88(TM) system (copyright 1988, Gaussian, Inc.),
 the Gaussian 86(TM) system (copyright 1986, Carnegie Mellon
 University), and the Gaussian 82(TM) system (copyright 1983,
 Carnegie Mellon University). Gaussian is a federally registered
 trademark of Gaussian, Inc.
  
 This software contains proprietary and confidential information,
 including trade secrets, belonging to Gaussian, Inc.
  
 This software is provided under written license and may be
 used, copied, transmitted, or stored only in accord with that
 written license.
  
 The following legend is applicable only to US Government
 contracts under FAR:
  
                    RESTRICTED RIGHTS LEGEND
  
 Use, reproduction and disclosure by the US Government is
 subject to restrictions as set forth in subparagraphs (a)
 and (c) of the Commercial Computer Software - Restricted
 Rights clause in FAR 52.227-19.
  
 Gaussian, Inc.
 340 Quinnipiac St., Bldg. 40, Wallingford CT 06492
  
  
 ---------------------------------------------------------------
 Warning -- This program may not be used in any manner that
 competes with the business of Gaussian, Inc. or will provide
 assistance to any competitor of Gaussian, Inc.  The licensee
 of this program is prohibited from giving any competitor of
 Gaussian, Inc. access to this program.  By using this program,
 the user acknowledges that Gaussian, Inc. is engaged in the
 business of creating and licensing software in the field of
 computational chemistry and represents and warrants to the
 licensee that it is not a competitor of Gaussian, Inc. and that
 it will not use this program in any manner prohibited above.
 ---------------------------------------------------------------
  

 Cite this work as:
 Gaussian 09, Revision A.02,
 M. J. Frisch, G. W. Trucks, H. B. Schlegel, G. E. Scuseria, 
 M. A. Robb, J. R. Cheeseman, G. Scalmani, V. Barone, B. Mennucci, 
 G. A. Petersson, H. Nakatsuji, M. Caricato, X. Li, H. P. Hratchian, 
 A. F. Izmaylov, J. Bloino, G. Zheng, J. L. Sonnenberg, M. Hada, 
 M. Ehara, K. Toyota, R. Fukuda, J. Hasegawa, M. Ishida, T. Nakajima, 
 Y. Honda, O. Kitao, H. Nakai, T. Vreven, J. A. Montgomery, Jr., 
 J. E. Peralta, F. Ogliaro, M. Bearpark, J. J. Heyd, E. Brothers, 
 K. N. Kudin, V. N. Staroverov, R. Kobayashi, J. Normand, 
 K. Raghavachari, A. Rendell, J. C. Burant, S. S. Iyengar, J. Tomasi, 
 M. Cossi, N. Rega, J. M. Millam, M. Klene, J. E. Knox, J. B. Cross, 
 V. Bakken, C. Adamo, J. Jaramillo, R. Gomperts, R. E. Stratmann, 
 O. Yazyev, A. J. Austin, R. Cammi, C. Pomelli, J. W. Ochterski, 
 R. L. Martin, K. Morokuma, V. G. Zakrzewski, G. A. Voth, 
 P. Salvador, J. J. Dannenberg, S. Dapprich, A. D. Daniels, 
 O. Farkas, J. B. Foresman, J. V. Ortiz, J. Cioslowski, 
 and D. J. Fox, Gaussian, Inc., Wallingford CT, 2009.
 
 ******************************************
 Gaussian 09:  EM64L-G09RevA.02 11-Jun-2009
                28-Dec-2016 
 ******************************************
 %chk=structure_120.chk
 ----------------------------------------------------------------------
 # b3lyp/6-31G* Opt=(ModRedundant, maxcycles=1000, calcfc) geom=nocrowd
 ----------------------------------------------------------------------
 1/6=1000,10=4,14=-1,18=120,19=15,26=3,38=1/1,3;
 2/9=110,12=1,17=6,18=5,40=1/2;
 3/5=1,6=6,7=1,11=2,16=1,25=1,30=1,71=2,74=-5/1,2,3;
 4//1;
 5/5=2,38=5/2;
 8/6=4,10=90,11=11/1;
 11/6=1,8=1,9=11,15=111,16=1/1,2,10;
 10/6=1,7=6,13=1/2;
 6/7=2,8=2,9=2,10=2,28=1/1;
 7/10=1,18=20,25=1/1,2,3,16;
 1/6=1000,10=4,14=-1,18=20,19=15/3(2);
 2/9=110,12=1/2;
 99//99;
 2/9=110,12=1/2;
 3/5=1,6=6,7=1,11=2,16=1,25=1,30=1,71=1,74=-5/1,2,3;
 4/5=5,16=3/1;
 5/5=2,38=5/2;
 7//1,2,3,16;
 1/6=1000,14=-1,18=20,19=15/3(-5);
 2/9=110,12=1/2;
 6/7=2,8=2,9=2,10=2,19=2,28=1/1;
 99/9=1/99;
 ------------------
 Phi Psi fixed scan
 ------------------
 Symbolic Z-matrix:
 Charge =  0 Multiplicity = 1
 H                     3.923     1.        3.3308 
 C                     3.923     2.09      3.3308 
 H                     4.4368    2.4538    4.2206 
 H                     2.8956    2.4538    3.3308 
 C                     4.6367    2.6408    2.0946 
 O                     5.1183    1.8774    1.2605 
 N                     4.7007    3.9696    1.9838 
 H                     4.2896    4.5561    2.6959 
 C                     5.3497    4.6139    0.8598 
 H                     6.3974    4.3155    0.8246 
 C                     4.6866    4.2208   -0.4561 
 H                     3.639     4.5214   -0.4396 
 H                     5.194     4.7189   -1.2822 
 H                     4.7522    3.1409   -0.5882 
 C                     5.2794    6.1294    0.9815 
 O                     4.7233    6.6527    1.9446 
 N                     5.846     6.8349    0. 
 H                     6.2915    6.3592   -0.7716 
 C                     5.8461    8.2839    0. 
 H                     5.3323    8.6477   -0.8898 
 C                     5.1347    8.8329    1.2322 
 H                     5.6431    8.4846    2.1312 
 H                     5.1499    9.9224    1.2058 
 H                     4.1019    8.4846    1.2414 
 C                     7.266     8.8318    0. 
 O                     8.0386    8.5624    0.9171 
 N                     7.6088    9.6038   -1.0338 
 H                     6.9383    9.797    -1.764 
 C                     8.9308    10.1857  -1.1497 
 H                     9.1217    10.8292  -0.2909 
 C                     10.0046   9.1038   -1.1963 
 H                     9.8322    8.4568   -2.0563 
 H                     10.9864   9.5692   -1.2833 
 H                     9.9638    8.5111   -0.2824 
 C                     9.0538    11.018   -2.418 
 O                     8.1017    11.1268  -3.1875 
 N                     10.2322   11.6068  -2.6346 
 H                     10.9855   11.4877  -1.9725 
 C                     10.4755   12.4252  -3.8053 
 H                     9.5757    12.4581  -4.4197 
 H                     10.7397   13.4359  -3.4943 
 H                     11.2945   11.998   -4.3841 
 
 The following ModRedundant input section has been read:
 D   15   17   19   25 F                                                       
 D   17   19   25   27 F                                                       

 GradGradGradGradGradGradGradGradGradGradGradGradGradGradGradGradGradGrad
 Berny optimization.
 Initialization pass.
                           ----------------------------
                           !    Initial Parameters    !
                           ! (Angstroms and Degrees)  !
 --------------------------                            --------------------------
 ! Name  Definition              Value          Derivative Info.                !
 --------------------------------------------------------------------------------
 ! R1    R(1,2)                  1.09           calculate D2E/DX2 analytically  !
 ! R2    R(2,3)                  1.09           calculate D2E/DX2 analytically  !
 ! R3    R(2,4)                  1.0899         calculate D2E/DX2 analytically  !
 ! R4    R(2,5)                  1.53           calculate D2E/DX2 analytically  !
 ! R5    R(5,6)                  1.229          calculate D2E/DX2 analytically  !
 ! R6    R(5,7)                  1.3349         calculate D2E/DX2 analytically  !
 ! R7    R(7,8)                  1.01           calculate D2E/DX2 analytically  !
 ! R8    R(7,9)                  1.449          calculate D2E/DX2 analytically  !
 ! R9    R(9,10)                 1.0899         calculate D2E/DX2 analytically  !
 ! R10   R(9,11)                 1.5251         calculate D2E/DX2 analytically  !
 ! R11   R(9,15)                 1.522          calculate D2E/DX2 analytically  !
 ! R12   R(11,12)                1.09           calculate D2E/DX2 analytically  !
 ! R13   R(11,13)                1.09           calculate D2E/DX2 analytically  !
 ! R14   R(11,14)                1.0899         calculate D2E/DX2 analytically  !
 ! R15   R(15,16)                1.2291         calculate D2E/DX2 analytically  !
 ! R16   R(15,17)                1.335          calculate D2E/DX2 analytically  !
 ! R17   R(17,18)                1.01           calculate D2E/DX2 analytically  !
 ! R18   R(17,19)                1.449          calculate D2E/DX2 analytically  !
 ! R19   R(19,20)                1.09           calculate D2E/DX2 analytically  !
 ! R20   R(19,21)                1.5251         calculate D2E/DX2 analytically  !
 ! R21   R(19,25)                1.5219         calculate D2E/DX2 analytically  !
 ! R22   R(21,22)                1.0899         calculate D2E/DX2 analytically  !
 ! R23   R(21,23)                1.0899         calculate D2E/DX2 analytically  !
 ! R24   R(21,24)                1.09           calculate D2E/DX2 analytically  !
 ! R25   R(25,26)                1.229          calculate D2E/DX2 analytically  !
 ! R26   R(25,27)                1.335          calculate D2E/DX2 analytically  !
 ! R27   R(27,28)                1.01           calculate D2E/DX2 analytically  !
 ! R28   R(27,29)                1.449          calculate D2E/DX2 analytically  !
 ! R29   R(29,30)                1.09           calculate D2E/DX2 analytically  !
 ! R30   R(29,31)                1.525          calculate D2E/DX2 analytically  !
 ! R31   R(29,35)                1.522          calculate D2E/DX2 analytically  !
 ! R32   R(31,32)                1.0899         calculate D2E/DX2 analytically  !
 ! R33   R(31,33)                1.09           calculate D2E/DX2 analytically  !
 ! R34   R(31,34)                1.09           calculate D2E/DX2 analytically  !
 ! R35   R(35,36)                1.229          calculate D2E/DX2 analytically  !
 ! R36   R(35,37)                1.335          calculate D2E/DX2 analytically  !
 ! R37   R(37,38)                1.01           calculate D2E/DX2 analytically  !
 ! R38   R(37,39)                1.449          calculate D2E/DX2 analytically  !
 ! R39   R(39,40)                1.0901         calculate D2E/DX2 analytically  !
 ! R40   R(39,41)                1.09           calculate D2E/DX2 analytically  !
 ! R41   R(39,42)                1.0901         calculate D2E/DX2 analytically  !
 ! A1    A(1,2,3)              109.4974         calculate D2E/DX2 analytically  !
 ! A2    A(1,2,4)              109.4989         calculate D2E/DX2 analytically  !
 ! A3    A(1,2,5)              111.1            calculate D2E/DX2 analytically  !
 ! A4    A(3,2,4)              109.4472         calculate D2E/DX2 analytically  !
 ! A5    A(3,2,5)              108.6348         calculate D2E/DX2 analytically  !
 ! A6    A(4,2,5)              108.6357         calculate D2E/DX2 analytically  !
 ! A7    A(2,5,6)              120.4994         calculate D2E/DX2 analytically  !
 ! A8    A(2,5,7)              116.6003         calculate D2E/DX2 analytically  !
 ! A9    A(6,5,7)              122.9003         calculate D2E/DX2 analytically  !
 ! A10   A(5,7,8)              119.9996         calculate D2E/DX2 analytically  !
 ! A11   A(5,7,9)              121.9007         calculate D2E/DX2 analytically  !
 ! A12   A(8,7,9)              118.0998         calculate D2E/DX2 analytically  !
 ! A13   A(7,9,10)             109.5025         calculate D2E/DX2 analytically  !
 ! A14   A(7,9,11)             111.0972         calculate D2E/DX2 analytically  !
 ! A15   A(7,9,15)             111.102          calculate D2E/DX2 analytically  !
 ! A16   A(10,9,11)            108.6338         calculate D2E/DX2 analytically  !
 ! A17   A(10,9,15)            108.6381         calculate D2E/DX2 analytically  !
 ! A18   A(11,9,15)            107.7924         calculate D2E/DX2 analytically  !
 ! A19   A(9,11,12)            109.496          calculate D2E/DX2 analytically  !
 ! A20   A(9,11,13)            109.4976         calculate D2E/DX2 analytically  !
 ! A21   A(9,11,14)            109.4994         calculate D2E/DX2 analytically  !
 ! A22   A(12,11,13)           109.4425         calculate D2E/DX2 analytically  !
 ! A23   A(12,11,14)           109.4464         calculate D2E/DX2 analytically  !
 ! A24   A(13,11,14)           109.4454         calculate D2E/DX2 analytically  !
 ! A25   A(9,15,16)            120.4974         calculate D2E/DX2 analytically  !
 ! A26   A(9,15,17)            116.6046         calculate D2E/DX2 analytically  !
 ! A27   A(16,15,17)           122.8981         calculate D2E/DX2 analytically  !
 ! A28   A(15,17,18)           119.9989         calculate D2E/DX2 analytically  !
 ! A29   A(15,17,19)           121.9049         calculate D2E/DX2 analytically  !
 ! A30   A(18,17,19)           118.0962         calculate D2E/DX2 analytically  !
 ! A31   A(17,19,20)           109.4954         calculate D2E/DX2 analytically  !
 ! A32   A(17,19,21)           111.0974         calculate D2E/DX2 analytically  !
 ! A33   A(17,19,25)           111.1042         calculate D2E/DX2 analytically  !
 ! A34   A(20,19,21)           108.6349         calculate D2E/DX2 analytically  !
 ! A35   A(20,19,25)           108.6399         calculate D2E/DX2 analytically  !
 ! A36   A(21,19,25)           107.7944         calculate D2E/DX2 analytically  !
 ! A37   A(19,21,22)           109.4996         calculate D2E/DX2 analytically  !
 ! A38   A(19,21,23)           109.4977         calculate D2E/DX2 analytically  !
 ! A39   A(19,21,24)           109.4988         calculate D2E/DX2 analytically  !
 ! A40   A(22,21,23)           109.4452         calculate D2E/DX2 analytically  !
 ! A41   A(22,21,24)           109.4447         calculate D2E/DX2 analytically  !
 ! A42   A(23,21,24)           109.4412         calculate D2E/DX2 analytically  !
 ! A43   A(19,25,26)           120.5014         calculate D2E/DX2 analytically  !
 ! A44   A(19,25,27)           116.5988         calculate D2E/DX2 analytically  !
 ! A45   A(26,25,27)           122.8998         calculate D2E/DX2 analytically  !
 ! A46   A(25,27,28)           120.0005         calculate D2E/DX2 analytically  !
 ! A47   A(25,27,29)           121.8991         calculate D2E/DX2 analytically  !
 ! A48   A(28,27,29)           118.1005         calculate D2E/DX2 analytically  !
 ! A49   A(27,29,30)           109.5023         calculate D2E/DX2 analytically  !
 ! A50   A(27,29,31)           111.0965         calculate D2E/DX2 analytically  !
 ! A51   A(27,29,35)           111.0992         calculate D2E/DX2 analytically  !
 ! A52   A(30,29,31)           108.6378         calculate D2E/DX2 analytically  !
 ! A53   A(30,29,35)           108.637          calculate D2E/DX2 analytically  !
 ! A54   A(31,29,35)           107.7933         calculate D2E/DX2 analytically  !
 ! A55   A(29,31,32)           109.5036         calculate D2E/DX2 analytically  !
 ! A56   A(29,31,33)           109.4968         calculate D2E/DX2 analytically  !
 ! A57   A(29,31,34)           109.498          calculate D2E/DX2 analytically  !
 ! A58   A(32,31,33)           109.4483         calculate D2E/DX2 analytically  !
 ! A59   A(32,31,34)           109.4419         calculate D2E/DX2 analytically  !
 ! A60   A(33,31,34)           109.4387         calculate D2E/DX2 analytically  !
 ! A61   A(29,35,36)           120.5013         calculate D2E/DX2 analytically  !
 ! A62   A(29,35,37)           116.598          calculate D2E/DX2 analytically  !
 ! A63   A(36,35,37)           122.9008         calculate D2E/DX2 analytically  !
 ! A64   A(35,37,38)           120.0001         calculate D2E/DX2 analytically  !
 ! A65   A(35,37,39)           121.8984         calculate D2E/DX2 analytically  !
 ! A66   A(38,37,39)           118.1015         calculate D2E/DX2 analytically  !
 ! A67   A(37,39,40)           109.502          calculate D2E/DX2 analytically  !
 ! A68   A(37,39,41)           109.506          calculate D2E/DX2 analytically  !
 ! A69   A(37,39,42)           109.5            calculate D2E/DX2 analytically  !
 ! A70   A(40,39,41)           109.4463         calculate D2E/DX2 analytically  !
 ! A71   A(40,39,42)           109.4352         calculate D2E/DX2 analytically  !
 ! A72   A(41,39,42)           109.4378         calculate D2E/DX2 analytically  !
 ! D1    D(1,2,5,6)             -0.0022         calculate D2E/DX2 analytically  !
 ! D2    D(1,2,5,7)           -179.9987         calculate D2E/DX2 analytically  !
 ! D3    D(3,2,5,6)            120.5061         calculate D2E/DX2 analytically  !
 ! D4    D(3,2,5,7)            -59.4904         calculate D2E/DX2 analytically  !
 ! D5    D(4,2,5,6)           -120.5129         calculate D2E/DX2 analytically  !
 ! D6    D(4,2,5,7)             59.4905         calculate D2E/DX2 analytically  !
 ! D7    D(2,5,7,8)             -0.0002         calculate D2E/DX2 analytically  !
 ! D8    D(2,5,7,9)            179.997          calculate D2E/DX2 analytically  !
 ! D9    D(6,5,7,8)           -179.9966         calculate D2E/DX2 analytically  !
 ! D10   D(6,5,7,9)              0.0006         calculate D2E/DX2 analytically  !
 ! D11   D(5,7,9,10)           -59.9963         calculate D2E/DX2 analytically  !
 ! D12   D(5,7,9,11)            60.0011         calculate D2E/DX2 analytically  !
 ! D13   D(5,7,9,15)           179.9979         calculate D2E/DX2 analytically  !
 ! D14   D(8,7,9,10)           120.001          calculate D2E/DX2 analytically  !
 ! D15   D(8,7,9,11)          -120.0017         calculate D2E/DX2 analytically  !
 ! D16   D(8,7,9,15)            -0.0048         calculate D2E/DX2 analytically  !
 ! D17   D(7,9,11,12)           60.002          calculate D2E/DX2 analytically  !
 ! D18   D(7,9,11,13)          179.9982         calculate D2E/DX2 analytically  !
 ! D19   D(7,9,11,14)          -60.0            calculate D2E/DX2 analytically  !
 ! D20   D(10,9,11,12)        -179.4858         calculate D2E/DX2 analytically  !
 ! D21   D(10,9,11,13)         -59.4897         calculate D2E/DX2 analytically  !
 ! D22   D(10,9,11,14)          60.5122         calculate D2E/DX2 analytically  !
 ! D23   D(15,9,11,12)         -61.9422         calculate D2E/DX2 analytically  !
 ! D24   D(15,9,11,13)          58.0539         calculate D2E/DX2 analytically  !
 ! D25   D(15,9,11,14)         178.0557         calculate D2E/DX2 analytically  !
 ! D26   D(7,9,15,16)            0.0008         calculate D2E/DX2 analytically  !
 ! D27   D(7,9,15,17)         -179.9951         calculate D2E/DX2 analytically  !
 ! D28   D(10,9,15,16)        -120.5172         calculate D2E/DX2 analytically  !
 ! D29   D(10,9,15,17)          59.4869         calculate D2E/DX2 analytically  !
 ! D30   D(11,9,15,16)         121.9421         calculate D2E/DX2 analytically  !
 ! D31   D(11,9,15,17)         -58.0538         calculate D2E/DX2 analytically  !
 ! D32   D(9,15,17,18)          -0.0024         calculate D2E/DX2 analytically  !
 ! D33   D(9,15,17,19)        -179.9943         calculate D2E/DX2 analytically  !
 ! D34   D(16,15,17,18)       -179.9982         calculate D2E/DX2 analytically  !
 ! D35   D(16,15,17,19)          0.0099         calculate D2E/DX2 analytically  !
 ! D36   D(15,17,19,20)       -120.0004         calculate D2E/DX2 analytically  !
 ! D37   D(15,17,19,21)         -0.0061         calculate D2E/DX2 analytically  !
 ! D38   D(15,17,19,25)        119.9948         frozen, calculate D2E/DX2 analyt!
 ! D39   D(18,17,19,20)         60.0075         calculate D2E/DX2 analytically  !
 ! D40   D(18,17,19,21)       -179.9982         calculate D2E/DX2 analytically  !
 ! D41   D(18,17,19,25)        -59.9973         calculate D2E/DX2 analytically  !
 ! D42   D(17,19,21,22)         60.0039         calculate D2E/DX2 analytically  !
 ! D43   D(17,19,21,23)       -179.9943         calculate D2E/DX2 analytically  !
 ! D44   D(17,19,21,24)        -59.998          calculate D2E/DX2 analytically  !
 ! D45   D(20,19,21,22)       -179.4919         calculate D2E/DX2 analytically  !
 ! D46   D(20,19,21,23)        -59.4901         calculate D2E/DX2 analytically  !
 ! D47   D(20,19,21,24)         60.5062         calculate D2E/DX2 analytically  !
 ! D48   D(25,19,21,22)        -61.9445         calculate D2E/DX2 analytically  !
 ! D49   D(25,19,21,23)         58.0573         calculate D2E/DX2 analytically  !
 ! D50   D(25,19,21,24)        178.0536         calculate D2E/DX2 analytically  !
 ! D51   D(17,19,25,26)        -60.0007         calculate D2E/DX2 analytically  !
 ! D52   D(17,19,25,27)        119.9986         frozen, calculate D2E/DX2 analyt!
 ! D53   D(20,19,25,26)        179.4877         calculate D2E/DX2 analytically  !
 ! D54   D(20,19,25,27)         -0.5131         calculate D2E/DX2 analytically  !
 ! D55   D(21,19,25,26)         61.9435         calculate D2E/DX2 analytically  !
 ! D56   D(21,19,25,27)       -118.0573         calculate D2E/DX2 analytically  !
 ! D57   D(19,25,27,28)          0.0039         calculate D2E/DX2 analytically  !
 ! D58   D(19,25,27,29)        179.9979         calculate D2E/DX2 analytically  !
 ! D59   D(26,25,27,28)       -179.9968         calculate D2E/DX2 analytically  !
 ! D60   D(26,25,27,29)         -0.0029         calculate D2E/DX2 analytically  !
 ! D61   D(25,27,29,30)        -59.9969         calculate D2E/DX2 analytically  !
 ! D62   D(25,27,29,31)         60.0049         calculate D2E/DX2 analytically  !
 ! D63   D(25,27,29,35)       -179.9994         calculate D2E/DX2 analytically  !
 ! D64   D(28,27,29,30)        119.9971         calculate D2E/DX2 analytically  !
 ! D65   D(28,27,29,31)       -120.0011         calculate D2E/DX2 analytically  !
 ! D66   D(28,27,29,35)         -0.0054         calculate D2E/DX2 analytically  !
 ! D67   D(27,29,31,32)         59.9976         calculate D2E/DX2 analytically  !
 ! D68   D(27,29,31,33)       -179.9949         calculate D2E/DX2 analytically  !
 ! D69   D(27,29,31,34)        -60.0027         calculate D2E/DX2 analytically  !
 ! D70   D(30,29,31,32)       -179.4883         calculate D2E/DX2 analytically  !
 ! D71   D(30,29,31,33)        -59.4808         calculate D2E/DX2 analytically  !
 ! D72   D(30,29,31,34)         60.5114         calculate D2E/DX2 analytically  !
 ! D73   D(35,29,31,32)        -61.9434         calculate D2E/DX2 analytically  !
 ! D74   D(35,29,31,33)         58.0641         calculate D2E/DX2 analytically  !
 ! D75   D(35,29,31,34)        178.0563         calculate D2E/DX2 analytically  !
 ! D76   D(27,29,35,36)          0.0026         calculate D2E/DX2 analytically  !
 ! D77   D(27,29,35,37)        179.9999         calculate D2E/DX2 analytically  !
 ! D78   D(30,29,35,36)       -120.5127         calculate D2E/DX2 analytically  !
 ! D79   D(30,29,35,37)         59.4846         calculate D2E/DX2 analytically  !
 ! D80   D(31,29,35,36)        121.9418         calculate D2E/DX2 analytically  !
 ! D81   D(31,29,35,37)        -58.0608         calculate D2E/DX2 analytically  !
 ! D82   D(29,35,37,38)          0.0053         calculate D2E/DX2 analytically  !
 ! D83   D(29,35,37,39)       -179.9974         calculate D2E/DX2 analytically  !
 ! D84   D(36,35,37,38)       -179.9974         calculate D2E/DX2 analytically  !
 ! D85   D(36,35,37,39)         -0.0002         calculate D2E/DX2 analytically  !
 ! D86   D(35,37,39,40)         -0.0042         calculate D2E/DX2 analytically  !
 ! D87   D(35,37,39,41)        120.0054         calculate D2E/DX2 analytically  !
 ! D88   D(35,37,39,42)       -119.9966         calculate D2E/DX2 analytically  !
 ! D89   D(38,37,39,40)        179.9931         calculate D2E/DX2 analytically  !
 ! D90   D(38,37,39,41)        -59.9973         calculate D2E/DX2 analytically  !
 ! D91   D(38,37,39,42)         60.0008         calculate D2E/DX2 analytically  !
 --------------------------------------------------------------------------------
 Trust Radius=3.00D-01 FncErr=1.00D-07 GrdErr=1.00D-06
 Number of steps in this run= 252 maximum allowed number of steps= 252.
 GradGradGradGradGradGradGradGradGradGradGradGradGradGradGradGradGradGrad

                          Input orientation:                          
 ---------------------------------------------------------------------
 Center     Atomic      Atomic             Coordinates (Angstroms)
 Number     Number       Type             X           Y           Z
 ---------------------------------------------------------------------
      1          1           0        3.923000    1.000000    3.330800
      2          6           0        3.923000    2.090000    3.330800
      3          1           0        4.436800    2.453800    4.220600
      4          1           0        2.895600    2.453800    3.330800
      5          6           0        4.636700    2.640800    2.094600
      6          8           0        5.118300    1.877400    1.260500
      7          7           0        4.700700    3.969600    1.983800
      8          1           0        4.289600    4.556100    2.695900
      9          6           0        5.349700    4.613900    0.859800
     10          1           0        6.397400    4.315500    0.824600
     11          6           0        4.686600    4.220800   -0.456100
     12          1           0        3.639000    4.521400   -0.439600
     13          1           0        5.194000    4.718900   -1.282200
     14          1           0        4.752200    3.140900   -0.588200
     15          6           0        5.279400    6.129400    0.981500
     16          8           0        4.723300    6.652700    1.944600
     17          7           0        5.846000    6.834900    0.000000
     18          1           0        6.291500    6.359200   -0.771600
     19          6           0        5.846100    8.283900    0.000000
     20          1           0        5.332300    8.647700   -0.889800
     21          6           0        5.134700    8.832900    1.232200
     22          1           0        5.643100    8.484600    2.131200
     23          1           0        5.149900    9.922400    1.205800
     24          1           0        4.101900    8.484600    1.241400
     25          6           0        7.266000    8.831800    0.000000
     26          8           0        8.038600    8.562400    0.917100
     27          7           0        7.608800    9.603800   -1.033800
     28          1           0        6.938300    9.797000   -1.764000
     29          6           0        8.930800   10.185700   -1.149700
     30          1           0        9.121700   10.829200   -0.290900
     31          6           0       10.004600    9.103800   -1.196300
     32          1           0        9.832200    8.456800   -2.056300
     33          1           0       10.986400    9.569200   -1.283300
     34          1           0        9.963800    8.511100   -0.282400
     35          6           0        9.053800   11.018000   -2.418000
     36          8           0        8.101700   11.126800   -3.187500
     37          7           0       10.232200   11.606800   -2.634600
     38          1           0       10.985500   11.487700   -1.972500
     39          6           0       10.475500   12.425200   -3.805300
     40          1           0        9.575700   12.458100   -4.419700
     41          1           0       10.739700   13.435900   -3.494300
     42          1           0       11.294500   11.998000   -4.384100
 ---------------------------------------------------------------------
                    Distance matrix (angstroms):
                    1          2          3          4          5
     1  H    0.000000
     2  C    1.090000   0.000000
     3  H    1.780244   1.089993   0.000000
     4  H    1.780192   1.089909   1.779618   0.000000
     5  C    2.174806   1.530013   2.143550   2.143499   0.000000
     6  O    2.546510   2.400017   3.091742   3.091727   1.229000
     7  N    3.352275   2.439697   2.714879   2.714856   1.334946
     8  H    3.630887   2.572769   2.601162   2.601153   2.037257
     9  C    4.604518   3.809381   4.098097   4.098107   2.434384
    10  H    4.836965   4.166119   4.340817   4.691436   2.741821
    11  C    5.029637   4.411803   5.005618   4.546491   3.000827
    12  H    5.166898   4.495362   5.160322   4.363889   3.309718
    13  H    6.060151   5.459517   5.998736   5.629662   4.003981
    14  H    4.541980   4.141319   4.867868   4.390630   2.731457
    15  C    5.802566   4.865777   4.971094   4.971091   3.717847
    16  O    5.874951   4.835314   4.784665   4.784642   4.015637
    17  N    6.988434   6.107883   6.244465   6.244448   4.841511
    18  H    7.152657   6.376954   6.604099   6.604088   4.977948
    19  C    8.236974   7.290881   7.334143   7.334149   6.139591
    20  H    8.847989   7.924836   8.079759   7.881330   6.743393
    21  C    8.199187   7.165127   7.078878   7.078885   6.271670
    22  H    7.772839   6.729687   6.495483   6.734860   5.929939
    23  H    9.253655   8.207765   8.085636   8.085634   7.353573
    24  H    7.772827   6.729674   6.734860   6.495483   5.929921
    25  C    9.143685   8.229322   8.154552   8.418641   7.044789
    26  O    8.941700   8.040900   7.823111   8.342145   6.929991
    27  N   10.327644   9.438858   9.422993   9.611789   8.191681
    28  H   10.603595   9.718378   9.797731   9.809332   8.449696
    29  C   11.381126  10.521088  10.431608  10.783357   9.267702
    30  H   11.694288  10.794295  10.604209  11.046645   9.636168
    31  C   11.097390  10.328305  10.225737  10.735689   9.023012
    32  H   10.933588  10.221332  10.224765  10.638293   8.834537
    33  H   12.025503  11.274749  11.127403  11.720916   9.986572
    34  H   10.293838   9.527697   9.354978   9.985267   8.275781
    35  C   12.638597  11.793345  11.778507  12.013228  10.490558
    36  O   12.747621  11.900148  11.980499  12.033812  10.579178
    37  N   13.707524  12.882604  12.820212  13.160133  11.578606
    38  H   13.711154  12.896537  12.761321  13.235665  11.623950
    39  C   14.979799  14.165999  14.153084  14.415534  12.831013
    40  H   14.943605  14.125182  14.182704  14.310136  12.775336
    41  H   15.738520  14.892241  14.827432  15.123439  13.602081
    42  H   15.323665  14.561152  14.565736  14.871212  13.185486
                    6          7          8          9         10
     6  O    0.000000
     7  N    2.252744   0.000000
     8  H    3.150008   1.009986   0.000000
     9  C    2.775345   1.449034   2.120947   0.000000
    10  H    2.787550   2.083790   2.828864   1.089934   0.000000
    11  C    2.936768   2.452838   3.194548   1.525065   2.139158
    12  H    3.474105   2.702695   3.202475   2.150230   3.041277
    13  H    3.813814   3.386968   4.082857   2.150217   2.459575
    14  H    2.268954   2.702699   3.605843   2.150218   2.466247
    15  C    4.264188   2.450354   2.528665   1.522003   2.136533
    16  O    4.840197   2.683482   2.268982   2.392880   3.085371
    17  N    5.166741   3.668395   3.857873   2.432778   2.707653
    18  H    5.058889   3.979078   4.391165   2.567981   2.595338
    19  C    6.569764   4.884730   4.856651   3.801916   4.090488
    20  H    7.106796   5.526402   5.539464   4.396925   4.779285
    21  C    6.955577   4.940136   4.598655   4.240857   4.708232
    22  H    6.684955   4.614658   4.193323   4.084711   4.433685
    23  H    8.045248   6.020207   5.635396   5.323515   5.756639
    24  H    6.684948   4.614645   4.193318   4.084721   4.777493
    25  C    7.386823   5.844417   5.865871   4.711915   4.672408
    26  O    7.303102   5.776957   5.767978   4.777459   4.553927
    27  N    8.435856   7.021906   7.099791   5.795546   5.734741
    28  H    8.670644   7.280896   7.373829   6.022666   6.086071
    29  C    9.453680   8.145702   8.247531   6.921512   6.691429
    30  H    9.928181   8.471931   8.462975   7.360846   7.148037
    31  C    9.062707   8.037686   8.275991   6.786372   6.326432
    32  H    8.747029   7.923993   8.277637   6.585160   6.103098
    33  H   10.003465   9.029922   9.263495   7.805143   7.287217
    34  H    8.358552   7.311710   7.530527   6.146764   5.616735
    35  C   10.609905   9.381112   9.518704   8.091775   7.905341
    36  O   10.688161   9.462275   9.608361   8.146902   8.086742
    37  N   11.661261  10.500187  10.650873   9.216848   8.935033
    38  H   11.714700  10.567537  10.708693   9.329163   8.961857
    39  C   12.869266  11.762617  11.935397  10.442863  10.189902
    40  H   12.809539  11.697225  11.875025  10.356818  10.193439
    41  H   13.704276  12.493596  12.600524  11.217752  10.985907
    42  H   13.131394  12.185383  12.432896  10.833470  10.494425
                   11         12         13         14         15
    11  C    0.000000
    12  H    1.089999   0.000000
    13  H    1.089954   1.779608   0.000000
    14  H    1.089926   1.779628   1.779581   0.000000
    15  C    2.461881   2.701130   2.668547   3.416582   0.000000
    16  O    3.417433   3.376767   3.791224   4.329971   1.229086
    17  N    2.895817   3.227442   2.558632   3.897180   1.334956
    18  H    2.692211   3.243993   2.038579   3.572189   2.037281
    19  C    4.249853   4.384170   3.844281   5.290845   2.434412
    20  H    4.494716   4.482889   3.950769   5.545478   3.137897
    21  C    4.931797   4.860151   4.821900   5.988241   2.718952
    22  H    5.078288   5.131509   5.102302   6.061680   2.645951
    23  H    5.956912   5.844738   5.767885   7.026048   3.801832
    24  H    4.626378   4.329780   4.662803   5.685548   2.645944
    25  C    5.303080   5.650480   4.780499   6.249121   3.494694
    26  O    5.654297   6.125912   5.263189   6.516058   3.679242
    27  N    6.152209   6.476355   5.454834   7.080099   4.643166
    28  H    6.154247   6.361711   5.390901   7.103887   4.872475
    29  C    7.353526   7.784066   6.623227   8.210066   5.859036
    30  H    7.960424   8.358855   7.331116   8.848213   6.202450
    31  C    7.257597   7.879838   6.509731   7.969546   5.993111
    32  H    6.854308   7.513775   6.006998   7.498034   5.947521
    33  H    8.305247   8.954128   7.554953   8.981729   7.037854
    34  H    6.803358   7.479673   6.175061   7.489548   5.404955
    35  C    8.314049   8.685617   7.474407   9.159729   7.049901
    36  O    8.174123   8.431960   7.290135   9.041577   7.093655
    37  N    9.489602   9.924273   8.640348  10.290268   8.222428
    38  H    9.735679  10.239638   8.935023  10.509014   8.366425
    39  C   10.584927  10.978876   9.677155  11.371197   9.463087
    40  H   10.366607  10.680675   9.430717  11.169457   9.363952
    41  H   11.436291  11.799129  10.565712  12.258980  10.160345
    42  H   10.935189  11.404618   9.991155  11.647264   9.970534
                   16         17         18         19         20
    16  O    0.000000
    17  N    2.252803   0.000000
    18  H    3.150101   1.010014   0.000000
    19  C    2.775421   1.449000   2.120900   0.000000
    20  H    3.519194   2.083717   2.484204   1.089993   0.000000
    21  C    2.330244   2.452808   3.387122   1.525060   2.139212
    22  H    2.058327   2.702719   3.655680   2.150233   3.041322
    23  H    3.379164   3.386911   4.231992   2.150193   2.459608
    24  H    2.058273   2.702678   3.655659   2.150253   2.466272
    25  C    3.872373   2.450308   2.767448   1.521943   2.136547
    26  O    3.961556   2.938167   3.279963   2.392842   3.255184
    27  N    5.089791   3.441368   3.511617   2.432692   2.473321
    28  H    5.342898   3.616470   3.636162   2.567892   2.159711
    29  C    6.305540   4.697410   4.663793   3.801845   3.922014
    30  H    6.464251   5.173902   5.312439   4.158453   4.413295
    31  C    6.615533   4.886000   4.636843   4.404145   4.704504
    32  H    6.735194   4.769562   4.311257   4.488570   4.652555
    33  H    7.625728   5.962128   5.710344   5.451746   5.742199
    34  H    5.989659   4.454848   4.284364   4.133621   4.673156
    35  C    7.539320   5.799572   5.660861   4.859153   4.669398
    36  O    7.600632   5.802477   5.642996   4.830111   4.369776
    37  N    8.709774   6.996492   6.821817   6.100873   5.984114
    38  H    8.828139   7.207896   7.055304   6.369342   6.418451
    39  C    9.973510   8.195367   7.969037   7.284368   7.015850
    40  H    9.887000   8.066275   7.828869   7.132153   6.707144
    41  H   10.573103   8.929257   8.790862   7.918368   7.677907
    42  H   10.573805   8.692761   8.359200   7.918329   7.680005
                   21         22         23         24         25
    21  C    0.000000
    22  H    1.089947   0.000000
    23  H    1.089926   1.779573   0.000000
    24  H    1.089988   1.779618   1.779562   0.000000
    25  C    2.461861   2.701179   2.668565   3.416599   0.000000
    26  O    2.933444   2.686729   3.205860   3.950801   1.229048
    27  N    3.442414   3.890220   3.341183   4.327527   1.335005
    28  H    3.627627   4.309585   3.468978   4.335895   2.037325
    29  C    4.681227   4.946415   4.462389   5.650608   2.434423
    30  H    4.711817   4.844004   4.340230   5.748346   2.741870
    31  C    5.448571   5.520720   5.477983   6.416203   3.000841
    32  H    5.746494   5.923216   5.891792   6.611500   3.309740
    33  H    6.411885   6.433197   6.354927   7.412611   4.003997
    34  H    5.071270   4.949204   5.232604   6.056776   2.731432
    35  C    5.784286   6.224645   5.438079   6.658126   3.717852
    36  O    5.796448   6.427636   5.428148   6.526467   4.015666
    37  N    6.973605   7.315793   6.589055   7.896334   4.841496
    38  H    7.179828   7.375649   6.826857   8.168948   4.977875
    39  C    8.173443   8.609440   7.728981   9.034395   6.139521
    40  H    8.050375   8.612104   7.593664   8.820388   6.165915
    41  H    8.656988   9.062944   8.104412   9.539529   6.743475
    42  H    8.916491   9.312971   8.562196   9.783850   6.743439
                   26         27         28         29         30
    26  O    0.000000
    27  N    2.252832   0.000000
    28  H    3.150110   1.009994   0.000000
    29  C    2.775389   1.449043   2.120969   0.000000
    30  H    2.787607   2.083836   2.828904   1.089987   0.000000
    31  C    2.936789   2.452807   3.194527   1.525033   2.139221
    32  H    3.474084   2.702707   3.202535   2.150242   3.041337
    33  H    3.813782   3.386979   4.082901   2.150212   2.459586
    34  H    2.268882   2.702706   3.605874   2.150252   2.466332
    35  C    4.264211   2.450305   2.528616   1.521985   2.136542
    36  O    4.840235   2.683450   2.268969   2.392845   3.085329
    37  N    5.166704   3.668351   3.857862   2.432714   2.707545
    38  H    5.058793   3.978987   4.391101   2.567878   2.595217
    39  C    6.569685   4.884617   4.856555   3.801798   4.090354
    40  H    6.783848   4.845621   4.592393   4.033931   4.461661
    41  H    7.106855   5.526444   5.539510   4.396939   4.435604
    42  H    7.106824   5.526399   5.539477   4.396914   4.779272
                   31         32         33         34         35
    31  C    0.000000
    32  H    1.089922   0.000000
    33  H    1.089999   1.779646   0.000000
    34  H    1.090033   1.779603   1.779631   0.000000
    35  C    2.461856   2.701200   2.668615   3.416641   0.000000
    36  O    3.417373   3.376854   3.791252   4.330001   1.229009
    37  N    2.895776   3.227527   2.558641   3.897210   1.335001
    38  H    2.692142   3.243991   2.038539   3.572178   2.037291
    39  C    4.249744   4.384180   3.844247   5.290826   2.434347
    40  H    4.671787   4.654230   4.491417   5.731202   2.520530
    41  H    4.958656   5.261448   4.461026   5.930597   3.137980
    42  H    4.494697   4.482976   3.950817   5.545555   3.137943
                   36         37         38         39         40
    36  O    0.000000
    37  N    2.252805   0.000000
    38  H    3.150044   1.009961   0.000000
    39  C    2.775328   1.448969   2.120887   0.000000
    40  H    2.337382   2.083815   2.986302   1.090050   0.000000
    41  H    3.519249   2.083806   2.484306   1.089971   1.779706
    42  H    3.519206   2.083811   2.484291   1.090078   1.779672
                   41         42
    41  H    0.000000
    42  H    1.779636   0.000000
 Stoichiometry    C12H22N4O4
 Framework group  C1[X(C12H22N4O4)]
 Deg. of freedom   120
 Full point group                 C1      NOp   1
 Largest Abelian subgroup         C1      NOp   1
 Largest concise Abelian subgroup C1      NOp   1
                         Standard orientation:                         
 ---------------------------------------------------------------------
 Center     Atomic      Atomic             Coordinates (Angstroms)
 Number     Number       Type             X           Y           Z
 ---------------------------------------------------------------------
      1          1           0        7.750665   -0.755405   -0.729817
      2          6           0        6.915851   -0.055090   -0.702506
      3          1           0        6.764908    0.369910   -1.694814
      4          1           0        7.134665    0.744382    0.005213
      5          6           0        5.625436   -0.752987   -0.268101
      6          8           0        5.624043   -1.953157   -0.003467
      7          7           0        4.529866    0.006466   -0.197130
      8          1           0        4.580994    0.989144   -0.424731
      9          6           0        3.246636   -0.535938    0.201391
     10          1           0        2.953012   -1.323328   -0.492698
     11          6           0        3.312033   -1.124626    1.606735
     12          1           0        3.596012   -0.345843    2.314514
     13          1           0        2.335370   -1.524237    1.879572
     14          1           0        4.051460   -1.924971    1.631875
     15          6           0        2.171465    0.541322    0.197982
     16          8           0        2.447396    1.696999   -0.116542
     17          7           0        0.941549    0.159551    0.549640
     18          1           0        0.763732   -0.802589    0.800230
     19          6           0       -0.168265    1.090465    0.585879
     20          1           0       -0.574579    1.132941    1.596418
     21          6           0        0.277025    2.491575    0.180398
     22          1           0        0.677975    2.466934   -0.832823
     23          1           0       -0.575934    3.169130    0.216708
     24          1           0        1.047732    2.841406    0.867204
     25          6           0       -1.275375    0.660622   -0.365885
     26          8           0       -1.055115    0.550839   -1.570042
     27          7           0       -2.469991    0.416940    0.177943
     28          1           0       -2.602252    0.521146    1.173802
     29          6           0       -3.604775    0.001086   -0.621467
     30          1           0       -3.826710    0.767075   -1.364488
     31          6           0       -3.315789   -1.310142   -1.344581
     32          1           0       -3.100638   -2.089206   -0.613348
     33          1           0       -4.184404   -1.598115   -1.936762
     34          1           0       -2.455444   -1.181452   -2.001404
     35          6           0       -4.838364   -0.207789    0.245173
     36          8           0       -4.786267   -0.023691    1.459198
     37          7           0       -5.951509   -0.593801   -0.382626
     38          1           0       -5.944901   -0.732283   -1.383027
     39          6           0       -7.191406   -0.825838    0.330343
     40          1           0       -7.040881   -0.636649    1.393244
     41          1           0       -7.961827   -0.156218   -0.051885
     42          1           0       -7.505639   -1.859738    0.186892
 ---------------------------------------------------------------------
 Rotational constants (GHZ):      0.9875120      0.1006215      0.0980381
 Standard basis: 6-31G(d) (6D, 7F)
 There are   344 symmetry adapted basis functions of A   symmetry.
 Integral buffers will be    131072 words long.
 Raffenetti 2 integral format.
 Two-electron integral symmetry is turned on.
   344 basis functions,   648 primitive gaussians,   344 cartesian basis functions
    77 alpha electrons       77 beta electrons
       nuclear repulsion energy      1590.2816803922 Hartrees.
 NAtoms=   42 NActive=   42 NUniq=   42 SFac= 7.50D-01 NAtFMM=   80 NAOKFM=F Big=F
 One-electron integrals computed using PRISM.
 NBasis=   344 RedAO= T  NBF=   344
 NBsUse=   344 1.00D-06 NBFU=   344
 Harris functional with IExCor=  402 diagonalized for initial guess.
 ExpMin= 1.61D-01 ExpMax= 5.48D+03 ExpMxC= 8.25D+02 IAcc=1 IRadAn=         1 AccDes= 0.00D+00
 HarFok:  IExCor=  402 AccDes= 0.00D+00 IRadAn=         1 IDoV= 1
 ScaDFX=  1.000000  1.000000  1.000000  1.000000
 FoFCou: FMM=F IPFlag=           0 FMFlag=      100000 FMFlg1=           0
         NFxFlg=           0 DoJE=T BraDBF=F KetDBF=T FulRan=T
         Omega=  0.000000  0.000000  1.000000  0.000000  0.000000 ICntrl=     500 IOpCl=  0
         NMat0=    1 NMatS0=    1 NMatT0=    0 NMatD0=    1 NMtDS0=    0 NMtDT0=    0
         I1Cent=           4 NGrid=           0.
 Petite list used in FoFCou.
 Initial guess orbital symmetries:
       Occupied  (A) (A) (A) (A) (A) (A) (A) (A) (A) (A) (A) (A)
                 (A) (A) (A) (A) (A) (A) (A) (A) (A) (A) (A) (A)
                 (A) (A) (A) (A) (A) (A) (A) (A) (A) (A) (A) (A)
                 (A) (A) (A) (A) (A) (A) (A) (A) (A) (A) (A) (A)
                 (A) (A) (A) (A) (A) (A) (A) (A) (A) (A) (A) (A)
                 (A) (A) (A) (A) (A) (A) (A) (A) (A) (A) (A) (A)
                 (A) (A) (A) (A) (A)
       Virtual   (A) (A) (A) (A) (A) (A) (A) (A) (A) (A) (A) (A)
                 (A) (A) (A) (A) (A) (A) (A) (A) (A) (A) (A) (A)
                 (A) (A) (A) (A) (A) (A) (A) (A) (A) (A) (A) (A)
                 (A) (A) (A) (A) (A) (A) (A) (A) (A) (A) (A) (A)
                 (A) (A) (A) (A) (A) (A) (A) (A) (A) (A) (A) (A)
                 (A) (A) (A) (A) (A) (A) (A) (A) (A) (A) (A) (A)
                 (A) (A) (A) (A) (A) (A) (A) (A) (A) (A) (A) (A)
                 (A) (A) (A) (A) (A) (A) (A) (A) (A) (A) (A) (A)
                 (A) (A) (A) (A) (A) (A) (A) (A) (A) (A) (A) (A)
                 (A) (A) (A) (A) (A) (A) (A) (A) (A) (A) (A) (A)
                 (A) (A) (A) (A) (A) (A) (A) (A) (A) (A) (A) (A)
                 (A) (A) (A) (A) (A) (A) (A) (A) (A) (A) (A) (A)
                 (A) (A) (A) (A) (A) (A) (A) (A) (A) (A) (A) (A)
                 (A) (A) (A) (A) (A) (A) (A) (A) (A) (A) (A) (A)
                 (A) (A) (A) (A) (A) (A) (A) (A) (A) (A) (A) (A)
                 (A) (A) (A) (A) (A) (A) (A) (A) (A) (A) (A) (A)
                 (A) (A) (A) (A) (A) (A) (A) (A) (A) (A) (A) (A)
                 (A) (A) (A) (A) (A) (A) (A) (A) (A) (A) (A) (A)
                 (A) (A) (A) (A) (A) (A) (A) (A) (A) (A) (A) (A)
                 (A) (A) (A) (A) (A) (A) (A) (A) (A) (A) (A) (A)
                 (A) (A) (A) (A) (A) (A) (A) (A) (A) (A) (A) (A)
                 (A) (A) (A) (A) (A) (A) (A) (A) (A) (A) (A) (A)
                 (A) (A) (A)
 The electronic state of the initial guess is 1-A.
 Requested convergence on RMS density matrix=1.00D-08 within 128 cycles.
 Requested convergence on MAX density matrix=1.00D-06.
 Requested convergence on             energy=1.00D-06.
 No special actions if energy rises.
 Integral accuracy reduced to 1.0D-05 until final iterations.
 Initial convergence to 1.0D-05 achieved.  Increase integral accuracy.
 SCF Done:  E(RB3LYP) =  -990.462342937     A.U. after   15 cycles
             Convg  =    0.4792D-08             -V/T =  2.0085
 Range of M.O.s used for correlation:     1   344
 NBasis=   344 NAE=    77 NBE=    77 NFC=     0 NFV=     0
 NROrb=    344 NOA=    77 NOB=    77 NVA=   267 NVB=   267
 Symmetrizing basis deriv contribution to polar:
 IMax=3 JMax=2 DiffMx= 0.00D+00
 G2DrvN: will do    43 centers at a time, making    1 passes doing MaxLOS=2.
 Calling FoFCou, ICntrl=  3107 FMM=F I1Cent=   0 AccDes= 0.00D+00.
 FoFDir/FoFCou used for L=0 through L=2.
 End of G2Drv Frequency-dependent properties file   721 does not exist.
 End of G2Drv Frequency-dependent properties file   722 does not exist.
          IDoAtm=111111111111111111111111111111111111111111
          Differentiating once with respect to nuclear coordinates.
          There are   129 degrees of freedom in the 1st order CPHF.  IDoFFX=5.
    123 vectors produced by pass  0 Test12= 2.06D-10 1.00D-07 XBig12= 2.02D-01 7.62D-02.
 AX will form   123 AO Fock derivatives at one time.
    123 vectors produced by pass  1 Test12= 2.06D-10 1.00D-07 XBig12= 4.65D-02 6.55D-02.
    123 vectors produced by pass  2 Test12= 2.06D-10 1.00D-07 XBig12= 3.47D-05 9.49D-04.
    123 vectors produced by pass  3 Test12= 2.06D-10 1.00D-07 XBig12= 7.74D-08 5.80D-05.
     66 vectors produced by pass  4 Test12= 2.06D-10 1.00D-07 XBig12= 7.83D-11 1.58D-06.
 Inverted reduced A of dimension   558 with in-core refinement.
 End of Minotr Frequency-dependent properties file   721 does not exist.
 End of Minotr Frequency-dependent properties file   722 does not exist.

 **********************************************************************

            Population analysis using the SCF density.

 **********************************************************************

 Orbital symmetries:
       Occupied  (A) (A) (A) (A) (A) (A) (A) (A) (A) (A) (A) (A)
                 (A) (A) (A) (A) (A) (A) (A) (A) (A) (A) (A) (A)
                 (A) (A) (A) (A) (A) (A) (A) (A) (A) (A) (A) (A)
                 (A) (A) (A) (A) (A) (A) (A) (A) (A) (A) (A) (A)
                 (A) (A) (A) (A) (A) (A) (A) (A) (A) (A) (A) (A)
                 (A) (A) (A) (A) (A) (A) (A) (A) (A) (A) (A) (A)
                 (A) (A) (A) (A) (A)
       Virtual   (A) (A) (A) (A) (A) (A) (A) (A) (A) (A) (A) (A)
                 (A) (A) (A) (A) (A) (A) (A) (A) (A) (A) (A) (A)
                 (A) (A) (A) (A) (A) (A) (A) (A) (A) (A) (A) (A)
                 (A) (A) (A) (A) (A) (A) (A) (A) (A) (A) (A) (A)
                 (A) (A) (A) (A) (A) (A) (A) (A) (A) (A) (A) (A)
                 (A) (A) (A) (A) (A) (A) (A) (A) (A) (A) (A) (A)
                 (A) (A) (A) (A) (A) (A) (A) (A) (A) (A) (A) (A)
                 (A) (A) (A) (A) (A) (A) (A) (A) (A) (A) (A) (A)
                 (A) (A) (A) (A) (A) (A) (A) (A) (A) (A) (A) (A)
                 (A) (A) (A) (A) (A) (A) (A) (A) (A) (A) (A) (A)
                 (A) (A) (A) (A) (A) (A) (A) (A) (A) (A) (A) (A)
                 (A) (A) (A) (A) (A) (A) (A) (A) (A) (A) (A) (A)
                 (A) (A) (A) (A) (A) (A) (A) (A) (A) (A) (A) (A)
                 (A) (A) (A) (A) (A) (A) (A) (A) (A) (A) (A) (A)
                 (A) (A) (A) (A) (A) (A) (A) (A) (A) (A) (A) (A)
                 (A) (A) (A) (A) (A) (A) (A) (A) (A) (A) (A) (A)
                 (A) (A) (A) (A) (A) (A) (A) (A) (A) (A) (A) (A)
                 (A) (A) (A) (A) (A) (A) (A) (A) (A) (A) (A) (A)
                 (A) (A) (A) (A) (A) (A) (A) (A) (A) (A) (A) (A)
                 (A) (A) (A) (A) (A) (A) (A) (A) (A) (A) (A) (A)
                 (A) (A) (A) (A) (A) (A) (A) (A) (A) (A) (A) (A)
                 (A) (A) (A) (A) (A) (A) (A) (A) (A) (A) (A) (A)
                 (A) (A) (A)
 The electronic state is 1-A.
 Alpha  occ. eigenvalues --  -19.12551 -19.11089 -19.10970 -19.09346 -14.38080
 Alpha  occ. eigenvalues --  -14.37404 -14.36867 -14.35002 -10.29947 -10.29224
 Alpha  occ. eigenvalues --  -10.28343 -10.27320 -10.24575 -10.23945 -10.23273
 Alpha  occ. eigenvalues --  -10.23072 -10.18821 -10.18057 -10.17672 -10.16389
 Alpha  occ. eigenvalues --   -1.05262  -1.04803  -1.03457  -1.01856  -0.94363
 Alpha  occ. eigenvalues --   -0.93976  -0.93375  -0.91768  -0.80588  -0.78791
 Alpha  occ. eigenvalues --   -0.75771  -0.72242  -0.71829  -0.67534  -0.66023
 Alpha  occ. eigenvalues --   -0.64219  -0.61151  -0.58944  -0.58635  -0.57196
 Alpha  occ. eigenvalues --   -0.56861  -0.53447  -0.51143  -0.50263  -0.49087
 Alpha  occ. eigenvalues --   -0.47769  -0.46992  -0.46299  -0.44933  -0.44607
 Alpha  occ. eigenvalues --   -0.44353  -0.43671  -0.43077  -0.41403  -0.41146
 Alpha  occ. eigenvalues --   -0.41031  -0.40901  -0.40483  -0.39137  -0.38394
 Alpha  occ. eigenvalues --   -0.38195  -0.38048  -0.37840  -0.37246  -0.36909
 Alpha  occ. eigenvalues --   -0.36699  -0.36407  -0.34796  -0.33902  -0.27493
 Alpha  occ. eigenvalues --   -0.27155  -0.26615  -0.25863  -0.24865  -0.24083
 Alpha  occ. eigenvalues --   -0.23744  -0.23056
 Alpha virt. eigenvalues --    0.01006   0.01846   0.03032   0.04327   0.05386
 Alpha virt. eigenvalues --    0.06523   0.08951   0.10228   0.10997   0.12941
 Alpha virt. eigenvalues --    0.13830   0.14091   0.14185   0.14299   0.14853
 Alpha virt. eigenvalues --    0.15377   0.15567   0.16321   0.16387   0.17520
 Alpha virt. eigenvalues --    0.17817   0.18299   0.18532   0.18848   0.19281
 Alpha virt. eigenvalues --    0.19439   0.20264   0.20907   0.21542   0.22057
 Alpha virt. eigenvalues --    0.23569   0.23895   0.24624   0.24944   0.25529
 Alpha virt. eigenvalues --    0.27753   0.30102   0.33734   0.34698   0.35670
 Alpha virt. eigenvalues --    0.36156   0.40023   0.41957   0.43081   0.44622
 Alpha virt. eigenvalues --    0.49517   0.50545   0.51140   0.51582   0.51907
 Alpha virt. eigenvalues --    0.52272   0.52985   0.53805   0.53960   0.54822
 Alpha virt. eigenvalues --    0.55331   0.56142   0.56923   0.57712   0.57789
 Alpha virt. eigenvalues --    0.59654   0.60737   0.61518   0.61981   0.63306
 Alpha virt. eigenvalues --    0.64676   0.65687   0.65843   0.67304   0.68211
 Alpha virt. eigenvalues --    0.68608   0.69145   0.70747   0.71220   0.73191
 Alpha virt. eigenvalues --    0.73208   0.74027   0.75499   0.75849   0.77436
 Alpha virt. eigenvalues --    0.77876   0.79028   0.80256   0.81205   0.82238
 Alpha virt. eigenvalues --    0.82964   0.83743   0.85248   0.85687   0.85929
 Alpha virt. eigenvalues --    0.86225   0.87002   0.87348   0.88021   0.89005
 Alpha virt. eigenvalues --    0.89340   0.89532   0.89660   0.90171   0.90403
 Alpha virt. eigenvalues --    0.91321   0.91818   0.92145   0.93333   0.93745
 Alpha virt. eigenvalues --    0.94267   0.94991   0.95598   0.95944   0.96364
 Alpha virt. eigenvalues --    0.98124   0.98912   1.00047   1.00976   1.02706
 Alpha virt. eigenvalues --    1.03978   1.05745   1.06484   1.07502   1.08795
 Alpha virt. eigenvalues --    1.10679   1.12319   1.13944   1.15972   1.17609
 Alpha virt. eigenvalues --    1.19161   1.20722   1.23986   1.25913   1.27506
 Alpha virt. eigenvalues --    1.28704   1.29801   1.32161   1.32386   1.33869
 Alpha virt. eigenvalues --    1.34972   1.36603   1.38269   1.39205   1.43021
 Alpha virt. eigenvalues --    1.44944   1.45738   1.46900   1.47160   1.47665
 Alpha virt. eigenvalues --    1.49055   1.51060   1.52291   1.54049   1.59390
 Alpha virt. eigenvalues --    1.62831   1.64208   1.65045   1.67715   1.70010
 Alpha virt. eigenvalues --    1.70555   1.71839   1.74784   1.75540   1.76574
 Alpha virt. eigenvalues --    1.78174   1.78925   1.80104   1.81407   1.83236
 Alpha virt. eigenvalues --    1.83368   1.83770   1.84219   1.84511   1.85504
 Alpha virt. eigenvalues --    1.85850   1.87309   1.89043   1.89434   1.91093
 Alpha virt. eigenvalues --    1.91364   1.92208   1.93773   1.95326   1.95763
 Alpha virt. eigenvalues --    1.96379   1.97964   1.99746   2.01370   2.02733
 Alpha virt. eigenvalues --    2.03710   2.04411   2.04941   2.06920   2.07958
 Alpha virt. eigenvalues --    2.08148   2.11251   2.13935   2.15329   2.17399
 Alpha virt. eigenvalues --    2.18072   2.19951   2.21247   2.24273   2.24665
 Alpha virt. eigenvalues --    2.25847   2.27096   2.27578   2.28782   2.29279
 Alpha virt. eigenvalues --    2.29853   2.32286   2.32468   2.33422   2.34886
 Alpha virt. eigenvalues --    2.38015   2.38704   2.40239   2.42433   2.43236
 Alpha virt. eigenvalues --    2.44422   2.45204   2.45767   2.49481   2.51438
 Alpha virt. eigenvalues --    2.52103   2.56455   2.57486   2.59681   2.61128
 Alpha virt. eigenvalues --    2.63868   2.64257   2.67710   2.67974   2.71389
 Alpha virt. eigenvalues --    2.73760   2.75603   2.76238   2.80882   2.84907
 Alpha virt. eigenvalues --    2.88083   2.90087   2.93589   2.96255   2.97766
 Alpha virt. eigenvalues --    2.98259   3.01763   3.03247   3.14149   3.18569
 Alpha virt. eigenvalues --    3.22727   3.24863   3.96212   3.98932   4.01667
 Alpha virt. eigenvalues --    4.03820   4.06708   4.08540   4.13848   4.21037
 Alpha virt. eigenvalues --    4.22490   4.24105   4.27755   4.29385   4.32341
 Alpha virt. eigenvalues --    4.39726   4.42743   4.45958   4.50609   4.60328
 Alpha virt. eigenvalues --    4.62913   4.72712
          Condensed to atoms (all electrons):
              1          2          3          4          5          6
     1  H    0.506610   0.360262  -0.021624  -0.021710  -0.018255   0.005077
     2  C    0.360262   5.325808   0.351386   0.351512   0.357845  -0.079338
     3  H   -0.021624   0.351386   0.548998  -0.026603  -0.025063   0.001455
     4  H   -0.021710   0.351512  -0.026603   0.552579  -0.026585   0.001300
     5  C   -0.018255   0.357845  -0.025063  -0.026585   4.336388   0.592791
     6  O    0.005077  -0.079338   0.001455   0.001300   0.592791   8.085821
     7  N    0.004608  -0.135159   0.004197   0.004597   0.228158  -0.108027
     8  H   -0.000146  -0.001195   0.001166   0.000867  -0.016080   0.003060
     9  C   -0.000147   0.007407  -0.000275   0.000006  -0.021451   0.013439
    10  H    0.000002   0.000151  -0.000019  -0.000002  -0.001242   0.004886
    11  C    0.000014  -0.000753   0.000017   0.000031  -0.006274  -0.018521
    12  H    0.000000  -0.000004  -0.000001   0.000002   0.000935  -0.000167
    13  H    0.000000   0.000007   0.000000  -0.000001   0.000346   0.000333
    14  H    0.000000   0.000614  -0.000008  -0.000055   0.002973   0.023815
    15  C    0.000000  -0.000045  -0.000017  -0.000014   0.006577   0.000827
    16  O    0.000000  -0.000047   0.000000  -0.000001   0.000515  -0.000005
    17  N    0.000000   0.000000   0.000000   0.000000  -0.000069  -0.000003
    18  H    0.000000   0.000000   0.000000   0.000000   0.000003   0.000003
    19  C    0.000000   0.000000   0.000000   0.000000   0.000002   0.000000
    20  H    0.000000   0.000000   0.000000   0.000000   0.000000   0.000000
    21  C    0.000000   0.000000   0.000000   0.000000   0.000000   0.000000
    22  H    0.000000   0.000000   0.000000   0.000000   0.000000   0.000000
    23  H    0.000000   0.000000   0.000000   0.000000   0.000000   0.000000
    24  H    0.000000   0.000000   0.000000   0.000000   0.000000   0.000000
    25  C    0.000000   0.000000   0.000000   0.000000   0.000000   0.000000
    26  O    0.000000   0.000000   0.000000   0.000000   0.000000   0.000000
    27  N    0.000000   0.000000   0.000000   0.000000   0.000000   0.000000
    28  H    0.000000   0.000000   0.000000   0.000000   0.000000   0.000000
    29  C    0.000000   0.000000   0.000000   0.000000   0.000000   0.000000
    30  H    0.000000   0.000000   0.000000   0.000000   0.000000   0.000000
    31  C    0.000000   0.000000   0.000000   0.000000   0.000000   0.000000
    32  H    0.000000   0.000000   0.000000   0.000000   0.000000   0.000000
    33  H    0.000000   0.000000   0.000000   0.000000   0.000000   0.000000
    34  H    0.000000   0.000000   0.000000   0.000000   0.000000   0.000000
    35  C    0.000000   0.000000   0.000000   0.000000   0.000000   0.000000
    36  O    0.000000   0.000000   0.000000   0.000000   0.000000   0.000000
    37  N    0.000000   0.000000   0.000000   0.000000   0.000000   0.000000
    38  H    0.000000   0.000000   0.000000   0.000000   0.000000   0.000000
    39  C    0.000000   0.000000   0.000000   0.000000   0.000000   0.000000
    40  H    0.000000   0.000000   0.000000   0.000000   0.000000   0.000000
    41  H    0.000000   0.000000   0.000000   0.000000   0.000000   0.000000
    42  H    0.000000   0.000000   0.000000   0.000000   0.000000   0.000000
              7          8          9         10         11         12
     1  H    0.004608  -0.000146  -0.000147   0.000002   0.000014   0.000000
     2  C   -0.135159  -0.001195   0.007407   0.000151  -0.000753  -0.000004
     3  H    0.004197   0.001166  -0.000275  -0.000019   0.000017  -0.000001
     4  H    0.004597   0.000867   0.000006  -0.000002   0.000031   0.000002
     5  C    0.228158  -0.016080  -0.021451  -0.001242  -0.006274   0.000935
     6  O   -0.108027   0.003060   0.013439   0.004886  -0.018521  -0.000167
     7  N    7.196423   0.290043   0.249699  -0.048666  -0.055437   0.000150
     8  H    0.290043   0.389109  -0.051849   0.004153   0.004557   0.000654
     9  C    0.249699  -0.051849   5.074089   0.372928   0.346720  -0.037062
    10  H   -0.048666   0.004153   0.372928   0.575704  -0.050661   0.006211
    11  C   -0.055437   0.004557   0.346720  -0.050661   5.206011   0.367325
    12  H    0.000150   0.000654  -0.037062   0.006211   0.367325   0.564868
    13  H    0.005228  -0.000126  -0.036272  -0.000050   0.350785  -0.027178
    14  H   -0.010596  -0.000302  -0.021316  -0.005921   0.360578  -0.025741
    15  C   -0.026162   0.001459   0.315359  -0.035908  -0.046732  -0.003185
    16  O   -0.009730   0.030574  -0.076335   0.000987  -0.000844   0.000924
    17  N    0.003247   0.001337  -0.122297   0.001344   0.003578  -0.000387
    18  H    0.000051  -0.000049   0.001785   0.000999   0.000489  -0.000118
    19  C   -0.000061   0.000022   0.001844  -0.000149   0.000441  -0.000023
    20  H    0.000002   0.000001  -0.000154   0.000003   0.000026   0.000008
    21  C    0.000008  -0.000004   0.000633  -0.000002  -0.000049  -0.000013
    22  H   -0.000004   0.000052  -0.000282  -0.000004   0.000012   0.000000
    23  H    0.000000  -0.000002   0.000038  -0.000001  -0.000001   0.000000
    24  H   -0.000001   0.000054  -0.000310   0.000006  -0.000013   0.000020
    25  C    0.000000   0.000000  -0.000167   0.000050  -0.000010   0.000002
    26  O    0.000000   0.000000  -0.000016   0.000017   0.000000   0.000000
    27  N    0.000000   0.000000   0.000003   0.000000   0.000000   0.000000
    28  H    0.000000   0.000000   0.000000   0.000000   0.000000   0.000000
    29  C    0.000000   0.000000   0.000000   0.000000   0.000000   0.000000
    30  H    0.000000   0.000000   0.000000   0.000000   0.000000   0.000000
    31  C    0.000000   0.000000   0.000000   0.000000   0.000000   0.000000
    32  H    0.000000   0.000000   0.000000   0.000000   0.000000   0.000000
    33  H    0.000000   0.000000   0.000000   0.000000   0.000000   0.000000
    34  H    0.000000   0.000000   0.000000   0.000000   0.000000   0.000000
    35  C    0.000000   0.000000   0.000000   0.000000   0.000000   0.000000
    36  O    0.000000   0.000000   0.000000   0.000000   0.000000   0.000000
    37  N    0.000000   0.000000   0.000000   0.000000   0.000000   0.000000
    38  H    0.000000   0.000000   0.000000   0.000000   0.000000   0.000000
    39  C    0.000000   0.000000   0.000000   0.000000   0.000000   0.000000
    40  H    0.000000   0.000000   0.000000   0.000000   0.000000   0.000000
    41  H    0.000000   0.000000   0.000000   0.000000   0.000000   0.000000
    42  H    0.000000   0.000000   0.000000   0.000000   0.000000   0.000000
             13         14         15         16         17         18
     1  H    0.000000   0.000000   0.000000   0.000000   0.000000   0.000000
     2  C    0.000007   0.000614  -0.000045  -0.000047   0.000000   0.000000
     3  H    0.000000  -0.000008  -0.000017   0.000000   0.000000   0.000000
     4  H   -0.000001  -0.000055  -0.000014  -0.000001   0.000000   0.000000
     5  C    0.000346   0.002973   0.006577   0.000515  -0.000069   0.000003
     6  O    0.000333   0.023815   0.000827  -0.000005  -0.000003   0.000003
     7  N    0.005228  -0.010596  -0.026162  -0.009730   0.003247   0.000051
     8  H   -0.000126  -0.000302   0.001459   0.030574   0.001337  -0.000049
     9  C   -0.036272  -0.021316   0.315359  -0.076335  -0.122297   0.001785
    10  H   -0.000050  -0.005921  -0.035908   0.000987   0.001344   0.000999
    11  C    0.350785   0.360578  -0.046732  -0.000844   0.003578   0.000489
    12  H   -0.027178  -0.025741  -0.003185   0.000924  -0.000387  -0.000118
    13  H    0.605635  -0.021492  -0.008375  -0.000026   0.003519   0.007032
    14  H   -0.021492   0.482007   0.004291  -0.000079   0.000121  -0.000177
    15  C   -0.008375   0.004291   4.390447   0.556106   0.271655  -0.021315
    16  O   -0.000026  -0.000079   0.556106   8.193820  -0.096160   0.003586
    17  N    0.003519   0.000121   0.271655  -0.096160   7.117333   0.300455
    18  H    0.007032  -0.000177  -0.021315   0.003586   0.300455   0.400758
    19  C    0.000202  -0.000001  -0.032405  -0.011716   0.259625  -0.031963
    20  H    0.000003  -0.000002   0.001429  -0.000011  -0.051890  -0.000137
    21  C   -0.000008   0.000001  -0.002932  -0.038480  -0.042801   0.004886
    22  H    0.000000   0.000000   0.002012  -0.009968  -0.004281  -0.000141
    23  H    0.000000   0.000000   0.000833   0.005112   0.004567  -0.000083
    24  H    0.000001   0.000000   0.000263  -0.008683  -0.003845  -0.000262
    25  C   -0.000006   0.000000   0.000701  -0.000789  -0.047540  -0.000871
    26  O    0.000000   0.000000   0.002742  -0.000121  -0.000462   0.000291
    27  N   -0.000001   0.000000   0.000090  -0.000009  -0.000571   0.001112
    28  H    0.000000   0.000000  -0.000013   0.000000   0.000014   0.000030
    29  C    0.000000   0.000000  -0.000003   0.000000  -0.000073  -0.000051
    30  H    0.000000   0.000000   0.000000   0.000000  -0.000010   0.000002
    31  C    0.000000   0.000000   0.000002   0.000000   0.000026   0.000019
    32  H    0.000000   0.000000   0.000000   0.000000  -0.000011   0.000024
    33  H    0.000000   0.000000   0.000000   0.000000  -0.000001   0.000000
    34  H    0.000000   0.000000  -0.000002   0.000000  -0.000008   0.000001
    35  C    0.000000   0.000000   0.000000   0.000000   0.000000  -0.000001
    36  O    0.000000   0.000000   0.000000   0.000000   0.000000   0.000000
    37  N    0.000000   0.000000   0.000000   0.000000   0.000000   0.000000
    38  H    0.000000   0.000000   0.000000   0.000000   0.000000   0.000000
    39  C    0.000000   0.000000   0.000000   0.000000   0.000000   0.000000
    40  H    0.000000   0.000000   0.000000   0.000000   0.000000   0.000000
    41  H    0.000000   0.000000   0.000000   0.000000   0.000000   0.000000
    42  H    0.000000   0.000000   0.000000   0.000000   0.000000   0.000000
             19         20         21         22         23         24
     1  H    0.000000   0.000000   0.000000   0.000000   0.000000   0.000000
     2  C    0.000000   0.000000   0.000000   0.000000   0.000000   0.000000
     3  H    0.000000   0.000000   0.000000   0.000000   0.000000   0.000000
     4  H    0.000000   0.000000   0.000000   0.000000   0.000000   0.000000
     5  C    0.000002   0.000000   0.000000   0.000000   0.000000   0.000000
     6  O    0.000000   0.000000   0.000000   0.000000   0.000000   0.000000
     7  N   -0.000061   0.000002   0.000008  -0.000004   0.000000  -0.000001
     8  H    0.000022   0.000001  -0.000004   0.000052  -0.000002   0.000054
     9  C    0.001844  -0.000154   0.000633  -0.000282   0.000038  -0.000310
    10  H   -0.000149   0.000003  -0.000002  -0.000004  -0.000001   0.000006
    11  C    0.000441   0.000026  -0.000049   0.000012  -0.000001  -0.000013
    12  H   -0.000023   0.000008  -0.000013   0.000000   0.000000   0.000020
    13  H    0.000202   0.000003  -0.000008   0.000000   0.000000   0.000001
    14  H   -0.000001  -0.000002   0.000001   0.000000   0.000000   0.000000
    15  C   -0.032405   0.001429  -0.002932   0.002012   0.000833   0.000263
    16  O   -0.011716  -0.000011  -0.038480  -0.009968   0.005112  -0.008683
    17  N    0.259625  -0.051890  -0.042801  -0.004281   0.004567  -0.003845
    18  H   -0.031963  -0.000137   0.004886  -0.000141  -0.000083  -0.000262
    19  C    5.056912   0.367354   0.377111  -0.027150  -0.030039  -0.024620
    20  H    0.367354   0.634420  -0.039727   0.005363  -0.002695  -0.003534
    21  C    0.377111  -0.039727   5.100484   0.385733   0.328379   0.380129
    22  H   -0.027150   0.005363   0.385733   0.500109  -0.030760  -0.023025
    23  H   -0.030039  -0.002695   0.328379  -0.030760   0.639428  -0.034320
    24  H   -0.024620  -0.003534   0.380129  -0.023025  -0.034320   0.542496
    25  C    0.321185  -0.063496  -0.035872  -0.007344  -0.003460   0.004980
    26  O   -0.083074   0.003522  -0.002994   0.008589  -0.000430   0.000198
    27  N   -0.103355   0.008579  -0.001560   0.000702   0.001401  -0.000092
    28  H   -0.000465   0.005339  -0.000014  -0.000011  -0.000003  -0.000022
    29  C    0.007709   0.000307  -0.000310  -0.000006  -0.000084   0.000005
    30  H   -0.000016  -0.000026   0.000092  -0.000003  -0.000017   0.000000
    31  C   -0.000880   0.000021  -0.000008   0.000002   0.000004   0.000000
    32  H    0.000050  -0.000006   0.000002   0.000000   0.000000   0.000000
    33  H    0.000009   0.000000   0.000000   0.000000   0.000000   0.000000
    34  H    0.000483  -0.000031  -0.000002  -0.000005   0.000000   0.000000
    35  C   -0.000039  -0.000100   0.000000   0.000000  -0.000003   0.000000
    36  O   -0.000054  -0.000037   0.000000   0.000000   0.000000   0.000000
    37  N    0.000000   0.000000   0.000000   0.000000   0.000000   0.000000
    38  H    0.000000   0.000000   0.000000   0.000000   0.000000   0.000000
    39  C    0.000000   0.000000   0.000000   0.000000   0.000000   0.000000
    40  H    0.000000   0.000000   0.000000   0.000000   0.000000   0.000000
    41  H    0.000000   0.000000   0.000000   0.000000   0.000000   0.000000
    42  H    0.000000   0.000000   0.000000   0.000000   0.000000   0.000000
             25         26         27         28         29         30
     1  H    0.000000   0.000000   0.000000   0.000000   0.000000   0.000000
     2  C    0.000000   0.000000   0.000000   0.000000   0.000000   0.000000
     3  H    0.000000   0.000000   0.000000   0.000000   0.000000   0.000000
     4  H    0.000000   0.000000   0.000000   0.000000   0.000000   0.000000
     5  C    0.000000   0.000000   0.000000   0.000000   0.000000   0.000000
     6  O    0.000000   0.000000   0.000000   0.000000   0.000000   0.000000
     7  N    0.000000   0.000000   0.000000   0.000000   0.000000   0.000000
     8  H    0.000000   0.000000   0.000000   0.000000   0.000000   0.000000
     9  C   -0.000167  -0.000016   0.000003   0.000000   0.000000   0.000000
    10  H    0.000050   0.000017   0.000000   0.000000   0.000000   0.000000
    11  C   -0.000010   0.000000   0.000000   0.000000   0.000000   0.000000
    12  H    0.000002   0.000000   0.000000   0.000000   0.000000   0.000000
    13  H   -0.000006   0.000000  -0.000001   0.000000   0.000000   0.000000
    14  H    0.000000   0.000000   0.000000   0.000000   0.000000   0.000000
    15  C    0.000701   0.002742   0.000090  -0.000013  -0.000003   0.000000
    16  O   -0.000789  -0.000121  -0.000009   0.000000   0.000000   0.000000
    17  N   -0.047540  -0.000462  -0.000571   0.000014  -0.000073  -0.000010
    18  H   -0.000871   0.000291   0.001112   0.000030  -0.000051   0.000002
    19  C    0.321185  -0.083074  -0.103355  -0.000465   0.007709  -0.000016
    20  H   -0.063496   0.003522   0.008579   0.005339   0.000307  -0.000026
    21  C   -0.035872  -0.002994  -0.001560  -0.000014  -0.000310   0.000092
    22  H   -0.007344   0.008589   0.000702  -0.000011  -0.000006  -0.000003
    23  H   -0.003460  -0.000430   0.001401  -0.000003  -0.000084  -0.000017
    24  H    0.004980   0.000198  -0.000092  -0.000022   0.000005   0.000000
    25  C    4.453537   0.572335   0.222223  -0.015110  -0.026065  -0.000458
    26  O    0.572335   8.121084  -0.110344   0.002963   0.012689   0.004794
    27  N    0.222223  -0.110344   7.213003   0.285192   0.238546  -0.047883
    28  H   -0.015110   0.002963   0.285192   0.383055  -0.051147   0.004046
    29  C   -0.026065   0.012689   0.238546  -0.051147   5.111672   0.370053
    30  H   -0.000458   0.004794  -0.047883   0.004046   0.370053   0.572955
    31  C   -0.005541  -0.017533  -0.054116   0.004377   0.349021  -0.048678
    32  H    0.000802  -0.000151   0.000021   0.000648  -0.038166   0.006158
    33  H    0.000304   0.000308   0.005184  -0.000121  -0.036265  -0.000278
    34  H    0.003099   0.022133  -0.009830  -0.000301  -0.021703  -0.005972
    35  C    0.006162   0.000696  -0.024169   0.000398   0.304374  -0.032945
    36  O    0.000562  -0.000005  -0.009233   0.032708  -0.089714   0.001282
    37  N   -0.000083  -0.000002   0.003276   0.001287  -0.122363   0.000686
    38  H    0.000004   0.000003   0.000054  -0.000052   0.000847   0.001007
    39  C    0.000002   0.000000  -0.000067  -0.000012   0.005808  -0.000267
    40  H    0.000000   0.000000   0.000000  -0.000032   0.001191  -0.000034
    41  H    0.000000   0.000000   0.000000   0.000000  -0.000196   0.000020
    42  H    0.000000   0.000000   0.000001   0.000000  -0.000032  -0.000006
             31         32         33         34         35         36
     1  H    0.000000   0.000000   0.000000   0.000000   0.000000   0.000000
     2  C    0.000000   0.000000   0.000000   0.000000   0.000000   0.000000
     3  H    0.000000   0.000000   0.000000   0.000000   0.000000   0.000000
     4  H    0.000000   0.000000   0.000000   0.000000   0.000000   0.000000
     5  C    0.000000   0.000000   0.000000   0.000000   0.000000   0.000000
     6  O    0.000000   0.000000   0.000000   0.000000   0.000000   0.000000
     7  N    0.000000   0.000000   0.000000   0.000000   0.000000   0.000000
     8  H    0.000000   0.000000   0.000000   0.000000   0.000000   0.000000
     9  C    0.000000   0.000000   0.000000   0.000000   0.000000   0.000000
    10  H    0.000000   0.000000   0.000000   0.000000   0.000000   0.000000
    11  C    0.000000   0.000000   0.000000   0.000000   0.000000   0.000000
    12  H    0.000000   0.000000   0.000000   0.000000   0.000000   0.000000
    13  H    0.000000   0.000000   0.000000   0.000000   0.000000   0.000000
    14  H    0.000000   0.000000   0.000000   0.000000   0.000000   0.000000
    15  C    0.000002   0.000000   0.000000  -0.000002   0.000000   0.000000
    16  O    0.000000   0.000000   0.000000   0.000000   0.000000   0.000000
    17  N    0.000026  -0.000011  -0.000001  -0.000008   0.000000   0.000000
    18  H    0.000019   0.000024   0.000000   0.000001  -0.000001   0.000000
    19  C   -0.000880   0.000050   0.000009   0.000483  -0.000039  -0.000054
    20  H    0.000021  -0.000006   0.000000  -0.000031  -0.000100  -0.000037
    21  C   -0.000008   0.000002   0.000000  -0.000002   0.000000   0.000000
    22  H    0.000002   0.000000   0.000000  -0.000005   0.000000   0.000000
    23  H    0.000004   0.000000   0.000000   0.000000  -0.000003   0.000000
    24  H    0.000000   0.000000   0.000000   0.000000   0.000000   0.000000
    25  C   -0.005541   0.000802   0.000304   0.003099   0.006162   0.000562
    26  O   -0.017533  -0.000151   0.000308   0.022133   0.000696  -0.000005
    27  N   -0.054116   0.000021   0.005184  -0.009830  -0.024169  -0.009233
    28  H    0.004377   0.000648  -0.000121  -0.000301   0.000398   0.032708
    29  C    0.349021  -0.038166  -0.036265  -0.021703   0.304374  -0.089714
    30  H   -0.048678   0.006158  -0.000278  -0.005972  -0.032945   0.001282
    31  C    5.194211   0.368344   0.354514   0.361409  -0.045339  -0.000660
    32  H    0.368344   0.563939  -0.026509  -0.026211  -0.002756   0.000993
    33  H    0.354514  -0.026509   0.595033  -0.021203  -0.007836  -0.000024
    34  H    0.361409  -0.026211  -0.021203   0.482558   0.003812  -0.000091
    35  C   -0.045339  -0.002756  -0.007836   0.003812   4.365309   0.598859
    36  O   -0.000660   0.000993  -0.000024  -0.000091   0.598859   8.088629
    37  N    0.002707  -0.000481   0.003469   0.000219   0.273180  -0.101567
    38  H    0.000691  -0.000109   0.006937  -0.000190  -0.021315   0.003598
    39  C    0.000017  -0.000073   0.000073   0.000005  -0.024651  -0.009040
    40  H   -0.000070  -0.000007  -0.000005   0.000001  -0.001341   0.020746
    41  H   -0.000004   0.000001   0.000004   0.000000   0.001329   0.000567
    42  H    0.000011   0.000002   0.000000  -0.000002   0.001371   0.000570
             37         38         39         40         41         42
     1  H    0.000000   0.000000   0.000000   0.000000   0.000000   0.000000
     2  C    0.000000   0.000000   0.000000   0.000000   0.000000   0.000000
     3  H    0.000000   0.000000   0.000000   0.000000   0.000000   0.000000
     4  H    0.000000   0.000000   0.000000   0.000000   0.000000   0.000000
     5  C    0.000000   0.000000   0.000000   0.000000   0.000000   0.000000
     6  O    0.000000   0.000000   0.000000   0.000000   0.000000   0.000000
     7  N    0.000000   0.000000   0.000000   0.000000   0.000000   0.000000
     8  H    0.000000   0.000000   0.000000   0.000000   0.000000   0.000000
     9  C    0.000000   0.000000   0.000000   0.000000   0.000000   0.000000
    10  H    0.000000   0.000000   0.000000   0.000000   0.000000   0.000000
    11  C    0.000000   0.000000   0.000000   0.000000   0.000000   0.000000
    12  H    0.000000   0.000000   0.000000   0.000000   0.000000   0.000000
    13  H    0.000000   0.000000   0.000000   0.000000   0.000000   0.000000
    14  H    0.000000   0.000000   0.000000   0.000000   0.000000   0.000000
    15  C    0.000000   0.000000   0.000000   0.000000   0.000000   0.000000
    16  O    0.000000   0.000000   0.000000   0.000000   0.000000   0.000000
    17  N    0.000000   0.000000   0.000000   0.000000   0.000000   0.000000
    18  H    0.000000   0.000000   0.000000   0.000000   0.000000   0.000000
    19  C    0.000000   0.000000   0.000000   0.000000   0.000000   0.000000
    20  H    0.000000   0.000000   0.000000   0.000000   0.000000   0.000000
    21  C    0.000000   0.000000   0.000000   0.000000   0.000000   0.000000
    22  H    0.000000   0.000000   0.000000   0.000000   0.000000   0.000000
    23  H    0.000000   0.000000   0.000000   0.000000   0.000000   0.000000
    24  H    0.000000   0.000000   0.000000   0.000000   0.000000   0.000000
    25  C   -0.000083   0.000004   0.000002   0.000000   0.000000   0.000000
    26  O   -0.000002   0.000003   0.000000   0.000000   0.000000   0.000000
    27  N    0.003276   0.000054  -0.000067   0.000000   0.000000   0.000001
    28  H    0.001287  -0.000052  -0.000012  -0.000032   0.000000   0.000000
    29  C   -0.122363   0.000847   0.005808   0.001191  -0.000196  -0.000032
    30  H    0.000686   0.001007  -0.000267  -0.000034   0.000020  -0.000006
    31  C    0.002707   0.000691   0.000017  -0.000070  -0.000004   0.000011
    32  H   -0.000481  -0.000109  -0.000073  -0.000007   0.000001   0.000002
    33  H    0.003469   0.006937   0.000073  -0.000005   0.000004   0.000000
    34  H    0.000219  -0.000190   0.000005   0.000001   0.000000  -0.000002
    35  C    0.273180  -0.021315  -0.024651  -0.001341   0.001329   0.001371
    36  O   -0.101567   0.003598  -0.009040   0.020746   0.000567   0.000570
    37  N    7.083360   0.303164   0.265352  -0.036547  -0.043063  -0.044143
[...]
    32  H    0.000000   0.000000   0.000000   0.000000  -0.000004   0.000008
    33  H    0.000000   0.000000   0.000000   0.000000   0.000000   0.000000
    34  H    0.000000   0.000000   0.000000   0.000000  -0.000007   0.000017
    35  C    0.000000   0.000000   0.000000   0.000000   0.000000   0.000000
    36  O    0.000000   0.000000   0.000000   0.000000   0.000000   0.000000
    37  N    0.000000   0.000000   0.000000   0.000000   0.000000   0.000000
    38  H    0.000000   0.000000   0.000000   0.000000   0.000000   0.000000
    39  C    0.000000   0.000000   0.000000   0.000000   0.000000   0.000000
    40  H    0.000000   0.000000   0.000000   0.000000   0.000000   0.000000
    41  H    0.000000   0.000000   0.000000   0.000000   0.000000   0.000000
    42  H    0.000000   0.000000   0.000000   0.000000   0.000000   0.000000
             19         20         21         22         23         24
     1  H    0.000000   0.000000   0.000000   0.000000   0.000000   0.000000
     2  C    0.000000   0.000000   0.000000   0.000000   0.000000   0.000000
     3  H    0.000000   0.000000   0.000000   0.000000   0.000000   0.000000
     4  H    0.000000   0.000000   0.000000   0.000000   0.000000   0.000000
     5  C    0.000001   0.000000   0.000000   0.000000   0.000000   0.000000
     6  O    0.000000   0.000000   0.000000   0.000000   0.000000   0.000000
     7  N   -0.000079   0.000000   0.000006  -0.000002   0.000000   0.000001
     8  H   -0.000003   0.000000  -0.000012   0.000002   0.000000   0.000000
     9  C    0.003477  -0.000211   0.000312   0.000009   0.000011   0.000044
    10  H   -0.000080   0.000002  -0.000013  -0.000004   0.000000   0.000000
    11  C   -0.000134   0.000048  -0.000012   0.000002   0.000000  -0.000007
    12  H    0.000003   0.000001  -0.000005   0.000000   0.000000   0.000002
    13  H    0.000004  -0.000008   0.000000   0.000000   0.000000   0.000000
    14  H    0.000004  -0.000001   0.000000   0.000000   0.000000   0.000000
    15  C   -0.022580   0.001598  -0.002392   0.002408   0.000412   0.001642
    16  O   -0.003319   0.000010  -0.000236   0.000923   0.000786   0.003413
    17  N    0.244353  -0.051464  -0.037791  -0.003736   0.004004  -0.004285
    18  H   -0.034951  -0.000046   0.004453  -0.000037  -0.000109  -0.000117
    19  C    5.033085   0.367815   0.370148  -0.030712  -0.030761  -0.024088
    20  H    0.367815   0.624438  -0.039366   0.005159  -0.002670  -0.003641
    21  C    0.370148  -0.039366   5.080961   0.377934   0.348342   0.373344
    22  H   -0.030712   0.005159   0.377934   0.504812  -0.026758  -0.024656
    23  H   -0.030761  -0.002670   0.348342  -0.026758   0.596647  -0.028714
    24  H   -0.024088  -0.003641   0.373344  -0.024656  -0.028714   0.526667
    25  C    0.319446  -0.058991  -0.032265  -0.006489  -0.002946   0.004052
    26  O   -0.077182   0.003103  -0.002508   0.006945  -0.000225   0.000082
    27  N   -0.099753   0.008535  -0.001763   0.000601   0.001825  -0.000100
    28  H   -0.000360   0.004353  -0.000106  -0.000008   0.000058  -0.000020
    29  C    0.007200   0.000210  -0.000270  -0.000003  -0.000075   0.000004
    30  H    0.000418  -0.000033   0.000080  -0.000007  -0.000029   0.000000
    31  C   -0.000521   0.000018  -0.000006   0.000000   0.000003   0.000000
    32  H    0.000022  -0.000002   0.000001   0.000000   0.000000   0.000000
    33  H    0.000005   0.000000   0.000000   0.000000   0.000000   0.000000
    34  H    0.000150  -0.000020   0.000000  -0.000001   0.000000   0.000000
    35  C   -0.000048  -0.000103   0.000001  -0.000001  -0.000004   0.000000
    36  O   -0.000075  -0.000052   0.000001   0.000000  -0.000001   0.000000
    37  N    0.000000   0.000000   0.000000   0.000000   0.000000   0.000000
    38  H    0.000000   0.000000   0.000000   0.000000   0.000000   0.000000
    39  C    0.000000   0.000000   0.000000   0.000000   0.000000   0.000000
    40  H    0.000000   0.000000   0.000000   0.000000   0.000000   0.000000
    41  H    0.000000   0.000000   0.000000   0.000000   0.000000   0.000000
    42  H    0.000000   0.000000   0.000000   0.000000   0.000000   0.000000
             25         26         27         28         29         30
     1  H    0.000000   0.000000   0.000000   0.000000   0.000000   0.000000
     2  C    0.000000   0.000000   0.000000   0.000000   0.000000   0.000000
     3  H    0.000000   0.000000   0.000000   0.000000   0.000000   0.000000
     4  H    0.000000   0.000000   0.000000   0.000000   0.000000   0.000000
     5  C    0.000000   0.000000   0.000000   0.000000   0.000000   0.000000
     6  O    0.000000   0.000000   0.000000   0.000000   0.000000   0.000000
     7  N    0.000001   0.000000   0.000000   0.000000   0.000000   0.000000
     8  H    0.000001   0.000000   0.000000   0.000000   0.000000   0.000000
     9  C   -0.000173  -0.000043   0.000001   0.000000   0.000000   0.000000
    10  H    0.000051   0.000026   0.000001   0.000000   0.000000   0.000000
    11  C   -0.000008   0.000000   0.000000   0.000000   0.000000   0.000000
    12  H    0.000001   0.000000   0.000000   0.000000   0.000000   0.000000
    13  H    0.000000   0.000000   0.000000   0.000000   0.000000   0.000000
    14  H    0.000000   0.000000   0.000000   0.000000   0.000000   0.000000
    15  C    0.000746   0.001906   0.000005  -0.000005  -0.000001   0.000000
    16  O   -0.000320  -0.000032  -0.000002   0.000000   0.000000   0.000000
    17  N   -0.042189  -0.001017  -0.000440   0.000075  -0.000086  -0.000015
    18  H   -0.000739   0.000597   0.001551   0.000004  -0.000069   0.000002
    19  C    0.319446  -0.077182  -0.099753  -0.000360   0.007200   0.000418
    20  H   -0.058991   0.003103   0.008535   0.004353   0.000210  -0.000033
    21  C   -0.032265  -0.002508  -0.001763  -0.000106  -0.000270   0.000080
    22  H   -0.006489   0.006945   0.000601  -0.000008  -0.000003  -0.000007
    23  H   -0.002946  -0.000225   0.001825   0.000058  -0.000075  -0.000029
    24  H    0.004052   0.000082  -0.000100  -0.000020   0.000004   0.000000
    25  C    4.461885   0.573448   0.224181  -0.012978  -0.022438   0.000814
    26  O    0.573448   8.096828  -0.104261   0.002501   0.009471   0.009697
    27  N    0.224181  -0.104261   7.210219   0.277506   0.248639  -0.052641
    28  H   -0.012978   0.002501   0.277506   0.379013  -0.052544   0.004485
    29  C   -0.022438   0.009471   0.248639  -0.052544   5.093502   0.371315
    30  H    0.000814   0.009697  -0.052641   0.004485   0.371315   0.569004
    31  C   -0.005084  -0.006085  -0.053038   0.003720   0.350504  -0.047130
    32  H    0.000412  -0.000020  -0.000411   0.000857  -0.034505   0.005414
    33  H    0.000071   0.000021   0.004783  -0.000115  -0.030138  -0.000130
    34  H    0.003961   0.009238  -0.008775  -0.000234  -0.022884  -0.004887
    35  C    0.005790   0.000561  -0.028207  -0.003070   0.301677  -0.034149
    36  O    0.000692  -0.000005  -0.016399   0.042287  -0.082869   0.001863
    37  N   -0.000080  -0.000001   0.002697   0.001774  -0.111568   0.001232
    38  H   -0.000001   0.000001   0.000061  -0.000075   0.001569   0.001808
    39  C    0.000002   0.000000  -0.000090  -0.000016   0.005656  -0.000120
    40  H    0.000000   0.000000   0.000007  -0.000047   0.001079  -0.000032
    41  H    0.000000   0.000000   0.000002   0.000000  -0.000156   0.000005
    42  H    0.000000   0.000000   0.000000   0.000000  -0.000092  -0.000006
             31         32         33         34         35         36
     1  H    0.000000   0.000000   0.000000   0.000000   0.000000   0.000000
     2  C    0.000000   0.000000   0.000000   0.000000   0.000000   0.000000
     3  H    0.000000   0.000000   0.000000   0.000000   0.000000   0.000000
     4  H    0.000000   0.000000   0.000000   0.000000   0.000000   0.000000
     5  C    0.000000   0.000000   0.000000   0.000000   0.000000   0.000000
     6  O    0.000000   0.000000   0.000000   0.000000   0.000000   0.000000
     7  N    0.000000   0.000000   0.000000   0.000000   0.000000   0.000000
     8  H    0.000000   0.000000   0.000000   0.000000   0.000000   0.000000
     9  C    0.000000   0.000000   0.000000   0.000000   0.000000   0.000000
    10  H    0.000000   0.000000   0.000000   0.000000   0.000000   0.000000
    11  C    0.000000   0.000000   0.000000   0.000000   0.000000   0.000000
    12  H    0.000000   0.000000   0.000000   0.000000   0.000000   0.000000
    13  H    0.000000   0.000000   0.000000   0.000000   0.000000   0.000000
    14  H    0.000000   0.000000   0.000000   0.000000   0.000000   0.000000
    15  C    0.000000   0.000000   0.000000   0.000000   0.000000   0.000000
    16  O    0.000000   0.000000   0.000000   0.000000   0.000000   0.000000
    17  N    0.000023  -0.000004   0.000000  -0.000007   0.000000   0.000000
    18  H    0.000015   0.000008   0.000000   0.000017   0.000000   0.000000
    19  C   -0.000521   0.000022   0.000005   0.000150  -0.000048  -0.000075
    20  H    0.000018  -0.000002   0.000000  -0.000020  -0.000103  -0.000052
    21  C   -0.000006   0.000001   0.000000   0.000000   0.000001   0.000001
    22  H    0.000000   0.000000   0.000000  -0.000001  -0.000001   0.000000
    23  H    0.000003   0.000000   0.000000   0.000000  -0.000004  -0.000001
    24  H    0.000000   0.000000   0.000000   0.000000   0.000000   0.000000
    25  C   -0.005084   0.000412   0.000071   0.003961   0.005790   0.000692
    26  O   -0.006085  -0.000020   0.000021   0.009238   0.000561  -0.000005
    27  N   -0.053038  -0.000411   0.004783  -0.008775  -0.028207  -0.016399
    28  H    0.003720   0.000857  -0.000115  -0.000234  -0.003070   0.042287
    29  C    0.350504  -0.034505  -0.030138  -0.022884   0.301677  -0.082869
    30  H   -0.047130   0.005414  -0.000130  -0.004887  -0.034149   0.001863
    31  C    5.142069   0.370662   0.357214   0.369129  -0.035466  -0.001589
    32  H    0.370662   0.554999  -0.027400  -0.027112  -0.003939   0.001448
    33  H    0.357214  -0.027400   0.580047  -0.025262  -0.003419  -0.000014
    34  H    0.369129  -0.027112  -0.025262   0.510940   0.003656  -0.000082
    35  C   -0.035466  -0.003939  -0.003419   0.003656   4.372395   0.575530
    36  O   -0.001589   0.001448  -0.000014  -0.000082   0.575530   8.085239
    37  N    0.000823  -0.000034   0.003268   0.000041   0.287105  -0.092177
    38  H    0.000416  -0.000030   0.002375  -0.000087  -0.022156   0.003287
    39  C   -0.000215  -0.000009  -0.000053   0.000005  -0.023032  -0.007482
    40  H   -0.000041  -0.000007  -0.000001   0.000001  -0.001402   0.019292
    41  H   -0.000005   0.000000   0.000004   0.000000   0.000718   0.000422
    42  H    0.000032  -0.000001  -0.000012  -0.000001   0.001524   0.000439
             37         38         39         40         41         42
     1  H    0.000000   0.000000   0.000000   0.000000   0.000000   0.000000
     2  C    0.000000   0.000000   0.000000   0.000000   0.000000   0.000000
     3  H    0.000000   0.000000   0.000000   0.000000   0.000000   0.000000
     4  H    0.000000   0.000000   0.000000   0.000000   0.000000   0.000000
     5  C    0.000000   0.000000   0.000000   0.000000   0.000000   0.000000
     6  O    0.000000   0.000000   0.000000   0.000000   0.000000   0.000000
     7  N    0.000000   0.000000   0.000000   0.000000   0.000000   0.000000
     8  H    0.000000   0.000000   0.000000   0.000000   0.000000   0.000000
     9  C    0.000000   0.000000   0.000000   0.000000   0.000000   0.000000
    10  H    0.000000   0.000000   0.000000   0.000000   0.000000   0.000000
    11  C    0.000000   0.000000   0.000000   0.000000   0.000000   0.000000
    12  H    0.000000   0.000000   0.000000   0.000000   0.000000   0.000000
    13  H    0.000000   0.000000   0.000000   0.000000   0.000000   0.000000
    14  H    0.000000   0.000000   0.000000   0.000000   0.000000   0.000000
    15  C    0.000000   0.000000   0.000000   0.000000   0.000000   0.000000
    16  O    0.000000   0.000000   0.000000   0.000000   0.000000   0.000000
    17  N    0.000000   0.000000   0.000000   0.000000   0.000000   0.000000
    18  H    0.000000   0.000000   0.000000   0.000000   0.000000   0.000000
    19  C    0.000000   0.000000   0.000000   0.000000   0.000000   0.000000
    20  H    0.000000   0.000000   0.000000   0.000000   0.000000   0.000000
    21  C    0.000000   0.000000   0.000000   0.000000   0.000000   0.000000
    22  H    0.000000   0.000000   0.000000   0.000000   0.000000   0.000000
    23  H    0.000000   0.000000   0.000000   0.000000   0.000000   0.000000
    24  H    0.000000   0.000000   0.000000   0.000000   0.000000   0.000000
    25  C   -0.000080  -0.000001   0.000002   0.000000   0.000000   0.000000
    26  O   -0.000001   0.000001   0.000000   0.000000   0.000000   0.000000
    27  N    0.002697   0.000061  -0.000090   0.000007   0.000002   0.000000
    28  H    0.001774  -0.000075  -0.000016  -0.000047   0.000000   0.000000
    29  C   -0.111568   0.001569   0.005656   0.001079  -0.000156  -0.000092
    30  H    0.001232   0.001808  -0.000120  -0.000032   0.000005  -0.000006
    31  C    0.000823   0.000416  -0.000215  -0.000041  -0.000005   0.000032
    32  H   -0.000034  -0.000030  -0.000009  -0.000007   0.000000  -0.000001
    33  H    0.003268   0.002375  -0.000053  -0.000001   0.000004  -0.000012
    34  H    0.000041  -0.000087   0.000005   0.000001   0.000000  -0.000001
    35  C    0.287105  -0.022156  -0.023032  -0.001402   0.000718   0.001524
    36  O   -0.092177   0.003287  -0.007482   0.019292   0.000422   0.000439
    37  N    7.048002   0.306468   0.264633  -0.038798  -0.040296  -0.040916
    38  H    0.306468   0.402115  -0.031342   0.003966  -0.001054  -0.000740
    39  C    0.264633  -0.031342   4.964097   0.378440   0.382582   0.381431
    40  H   -0.038798   0.003966   0.378440   0.477201  -0.024206  -0.024171
    41  H   -0.040296  -0.001054   0.382582  -0.024206   0.555186  -0.038999
    42  H   -0.040916  -0.000740   0.381431  -0.024171  -0.038999   0.556624
 Mulliken atomic charges:
              1
     1  H    0.181589
     2  C   -0.532798
     3  H    0.148057
     4  H    0.180255
     5  C    0.597001
     6  O   -0.526695
     7  N   -0.604892
     8  H    0.347278
     9  C   -0.035372
    10  H    0.171102
    11  C   -0.443586
    12  H    0.156088
    13  H    0.132361
    14  H    0.191227
    15  C    0.620744
    16  O   -0.531075
    17  N   -0.606496
    18  H    0.332173
    19  C   -0.021487
    20  H    0.141318
    21  C   -0.438837
    22  H    0.193617
    23  H    0.140206
    24  H    0.176379
    25  C    0.589145
    26  O   -0.523044
    27  N   -0.614734
    28  H    0.352946
    29  C   -0.033127
    30  H    0.173042
    31  C   -0.445449
    32  H    0.159652
    33  H    0.138756
    34  H    0.192215
    35  C    0.606038
    36  O   -0.529755
    37  N   -0.592173
    38  H    0.333418
    39  C   -0.314487
    40  H    0.208719
    41  H    0.165795
    42  H    0.164886
 Sum of Mulliken atomic charges =   0.00000
 Mulliken charges with hydrogens summed into heavy atoms:
              1
     2  C   -0.022897
     5  C    0.597001
     6  O   -0.526695
     7  N   -0.257615
     9  C    0.135730
    11  C    0.036091
    15  C    0.620744
    16  O   -0.531075
    17  N   -0.274323
    19  C    0.119831
    21  C    0.071365
    25  C    0.589145
    26  O   -0.523044
    27  N   -0.261788
    29  C    0.139915
    31  C    0.045175
    35  C    0.606038
    36  O   -0.529755
    37  N   -0.258755
    39  C    0.224913
 Sum of Mulliken charges with hydrogens summed into heavy atoms =   0.00000
 Electronic spatial extent (au):  <R**2>=          10695.4583
 Charge=              0.0000 electrons
 Dipole moment (field-independent basis, Debye):
    X=             -6.6188    Y=              0.1524    Z=             -0.0027  Tot=              6.6206
 Quadrupole moment (field-independent basis, Debye-Ang):
   XX=            -96.5028   YY=           -126.0145   ZZ=           -121.0227
   XY=             18.8678   XZ=              7.1310   YZ=              2.5622
 Traceless Quadrupole moment (field-independent basis, Debye-Ang):
   XX=             18.0105   YY=            -11.5011   ZZ=             -6.5094
   XY=             18.8678   XZ=              7.1310   YZ=              2.5622
 Octapole moment (field-independent basis, Debye-Ang**2):
  XXX=           -245.0713  YYY=             12.6184  ZZZ=             -0.7570  XYY=            -61.0682
  XXY=             12.8318  XXZ=           -108.6358  XZZ=             10.5085  YZZ=             -3.9872
  YYZ=             -5.0586  XYZ=              9.8859
 Hexadecapole moment (field-independent basis, Debye-Ang**3):
 XXXX=         -10096.7617 YYYY=          -1174.5385 ZZZZ=           -684.1594 XXXY=            654.8805
 XXXZ=             86.7063 YYYX=             75.0864 YYYZ=             18.4945 ZZZX=             11.9488
 ZZZY=             -1.9859 XXYY=          -2396.3894 XXZZ=          -2068.0140 YYZZ=           -292.1565
 XXYZ=             94.6450 YYXZ=             -8.4328 ZZXY=              4.5204
 N-N= 1.572651421873D+03 E-N=-5.454608739854D+03  KE= 9.813228759150D+02
 1\1\GINC-NODE006\FOpt\RB3LYP\6-31G(d)\C12H22N4O4\MANAGER\29-Dec-2016\0
 \\# b3lyp/6-31G* Opt=(ModRedundant, maxcycles=1000, calcfc) geom=nocro
 wd\\Phi Psi fixed scan\\0,1\H,5.3609432323,1.9342797907,4.1836166919\C
 ,4.4898428976,2.2303454474,3.590759726\H,3.9132521265,2.9734964761,4.1
 499731018\H,3.8749602219,1.3364295434,3.4468218627\C,4.9667571225,2.72
 32760802,2.2321890038\O,5.6253088027,2.0136168527,1.4758529959\N,4.608
 8798356,3.997462688,1.9121734287\H,4.1313716787,4.6086478419,2.5649119
 44\C,5.0504008801,4.6372870899,0.6897299214\H,6.1019213438,4.370247579
 9,0.5226318622\C,4.2274526877,4.1759203127,-0.5295131289\H,3.172997167
 3,4.4417439132,-0.4008174356\H,4.5904061406,4.6331306316,-1.4572146842
 \H,4.3144301332,3.0905216639,-0.6204527739\C,4.922933883,6.1598293223,
 0.9136155951\O,4.2425906363,6.6038509478,1.8329398446\N,5.583427303,6.
 9033313694,-0.0176629\H,6.1513386148,6.3745487789,-0.6670702828\C,5.74
 69994507,8.3570292849,-0.1230968229\H,5.3530852216,8.6565969251,-1.105
 5737055\C,5.0323043063,9.1789463406,0.9550873906\H,5.4356512723,8.9539
 887274,1.9427713314\H,5.1992289779,10.2399435014,0.7353908911\H,3.9598
 816463,8.982881406,0.9633129436\C,7.2593316893,8.6738923393,-0.0713116
 834\O,7.9532597468,8.361565438,0.8900545188\N,7.7488099241,9.309343563
 9,-1.1683842572\H,7.1512582848,9.6329523382,-1.9226006828\C,9.11777766
 08,9.7875904795,-1.2367241159\H,9.3865923838,10.2035042188,-0.25714470
 91\C,10.1055105953,8.6546445467,-1.5755716367\H,9.8769014003,8.2280092
 335,-2.5577028656\H,11.1397655972,9.0163701096,-1.5872426019\H,10.0219
 572178,7.8736859159,-0.8158205951\C,9.1418088278,10.8977272767,-2.3026
 03758\O,8.2148117059,11.0374556489,-3.0979831742\N,10.2571068965,11.67
 2314369,-2.3032484152\H,10.9583458995,11.5060884556,-1.5951764569\C,10
 .47876081,12.7420347533,-3.2631120886\H,9.6180765318,12.7652452123,-3.
 9321005132\H,10.5673275474,13.7106430246,-2.7583274728\H,11.3868316981
 ,12.5620805611,-3.8495762933\\Version=EM64L-G09RevA.02\State=1-A\HF=-9
 90.4964953\RMSD=8.999e-09\RMSF=1.574e-04\Dipole=1.2229278,2.031715,-1.
 0776142\Quadrupole=11.1208386,-7.0382183,-4.0826203,14.8699298,-6.4904
 524,-2.8730338\PG=C01 [X(C12H22N4O4)]\\@


 I DO NOT KNOW WHAT I MAY APPEAR TO THE WORLD; BUT TO MYSELF
 I SEEM TO HAVE BEEN ONLY LIKE A BOY PLAYING ON THE SEASHORE,
 AND DIVERTING MYSELF IN NOW AND THEN FINDING A SMOOTHER PEBBLE
 OR A PRETTIER SHELL THAN ORDINARY, WHILST THE GREAT OCEAN OF
 TRUTH LAY ALL UNDISCOVERED BEFORE ME.
                                          -- NEWTON (1642-1726)
 Job cpu time:  0 days  3 hours 56 minutes 34.6 seconds.
 File lengths (MBytes):  RWF=    608 Int=      0 D2E=      0 Chk=     11 Scr=      1
 Normal termination of Gaussian 09 at Thu Dec 29 02:29:47 2016.
