 Entering Gaussian System, Link 0=g09
 Initial command:
 /home/steboss/Software/g09/l1.exe /home/steboss/projects/phi_psi_scan/alanine/MP2/330/5589/Gau-30880.inp -scrdir=/home/steboss/projects/phi_psi_scan/alanine/MP2/330/5589/
 Entering Link 1 = /home/steboss/Software/g09/l1.exe PID=     30882.
  
 Copyright (c) 1988,1990,1992,1993,1995,1998,2003,2009, Gaussian, Inc.
                  All Rights Reserved.
  
 This is part of the Gaussian(R) 09 program.  It is based on
 the Gaussian(R) 03 system (copyright 2003, Gaussian, Inc.),
 the Gaussian(R) 98 system (copyright 1998, Gaussian, Inc.),
 the Gaussian(R) 94 system (copyright 1995, Gaussian, Inc.),
 the Gaussian 92(TM) system (copyright 1992, Gaussian, Inc.),
 the Gaussian 90(TM) system (copyright 1990, Gaussian, Inc.),
 the Gaussian 88(TM) system (copyright 1988, Gaussian, Inc.),
 the Gaussian 86(TM) system (copyright 1986, Carnegie Mellon
 University), and the Gaussian 82(TM) system (copyright 1983,
 Carnegie Mellon University). Gaussian is a federally registered
 trademark of Gaussian, Inc.
  
 This software contains proprietary and confidential information,
 including trade secrets, belonging to Gaussian, Inc.
  
 This software is provided under written license and may be
 used, copied, transmitted, or stored only in accord with that
 written license.
  
 The following legend is applicable only to US Government
 contracts under FAR:
  
                    RESTRICTED RIGHTS LEGEND
  
 Use, reproduction and disclosure by the US Government is
 subject to restrictions as set forth in subparagraphs (a)
 and (c) of the Commercial Computer Software - Restricted
 Rights clause in FAR 52.227-19.
  
 Gaussian, Inc.
 340 Quinnipiac St., Bldg. 40, Wallingford CT 06492
  
  
 ---------------------------------------------------------------
 Warning -- This program may not be used in any manner that
 competes with the business of Gaussian, Inc. or will provide
 assistance to any competitor of Gaussian, Inc.  The licensee
 of this program is prohibited from giving any competitor of
 Gaussian, Inc. access to this program.  By using this program,
 the user acknowledges that Gaussian, Inc. is engaged in the
 business of creating and licensing software in the field of
 computational chemistry and represents and warrants to the
 licensee that it is not a competitor of Gaussian, Inc. and that
 it will not use this program in any manner prohibited above.
 ---------------------------------------------------------------
  

 Cite this work as:
 Gaussian 09, Revision A.02,
 M. J. Frisch, G. W. Trucks, H. B. Schlegel, G. E. Scuseria, 
 M. A. Robb, J. R. Cheeseman, G. Scalmani, V. Barone, B. Mennucci, 
 G. A. Petersson, H. Nakatsuji, M. Caricato, X. Li, H. P. Hratchian, 
 A. F. Izmaylov, J. Bloino, G. Zheng, J. L. Sonnenberg, M. Hada, 
 M. Ehara, K. Toyota, R. Fukuda, J. Hasegawa, M. Ishida, T. Nakajima, 
 Y. Honda, O. Kitao, H. Nakai, T. Vreven, J. A. Montgomery, Jr., 
 J. E. Peralta, F. Ogliaro, M. Bearpark, J. J. Heyd, E. Brothers, 
 K. N. Kudin, V. N. Staroverov, R. Kobayashi, J. Normand, 
 K. Raghavachari, A. Rendell, J. C. Burant, S. S. Iyengar, J. Tomasi, 
 M. Cossi, N. Rega, J. M. Millam, M. Klene, J. E. Knox, J. B. Cross, 
 V. Bakken, C. Adamo, J. Jaramillo, R. Gomperts, R. E. Stratmann, 
 O. Yazyev, A. J. Austin, R. Cammi, C. Pomelli, J. W. Ochterski, 
 R. L. Martin, K. Morokuma, V. G. Zakrzewski, G. A. Voth, 
 P. Salvador, J. J. Dannenberg, S. Dapprich, A. D. Daniels, 
 O. Farkas, J. B. Foresman, J. V. Ortiz, J. Cioslowski, 
 and D. J. Fox, Gaussian, Inc., Wallingford CT, 2009.
 
 ******************************************
 Gaussian 09:  EM64L-G09RevA.02 11-Jun-2009
                13-Feb-2017 
 ******************************************
 %chk=structure_120.chk
 %NProcShared=8
 Will use up to    8 processors via shared memory.
 -------------------
 #SP MP2/aug-cc-pVDZ
 -------------------
 1/38=1/1;
 2/12=2,17=6,18=5,40=1/2;
 3/5=16,7=10,11=9,16=1,25=1,30=1/1,2,3;
 4//1;
 5/5=2,38=5/2;
 8/10=1/1;
 9/16=-3/6;
 6/7=2,8=2,9=2,10=2/1;
 99/5=1,9=1/99;
 -------------------------------
 Single Point calculation at MP2
 -------------------------------
 Symbolic Z-matrix:
 Charge =  0 Multiplicity = 1
 H                    -3.4404   -1.8725   -0.0537 
 C                    -3.0608   -0.9496    0.3899 
 H                    -2.9764   -1.1063    1.4717 
 H                    -3.7752   -0.1392    0.2118 
 C                    -1.6789   -0.6649   -0.1755 
 O                    -0.891    -1.557    -0.4661 
 N                    -1.3792    0.6617   -0.362 
 H                    -2.0148    1.3289    0.0566 
 C                    -0.0023    1.1352   -0.5359 
 H                     0.2367    1.1197   -1.6087 
 C                     0.1155    2.5694   -0.0178 
 H                    -0.0264    2.5817    1.0671 
 H                     1.1093    2.9711   -0.2372 
 H                    -0.6266    3.22     -0.495 
 C                     1.0094    0.2357    0.2154 
 O                     1.0139    0.1848    1.4381 
 N                     1.9543   -0.3587   -0.5716 
 H                     1.6761   -0.5334   -1.5285 
 C                     2.8686   -1.3276    0.0169 
 H                     3.2558   -0.9187    0.9515 
 H                     2.3659   -2.278     0.2377 
 H                     3.6981   -1.5053   -0.6728 
 
                          Input orientation:                          
 ---------------------------------------------------------------------
 Center     Atomic      Atomic             Coordinates (Angstroms)
 Number     Number       Type             X           Y           Z
 ---------------------------------------------------------------------
      1          1           0       -3.440400   -1.872500   -0.053700
      2          6           0       -3.060800   -0.949600    0.389900
      3          1           0       -2.976400   -1.106300    1.471700
      4          1           0       -3.775200   -0.139200    0.211800
      5          6           0       -1.678900   -0.664900   -0.175500
      6          8           0       -0.891000   -1.557000   -0.466100
      7          7           0       -1.379200    0.661700   -0.362000
      8          1           0       -2.014800    1.328900    0.056600
      9          6           0       -0.002300    1.135200   -0.535900
     10          1           0        0.236700    1.119700   -1.608700
     11          6           0        0.115500    2.569400   -0.017800
     12          1           0       -0.026400    2.581700    1.067100
     13          1           0        1.109300    2.971100   -0.237200
     14          1           0       -0.626600    3.220000   -0.495000
     15          6           0        1.009400    0.235700    0.215400
     16          8           0        1.013900    0.184800    1.438100
     17          7           0        1.954300   -0.358700   -0.571600
     18          1           0        1.676100   -0.533400   -1.528500
     19          6           0        2.868600   -1.327600    0.016900
     20          1           0        3.255800   -0.918700    0.951500
     21          1           0        2.365900   -2.278000    0.237700
     22          1           0        3.698100   -1.505300   -0.672800
 ---------------------------------------------------------------------
                    Distance matrix (angstroms):
                    1          2          3          4          5
     1  H    0.000000
     2  C    1.092072   0.000000
     3  H    1.768956   1.096344   0.000000
     4  H    1.785192   1.094913   1.777839   0.000000
     5  C    2.139162   1.519993   2.142804   2.195640   0.000000
     6  O    2.601741   2.410333   2.882203   3.284557   1.225185
     7  N    3.281122   2.447329   3.006547   2.590657   1.372760
     8  H    3.506204   2.529183   2.976135   2.297480   2.035175
     9  C    4.593398   3.815484   4.230845   4.051904   2.486209
    10  H    4.989223   4.376061   4.976741   4.581964   2.984691
    11  C    5.690008   4.757989   5.028839   4.746238   3.702086
    12  H    5.722891   4.704919   4.739994   4.710450   3.849055
    13  H    6.647850   5.758027   6.019840   5.808090   4.582397
    14  H    5.834876   4.908558   5.301541   4.658055   4.037557
    15  C    4.931292   4.242866   4.389289   4.799267   2.861964
    16  O    5.128230   4.357610   4.194110   4.954217   3.252210
    17  N    5.626953   5.140513   5.389414   5.786974   3.667533
    18  H    5.490610   5.127544   5.565534   5.735914   3.619935
    19  C    6.332881   5.953133   6.027391   6.752063   4.599559
    20  H    6.838074   6.341592   6.256686   7.112646   5.068117
    21  H    5.827732   5.588997   5.606764   6.502941   4.374155
    22  H    7.174699   6.864464   7.021897   7.648461   5.464953
                    6          7          8          9         10
     6  O    0.000000
     7  N    2.274160   0.000000
     8  H    3.140790   1.012111   0.000000
     9  C    2.835948   1.466389   2.106830   0.000000
    10  H    3.121212   2.091688   2.808245   1.099209   0.000000
    11  C    4.270971   2.447840   2.466283   1.529455   2.155756
    12  H    4.497452   2.749326   2.558193   2.159294   3.060485
    13  H    4.955531   3.397284   3.541630   2.166888   2.463762
    14  H    4.784399   2.670018   2.409901   2.176652   2.529204
    15  C    2.699951   2.494048   3.219641   1.548253   2.169300
    16  O    3.207567   3.032280   3.520019   2.415077   3.280407
    17  N    3.089140   3.492473   4.358484   2.461970   2.492267
    18  H    2.960820   3.481931   4.427578   2.566419   2.193409
    19  C    3.797434   4.705814   5.559331   3.822700   3.944458
    20  H    4.428653   5.070125   5.799291   4.128690   4.452490
    21  H    3.409190   4.798672   5.677416   4.225726   4.414414
    22  H    4.594044   5.529146   6.418874   4.547960   4.443852
                   11         12         13         14         15
    11  C    0.000000
    12  H    1.094210   0.000000
    13  H    1.094138   1.772751   0.000000
    14  H    1.096227   1.791040   1.772501   0.000000
    15  C    2.509899   2.702220   2.774390   3.476667   0.000000
    16  O    2.934806   2.639128   3.252568   3.954814   1.223767
    17  N    3.501664   3.905696   3.451582   4.412936   1.365839
    18  H    3.787487   4.397669   3.777597   4.523114   2.019206
    19  C    4.771517   4.976602   4.651723   5.758397   2.437198
    20  H    4.792480   4.799896   4.599023   5.856128   2.630740
    21  H    5.350408   5.479753   5.418268   6.302373   2.856445
    22  H    5.465092   5.796785   5.189392   6.408050   3.324017
                   16         17         18         19         20
    16  O    0.000000
    17  N    2.284434   0.000000
    18  H    3.123305   1.011718   0.000000
    19  C    2.783357   1.456380   2.107385   0.000000
    20  H    2.545704   2.080225   2.965520   1.091146   0.000000
    21  H    3.055200   2.123227   2.576609   1.097597   1.774579
    22  H    3.810153   2.089443   2.401103   1.093313   1.782717
                   21         22
    21  H    0.000000
    22  H    1.789087   0.000000
 Stoichiometry    C6H12N2O2
 Framework group  C1[X(C6H12N2O2)]
 Deg. of freedom    60
 Full point group                 C1      NOp   1
 Largest Abelian subgroup         C1      NOp   1
 Largest concise Abelian subgroup C1      NOp   1
                         Standard orientation:                         
 ---------------------------------------------------------------------
 Center     Atomic      Atomic             Coordinates (Angstroms)
 Number     Number       Type             X           Y           Z
 ---------------------------------------------------------------------
      1          1           0       -3.440367   -1.872567   -0.053691
      2          6           0       -3.060784   -0.949661    0.389909
      3          1           0       -2.976381   -1.106359    1.471709
      4          1           0       -3.775198   -0.139273    0.211809
      5          6           0       -1.678888   -0.664937   -0.175491
      6          8           0       -0.890973   -1.557023   -0.466091
      7          7           0       -1.379211    0.661668   -0.361991
      8          1           0       -2.014823    1.328857    0.056609
      9          6           0       -0.002320    1.135192   -0.535891
     10          1           0        0.236681    1.119696   -1.608691
     11          6           0        0.115455    2.569394   -0.017791
     12          1           0       -0.026445    2.581692    1.067109
     13          1           0        1.109248    2.971112   -0.237191
     14          1           0       -0.626656    3.219981   -0.494991
     15          6           0        1.009396    0.235710    0.215409
     16          8           0        1.013897    0.184810    1.438109
     17          7           0        1.954306   -0.358674   -0.571591
     18          1           0        1.676109   -0.533379   -1.528491
     19          6           0        2.868623   -1.327558    0.016909
     20          1           0        3.255816   -0.918651    0.951509
     21          1           0        2.365940   -2.277967    0.237709
     22          1           0        3.698126   -1.505243   -0.672791
 ---------------------------------------------------------------------
 Rotational constants (GHZ):      1.7963356      1.0108772      0.7621389
 Standard basis: Aug-CC-pVDZ (5D, 7F)
 There are   338 symmetry adapted basis functions of A   symmetry.
 Integral buffers will be    131072 words long.
 Raffenetti 1 integral format.
 Two-electron integral symmetry is turned on.
   338 basis functions,   562 primitive gaussians,   358 cartesian basis functions
    39 alpha electrons       39 beta electrons
       nuclear repulsion energy       566.6219541272 Hartrees.
 NAtoms=   22 NActive=   22 NUniq=   22 SFac= 7.50D-01 NAtFMM=   80 NAOKFM=F Big=F
 One-electron integrals computed using PRISM.
 NBasis=   338 RedAO= T  NBF=   338
 NBsUse=   338 1.00D-06 NBFU=   338
 Harris functional with IExCor=  205 diagonalized for initial guess.
 ExpMin= 2.97D-02 ExpMax= 1.17D+04 ExpMxC= 4.01D+02 IAcc=3 IRadAn=         0 AccDes= 0.00D+00
 HarFok:  IExCor=  205 AccDes= 0.00D+00 IRadAn=         0 IDoV= 1
 ScaDFX=  1.000000  1.000000  1.000000  1.000000
 FoFCou: FMM=F IPFlag=           0 FMFlag=      100000 FMFlg1=           0
         NFxFlg=           0 DoJE=T BraDBF=F KetDBF=T FulRan=T
         Omega=  0.000000  0.000000  1.000000  0.000000  0.000000 ICntrl=     500 IOpCl=  0
         NMat0=    1 NMatS0=    1 NMatT0=    0 NMatD0=    1 NMtDS0=    0 NMtDT0=    0
         I1Cent=           4 NGrid=           0.
 Petite list used in FoFCou.
 Initial guess orbital symmetries:
       Occupied  (A) (A) (A) (A) (A) (A) (A) (A) (A) (A) (A) (A)
                 (A) (A) (A) (A) (A) (A) (A) (A) (A) (A) (A) (A)
                 (A) (A) (A) (A) (A) (A) (A) (A) (A) (A) (A) (A)
                 (A) (A) (A)
       Virtual   (A) (A) (A) (A) (A) (A) (A) (A) (A) (A) (A) (A)
                 (A) (A) (A) (A) (A) (A) (A) (A) (A) (A) (A) (A)
                 (A) (A) (A) (A) (A) (A) (A) (A) (A) (A) (A) (A)
                 (A) (A) (A) (A) (A) (A) (A) (A) (A) (A) (A) (A)
                 (A) (A) (A) (A) (A) (A) (A) (A) (A) (A) (A) (A)
                 (A) (A) (A) (A) (A) (A) (A) (A) (A) (A) (A) (A)
                 (A) (A) (A) (A) (A) (A) (A) (A) (A) (A) (A) (A)
                 (A) (A) (A) (A) (A) (A) (A) (A) (A) (A) (A) (A)
                 (A) (A) (A) (A) (A) (A) (A) (A) (A) (A) (A) (A)
                 (A) (A) (A) (A) (A) (A) (A) (A) (A) (A) (A) (A)
                 (A) (A) (A) (A) (A) (A) (A) (A) (A) (A) (A) (A)
                 (A) (A) (A) (A) (A) (A) (A) (A) (A) (A) (A) (A)
                 (A) (A) (A) (A) (A) (A) (A) (A) (A) (A) (A) (A)
                 (A) (A) (A) (A) (A) (A) (A) (A) (A) (A) (A) (A)
                 (A) (A) (A) (A) (A) (A) (A) (A) (A) (A) (A) (A)
                 (A) (A) (A) (A) (A) (A) (A) (A) (A) (A) (A) (A)
                 (A) (A) (A) (A) (A) (A) (A) (A) (A) (A) (A) (A)
                 (A) (A) (A) (A) (A) (A) (A) (A) (A) (A) (A) (A)
                 (A) (A) (A) (A) (A) (A) (A) (A) (A) (A) (A) (A)
                 (A) (A) (A) (A) (A) (A) (A) (A) (A) (A) (A) (A)
                 (A) (A) (A) (A) (A) (A) (A) (A) (A) (A) (A) (A)
                 (A) (A) (A) (A) (A) (A) (A) (A) (A) (A) (A) (A)
                 (A) (A) (A) (A) (A) (A) (A) (A) (A) (A) (A) (A)
                 (A) (A) (A) (A) (A) (A) (A) (A) (A) (A) (A) (A)
                 (A) (A) (A) (A) (A) (A) (A) (A) (A) (A) (A)
 The electronic state of the initial guess is 1-A.
 Requested convergence on RMS density matrix=1.00D-08 within 128 cycles.
 Requested convergence on MAX density matrix=1.00D-06.
 Requested convergence on             energy=1.00D-06.
 No special actions if energy rises.
 Initial convergence to 1.0D-05 achieved.  Increase integral accuracy.
 SCF Done:  E(RHF) =  -492.922212426     A.U. after   15 cycles
             Convg  =    0.3723D-08             -V/T =  2.0017
 ExpMin= 2.97D-02 ExpMax= 1.17D+04 ExpMxC= 4.01D+02 IAcc=3 IRadAn=         5 AccDes= 0.00D+00
 HarFok:  IExCor=  205 AccDes= 0.00D+00 IRadAn=         5 IDoV=-2
 ScaDFX=  1.000000  1.000000  1.000000  1.000000
 Range of M.O.s used for correlation:    11   338
 NBasis=   338 NAE=    39 NBE=    39 NFC=    10 NFV=     0
 NROrb=    328 NOA=    29 NOB=    29 NVA=   299 NVB=   299

 **** Warning!!: The largest alpha MO coefficient is  0.80678894D+02

 Disk-based method using OVN memory for 29 occupieds at a time.
 Estimated scratch disk usage=  1392331029 words.
 Actual    scratch disk usage=  1379438629 words.
 JobTyp=1 Pass  1:  I=   1 to  29 NPSUse=  8 ParTrn=T ParDer=T DoDerP=F.
 Spin components of T(2) and E(2):
     alpha-alpha T2 =       0.6797364773D-01 E2=     -0.2059201804D+00
     alpha-beta  T2 =       0.3767540104D+00 E2=     -0.1191096892D+01
     beta-beta   T2 =       0.6797364773D-01 E2=     -0.2059201804D+00
 ANorm=    0.1229919227D+01
 E2 =    -0.1602937253D+01 EUMP2 =    -0.49452514967904D+03

 **********************************************************************

            Population analysis using the SCF density.

 **********************************************************************

 Orbital symmetries:
       Occupied  (A) (A) (A) (A) (A) (A) (A) (A) (A) (A) (A) (A)
                 (A) (A) (A) (A) (A) (A) (A) (A) (A) (A) (A) (A)
                 (A) (A) (A) (A) (A) (A) (A) (A) (A) (A) (A) (A)
                 (A) (A) (A)
       Virtual   (A) (A) (A) (A) (A) (A) (A) (A) (A) (A) (A) (A)
                 (A) (A) (A) (A) (A) (A) (A) (A) (A) (A) (A) (A)
                 (A) (A) (A) (A) (A) (A) (A) (A) (A) (A) (A) (A)
                 (A) (A) (A) (A) (A) (A) (A) (A) (A) (A) (A) (A)
                 (A) (A) (A) (A) (A) (A) (A) (A) (A) (A) (A) (A)
                 (A) (A) (A) (A) (A) (A) (A) (A) (A) (A) (A) (A)
                 (A) (A) (A) (A) (A) (A) (A) (A) (A) (A) (A) (A)
                 (A) (A) (A) (A) (A) (A) (A) (A) (A) (A) (A) (A)
                 (A) (A) (A) (A) (A) (A) (A) (A) (A) (A) (A) (A)
                 (A) (A) (A) (A) (A) (A) (A) (A) (A) (A) (A) (A)
                 (A) (A) (A) (A) (A) (A) (A) (A) (A) (A) (A) (A)
                 (A) (A) (A) (A) (A) (A) (A) (A) (A) (A) (A) (A)
                 (A) (A) (A) (A) (A) (A) (A) (A) (A) (A) (A) (A)
                 (A) (A) (A) (A) (A) (A) (A) (A) (A) (A) (A) (A)
                 (A) (A) (A) (A) (A) (A) (A) (A) (A) (A) (A) (A)
                 (A) (A) (A) (A) (A) (A) (A) (A) (A) (A) (A) (A)
                 (A) (A) (A) (A) (A) (A) (A) (A) (A) (A) (A) (A)
                 (A) (A) (A) (A) (A) (A) (A) (A) (A) (A) (A) (A)
                 (A) (A) (A) (A) (A) (A) (A) (A) (A) (A) (A) (A)
                 (A) (A) (A) (A) (A) (A) (A) (A) (A) (A) (A) (A)
                 (A) (A) (A) (A) (A) (A) (A) (A) (A) (A) (A) (A)
                 (A) (A) (A) (A) (A) (A) (A) (A) (A) (A) (A) (A)
                 (A) (A) (A) (A) (A) (A) (A) (A) (A) (A) (A) (A)
                 (A) (A) (A) (A) (A) (A) (A) (A) (A) (A) (A) (A)
                 (A) (A) (A) (A) (A) (A) (A) (A) (A) (A) (A)
 The electronic state is 1-A.
 Alpha  occ. eigenvalues --  -20.53520 -20.52564 -15.60068 -15.58431 -11.36600
 Alpha  occ. eigenvalues --  -11.35298 -11.29600 -11.25621 -11.24862 -11.24315
 Alpha  occ. eigenvalues --   -1.39220  -1.37558  -1.24150  -1.22257  -1.05741
 Alpha  occ. eigenvalues --   -0.99396  -0.95111  -0.87210  -0.80511  -0.77040
 Alpha  occ. eigenvalues --   -0.70763  -0.68944  -0.67190  -0.63143  -0.61859
 Alpha  occ. eigenvalues --   -0.61422  -0.59523  -0.58244  -0.57391  -0.54821
 Alpha  occ. eigenvalues --   -0.54260  -0.53734  -0.53104  -0.51651  -0.49687
 Alpha  occ. eigenvalues --   -0.43142  -0.42792  -0.39897  -0.38495
 Alpha virt. eigenvalues --    0.02894   0.03798   0.04324   0.04752   0.05613
 Alpha virt. eigenvalues --    0.06242   0.06475   0.06955   0.07416   0.07991
 Alpha virt. eigenvalues --    0.09009   0.09303   0.11001   0.12062   0.12963
 Alpha virt. eigenvalues --    0.13849   0.14044   0.14590   0.14881   0.15240
 Alpha virt. eigenvalues --    0.15776   0.16272   0.16378   0.16832   0.17211
 Alpha virt. eigenvalues --    0.17769   0.18323   0.18591   0.18745   0.19611
 Alpha virt. eigenvalues --    0.19848   0.20247   0.20765   0.21452   0.22444
 Alpha virt. eigenvalues --    0.24105   0.24600   0.24852   0.25449   0.26573
 Alpha virt. eigenvalues --    0.26857   0.28415   0.29076   0.30010   0.30773
 Alpha virt. eigenvalues --    0.31317   0.31995   0.32672   0.33251   0.33589
 Alpha virt. eigenvalues --    0.34865   0.35107   0.36173   0.36640   0.37507
 Alpha virt. eigenvalues --    0.37973   0.38686   0.39144   0.39780   0.40260
 Alpha virt. eigenvalues --    0.40946   0.41174   0.41765   0.43071   0.43381
 Alpha virt. eigenvalues --    0.43929   0.44818   0.45197   0.45682   0.46115
 Alpha virt. eigenvalues --    0.47136   0.47392   0.48229   0.49155   0.49600
 Alpha virt. eigenvalues --    0.49988   0.50872   0.51082   0.51968   0.52901
 Alpha virt. eigenvalues --    0.53655   0.54852   0.55056   0.55362   0.56482
 Alpha virt. eigenvalues --    0.57118   0.57378   0.57732   0.58454   0.59017
 Alpha virt. eigenvalues --    0.59521   0.59597   0.61013   0.61862   0.62513
 Alpha virt. eigenvalues --    0.62626   0.63950   0.64209   0.64851   0.65167
 Alpha virt. eigenvalues --    0.65575   0.67090   0.67501   0.68086   0.68419
 Alpha virt. eigenvalues --    0.69367   0.69724   0.70491   0.70828   0.71420
 Alpha virt. eigenvalues --    0.72373   0.72861   0.73205   0.73551   0.75414
 Alpha virt. eigenvalues --    0.75554   0.77257   0.78455   0.78758   0.79359
 Alpha virt. eigenvalues --    0.80804   0.81689   0.81874   0.82349   0.82981
 Alpha virt. eigenvalues --    0.83262   0.85099   0.85941   0.86437   0.87840
 Alpha virt. eigenvalues --    0.88622   0.90245   0.91247   0.91548   0.93378
 Alpha virt. eigenvalues --    0.94832   0.95723   0.97895   0.98531   0.99644
 Alpha virt. eigenvalues --    1.00304   1.00954   1.02301   1.03029   1.05264
 Alpha virt. eigenvalues --    1.05809   1.08287   1.09680   1.10851   1.12021
 Alpha virt. eigenvalues --    1.13505   1.14197   1.14854   1.15564   1.16758
 Alpha virt. eigenvalues --    1.18074   1.18634   1.20277   1.22055   1.22430
 Alpha virt. eigenvalues --    1.23719   1.25819   1.28187   1.29263   1.29443
 Alpha virt. eigenvalues --    1.30247   1.33587   1.34278   1.37202   1.37477
 Alpha virt. eigenvalues --    1.39946   1.41402   1.43249   1.46666   1.47556
 Alpha virt. eigenvalues --    1.49802   1.52519   1.54075   1.55161   1.57423
 Alpha virt. eigenvalues --    1.59309   1.60238   1.61135   1.62207   1.63766
 Alpha virt. eigenvalues --    1.67490   1.68685   1.70430   1.71714   1.72860
 Alpha virt. eigenvalues --    1.75905   1.76592   1.79616   1.80170   1.81064
 Alpha virt. eigenvalues --    1.81870   1.83639   1.85442   1.87383   1.89273
 Alpha virt. eigenvalues --    1.90113   1.91243   1.92366   1.92833   1.93934
 Alpha virt. eigenvalues --    1.95338   1.95882   1.98625   2.00557   2.02727
 Alpha virt. eigenvalues --    2.03318   2.04141   2.06558   2.09848   2.11107
 Alpha virt. eigenvalues --    2.12123   2.13657   2.14903   2.17467   2.18182
 Alpha virt. eigenvalues --    2.18770   2.20818   2.21842   2.23797   2.24929
 Alpha virt. eigenvalues --    2.27545   2.28714   2.29105   2.30839   2.31899
 Alpha virt. eigenvalues --    2.32771   2.34571   2.35627   2.36717   2.37660
 Alpha virt. eigenvalues --    2.38575   2.40408   2.41986   2.44685   2.45744
 Alpha virt. eigenvalues --    2.47289   2.49257   2.50831   2.51551   2.53102
 Alpha virt. eigenvalues --    2.54082   2.54878   2.57139   2.60314   2.61227
 Alpha virt. eigenvalues --    2.65112   2.65704   2.67656   2.67831   2.70635
 Alpha virt. eigenvalues --    2.72730   2.73069   2.75800   2.77565   2.79950
 Alpha virt. eigenvalues --    2.80643   2.82808   2.84118   2.87603   2.89062
 Alpha virt. eigenvalues --    2.90232   2.92387   2.94864   2.96762   2.98214
 Alpha virt. eigenvalues --    3.01357   3.02704   3.06262   3.06443   3.07027
 Alpha virt. eigenvalues --    3.10568   3.13857   3.16492   3.20376   3.23834
 Alpha virt. eigenvalues --    3.32365   3.35579   3.38435   3.43458   3.54512
 Alpha virt. eigenvalues --    3.59401   3.62305   3.79085   3.83521   3.85621
 Alpha virt. eigenvalues --    3.88857   3.92189   3.96070   3.99299   4.02121
 Alpha virt. eigenvalues --    4.09704   4.16131   4.21973   4.42237
          Condensed to atoms (all electrons):
              1          2          3          4          5          6
     1  H    0.795175   0.411077  -0.049814  -0.109827  -0.085459   0.015200
     2  C    0.411077   4.569890   0.327902   0.306807   0.112938  -0.035982
     3  H   -0.049814   0.327902   0.701605  -0.064070  -0.038532   0.017965
     4  H   -0.109827   0.306807  -0.064070   1.035179   0.101016   0.000386
     5  C   -0.085459   0.112938  -0.038532   0.101016   5.389540   0.145066
     6  O    0.015200  -0.035982   0.017965   0.000386   0.145066   8.756628
     7  N    0.053491   0.043530   0.018484  -0.156433   0.061625  -0.145785
     8  H   -0.004209  -0.057187  -0.006418   0.011947  -0.026019  -0.002601
     9  C   -0.025668  -0.033948   0.029526  -0.020337  -0.208225   0.108561
    10  H   -0.004535  -0.007932   0.000729   0.002453   0.031517   0.010158
    11  C    0.002459  -0.022485  -0.002676  -0.006872   0.019241  -0.005686
    12  H   -0.000640  -0.013699  -0.001152   0.000540   0.010750   0.001644
    13  H    0.000277   0.004280   0.000058  -0.000113   0.004829   0.000279
    14  H   -0.000010   0.003020   0.000344   0.000494  -0.019020  -0.000893
    15  C    0.008097   0.023511  -0.014826  -0.010297  -0.230904   0.037644
    16  O   -0.000171   0.003042   0.002323   0.001589   0.050359  -0.006403
    17  N    0.000841  -0.006273   0.000678   0.000300   0.083818  -0.046960
    18  H    0.000310   0.001110   0.000103  -0.000200  -0.010989   0.007534
    19  C    0.000439   0.001919  -0.000625  -0.000028   0.009398   0.005643
    20  H    0.000112   0.000939  -0.000122  -0.000056  -0.008321   0.000899
    21  H   -0.000293  -0.001770  -0.000288   0.000111   0.005053   0.003429
    22  H   -0.000020  -0.000330  -0.000022   0.000029   0.000261  -0.000233
              7          8          9         10         11         12
     1  H    0.053491  -0.004209  -0.025668  -0.004535   0.002459  -0.000640
     2  C    0.043530  -0.057187  -0.033948  -0.007932  -0.022485  -0.013699
     3  H    0.018484  -0.006418   0.029526   0.000729  -0.002676  -0.001152
     4  H   -0.156433   0.011947  -0.020337   0.002453  -0.006872   0.000540
     5  C    0.061625  -0.026019  -0.208225   0.031517   0.019241   0.010750
     6  O   -0.145785  -0.002601   0.108561   0.010158  -0.005686   0.001644
     7  N    7.539656   0.395877  -0.479708  -0.066523   0.075309  -0.035282
     8  H    0.395877   0.889336  -0.253319   0.013517   0.009502   0.015023
     9  C   -0.479708  -0.253319   8.197367  -0.320885  -0.055773  -0.067980
    10  H   -0.066523   0.013517  -0.320885   1.485877   0.009289   0.072476
    11  C    0.075309   0.009502  -0.055773   0.009289   4.374269   0.376855
    12  H   -0.035282   0.015023  -0.067980   0.072476   0.376855   0.981240
    13  H    0.052112   0.002440  -0.036350  -0.067882   0.247758  -0.124747
    14  H   -0.037880  -0.004460   0.075437  -0.030027   0.270240  -0.225641
    15  C    0.171538   0.019122  -1.046847   0.250975   0.001301  -0.002687
    16  O   -0.010092  -0.000535   0.025992  -0.022668   0.006276   0.001233
    17  N   -0.003151   0.005199   0.138472  -0.077354   0.037902  -0.015659
    18  H    0.017625  -0.001692  -0.109262   0.011367   0.017208   0.001524
    19  C   -0.002053   0.001341  -0.021845   0.007235  -0.003498  -0.002350
    20  H   -0.000769  -0.000182   0.007318   0.002974  -0.004508  -0.000934
    21  H    0.002125   0.000738   0.002650  -0.001554   0.005417   0.000009
    22  H    0.000159  -0.000109  -0.013086   0.001481   0.002048   0.000849
             13         14         15         16         17         18
     1  H    0.000277  -0.000010   0.008097  -0.000171   0.000841   0.000310
     2  C    0.004280   0.003020   0.023511   0.003042  -0.006273   0.001110
     3  H    0.000058   0.000344  -0.014826   0.002323   0.000678   0.000103
     4  H   -0.000113   0.000494  -0.010297   0.001589   0.000300  -0.000200
     5  C    0.004829  -0.019020  -0.230904   0.050359   0.083818  -0.010989
     6  O    0.000279  -0.000893   0.037644  -0.006403  -0.046960   0.007534
     7  N    0.052112  -0.037880   0.171538  -0.010092  -0.003151   0.017625
     8  H    0.002440  -0.004460   0.019122  -0.000535   0.005199  -0.001692
     9  C   -0.036350   0.075437  -1.046847   0.025992   0.138472  -0.109262
    10  H   -0.067882  -0.030027   0.250975  -0.022668  -0.077354   0.011367
    11  C    0.247758   0.270240   0.001301   0.006276   0.037902   0.017208
    12  H   -0.124747  -0.225641  -0.002687   0.001233  -0.015659   0.001524
    13  H    1.228513  -0.216525  -0.015684   0.005823  -0.009107   0.007076
    14  H   -0.216525   1.189854   0.032891   0.001036   0.018336  -0.003015
    15  C   -0.015684   0.032891   6.024525  -0.001032  -0.353720   0.008198
    16  O    0.005823   0.001036  -0.001032   8.860072  -0.034955   0.002234
    17  N   -0.009107   0.018336  -0.353720  -0.034955   7.403383   0.283257
    18  H    0.007076  -0.003015   0.008198   0.002234   0.283257   0.885830
    19  C   -0.003678   0.002711  -0.153458   0.047993   0.252021  -0.084201
    20  H   -0.000725   0.000631   0.112994  -0.023739  -0.086587   0.009678
    21  H    0.000254   0.000155  -0.041365   0.006595   0.105388  -0.011019
    22  H   -0.000784  -0.000030  -0.026574   0.011936  -0.141373   0.015220
             19         20         21         22
     1  H    0.000439   0.000112  -0.000293  -0.000020
     2  C    0.001919   0.000939  -0.001770  -0.000330
     3  H   -0.000625  -0.000122  -0.000288  -0.000022
     4  H   -0.000028  -0.000056   0.000111   0.000029
     5  C    0.009398  -0.008321   0.005053   0.000261
     6  O    0.005643   0.000899   0.003429  -0.000233
     7  N   -0.002053  -0.000769   0.002125   0.000159
     8  H    0.001341  -0.000182   0.000738  -0.000109
     9  C   -0.021845   0.007318   0.002650  -0.013086
    10  H    0.007235   0.002974  -0.001554   0.001481
    11  C   -0.003498  -0.004508   0.005417   0.002048
    12  H   -0.002350  -0.000934   0.000009   0.000849
    13  H   -0.003678  -0.000725   0.000254  -0.000784
    14  H    0.002711   0.000631   0.000155  -0.000030
    15  C   -0.153458   0.112994  -0.041365  -0.026574
    16  O    0.047993  -0.023739   0.006595   0.011936
    17  N    0.252021  -0.086587   0.105388  -0.141373
    18  H   -0.084201   0.009678  -0.011019   0.015220
    19  C    4.090677   0.363679   0.306632   0.450531
    20  H    0.363679   1.004271  -0.082163  -0.186532
    21  H    0.306632  -0.082163   0.925615  -0.184283
    22  H    0.450531  -0.186532  -0.184283   1.259367
 Mulliken atomic charges:
              1
     1  H   -0.006831
     2  C    0.369640
     3  H    0.078826
     4  H   -0.092620
     5  C    0.602058
     6  O   -0.866493
     7  N   -0.493855
     8  H   -0.007310
     9  C    0.107910
    10  H   -0.300688
    11  C    0.646423
    12  H    0.028629
    13  H   -0.078106
    14  H   -0.057649
    15  C    1.206599
    16  O   -0.926907
    17  N   -0.554454
    18  H   -0.047894
    19  C    0.731516
    20  H   -0.108855
    21  H   -0.041435
    22  H   -0.188505
 Sum of Mulliken atomic charges =   0.00000
 Mulliken charges with hydrogens summed into heavy atoms:
              1
     2  C    0.349015
     5  C    0.602058
     6  O   -0.866493
     7  N   -0.501165
     9  C   -0.192779
    11  C    0.539297
    15  C    1.206599
    16  O   -0.926907
    17  N   -0.602348
    19  C    0.392721
 Sum of Mulliken charges with hydrogens summed into heavy atoms =   0.00000
 Electronic spatial extent (au):  <R**2>=           1642.5823
 Charge=              0.0000 electrons
 Dipole moment (field-independent basis, Debye):
    X=             -1.7582    Y=              2.3805    Z=             -2.2061  Tot=              3.6911
 Quadrupole moment (field-independent basis, Debye-Ang):
   XX=            -50.0735   YY=            -60.7863   ZZ=            -64.6431
   XY=             -4.2213   XZ=             -6.2730   YZ=             -1.4296
 Traceless Quadrupole moment (field-independent basis, Debye-Ang):
   XX=              8.4275   YY=             -2.2854   ZZ=             -6.1421
   XY=             -4.2213   XZ=             -6.2730   YZ=             -1.4296
 Octapole moment (field-independent basis, Debye-Ang**2):
  XXX=            -14.9372  YYY=             10.6970  ZZZ=            -10.3732  XYY=              2.3358
  XXY=            -12.5026  XXZ=              1.9284  XZZ=             -0.6091  YZZ=             -3.8318
  YYZ=              3.2270  XYZ=              2.1459
 Hexadecapole moment (field-independent basis, Debye-Ang**3):
 XXXX=          -1186.7825 YYYY=           -692.6368 ZZZZ=           -212.6023 XXXY=            -14.5814
 XXXZ=             -5.2820 YYYX=             -9.7991 YYYZ=             -3.6185 ZZZX=            -18.6091
 ZZZY=              3.3801 XXYY=           -301.8351 XXZZ=           -247.5293 YYZZ=           -151.2578
 XXYZ=              5.4429 YYXZ=             -3.1093 ZZXY=             -2.4886
 N-N= 5.666219541272D+02 E-N=-2.288769912769D+03  KE= 4.920642948473D+02
 1\1\GINC-NODE011\SP\RMP2-FC\Aug-CC-pVDZ\C6H12N2O2\MANAGER\13-Feb-2017\
 0\\#SP MP2/aug-cc-pVDZ\\Single Point calculation at MP2\\0,1\H,0,-3.44
 04,-1.8725,-0.0537\C,0,-3.0608,-0.9496,0.3899\H,0,-2.9764,-1.1063,1.47
 17\H,0,-3.7752,-0.1392,0.2118\C,0,-1.6789,-0.6649,-0.1755\O,0,-0.891,-
 1.557,-0.4661\N,0,-1.3792,0.6617,-0.362\H,0,-2.0148,1.3289,0.0566\C,0,
 -0.0023,1.1352,-0.5359\H,0,0.2367,1.1197,-1.6087\C,0,0.1155,2.5694,-0.
 0178\H,0,-0.0264,2.5817,1.0671\H,0,1.1093,2.9711,-0.2372\H,0,-0.6266,3
 .22,-0.495\C,0,1.0094,0.2357,0.2154\O,0,1.0139,0.1848,1.4381\N,0,1.954
 3,-0.3587,-0.5716\H,0,1.6761,-0.5334,-1.5285\C,0,2.8686,-1.3276,0.0169
 \H,0,3.2558,-0.9187,0.9515\H,0,2.3659,-2.278,0.2377\H,0,3.6981,-1.5053
 ,-0.6728\\Version=EM64L-G09RevA.02\State=1-A\HF=-492.9222124\MP2=-494.
 5251497\RMSD=3.723e-09\PG=C01 [X(C6H12N2O2)]\\@


 SATCHEL PAIGE'S GUIDE TO LONGEVITY

    1.  AVOID FRIED MEATS, WHICH ANGRY UP THE BLOOD.

    2.  IF YOUR STOMACH DISPUTES YOU, LIE DOWN AND PACIFY IT WITH COOL
        THOUGHTS.

    3.  KEEP THE JUICES FLOWING BY JANGLING AROUND GENTLY AS YOU MOVE.

    4.  GO VERY LIGHT ON THE VICES, SUCH AS CARRYING ON IN SOCIETY.
        THE SOCIAL RUMBLE AIN'T RESTFUL.

    5.  AVOID RUNNING AT ALL TIMES.

    6.  DON'T LOOK BACK.  SOMETHING MAY BE GAINING ON YOU.
 Job cpu time:  0 days 12 hours 13 minutes 19.2 seconds.
 File lengths (MBytes):  RWF=  10641 Int=      0 D2E=      0 Chk=      7 Scr=      2
 Normal termination of Gaussian 09 at Mon Feb 13 19:50:38 2017.
