 Entering Gaussian System, Link 0=g09
 Initial command:
 /home/steboss/Software/g09/l1.exe /tmp/Gau-19394.inp -scrdir=/tmp/
 Entering Link 1 = /home/steboss/Software/g09/l1.exe PID=     19396.
  
 Copyright (c) 1988,1990,1992,1993,1995,1998,2003,2009, Gaussian, Inc.
                  All Rights Reserved.
  
 This is part of the Gaussian(R) 09 program.  It is based on
 the Gaussian(R) 03 system (copyright 2003, Gaussian, Inc.),
 the Gaussian(R) 98 system (copyright 1998, Gaussian, Inc.),
 the Gaussian(R) 94 system (copyright 1995, Gaussian, Inc.),
 the Gaussian 92(TM) system (copyright 1992, Gaussian, Inc.),
 the Gaussian 90(TM) system (copyright 1990, Gaussian, Inc.),
 the Gaussian 88(TM) system (copyright 1988, Gaussian, Inc.),
 the Gaussian 86(TM) system (copyright 1986, Carnegie Mellon
 University), and the Gaussian 82(TM) system (copyright 1983,
 Carnegie Mellon University). Gaussian is a federally registered
 trademark of Gaussian, Inc.
  
 This software contains proprietary and confidential information,
 including trade secrets, belonging to Gaussian, Inc.
  
 This software is provided under written license and may be
 used, copied, transmitted, or stored only in accord with that
 written license.
  
 The following legend is applicable only to US Government
 contracts under FAR:
  
                    RESTRICTED RIGHTS LEGEND
  
 Use, reproduction and disclosure by the US Government is
 subject to restrictions as set forth in subparagraphs (a)
 and (c) of the Commercial Computer Software - Restricted
 Rights clause in FAR 52.227-19.
  
 Gaussian, Inc.
 340 Quinnipiac St., Bldg. 40, Wallingford CT 06492
  
  
 ---------------------------------------------------------------
 Warning -- This program may not be used in any manner that
 competes with the business of Gaussian, Inc. or will provide
 assistance to any competitor of Gaussian, Inc.  The licensee
 of this program is prohibited from giving any competitor of
 Gaussian, Inc. access to this program.  By using this program,
 the user acknowledges that Gaussian, Inc. is engaged in the
 business of creating and licensing software in the field of
 computational chemistry and represents and warrants to the
 licensee that it is not a competitor of Gaussian, Inc. and that
 it will not use this program in any manner prohibited above.
 ---------------------------------------------------------------
  

 Cite this work as:
 Gaussian 09, Revision A.02,
 M. J. Frisch, G. W. Trucks, H. B. Schlegel, G. E. Scuseria, 
 M. A. Robb, J. R. Cheeseman, G. Scalmani, V. Barone, B. Mennucci, 
 G. A. Petersson, H. Nakatsuji, M. Caricato, X. Li, H. P. Hratchian, 
 A. F. Izmaylov, J. Bloino, G. Zheng, J. L. Sonnenberg, M. Hada, 
 M. Ehara, K. Toyota, R. Fukuda, J. Hasegawa, M. Ishida, T. Nakajima, 
 Y. Honda, O. Kitao, H. Nakai, T. Vreven, J. A. Montgomery, Jr., 
 J. E. Peralta, F. Ogliaro, M. Bearpark, J. J. Heyd, E. Brothers, 
 K. N. Kudin, V. N. Staroverov, R. Kobayashi, J. Normand, 
 K. Raghavachari, A. Rendell, J. C. Burant, S. S. Iyengar, J. Tomasi, 
 M. Cossi, N. Rega, J. M. Millam, M. Klene, J. E. Knox, J. B. Cross, 
 V. Bakken, C. Adamo, J. Jaramillo, R. Gomperts, R. E. Stratmann, 
 O. Yazyev, A. J. Austin, R. Cammi, C. Pomelli, J. W. Ochterski, 
 R. L. Martin, K. Morokuma, V. G. Zakrzewski, G. A. Voth, 
 P. Salvador, J. J. Dannenberg, S. Dapprich, A. D. Daniels, 
 O. Farkas, J. B. Foresman, J. V. Ortiz, J. Cioslowski, 
 and D. J. Fox, Gaussian, Inc., Wallingford CT, 2009.
 
 ******************************************
 Gaussian 09:  EM64L-G09RevA.02 11-Jun-2009
                26-Dec-2016 
 ******************************************
 %chk=structure_90.chk
 -------------------------------------------------------------------
 # HF/6-31G* Opt=(ModRedundant, maxcycles=1000, calcfc) geom=nocrowd
 -------------------------------------------------------------------
 1/6=1000,10=4,18=120,19=15,38=1/1,3;
 2/9=110,12=1,17=6,18=5,40=1/2;
 3/5=1,6=6,7=1,11=9,16=1,25=1,30=1,71=2/1,2,3;
 4//1;
 5/5=2,38=5/2;
 8/6=4,10=90,11=11/1;
 11/6=1,8=1,9=11,15=111,16=1/1,2,10;
 10/6=1,7=6,13=1/2;
 6/7=2,8=2,9=2,10=2,28=1/1;
 7/10=1,18=20,25=1/1,2,3,16;
 1/6=1000,10=4,18=20,19=15/3(2);
 2/9=110,12=1/2;
 99//99;
 2/9=110,12=1/2;
 3/5=1,6=6,7=1,11=9,16=1,25=1,30=1,71=1/1,2,3;
 4/5=5,16=3/1;
 5/5=2,38=5/2;
 7//1,2,3,16;
 1/6=1000,18=20,19=15/3(-5);
 2/9=110,12=1/2;
 6/7=2,8=2,9=2,10=2,19=2,28=1/1;
 99/9=1/99;
 ------------------
 Phi Psi fixed scan
 ------------------
 Symbolic Z-matrix:
 Charge =  0 Multiplicity = 1
 H                     3.923     1.        3.3308 
 C                     3.923     2.09      3.3308 
 H                     4.4368    2.4538    4.2206 
 H                     2.8956    2.4538    3.3308 
 C                     4.6367    2.6408    2.0946 
 O                     5.1183    1.8774    1.2605 
 N                     4.7007    3.9696    1.9838 
 H                     4.2896    4.5561    2.6959 
 C                     5.3497    4.6139    0.8598 
 H                     6.3974    4.3155    0.8246 
 C                     4.6866    4.2208   -0.4561 
 H                     3.639     4.5214   -0.4396 
 H                     5.194     4.7189   -1.2822 
 H                     4.7522    3.1409   -0.5882 
 C                     5.2794    6.1294    0.9815 
 O                     4.7233    6.6527    1.9446 
 N                     5.846     6.8349    0. 
 H                     6.2915    6.3592   -0.7716 
 C                     5.8461    8.2839    0. 
 H                     5.3323    8.6477   -0.8898 
 C                     5.1347    8.8329    1.2322 
 H                     5.6431    8.4846    2.1312 
 H                     5.1499    9.9224    1.2058 
 H                     4.1019    8.4846    1.2414 
 C                     7.266     8.8318    0. 
 O                     7.848     9.0564    1.0589 
 N                     7.8237    9.047    -1.1937 
 H                     7.305     8.8468   -2.0369 
 C                     9.1698    9.5664   -1.3276 
 H                     9.2317    10.5441  -0.8496 
 C                     10.1846   8.6373   -0.6699 
 H                     10.1409   7.6568   -1.144 
 H                     11.186    9.052    -0.7857 
 H                     9.9534    8.5382    0.3906 
 C                     9.5564    9.7156   -2.792 
 O                     8.7642    9.4099   -3.6806 
 N                     10.7798   10.1877  -3.0422 
 H                     11.3955   10.4253  -2.2776 
 C                     11.2665   10.3755  -4.3941 
 H                     10.4943   10.0775  -5.1034 
 H                     11.5155   11.4253  -4.5486 
 H                     12.1562   9.765    -4.5486 
 
 The following ModRedundant input section has been read:
 D   15   17   19   25 F                                                       
 D   17   19   25   27 F                                                       

 GradGradGradGradGradGradGradGradGradGradGradGradGradGradGradGradGradGrad
 Berny optimization.
 Initialization pass.
                           ----------------------------
                           !    Initial Parameters    !
                           ! (Angstroms and Degrees)  !
 --------------------------                            --------------------------
 ! Name  Definition              Value          Derivative Info.                !
 --------------------------------------------------------------------------------
 ! R1    R(1,2)                  1.09           calculate D2E/DX2 analytically  !
 ! R2    R(2,3)                  1.09           calculate D2E/DX2 analytically  !
 ! R3    R(2,4)                  1.0899         calculate D2E/DX2 analytically  !
 ! R4    R(2,5)                  1.53           calculate D2E/DX2 analytically  !
 ! R5    R(5,6)                  1.229          calculate D2E/DX2 analytically  !
 ! R6    R(5,7)                  1.3349         calculate D2E/DX2 analytically  !
 ! R7    R(7,8)                  1.01           calculate D2E/DX2 analytically  !
 ! R8    R(7,9)                  1.449          calculate D2E/DX2 analytically  !
 ! R9    R(9,10)                 1.0899         calculate D2E/DX2 analytically  !
 ! R10   R(9,11)                 1.5251         calculate D2E/DX2 analytically  !
 ! R11   R(9,15)                 1.522          calculate D2E/DX2 analytically  !
 ! R12   R(11,12)                1.09           calculate D2E/DX2 analytically  !
 ! R13   R(11,13)                1.09           calculate D2E/DX2 analytically  !
 ! R14   R(11,14)                1.0899         calculate D2E/DX2 analytically  !
 ! R15   R(15,16)                1.2291         calculate D2E/DX2 analytically  !
 ! R16   R(15,17)                1.335          calculate D2E/DX2 analytically  !
 ! R17   R(17,18)                1.01           calculate D2E/DX2 analytically  !
 ! R18   R(17,19)                1.449          calculate D2E/DX2 analytically  !
 ! R19   R(19,20)                1.09           calculate D2E/DX2 analytically  !
 ! R20   R(19,21)                1.5251         calculate D2E/DX2 analytically  !
 ! R21   R(19,25)                1.5219         calculate D2E/DX2 analytically  !
 ! R22   R(21,22)                1.0899         calculate D2E/DX2 analytically  !
 ! R23   R(21,23)                1.0899         calculate D2E/DX2 analytically  !
 ! R24   R(21,24)                1.09           calculate D2E/DX2 analytically  !
 ! R25   R(25,26)                1.229          calculate D2E/DX2 analytically  !
 ! R26   R(25,27)                1.335          calculate D2E/DX2 analytically  !
 ! R27   R(27,28)                1.01           calculate D2E/DX2 analytically  !
 ! R28   R(27,29)                1.449          calculate D2E/DX2 analytically  !
 ! R29   R(29,30)                1.0901         calculate D2E/DX2 analytically  !
 ! R30   R(29,31)                1.525          calculate D2E/DX2 analytically  !
 ! R31   R(29,35)                1.5219         calculate D2E/DX2 analytically  !
 ! R32   R(31,32)                1.09           calculate D2E/DX2 analytically  !
 ! R33   R(31,33)                1.09           calculate D2E/DX2 analytically  !
 ! R34   R(31,34)                1.0899         calculate D2E/DX2 analytically  !
 ! R35   R(35,36)                1.2291         calculate D2E/DX2 analytically  !
 ! R36   R(35,37)                1.335          calculate D2E/DX2 analytically  !
 ! R37   R(37,38)                1.01           calculate D2E/DX2 analytically  !
 ! R38   R(37,39)                1.4491         calculate D2E/DX2 analytically  !
 ! R39   R(39,40)                1.09           calculate D2E/DX2 analytically  !
 ! R40   R(39,41)                1.0899         calculate D2E/DX2 analytically  !
 ! R41   R(39,42)                1.09           calculate D2E/DX2 analytically  !
 ! A1    A(1,2,3)              109.4974         calculate D2E/DX2 analytically  !
 ! A2    A(1,2,4)              109.4989         calculate D2E/DX2 analytically  !
 ! A3    A(1,2,5)              111.1            calculate D2E/DX2 analytically  !
 ! A4    A(3,2,4)              109.4472         calculate D2E/DX2 analytically  !
 ! A5    A(3,2,5)              108.6348         calculate D2E/DX2 analytically  !
 ! A6    A(4,2,5)              108.6357         calculate D2E/DX2 analytically  !
 ! A7    A(2,5,6)              120.4994         calculate D2E/DX2 analytically  !
 ! A8    A(2,5,7)              116.6003         calculate D2E/DX2 analytically  !
 ! A9    A(6,5,7)              122.9003         calculate D2E/DX2 analytically  !
 ! A10   A(5,7,8)              119.9996         calculate D2E/DX2 analytically  !
 ! A11   A(5,7,9)              121.9007         calculate D2E/DX2 analytically  !
 ! A12   A(8,7,9)              118.0998         calculate D2E/DX2 analytically  !
 ! A13   A(7,9,10)             109.5025         calculate D2E/DX2 analytically  !
 ! A14   A(7,9,11)             111.0972         calculate D2E/DX2 analytically  !
 ! A15   A(7,9,15)             111.102          calculate D2E/DX2 analytically  !
 ! A16   A(10,9,11)            108.6338         calculate D2E/DX2 analytically  !
 ! A17   A(10,9,15)            108.6381         calculate D2E/DX2 analytically  !
 ! A18   A(11,9,15)            107.7924         calculate D2E/DX2 analytically  !
 ! A19   A(9,11,12)            109.496          calculate D2E/DX2 analytically  !
 ! A20   A(9,11,13)            109.4976         calculate D2E/DX2 analytically  !
 ! A21   A(9,11,14)            109.4994         calculate D2E/DX2 analytically  !
 ! A22   A(12,11,13)           109.4425         calculate D2E/DX2 analytically  !
 ! A23   A(12,11,14)           109.4464         calculate D2E/DX2 analytically  !
 ! A24   A(13,11,14)           109.4454         calculate D2E/DX2 analytically  !
 ! A25   A(9,15,16)            120.4974         calculate D2E/DX2 analytically  !
 ! A26   A(9,15,17)            116.6046         calculate D2E/DX2 analytically  !
 ! A27   A(16,15,17)           122.8981         calculate D2E/DX2 analytically  !
 ! A28   A(15,17,18)           119.9989         calculate D2E/DX2 analytically  !
 ! A29   A(15,17,19)           121.9049         calculate D2E/DX2 analytically  !
 ! A30   A(18,17,19)           118.0962         calculate D2E/DX2 analytically  !
 ! A31   A(17,19,20)           109.4954         calculate D2E/DX2 analytically  !
 ! A32   A(17,19,21)           111.0974         calculate D2E/DX2 analytically  !
 ! A33   A(17,19,25)           111.1042         calculate D2E/DX2 analytically  !
 ! A34   A(20,19,21)           108.6349         calculate D2E/DX2 analytically  !
 ! A35   A(20,19,25)           108.6399         calculate D2E/DX2 analytically  !
 ! A36   A(21,19,25)           107.7944         calculate D2E/DX2 analytically  !
 ! A37   A(19,21,22)           109.4996         calculate D2E/DX2 analytically  !
 ! A38   A(19,21,23)           109.4977         calculate D2E/DX2 analytically  !
 ! A39   A(19,21,24)           109.4988         calculate D2E/DX2 analytically  !
 ! A40   A(22,21,23)           109.4452         calculate D2E/DX2 analytically  !
 ! A41   A(22,21,24)           109.4447         calculate D2E/DX2 analytically  !
 ! A42   A(23,21,24)           109.4412         calculate D2E/DX2 analytically  !
 ! A43   A(19,25,26)           120.5038         calculate D2E/DX2 analytically  !
 ! A44   A(19,25,27)           116.6007         calculate D2E/DX2 analytically  !
 ! A45   A(26,25,27)           122.8955         calculate D2E/DX2 analytically  !
 ! A46   A(25,27,28)           119.999          calculate D2E/DX2 analytically  !
 ! A47   A(25,27,29)           121.9028         calculate D2E/DX2 analytically  !
 ! A48   A(28,27,29)           118.0982         calculate D2E/DX2 analytically  !
 ! A49   A(27,29,30)           109.4955         calculate D2E/DX2 analytically  !
 ! A50   A(27,29,31)           111.0965         calculate D2E/DX2 analytically  !
 ! A51   A(27,29,35)           111.1024         calculate D2E/DX2 analytically  !
 ! A52   A(30,29,31)           108.6353         calculate D2E/DX2 analytically  !
 ! A53   A(30,29,35)           108.638          calculate D2E/DX2 analytically  !
 ! A54   A(31,29,35)           107.7987         calculate D2E/DX2 analytically  !
 ! A55   A(29,31,32)           109.4985         calculate D2E/DX2 analytically  !
 ! A56   A(29,31,33)           109.4953         calculate D2E/DX2 analytically  !
 ! A57   A(29,31,34)           109.5041         calculate D2E/DX2 analytically  !
 ! A58   A(32,31,33)           109.4422         calculate D2E/DX2 analytically  !
 ! A59   A(32,31,34)           109.4463         calculate D2E/DX2 analytically  !
 ! A60   A(33,31,34)           109.4408         calculate D2E/DX2 analytically  !
 ! A61   A(29,35,36)           120.5006         calculate D2E/DX2 analytically  !
 ! A62   A(29,35,37)           116.6024         calculate D2E/DX2 analytically  !
 ! A63   A(36,35,37)           122.8969         calculate D2E/DX2 analytically  !
 ! A64   A(35,37,38)           119.9966         calculate D2E/DX2 analytically  !
 ! A65   A(35,37,39)           121.9029         calculate D2E/DX2 analytically  !
 ! A66   A(38,37,39)           118.1005         calculate D2E/DX2 analytically  !
 ! A67   A(37,39,40)           109.494          calculate D2E/DX2 analytically  !
 ! A68   A(37,39,41)           109.5001         calculate D2E/DX2 analytically  !
 ! A69   A(37,39,42)           109.4993         calculate D2E/DX2 analytically  !
 ! A70   A(40,39,41)           109.4459         calculate D2E/DX2 analytically  !
 ! A71   A(40,39,42)           109.4432         calculate D2E/DX2 analytically  !
 ! A72   A(41,39,42)           109.4447         calculate D2E/DX2 analytically  !
 ! D1    D(1,2,5,6)             -0.0022         calculate D2E/DX2 analytically  !
 ! D2    D(1,2,5,7)           -179.9987         calculate D2E/DX2 analytically  !
 ! D3    D(3,2,5,6)            120.5061         calculate D2E/DX2 analytically  !
 ! D4    D(3,2,5,7)            -59.4904         calculate D2E/DX2 analytically  !
 ! D5    D(4,2,5,6)           -120.5129         calculate D2E/DX2 analytically  !
 ! D6    D(4,2,5,7)             59.4905         calculate D2E/DX2 analytically  !
 ! D7    D(2,5,7,8)             -0.0002         calculate D2E/DX2 analytically  !
 ! D8    D(2,5,7,9)            179.997          calculate D2E/DX2 analytically  !
 ! D9    D(6,5,7,8)           -179.9966         calculate D2E/DX2 analytically  !
 ! D10   D(6,5,7,9)              0.0006         calculate D2E/DX2 analytically  !
 ! D11   D(5,7,9,10)           -59.9963         calculate D2E/DX2 analytically  !
 ! D12   D(5,7,9,11)            60.0011         calculate D2E/DX2 analytically  !
 ! D13   D(5,7,9,15)           179.9979         calculate D2E/DX2 analytically  !
 ! D14   D(8,7,9,10)           120.001          calculate D2E/DX2 analytically  !
 ! D15   D(8,7,9,11)          -120.0017         calculate D2E/DX2 analytically  !
 ! D16   D(8,7,9,15)            -0.0048         calculate D2E/DX2 analytically  !
 ! D17   D(7,9,11,12)           60.002          calculate D2E/DX2 analytically  !
 ! D18   D(7,9,11,13)          179.9982         calculate D2E/DX2 analytically  !
 ! D19   D(7,9,11,14)          -60.0            calculate D2E/DX2 analytically  !
 ! D20   D(10,9,11,12)        -179.4858         calculate D2E/DX2 analytically  !
 ! D21   D(10,9,11,13)         -59.4897         calculate D2E/DX2 analytically  !
 ! D22   D(10,9,11,14)          60.5122         calculate D2E/DX2 analytically  !
 ! D23   D(15,9,11,12)         -61.9422         calculate D2E/DX2 analytically  !
 ! D24   D(15,9,11,13)          58.0539         calculate D2E/DX2 analytically  !
 ! D25   D(15,9,11,14)         178.0557         calculate D2E/DX2 analytically  !
 ! D26   D(7,9,15,16)            0.0008         calculate D2E/DX2 analytically  !
 ! D27   D(7,9,15,17)         -179.9951         calculate D2E/DX2 analytically  !
 ! D28   D(10,9,15,16)        -120.5172         calculate D2E/DX2 analytically  !
 ! D29   D(10,9,15,17)          59.4869         calculate D2E/DX2 analytically  !
 ! D30   D(11,9,15,16)         121.9421         calculate D2E/DX2 analytically  !
 ! D31   D(11,9,15,17)         -58.0538         calculate D2E/DX2 analytically  !
 ! D32   D(9,15,17,18)          -0.0024         calculate D2E/DX2 analytically  !
 ! D33   D(9,15,17,19)        -179.9943         calculate D2E/DX2 analytically  !
 ! D34   D(16,15,17,18)       -179.9982         calculate D2E/DX2 analytically  !
 ! D35   D(16,15,17,19)          0.0099         calculate D2E/DX2 analytically  !
 ! D36   D(15,17,19,20)       -120.0004         calculate D2E/DX2 analytically  !
 ! D37   D(15,17,19,21)         -0.0061         calculate D2E/DX2 analytically  !
 ! D38   D(15,17,19,25)        119.9948         frozen, calculate D2E/DX2 analyt!
 ! D39   D(18,17,19,20)         60.0075         calculate D2E/DX2 analytically  !
 ! D40   D(18,17,19,21)       -179.9982         calculate D2E/DX2 analytically  !
 ! D41   D(18,17,19,25)        -59.9973         calculate D2E/DX2 analytically  !
 ! D42   D(17,19,21,22)         60.0039         calculate D2E/DX2 analytically  !
 ! D43   D(17,19,21,23)       -179.9943         calculate D2E/DX2 analytically  !
 ! D44   D(17,19,21,24)        -59.998          calculate D2E/DX2 analytically  !
 ! D45   D(20,19,21,22)       -179.4919         calculate D2E/DX2 analytically  !
 ! D46   D(20,19,21,23)        -59.4901         calculate D2E/DX2 analytically  !
 ! D47   D(20,19,21,24)         60.5062         calculate D2E/DX2 analytically  !
 ! D48   D(25,19,21,22)        -61.9445         calculate D2E/DX2 analytically  !
 ! D49   D(25,19,21,23)         58.0573         calculate D2E/DX2 analytically  !
 ! D50   D(25,19,21,24)        178.0536         calculate D2E/DX2 analytically  !
 ! D51   D(17,19,25,26)        -90.0011         calculate D2E/DX2 analytically  !
 ! D52   D(17,19,25,27)         90.0            frozen, calculate D2E/DX2 analyt!
 ! D53   D(20,19,25,26)        149.4872         calculate D2E/DX2 analytically  !
 ! D54   D(20,19,25,27)        -30.5117         calculate D2E/DX2 analytically  !
 ! D55   D(21,19,25,26)         31.943          calculate D2E/DX2 analytically  !
 ! D56   D(21,19,25,27)       -148.0559         calculate D2E/DX2 analytically  !
 ! D57   D(19,25,27,28)         -0.0029         calculate D2E/DX2 analytically  !
 ! D58   D(19,25,27,29)       -179.999          calculate D2E/DX2 analytically  !
 ! D59   D(26,25,27,28)        179.9982         calculate D2E/DX2 analytically  !
 ! D60   D(26,25,27,29)          0.0021         calculate D2E/DX2 analytically  !
 ! D61   D(25,27,29,30)        -59.9981         calculate D2E/DX2 analytically  !
 ! D62   D(25,27,29,31)         59.9962         calculate D2E/DX2 analytically  !
 ! D63   D(25,27,29,35)       -179.9993         calculate D2E/DX2 analytically  !
 ! D64   D(28,27,29,30)        120.0057         calculate D2E/DX2 analytically  !
 ! D65   D(28,27,29,31)       -120.0            calculate D2E/DX2 analytically  !
 ! D66   D(28,27,29,35)          0.0045         calculate D2E/DX2 analytically  !
 ! D67   D(27,29,31,32)         60.0075         calculate D2E/DX2 analytically  !
 ! D68   D(27,29,31,33)       -179.9966         calculate D2E/DX2 analytically  !
 ! D69   D(27,29,31,34)        -59.9989         calculate D2E/DX2 analytically  !
 ! D70   D(30,29,31,32)       -179.4885         calculate D2E/DX2 analytically  !
 ! D71   D(30,29,31,33)        -59.4926         calculate D2E/DX2 analytically  !
 ! D72   D(30,29,31,34)         60.5051         calculate D2E/DX2 analytically  !
 ! D73   D(35,29,31,32)        -61.9409         calculate D2E/DX2 analytically  !
 ! D74   D(35,29,31,33)         58.055          calculate D2E/DX2 analytically  !
 ! D75   D(35,29,31,34)        178.0527         calculate D2E/DX2 analytically  !
 ! D76   D(27,29,35,36)         -0.0022         calculate D2E/DX2 analytically  !
 ! D77   D(27,29,35,37)        179.9981         calculate D2E/DX2 analytically  !
 ! D78   D(30,29,35,36)       -120.5116         calculate D2E/DX2 analytically  !
 ! D79   D(30,29,35,37)         59.4887         calculate D2E/DX2 analytically  !
 ! D80   D(31,29,35,36)        121.9425         calculate D2E/DX2 analytically  !
 ! D81   D(31,29,35,37)        -58.0572         calculate D2E/DX2 analytically  !
 ! D82   D(29,35,37,38)         -0.001          calculate D2E/DX2 analytically  !
 ! D83   D(29,35,37,39)        179.9989         calculate D2E/DX2 analytically  !
 ! D84   D(36,35,37,38)        179.9994         calculate D2E/DX2 analytically  !
 ! D85   D(36,35,37,39)         -0.0008         calculate D2E/DX2 analytically  !
 ! D86   D(35,37,39,40)         -0.0003         calculate D2E/DX2 analytically  !
 ! D87   D(35,37,39,41)        120.0004         calculate D2E/DX2 analytically  !
 ! D88   D(35,37,39,42)       -119.9972         calculate D2E/DX2 analytically  !
 ! D89   D(38,37,39,40)        179.9995         calculate D2E/DX2 analytically  !
 ! D90   D(38,37,39,41)        -59.9998         calculate D2E/DX2 analytically  !
 ! D91   D(38,37,39,42)         60.0026         calculate D2E/DX2 analytically  !
 --------------------------------------------------------------------------------
 Trust Radius=3.00D-01 FncErr=1.00D-07 GrdErr=1.00D-07
 Number of steps in this run= 252 maximum allowed number of steps= 252.
 GradGradGradGradGradGradGradGradGradGradGradGradGradGradGradGradGradGrad

                          Input orientation:                          
 ---------------------------------------------------------------------
 Center     Atomic      Atomic             Coordinates (Angstroms)
 Number     Number       Type             X           Y           Z
 ---------------------------------------------------------------------
      1          1           0        3.923000    1.000000    3.330800
      2          6           0        3.923000    2.090000    3.330800
      3          1           0        4.436800    2.453800    4.220600
      4          1           0        2.895600    2.453800    3.330800
      5          6           0        4.636700    2.640800    2.094600
      6          8           0        5.118300    1.877400    1.260500
      7          7           0        4.700700    3.969600    1.983800
      8          1           0        4.289600    4.556100    2.695900
      9          6           0        5.349700    4.613900    0.859800
     10          1           0        6.397400    4.315500    0.824600
     11          6           0        4.686600    4.220800   -0.456100
     12          1           0        3.639000    4.521400   -0.439600
     13          1           0        5.194000    4.718900   -1.282200
     14          1           0        4.752200    3.140900   -0.588200
     15          6           0        5.279400    6.129400    0.981500
     16          8           0        4.723300    6.652700    1.944600
     17          7           0        5.846000    6.834900    0.000000
     18          1           0        6.291500    6.359200   -0.771600
     19          6           0        5.846100    8.283900    0.000000
     20          1           0        5.332300    8.647700   -0.889800
     21          6           0        5.134700    8.832900    1.232200
     22          1           0        5.643100    8.484600    2.131200
     23          1           0        5.149900    9.922400    1.205800
     24          1           0        4.101900    8.484600    1.241400
     25          6           0        7.266000    8.831800    0.000000
     26          8           0        7.848000    9.056400    1.058900
     27          7           0        7.823700    9.047000   -1.193700
     28          1           0        7.305000    8.846800   -2.036900
     29          6           0        9.169800    9.566400   -1.327600
     30          1           0        9.231700   10.544100   -0.849600
     31          6           0       10.184600    8.637300   -0.669900
     32          1           0       10.140900    7.656800   -1.144000
     33          1           0       11.186000    9.052000   -0.785700
     34          1           0        9.953400    8.538200    0.390600
     35          6           0        9.556400    9.715600   -2.792000
     36          8           0        8.764200    9.409900   -3.680600
     37          7           0       10.779800   10.187700   -3.042200
     38          1           0       11.395500   10.425300   -2.277600
     39          6           0       11.266500   10.375500   -4.394100
     40          1           0       10.494300   10.077500   -5.103400
     41          1           0       11.515500   11.425300   -4.548600
     42          1           0       12.156200    9.765000   -4.548600
 ---------------------------------------------------------------------
                    Distance matrix (angstroms):
                    1          2          3          4          5
     1  H    0.000000
     2  C    1.090000   0.000000
     3  H    1.780244   1.089993   0.000000
     4  H    1.780192   1.089909   1.779618   0.000000
     5  C    2.174806   1.530013   2.143550   2.143499   0.000000
     6  O    2.546510   2.400017   3.091742   3.091727   1.229000
     7  N    3.352275   2.439697   2.714879   2.714856   1.334946
     8  H    3.630887   2.572769   2.601162   2.601153   2.037257
     9  C    4.604518   3.809381   4.098097   4.098107   2.434384
    10  H    4.836965   4.166119   4.340817   4.691436   2.741821
    11  C    5.029637   4.411803   5.005618   4.546491   3.000827
    12  H    5.166898   4.495362   5.160322   4.363889   3.309718
    13  H    6.060151   5.459517   5.998736   5.629662   4.003981
    14  H    4.541980   4.141319   4.867868   4.390630   2.731457
    15  C    5.802566   4.865777   4.971094   4.971091   3.717847
    16  O    5.874951   4.835314   4.784665   4.784642   4.015637
    17  N    6.988434   6.107883   6.244465   6.244448   4.841511
    18  H    7.152657   6.376954   6.604099   6.604088   4.977948
    19  C    8.236974   7.290881   7.334143   7.334149   6.139591
    20  H    8.847989   7.924836   8.079759   7.881330   6.743393
    21  C    8.199187   7.165127   7.078878   7.078885   6.271670
    22  H    7.772839   6.729687   6.495483   6.734860   5.929939
    23  H    9.253655   8.207765   8.085636   8.085634   7.353573
    24  H    7.772827   6.729674   6.734860   6.495483   5.929921
    25  C    9.143685   8.229322   8.154552   8.418641   7.044789
    26  O    9.245147   8.312514   8.076321   8.560498   7.248796
    27  N   10.022014   9.169864   9.179108   9.392952   7.874597
    28  H   10.090708   9.268467   9.394324   9.440628   7.918558
    29  C   11.073067  10.253105  10.186898  10.566710   8.956807
    30  H   11.693925  10.822654  10.684145  11.093911   9.604399
    31  C   10.655589   9.903554   9.756529  10.361988   8.624365
    32  H   10.148847   9.469708   9.401431   9.979450   8.120653
    33  H   11.598769  10.870427  10.684146  11.367170   9.606922
    34  H   10.091331   9.305363   9.062102   9.771246   8.120975
    35  C   12.049297  11.285994  11.319037  11.601236   9.906316
    36  O   11.971774  11.232893  11.381682  11.488582   9.808665
    37  N   13.116580  12.377543  12.361032  12.751037  11.003640
    38  H   13.271348  12.520768  12.417525  12.932411  11.198033
    39  C   14.195107  13.500022  13.550321  13.874414  12.078206
    40  H   14.025645  13.346081  13.481509  13.674676  11.892316
    41  H   15.113500  14.383283  14.404675  14.726691  12.985278
    42  H   14.376917  13.739583  13.781932  14.187928  12.305658
                    6          7          8          9         10
     6  O    0.000000
     7  N    2.252744   0.000000
     8  H    3.150008   1.009986   0.000000
     9  C    2.775345   1.449034   2.120947   0.000000
    10  H    2.787550   2.083790   2.828864   1.089934   0.000000
    11  C    2.936768   2.452838   3.194548   1.525065   2.139158
    12  H    3.474105   2.702695   3.202475   2.150230   3.041277
    13  H    3.813814   3.386968   4.082857   2.150217   2.459575
    14  H    2.268954   2.702699   3.605843   2.150218   2.466247
    15  C    4.264188   2.450354   2.528665   1.522003   2.136533
    16  O    4.840197   2.683482   2.268982   2.392880   3.085371
    17  N    5.166741   3.668395   3.857873   2.432778   2.707653
    18  H    5.058889   3.979078   4.391165   2.567981   2.595338
    19  C    6.569764   4.884730   4.856651   3.801916   4.090488
    20  H    7.106796   5.526402   5.539464   4.396925   4.779285
    21  C    6.955577   4.940136   4.598655   4.240857   4.708232
    22  H    6.684955   4.614658   4.193323   4.084711   4.433685
    23  H    8.045248   6.020207   5.635396   5.323515   5.756639
    24  H    6.684948   4.614645   4.193318   4.084721   4.777493
    25  C    7.386823   5.844417   5.865871   4.711915   4.672408
    26  O    7.683095   6.052807   5.966128   5.100681   4.963393
    27  N    8.046456   6.754970   6.912817   5.476305   5.338067
    28  H    8.014177   6.836336   7.064145   5.489218   5.435494
    29  C    9.068276   7.890652   8.068953   6.626095   6.315862
    30  H    9.822641   8.472436   8.535284   7.291039   7.044974
    31  C    8.665454   7.674810   7.920595   6.473329   5.937539
    32  H    8.025559   7.278348   7.654860   6.019140   5.390127
    33  H    9.616590   8.692528   8.938400   7.514439   6.925185
    34  H    8.276544   7.141516   7.297271   6.067482   5.537571
    35  C    9.877088   8.910814   9.191119   7.553761   7.226352
    36  O    9.718313   8.842755   9.178299   7.434760   7.200797
    37  N   10.937408  10.043948  10.332638   8.705104   8.284944
    38  H   11.179803  10.230149  10.472680   8.953622   8.481409
    39  C   11.916063  11.172417  11.524350   9.788157   9.363042
    40  H   11.689407  11.004574  11.393561   9.585280   9.226398
    41  H   12.877585  12.029182  12.324055  10.661287  10.276939
    42  H   12.062003  11.482308  11.895327  10.105101   9.577688
                   11         12         13         14         15
    11  C    0.000000
    12  H    1.089999   0.000000
    13  H    1.089954   1.779608   0.000000
    14  H    1.089926   1.779628   1.779581   0.000000
    15  C    2.461881   2.701130   2.668547   3.416582   0.000000
    16  O    3.417433   3.376767   3.791224   4.329971   1.229086
    17  N    2.895817   3.227442   2.558632   3.897180   1.334956
    18  H    2.692211   3.243993   2.038579   3.572189   2.037281
    19  C    4.249853   4.384170   3.844281   5.290845   2.434412
    20  H    4.494716   4.482889   3.950769   5.545478   3.137897
    21  C    4.931797   4.860151   4.821900   5.988241   2.718952
    22  H    5.078288   5.131509   5.102302   6.061680   2.645951
    23  H    5.956912   5.844738   5.767885   7.026048   3.801832
    24  H    4.626378   4.329780   4.662803   5.685548   2.645944
    25  C    5.303080   5.650480   4.780499   6.249121   3.494694
    26  O    5.972663   6.366114   5.598069   6.876777   3.895000
    27  N    5.803245   6.209786   5.065136   6.684516   4.440422
    28  H    5.545703   5.890671   4.697388   6.416605   4.538508
    29  C    7.030934   7.538589   6.269554   7.832557   5.681560
    30  H    7.797237   8.229174   7.100924   8.656883   6.201869
    31  C    7.055437   7.735538   6.374548   7.728393   5.751319
    32  H    6.482954   7.252697   5.755187   7.052684   5.521312
    33  H    8.105019   8.809275   7.411230   8.739216   6.822940
    34  H    6.862654   7.529646   6.327496   7.559192   5.291291
    35  C    7.704817   8.217610   6.802723   8.435861   6.737422
    36  O    7.345133   7.789043   6.364286   8.059742   6.681369
    37  N    8.911728   9.480058   8.012898   9.592261   7.931857
    38  H    9.317887   9.919555   8.486013  10.002499   8.153721
    39  C    9.832765  10.396505   8.863199  10.452771   9.097901
    40  H    9.467191   9.980802   8.450405  10.073488   8.933571
    41  H   10.737190  11.251087   9.777859  11.404310   9.875095
    42  H   10.162757  10.813044   9.198083  10.694984   9.544107
                   16         17         18         19         20
    16  O    0.000000
    17  N    2.252803   0.000000
    18  H    3.150101   1.010014   0.000000
    19  C    2.775421   1.449000   2.120900   0.000000
    20  H    3.519194   2.083717   2.484204   1.089993   0.000000
    21  C    2.330244   2.452808   3.387122   1.525060   2.139212
    22  H    2.058327   2.702719   3.655680   2.150233   3.041322
    23  H    3.379164   3.386911   4.231992   2.150193   2.459608
    24  H    2.058273   2.702678   3.655659   2.150253   2.466272
    25  C    3.872373   2.450308   2.767448   1.521943   2.136547
    26  O    4.040543   3.172434   3.612245   2.392829   3.208304
    27  N    5.019370   3.198375   3.122511   2.432723   2.541431
    28  H    5.227963   3.213314   2.969229   2.567919   2.290638
    29  C    6.242460   4.502362   4.345098   3.801882   3.970149
    30  H    6.578466   5.093422   5.115100   4.158439   4.336274
    31  C    6.371816   4.745615   4.511797   4.404116   4.857291
    32  H    6.316491   4.520002   4.079256   4.488574   4.916211
    33  H    7.414693   5.835106   5.586367   5.451773   5.868569
    34  H    5.772692   4.463691   4.416816   4.133661   4.796455
    35  C    7.428027   5.464500   5.099707   4.859152   4.754135
    36  O    7.454790   5.356616   4.887054   4.830114   4.488591
    37  N    8.604975   6.696165   6.321224   6.100888   6.056375
    38  H    8.750871   6.991093   6.697165   6.369372   6.469022
    39  C    9.841332   7.824691   7.348728   7.284479   7.104938
    40  H    9.731804   7.626653   7.088990   7.132142   6.815057
    41  H   10.539134   8.596788   8.198858   7.918349   7.702846
    42  H   10.348723   8.312272   7.762726   7.918382   7.823093
                   21         22         23         24         25
    21  C    0.000000
    22  H    1.089947   0.000000
    23  H    1.089926   1.779573   0.000000
    24  H    1.089988   1.779618   1.779562   0.000000
    25  C    2.461861   2.701179   2.668565   3.416599   0.000000
    26  O    2.728000   2.517611   2.837478   3.793880   1.228999
    27  N    3.627885   4.015753   3.697720   4.483057   1.335013
    28  H    3.923953   4.501795   4.039366   4.597640   2.037329
    29  C    4.834525   5.056798   4.764918   5.783914   2.434464
    30  H    4.903826   5.099486   4.612187   5.910048   2.741855
    31  C    5.399790   5.338043   5.524304   6.377744   3.000804
    32  H    5.664943   5.625157   5.963605   6.545602   3.309745
    33  H    6.382645   6.289196   6.415463   7.390233   4.004025
    34  H    4.900511   4.648790   5.064995   5.913272   2.731463
    35  C    6.043573   6.408368   5.953353   6.894581   3.717835
    36  O    6.135292   6.661416   6.099404   6.842463   4.015672
    37  N    7.209239   7.486675   7.057738   8.114439   4.841512
    38  H    7.352010   7.502929   7.168996   8.327441   4.977899
    39  C    8.463678   8.819165   8.305238   9.309450   6.139636
    40  H    8.391315   8.854993   8.269986   9.146398   6.165905
    41  H    8.991818   9.367632   8.711641   9.855622   6.743460
    42  H    9.142643   9.416986   9.067863  10.001763   6.743492
                   26         27         28         29         30
    26  O    0.000000
    27  N    2.252751   0.000000
    28  H    3.150041   1.010008   0.000000
    29  C    2.775363   1.449031   2.120945   0.000000
    30  H    2.787517   2.083789   2.828901   1.090052   0.000000
    31  C    2.936681   2.452768   3.194476   1.524997   2.139205
    32  H    3.474052   2.702692   3.202452   2.150190   3.041351
    33  H    3.813766   3.386968   4.082863   2.150192   2.459621
    34  H    2.268891   2.702685   3.605830   2.150218   2.466289
    35  C    4.264107   2.450273   2.528595   1.521903   2.136530
    36  O    4.840170   2.683451   2.268942   2.392825   3.085373
    37  N    5.166654   3.668334   3.857833   2.432687   2.707606
    38  H    5.058743   3.978983   4.391103   2.567869   2.595251
    39  C    6.569732   4.884705   4.856624   3.801870   4.090516
    40  H    6.783767   4.845595   4.592350   4.033880   4.461691
    41  H    7.106778   5.526396   5.539459   4.396892   4.435635
    42  H    7.106811   5.526431   5.539483   4.396916   4.779362
                   31         32         33         34         35
    31  C    0.000000
    32  H    1.089982   0.000000
    33  H    1.090040   1.779662   0.000000
    34  H    1.089924   1.779612   1.779600   0.000000
    35  C    2.461844   2.701148   2.668558   3.416551   0.000000
    36  O    3.417420   3.376833   3.791260   4.329980   1.229082
    37  N    2.895826   3.227509   2.558633   3.897166   1.334985
    38  H    2.692197   3.244019   2.038531   3.572127   2.037295
    39  C    4.249884   4.384228   3.844305   5.290865   2.434468
    40  H    4.671832   4.654195   4.491395   5.731148   2.520555
    41  H    4.958685   5.261408   4.461002   5.930531   3.137960
    42  H    4.494800   4.482995   3.950832   5.545544   3.138000
                   36         37         38         39         40
    36  O    0.000000
    37  N    2.252814   0.000000
    38  H    3.150109   1.010026   0.000000
    39  C    2.775423   1.449062   2.121012   0.000000
    40  H    2.337369   2.083795   2.986348   1.090047   0.000000
    41  H    3.519220   2.083782   2.484319   1.089932   1.779668
    42  H    3.519259   2.083841   2.484371   1.090021   1.779711
                   41         42
    41  H    0.000000
    42  H    1.779633   0.000000
 Stoichiometry    C12H22N4O4
 Framework group  C1[X(C12H22N4O4)]
 Deg. of freedom   120
 Full point group                 C1      NOp   1
 Largest Abelian subgroup         C1      NOp   1
 Largest concise Abelian subgroup C1      NOp   1
                         Standard orientation:                         
 ---------------------------------------------------------------------
 Center     Atomic      Atomic             Coordinates (Angstroms)
 Number     Number       Type             X           Y           Z
 ---------------------------------------------------------------------
      1          1           0       -7.419610   -1.285289    0.983297
      2          6           0       -6.688251   -0.490311    0.837612
      3          1           0       -6.578289    0.076732    1.761980
      4          1           0       -7.026491    0.173955    0.042473
      5          6           0       -5.323191   -1.062054    0.449463
      6          8           0       -5.163699   -2.275672    0.339306
      7          7           0       -4.342362   -0.180173    0.243693
      8          1           0       -4.522267    0.808329    0.346500
      9          6           0       -3.004875   -0.595400   -0.128350
     10          1           0       -2.594421   -1.239677    0.649076
     11          6           0       -3.015426   -1.365857   -1.444445
     12          1           0       -3.415409   -0.730548   -2.234694
     13          1           0       -1.998705   -1.664927   -1.699071
     14          1           0       -3.639676   -2.253352   -1.341470
     15          6           0       -2.086043    0.605761   -0.299968
     16          8           0       -2.510530    1.745857   -0.124916
     17          7           0       -0.822319    0.347434   -0.644028
     18          1           0       -0.520128   -0.607130   -0.776748
     19          6           0        0.149975    1.404206   -0.837623
     20          1           0        0.528211    1.367830   -1.859238
     21          6           0       -0.473935    2.774929   -0.597493
     22          1           0       -0.849231    2.829889    0.424328
     23          1           0        0.278323    3.548770   -0.749858
     24          1           0       -1.297432    2.927112   -1.295179
     25          6           0        1.322411    1.252473    0.120856
     26          8           0        1.296793    1.786763    1.227344
     27          7           0        2.353554    0.520477   -0.307147
     28          1           0        2.328309    0.100906   -1.225536
     29          6           0        3.529047    0.301190    0.511278
     30          1           0        3.991636    1.259480    0.747717
     31          6           0        3.166436   -0.400003    1.816060
     32          1           0        2.710420   -1.365206    1.595848
     33          1           0        4.067647   -0.551612    2.410216
     34          1           0        2.461931    0.214861    2.376015
     35          6           0        4.548332   -0.564988   -0.214658
     36          8           0        4.318980   -0.980879   -1.348270
     37          7           0        5.678137   -0.836640    0.442556
     38          1           0        5.821032   -0.471730    1.373457
     39          6           0        6.726279   -1.650163   -0.139989
     40          1           0        6.427717   -1.967206   -1.139262
     41          1           0        7.645658   -1.068217   -0.203498
     42          1           0        6.894798   -2.527916    0.483948
 ---------------------------------------------------------------------
 Rotational constants (GHZ):      0.7270623      0.1115762      0.1047523
 Standard basis: 6-31G(d) (6D, 7F)
 There are   344 symmetry adapted basis functions of A   symmetry.
 Integral buffers will be    131072 words long.
 Raffenetti 1 integral format.
 Two-electron integral symmetry is turned on.
   344 basis functions,   648 primitive gaussians,   344 cartesian basis functions
    77 alpha electrons       77 beta electrons
       nuclear repulsion energy      1599.1391156526 Hartrees.
 NAtoms=   42 NActive=   42 NUniq=   42 SFac= 7.50D-01 NAtFMM=   80 NAOKFM=F Big=F
 One-electron integrals computed using PRISM.
 NBasis=   344 RedAO= T  NBF=   344
 NBsUse=   344 1.00D-06 NBFU=   344
 Harris functional with IExCor=  205 diagonalized for initial guess.
 ExpMin= 1.61D-01 ExpMax= 5.48D+03 ExpMxC= 8.25D+02 IAcc=1 IRadAn=         1 AccDes= 0.00D+00
 HarFok:  IExCor=  205 AccDes= 0.00D+00 IRadAn=         1 IDoV= 1
 ScaDFX=  1.000000  1.000000  1.000000  1.000000
 FoFCou: FMM=F IPFlag=           0 FMFlag=      100000 FMFlg1=           0
         NFxFlg=           0 DoJE=T BraDBF=F KetDBF=T FulRan=T
         Omega=  0.000000  0.000000  1.000000  0.000000  0.000000 ICntrl=     500 IOpCl=  0
         NMat0=    1 NMatS0=    1 NMatT0=    0 NMatD0=    1 NMtDS0=    0 NMtDT0=    0
         I1Cent=           4 NGrid=           0.
 Petite list used in FoFCou.
 Initial guess orbital symmetries:
       Occupied  (A) (A) (A) (A) (A) (A) (A) (A) (A) (A) (A) (A)
                 (A) (A) (A) (A) (A) (A) (A) (A) (A) (A) (A) (A)
                 (A) (A) (A) (A) (A) (A) (A) (A) (A) (A) (A) (A)
                 (A) (A) (A) (A) (A) (A) (A) (A) (A) (A) (A) (A)
                 (A) (A) (A) (A) (A) (A) (A) (A) (A) (A) (A) (A)
                 (A) (A) (A) (A) (A) (A) (A) (A) (A) (A) (A) (A)
                 (A) (A) (A) (A) (A)
       Virtual   (A) (A) (A) (A) (A) (A) (A) (A) (A) (A) (A) (A)
                 (A) (A) (A) (A) (A) (A) (A) (A) (A) (A) (A) (A)
                 (A) (A) (A) (A) (A) (A) (A) (A) (A) (A) (A) (A)
                 (A) (A) (A) (A) (A) (A) (A) (A) (A) (A) (A) (A)
                 (A) (A) (A) (A) (A) (A) (A) (A) (A) (A) (A) (A)
                 (A) (A) (A) (A) (A) (A) (A) (A) (A) (A) (A) (A)
                 (A) (A) (A) (A) (A) (A) (A) (A) (A) (A) (A) (A)
                 (A) (A) (A) (A) (A) (A) (A) (A) (A) (A) (A) (A)
                 (A) (A) (A) (A) (A) (A) (A) (A) (A) (A) (A) (A)
                 (A) (A) (A) (A) (A) (A) (A) (A) (A) (A) (A) (A)
                 (A) (A) (A) (A) (A) (A) (A) (A) (A) (A) (A) (A)
                 (A) (A) (A) (A) (A) (A) (A) (A) (A) (A) (A) (A)
                 (A) (A) (A) (A) (A) (A) (A) (A) (A) (A) (A) (A)
                 (A) (A) (A) (A) (A) (A) (A) (A) (A) (A) (A) (A)
                 (A) (A) (A) (A) (A) (A) (A) (A) (A) (A) (A) (A)
                 (A) (A) (A) (A) (A) (A) (A) (A) (A) (A) (A) (A)
                 (A) (A) (A) (A) (A) (A) (A) (A) (A) (A) (A) (A)
                 (A) (A) (A) (A) (A) (A) (A) (A) (A) (A) (A) (A)
                 (A) (A) (A) (A) (A) (A) (A) (A) (A) (A) (A) (A)
                 (A) (A) (A) (A) (A) (A) (A) (A) (A) (A) (A) (A)
                 (A) (A) (A) (A) (A) (A) (A) (A) (A) (A) (A) (A)
                 (A) (A) (A) (A) (A) (A) (A) (A) (A) (A) (A) (A)
                 (A) (A) (A)
 The electronic state of the initial guess is 1-A.
 Requested convergence on RMS density matrix=1.00D-08 within 128 cycles.
 Requested convergence on MAX density matrix=1.00D-06.
 Requested convergence on             energy=1.00D-06.
 No special actions if energy rises.
 Integral accuracy reduced to 1.0D-05 until final iterations.
 Initial convergence to 1.0D-05 achieved.  Increase integral accuracy.
 SCF Done:  E(RHF) =  -984.510568373     A.U. after   15 cycles
             Convg  =    0.3561D-08             -V/T =  2.0018
 Range of M.O.s used for correlation:     1   344
 NBasis=   344 NAE=    77 NBE=    77 NFC=     0 NFV=     0
 NROrb=    344 NOA=    77 NOB=    77 NVA=   267 NVB=   267
 Symmetrizing basis deriv contribution to polar:
 IMax=3 JMax=2 DiffMx= 0.00D+00
 G2DrvN: will do    43 centers at a time, making    1 passes doing MaxLOS=2.
 Calling FoFCou, ICntrl=  3107 FMM=F I1Cent=   0 AccDes= 0.00D+00.
 FoFDir/FoFCou used for L=0 through L=2.
 End of G2Drv Frequency-dependent properties file   721 does not exist.
 End of G2Drv Frequency-dependent properties file   722 does not exist.
          IDoAtm=111111111111111111111111111111111111111111
          Differentiating once with respect to nuclear coordinates.
          There are   129 degrees of freedom in the 1st order CPHF.  IDoFFX=5.
    123 vectors produced by pass  0 Test12= 2.06D-10 1.00D-07 XBig12= 1.04D-01 5.58D-02.
 AX will form   123 AO Fock derivatives at one time.
    123 vectors produced by pass  1 Test12= 2.06D-10 1.00D-07 XBig12= 1.12D-02 3.02D-02.
    123 vectors produced by pass  2 Test12= 2.06D-10 1.00D-07 XBig12= 1.17D-04 1.87D-03.
    123 vectors produced by pass  3 Test12= 2.06D-10 1.00D-07 XBig12= 1.58D-06 1.88D-04.
    123 vectors produced by pass  4 Test12= 2.06D-10 1.00D-07 XBig12= 7.87D-09 1.00D-05.
     33 vectors produced by pass  5 Test12= 2.06D-10 1.00D-07 XBig12= 3.74D-11 6.56D-07.
 Inverted reduced A of dimension   648 with in-core refinement.
 End of Minotr Frequency-dependent properties file   721 does not exist.
 End of Minotr Frequency-dependent properties file   722 does not exist.

 **********************************************************************

            Population analysis using the SCF density.

 **********************************************************************

 Orbital symmetries:
       Occupied  (A) (A) (A) (A) (A) (A) (A) (A) (A) (A) (A) (A)
                 (A) (A) (A) (A) (A) (A) (A) (A) (A) (A) (A) (A)
                 (A) (A) (A) (A) (A) (A) (A) (A) (A) (A) (A) (A)
                 (A) (A) (A) (A) (A) (A) (A) (A) (A) (A) (A) (A)
                 (A) (A) (A) (A) (A) (A) (A) (A) (A) (A) (A) (A)
                 (A) (A) (A) (A) (A) (A) (A) (A) (A) (A) (A) (A)
                 (A) (A) (A) (A) (A)
       Virtual   (A) (A) (A) (A) (A) (A) (A) (A) (A) (A) (A) (A)
                 (A) (A) (A) (A) (A) (A) (A) (A) (A) (A) (A) (A)
                 (A) (A) (A) (A) (A) (A) (A) (A) (A) (A) (A) (A)
                 (A) (A) (A) (A) (A) (A) (A) (A) (A) (A) (A) (A)
                 (A) (A) (A) (A) (A) (A) (A) (A) (A) (A) (A) (A)
                 (A) (A) (A) (A) (A) (A) (A) (A) (A) (A) (A) (A)
                 (A) (A) (A) (A) (A) (A) (A) (A) (A) (A) (A) (A)
                 (A) (A) (A) (A) (A) (A) (A) (A) (A) (A) (A) (A)
                 (A) (A) (A) (A) (A) (A) (A) (A) (A) (A) (A) (A)
                 (A) (A) (A) (A) (A) (A) (A) (A) (A) (A) (A) (A)
                 (A) (A) (A) (A) (A) (A) (A) (A) (A) (A) (A) (A)
                 (A) (A) (A) (A) (A) (A) (A) (A) (A) (A) (A) (A)
                 (A) (A) (A) (A) (A) (A) (A) (A) (A) (A) (A) (A)
                 (A) (A) (A) (A) (A) (A) (A) (A) (A) (A) (A) (A)
                 (A) (A) (A) (A) (A) (A) (A) (A) (A) (A) (A) (A)
                 (A) (A) (A) (A) (A) (A) (A) (A) (A) (A) (A) (A)
                 (A) (A) (A) (A) (A) (A) (A) (A) (A) (A) (A) (A)
                 (A) (A) (A) (A) (A) (A) (A) (A) (A) (A) (A) (A)
                 (A) (A) (A) (A) (A) (A) (A) (A) (A) (A) (A) (A)
                 (A) (A) (A) (A) (A) (A) (A) (A) (A) (A) (A) (A)
                 (A) (A) (A) (A) (A) (A) (A) (A) (A) (A) (A) (A)
                 (A) (A) (A) (A) (A) (A) (A) (A) (A) (A) (A) (A)
                 (A) (A) (A)
 The electronic state is 1-A.
 Alpha  occ. eigenvalues --  -20.53866 -20.52773 -20.52543 -20.51272 -15.61124
 Alpha  occ. eigenvalues --  -15.60946 -15.60160 -15.58630 -11.36734 -11.36511
 Alpha  occ. eigenvalues --  -11.35258 -11.34596 -11.29478 -11.28800 -11.28665
 Alpha  occ. eigenvalues --  -11.27309 -11.23207 -11.23040 -11.22297 -11.19879
 Alpha  occ. eigenvalues --   -1.39969  -1.39713  -1.38215  -1.36940  -1.25923
 Alpha  occ. eigenvalues --   -1.25274  -1.24678  -1.23554  -1.08245  -1.06148
 Alpha  occ. eigenvalues --   -1.02464  -0.98284  -0.96825  -0.91547  -0.89928
 Alpha  occ. eigenvalues --   -0.87222  -0.81805  -0.79943  -0.78882  -0.78009
 Alpha  occ. eigenvalues --   -0.76322  -0.73137  -0.69859  -0.68699  -0.67477
 Alpha  occ. eigenvalues --   -0.66668  -0.65200  -0.64397  -0.63537  -0.62601
 Alpha  occ. eigenvalues --   -0.61774  -0.61094  -0.60584  -0.58328  -0.58142
 Alpha  occ. eigenvalues --   -0.57331  -0.57121  -0.56254  -0.55874  -0.55320
 Alpha  occ. eigenvalues --   -0.53992  -0.53824  -0.53640  -0.52741  -0.52660
 Alpha  occ. eigenvalues --   -0.51902  -0.51411  -0.49984  -0.49182  -0.43972
 Alpha  occ. eigenvalues --   -0.43334  -0.41016  -0.40734  -0.40321  -0.39405
 Alpha  occ. eigenvalues --   -0.39266  -0.38265
 Alpha virt. eigenvalues --    0.16725   0.18270   0.19553   0.19671   0.20393
 Alpha virt. eigenvalues --    0.21563   0.23974   0.24438   0.25555   0.27356
 Alpha virt. eigenvalues --    0.28300   0.28541   0.28920   0.29211   0.30416
 Alpha virt. eigenvalues --    0.30493   0.31300   0.31403   0.32168   0.32928
 Alpha virt. eigenvalues --    0.33358   0.33634   0.34592   0.35078   0.35271
 Alpha virt. eigenvalues --    0.35963   0.36622   0.37275   0.38853   0.39068
 Alpha virt. eigenvalues --    0.41082   0.41337   0.42859   0.43488   0.44079
 Alpha virt. eigenvalues --    0.46794   0.48373   0.51980   0.52671   0.54725
 Alpha virt. eigenvalues --    0.55256   0.58768   0.60518   0.61367   0.63998
 Alpha virt. eigenvalues --    0.70679   0.71791   0.72256   0.72548   0.73403
 Alpha virt. eigenvalues --    0.74343   0.74844   0.75415   0.76229   0.76854
 Alpha virt. eigenvalues --    0.77027   0.78459   0.78821   0.80509   0.81537
 Alpha virt. eigenvalues --    0.83165   0.83408   0.85515   0.86945   0.87434
 Alpha virt. eigenvalues --    0.89110   0.89801   0.91367   0.91749   0.92684
 Alpha virt. eigenvalues --    0.93303   0.93888   0.95038   0.97025   0.97918
 Alpha virt. eigenvalues --    0.98628   0.98906   0.99558   1.00198   1.02483
 Alpha virt. eigenvalues --    1.03700   1.04265   1.04690   1.06317   1.08490
 Alpha virt. eigenvalues --    1.08815   1.09330   1.09638   1.10685   1.11545
 Alpha virt. eigenvalues --    1.12250   1.13051   1.14059   1.14397   1.15081
 Alpha virt. eigenvalues --    1.15332   1.16041   1.16176   1.16539   1.17192
 Alpha virt. eigenvalues --    1.17722   1.18902   1.19241   1.19675   1.19741
 Alpha virt. eigenvalues --    1.20430   1.20671   1.21303   1.21973   1.22344
 Alpha virt. eigenvalues --    1.23642   1.25128   1.26304   1.27607   1.28197
 Alpha virt. eigenvalues --    1.29099   1.32371   1.33322   1.33980   1.34977
 Alpha virt. eigenvalues --    1.37909   1.39242   1.40247   1.41780   1.43479
 Alpha virt. eigenvalues --    1.44786   1.49173   1.51161   1.52584   1.53338
 Alpha virt. eigenvalues --    1.55153   1.55798   1.58169   1.60084   1.61212
 Alpha virt. eigenvalues --    1.62559   1.63951   1.64586   1.65702   1.67391
 Alpha virt. eigenvalues --    1.70280   1.72040   1.73129   1.73931   1.74601
 Alpha virt. eigenvalues --    1.75663   1.78806   1.79322   1.81671   1.85122
 Alpha virt. eigenvalues --    1.90071   1.91757   1.93300   1.95238   1.98764
 Alpha virt. eigenvalues --    1.99317   2.00806   2.01803   2.04021   2.05160
 Alpha virt. eigenvalues --    2.07826   2.09237   2.09708   2.10709   2.12838
 Alpha virt. eigenvalues --    2.13416   2.13593   2.14065   2.14537   2.15329
 Alpha virt. eigenvalues --    2.16374   2.17146   2.18864   2.19652   2.19936
 Alpha virt. eigenvalues --    2.21550   2.22935   2.23355   2.24521   2.25201
 Alpha virt. eigenvalues --    2.28019   2.28876   2.30140   2.32323   2.33470
 Alpha virt. eigenvalues --    2.35027   2.35454   2.36523   2.37582   2.37801
 Alpha virt. eigenvalues --    2.39613   2.42726   2.46182   2.46545   2.49326
 Alpha virt. eigenvalues --    2.51303   2.53108   2.53814   2.56897   2.57990
 Alpha virt. eigenvalues --    2.58720   2.60741   2.61140   2.61542   2.62555
 Alpha virt. eigenvalues --    2.63220   2.64503   2.65339   2.66774   2.68473
 Alpha virt. eigenvalues --    2.71043   2.72117   2.74006   2.75170   2.76390
 Alpha virt. eigenvalues --    2.77234   2.79105   2.79768   2.84021   2.84703
 Alpha virt. eigenvalues --    2.86445   2.89109   2.92243   2.94414   2.94919
 Alpha virt. eigenvalues --    2.97748   2.98204   3.01189   3.02972   3.04722
 Alpha virt. eigenvalues --    3.07691   3.10094   3.13320   3.16320   3.19805
 Alpha virt. eigenvalues --    3.24360   3.26122   3.30744   3.31502   3.35032
 Alpha virt. eigenvalues --    3.35378   3.39960   3.40482   3.52262   3.55785
 Alpha virt. eigenvalues --    3.60250   3.62434   4.38520   4.40980   4.43728
 Alpha virt. eigenvalues --    4.45702   4.47870   4.49583   4.55267   4.62982
 Alpha virt. eigenvalues --    4.64872   4.65607   4.68768   4.71153   4.72912
 Alpha virt. eigenvalues --    4.82518   4.86094   4.87594   4.92512   5.00552
 Alpha virt. eigenvalues --    5.05508   5.13143
          Condensed to atoms (all electrons):
              1          2          3          4          5          6
     1  H    0.458955   0.385662  -0.018748  -0.018845  -0.030829   0.003517
     2  C    0.385662   5.244638   0.374839   0.374795   0.378007  -0.067251
     3  H   -0.018748   0.374839   0.509286  -0.023565  -0.034449   0.001262
     4  H   -0.018845   0.374795  -0.023565   0.512427  -0.035400   0.001189
     5  C   -0.030829   0.378007  -0.034449  -0.035400   4.186479   0.586755
     6  O    0.003517  -0.067251   0.001262   0.001189   0.586755   8.212054
     7  N    0.003861  -0.119749   0.003462   0.003684   0.247479  -0.107657
     8  H   -0.000018  -0.001220   0.000640   0.000482  -0.017383   0.002003
     9  C   -0.000077   0.004593  -0.000241  -0.000091  -0.030100   0.014522
    10  H    0.000002  -0.000008  -0.000004  -0.000002  -0.001657   0.002916
    11  C    0.000006  -0.000504   0.000008   0.000030  -0.003914  -0.015879
    12  H    0.000000  -0.000042   0.000000   0.000002   0.000041  -0.000024
    13  H    0.000000   0.000007   0.000000  -0.000001   0.000285   0.000274
    14  H    0.000001   0.000302  -0.000005  -0.000026   0.000404   0.011322
    15  C    0.000000   0.000005  -0.000011  -0.000006   0.004059   0.000553
    16  O    0.000000  -0.000040  -0.000001  -0.000001   0.000295  -0.000003
    17  N    0.000000   0.000000   0.000000   0.000000  -0.000083  -0.000002
    18  H    0.000000   0.000000   0.000000   0.000000   0.000002   0.000001
    19  C    0.000000   0.000000   0.000000   0.000000   0.000001   0.000000
    20  H    0.000000   0.000000   0.000000   0.000000   0.000000   0.000000
    21  C    0.000000   0.000000   0.000000   0.000000   0.000000   0.000000
    22  H    0.000000   0.000000   0.000000   0.000000   0.000000   0.000000
    23  H    0.000000   0.000000   0.000000   0.000000   0.000000   0.000000
    24  H    0.000000   0.000000   0.000000   0.000000   0.000000   0.000000
    25  C    0.000000   0.000000   0.000000   0.000000   0.000000   0.000000
    26  O    0.000000   0.000000   0.000000   0.000000   0.000000   0.000000
    27  N    0.000000   0.000000   0.000000   0.000000   0.000000   0.000000
    28  H    0.000000   0.000000   0.000000   0.000000   0.000000   0.000000
    29  C    0.000000   0.000000   0.000000   0.000000   0.000000   0.000000
    30  H    0.000000   0.000000   0.000000   0.000000   0.000000   0.000000
    31  C    0.000000   0.000000   0.000000   0.000000   0.000000   0.000000
    32  H    0.000000   0.000000   0.000000   0.000000   0.000000   0.000000
    33  H    0.000000   0.000000   0.000000   0.000000   0.000000   0.000000
    34  H    0.000000   0.000000   0.000000   0.000000   0.000000   0.000000
    35  C    0.000000   0.000000   0.000000   0.000000   0.000000   0.000000
    36  O    0.000000   0.000000   0.000000   0.000000   0.000000   0.000000
    37  N    0.000000   0.000000   0.000000   0.000000   0.000000   0.000000
    38  H    0.000000   0.000000   0.000000   0.000000   0.000000   0.000000
    39  C    0.000000   0.000000   0.000000   0.000000   0.000000   0.000000
    40  H    0.000000   0.000000   0.000000   0.000000   0.000000   0.000000
    41  H    0.000000   0.000000   0.000000   0.000000   0.000000   0.000000
    42  H    0.000000   0.000000   0.000000   0.000000   0.000000   0.000000
              7          8          9         10         11         12
     1  H    0.003861  -0.000018  -0.000077   0.000002   0.000006   0.000000
     2  C   -0.119749  -0.001220   0.004593  -0.000008  -0.000504  -0.000042
     3  H    0.003462   0.000640  -0.000241  -0.000004   0.000008   0.000000
     4  H    0.003684   0.000482  -0.000091  -0.000002   0.000030   0.000002
     5  C    0.247479  -0.017383  -0.030100  -0.001657  -0.003914   0.000041
     6  O   -0.107657   0.002003   0.014522   0.002916  -0.015879  -0.000024
     7  N    7.415417   0.311220   0.199958  -0.040932  -0.063557   0.001694
     8  H    0.311220   0.287335  -0.027291   0.002358   0.003053   0.000243
     9  C    0.199958  -0.027291   5.013700   0.406616   0.335215  -0.042204
    10  H   -0.040932   0.002358   0.406616   0.497167  -0.046044   0.004486
    11  C   -0.063557   0.003053   0.335215  -0.046044   5.212935   0.385168
    12  H    0.001694   0.000243  -0.042204   0.004486   0.385168   0.524630
    13  H    0.004925  -0.000077  -0.042202   0.000286   0.377420  -0.024342
    14  H   -0.005615  -0.000198  -0.026528  -0.003920   0.387442  -0.020062
    15  C   -0.037639  -0.005100   0.381929  -0.039823  -0.066298  -0.002997
    16  O   -0.006477   0.020320  -0.069254   0.000778  -0.000160   0.000574
    17  N    0.002754   0.000752  -0.115843   0.002658   0.003218   0.000209
    18  H    0.000016  -0.000020   0.001082   0.000440   0.000173  -0.000011
    19  C   -0.000037  -0.000008   0.001831  -0.000174   0.000215  -0.000024
    20  H    0.000001   0.000000  -0.000012   0.000002   0.000020   0.000003
    21  C   -0.000003   0.000028  -0.000306   0.000012  -0.000022  -0.000001
    22  H   -0.000003   0.000026  -0.000232   0.000001   0.000005   0.000000
    23  H    0.000000  -0.000001   0.000025   0.000000  -0.000001   0.000000
    24  H   -0.000001   0.000027  -0.000264   0.000002   0.000002   0.000009
    25  C    0.000000   0.000000  -0.000179   0.000026   0.000000   0.000001
    26  O    0.000000   0.000000   0.000004   0.000002   0.000000   0.000000
    27  N    0.000000   0.000000  -0.000001   0.000000   0.000000   0.000000
    28  H    0.000000   0.000000   0.000000   0.000000   0.000000   0.000000
    29  C    0.000000   0.000000   0.000000   0.000000   0.000000   0.000000
    30  H    0.000000   0.000000   0.000000   0.000000   0.000000   0.000000
    31  C    0.000000   0.000000   0.000000   0.000000   0.000000   0.000000
    32  H    0.000000   0.000000   0.000000   0.000000   0.000000   0.000000
    33  H    0.000000   0.000000   0.000000   0.000000   0.000000   0.000000
    34  H    0.000000   0.000000   0.000000   0.000000   0.000000   0.000000
    35  C    0.000000   0.000000   0.000000   0.000000   0.000000   0.000000
    36  O    0.000000   0.000000   0.000000   0.000000   0.000000   0.000000
    37  N    0.000000   0.000000   0.000000   0.000000   0.000000   0.000000
    38  H    0.000000   0.000000   0.000000   0.000000   0.000000   0.000000
    39  C    0.000000   0.000000   0.000000   0.000000   0.000000   0.000000
    40  H    0.000000   0.000000   0.000000   0.000000   0.000000   0.000000
    41  H    0.000000   0.000000   0.000000   0.000000   0.000000   0.000000
    42  H    0.000000   0.000000   0.000000   0.000000   0.000000   0.000000
             13         14         15         16         17         18
     1  H    0.000000   0.000001   0.000000   0.000000   0.000000   0.000000
     2  C    0.000007   0.000302   0.000005  -0.000040   0.000000   0.000000
     3  H    0.000000  -0.000005  -0.000011  -0.000001   0.000000   0.000000
     4  H   -0.000001  -0.000026  -0.000006  -0.000001   0.000000   0.000000
     5  C    0.000285   0.000404   0.004059   0.000295  -0.000083   0.000002
     6  O    0.000274   0.011322   0.000553  -0.000003  -0.000002   0.000001
     7  N    0.004925  -0.005615  -0.037639  -0.006477   0.002754   0.000016
     8  H   -0.000077  -0.000198  -0.005100   0.020320   0.000752  -0.000020
     9  C   -0.042202  -0.026528   0.381929  -0.069254  -0.115843   0.001082
    10  H    0.000286  -0.003920  -0.039823   0.000778   0.002658   0.000440
    11  C    0.377420   0.387442  -0.066298  -0.000160   0.003218   0.000173
    12  H   -0.024342  -0.020062  -0.002997   0.000574   0.000209  -0.000011
    13  H    0.570055  -0.019982  -0.007413   0.000025   0.000536   0.002625
    14  H   -0.019982   0.423171   0.004249  -0.000055   0.000034  -0.000085
    15  C   -0.007413   0.004249   4.172454   0.571734   0.270789  -0.016959
    16  O    0.000025  -0.000055   0.571734   8.326817  -0.099069   0.002300
    17  N    0.000536   0.000034   0.270789  -0.099069   7.408758   0.316799
    18  H    0.002625  -0.000085  -0.016959   0.002300   0.316799   0.311408
    19  C    0.000230   0.000000  -0.025534   0.002577   0.175003  -0.020808
    20  H   -0.000002  -0.000001   0.001064  -0.000061  -0.050623  -0.000248
    21  C   -0.000012   0.000000  -0.004675  -0.070324  -0.041361   0.002780
    22  H    0.000000   0.000000   0.000316  -0.015498  -0.001600  -0.000152
    23  H    0.000000   0.000000   0.000259   0.003816   0.004016  -0.000062
    24  H    0.000002   0.000000  -0.001331  -0.015964  -0.001406  -0.000165
    25  C    0.000002   0.000000  -0.000089  -0.000534  -0.057529  -0.002868
    26  O    0.000000   0.000000   0.000786  -0.000048   0.001214  -0.000094
    27  N   -0.000007   0.000000   0.000146  -0.000004   0.001519   0.003130
    28  H   -0.000001   0.000000  -0.000003   0.000000   0.000259   0.000240
    29  C    0.000000   0.000000  -0.000004   0.000000  -0.000132  -0.000074
    30  H    0.000000   0.000000   0.000000   0.000000  -0.000005   0.000003
    31  C    0.000000   0.000000   0.000002   0.000000   0.000042   0.000002
    32  H    0.000000   0.000000   0.000001   0.000000   0.000005   0.000040
    33  H    0.000000   0.000000   0.000000   0.000000  -0.000001   0.000000
    34  H    0.000000   0.000000  -0.000001   0.000000  -0.000033  -0.000003
    35  C    0.000000   0.000000   0.000000   0.000000  -0.000002  -0.000002
    36  O    0.000000   0.000000   0.000000   0.000000   0.000000  -0.000002
    37  N    0.000000   0.000000   0.000000   0.000000   0.000000   0.000000
    38  H    0.000000   0.000000   0.000000   0.000000   0.000000   0.000000
    39  C    0.000000   0.000000   0.000000   0.000000   0.000000   0.000000
    40  H    0.000000   0.000000   0.000000   0.000000   0.000000   0.000000
    41  H    0.000000   0.000000   0.000000   0.000000   0.000000   0.000000
    42  H    0.000000   0.000000   0.000000   0.000000   0.000000   0.000000
             19         20         21         22         23         24
     1  H    0.000000   0.000000   0.000000   0.000000   0.000000   0.000000
     2  C    0.000000   0.000000   0.000000   0.000000   0.000000   0.000000
     3  H    0.000000   0.000000   0.000000   0.000000   0.000000   0.000000
     4  H    0.000000   0.000000   0.000000   0.000000   0.000000   0.000000
     5  C    0.000001   0.000000   0.000000   0.000000   0.000000   0.000000
     6  O    0.000000   0.000000   0.000000   0.000000   0.000000   0.000000
     7  N   -0.000037   0.000001  -0.000003  -0.000003   0.000000  -0.000001
     8  H   -0.000008   0.000000   0.000028   0.000026  -0.000001   0.000027
     9  C    0.001831  -0.000012  -0.000306  -0.000232   0.000025  -0.000264
    10  H   -0.000174   0.000002   0.000012   0.000001   0.000000   0.000002
    11  C    0.000215   0.000020  -0.000022   0.000005  -0.000001   0.000002
    12  H   -0.000024   0.000003  -0.000001   0.000000   0.000000   0.000009
    13  H    0.000230  -0.000002  -0.000012   0.000000   0.000000   0.000002
    14  H    0.000000  -0.000001   0.000000   0.000000   0.000000   0.000000
    15  C   -0.025534   0.001064  -0.004675   0.000316   0.000259  -0.001331
    16  O    0.002577  -0.000061  -0.070324  -0.015498   0.003816  -0.015964
    17  N    0.175003  -0.050623  -0.041361  -0.001600   0.004016  -0.001406
    18  H   -0.020808  -0.000248   0.002780  -0.000152  -0.000062  -0.000165
    19  C    5.059600   0.419152   0.364960  -0.030347  -0.032022  -0.039065
    20  H    0.419152   0.534289  -0.035230   0.003832  -0.001907  -0.003154
    21  C    0.364960  -0.035230   5.117078   0.403960   0.371681   0.404751
    22  H   -0.030347   0.003832   0.403960   0.455469  -0.024225  -0.019331
    23  H   -0.032022  -0.001907   0.371681  -0.024225   0.559537  -0.029215
    24  H   -0.039065  -0.003154   0.404751  -0.019331  -0.029215   0.509165
    25  C    0.345455  -0.067443  -0.054038  -0.007007  -0.004675   0.005887
    26  O   -0.073788   0.002279  -0.002776   0.005427  -0.000135   0.000416
    27  N   -0.105208   0.007164   0.002339   0.000257   0.000262  -0.000073
    28  H   -0.000583   0.002003   0.000009  -0.000003  -0.000007  -0.000007
    29  C    0.005065  -0.000061  -0.000132  -0.000006  -0.000017   0.000002
    30  H   -0.000152  -0.000016   0.000026  -0.000001  -0.000004   0.000000
    31  C   -0.000590   0.000012  -0.000003   0.000001   0.000001   0.000000
    32  H   -0.000052  -0.000001   0.000001   0.000000   0.000000   0.000000
    33  H    0.000008   0.000000   0.000000   0.000000   0.000000   0.000000
    34  H    0.000311  -0.000010  -0.000005  -0.000002  -0.000001   0.000000
    35  C   -0.000010  -0.000042  -0.000001   0.000000   0.000000   0.000000
    36  O   -0.000057  -0.000012   0.000000   0.000000   0.000000   0.000000
    37  N    0.000000   0.000000   0.000000   0.000000   0.000000   0.000000
    38  H    0.000000   0.000000   0.000000   0.000000   0.000000   0.000000
    39  C    0.000000   0.000000   0.000000   0.000000   0.000000   0.000000
    40  H    0.000000   0.000000   0.000000   0.000000   0.000000   0.000000
    41  H    0.000000   0.000000   0.000000   0.000000   0.000000   0.000000
    42  H    0.000000   0.000000   0.000000   0.000000   0.000000   0.000000
             25         26         27         28         29         30
     1  H    0.000000   0.000000   0.000000   0.000000   0.000000   0.000000
     2  C    0.000000   0.000000   0.000000   0.000000   0.000000   0.000000
     3  H    0.000000   0.000000   0.000000   0.000000   0.000000   0.000000
     4  H    0.000000   0.000000   0.000000   0.000000   0.000000   0.000000
     5  C    0.000000   0.000000   0.000000   0.000000   0.000000   0.000000
     6  O    0.000000   0.000000   0.000000   0.000000   0.000000   0.000000
     7  N    0.000000   0.000000   0.000000   0.000000   0.000000   0.000000
     8  H    0.000000   0.000000   0.000000   0.000000   0.000000   0.000000
     9  C   -0.000179   0.000004  -0.000001   0.000000   0.000000   0.000000
    10  H    0.000026   0.000002   0.000000   0.000000   0.000000   0.000000
    11  C    0.000000   0.000000   0.000000   0.000000   0.000000   0.000000
    12  H    0.000001   0.000000   0.000000   0.000000   0.000000   0.000000
    13  H    0.000002   0.000000  -0.000007  -0.000001   0.000000   0.000000
    14  H    0.000000   0.000000   0.000000   0.000000   0.000000   0.000000
    15  C   -0.000089   0.000786   0.000146  -0.000003  -0.000004   0.000000
    16  O   -0.000534  -0.000048  -0.000004   0.000000   0.000000   0.000000
    17  N   -0.057529   0.001214   0.001519   0.000259  -0.000132  -0.000005
    18  H   -0.002868  -0.000094   0.003130   0.000240  -0.000074   0.000003
    19  C    0.345455  -0.073788  -0.105208  -0.000583   0.005065  -0.000152
    20  H   -0.067443   0.002279   0.007164   0.002003  -0.000061  -0.000016
    21  C   -0.054038  -0.002776   0.002339   0.000009  -0.000132   0.000026
    22  H   -0.007007   0.005427   0.000257  -0.000003  -0.000006  -0.000001
    23  H   -0.004675  -0.000135   0.000262  -0.000007  -0.000017  -0.000004
    24  H    0.005887   0.000416  -0.000073  -0.000007   0.000002   0.000000
    25  C    4.258951   0.573532   0.258308  -0.017949  -0.032950  -0.001815
    26  O    0.573532   8.226531  -0.104659   0.001993   0.014064   0.002928
    27  N    0.258308  -0.104659   7.420720   0.308880   0.189719  -0.040217
    28  H   -0.017949   0.001993   0.308880   0.287799  -0.027126   0.002403
    29  C   -0.032950   0.014064   0.189719  -0.027126   5.051369   0.403957
    30  H   -0.001815   0.002928  -0.040217   0.002403   0.403957   0.492702
    31  C   -0.003377  -0.015398  -0.063024   0.002995   0.335574  -0.044502
    32  H   -0.000079   0.000001   0.001616   0.000267  -0.043098   0.004468
    33  H    0.000250   0.000252   0.004893  -0.000074  -0.042057   0.000188
    34  H    0.000482   0.010372  -0.005393  -0.000205  -0.026921  -0.003952
    35  C    0.003868   0.000455  -0.036316  -0.005625   0.375440  -0.036198
    36  O    0.000424  -0.000003  -0.006159   0.022053  -0.079232   0.000997
    37  N   -0.000086  -0.000001   0.002824   0.000741  -0.116652   0.002056
    38  H    0.000002   0.000001   0.000017  -0.000022   0.001159   0.000463
    39  C    0.000001   0.000000  -0.000050  -0.000010   0.003626  -0.000212
    40  H    0.000000   0.000000  -0.000004  -0.000010   0.000583  -0.000017
    41  H    0.000000   0.000000   0.000000   0.000000  -0.000111   0.000010
    42  H    0.000000   0.000000   0.000001   0.000000  -0.000005  -0.000001
             31         32         33         34         35         36
     1  H    0.000000   0.000000   0.000000   0.000000   0.000000   0.000000
     2  C    0.000000   0.000000   0.000000   0.000000   0.000000   0.000000
     3  H    0.000000   0.000000   0.000000   0.000000   0.000000   0.000000
     4  H    0.000000   0.000000   0.000000   0.000000   0.000000   0.000000
     5  C    0.000000   0.000000   0.000000   0.000000   0.000000   0.000000
     6  O    0.000000   0.000000   0.000000   0.000000   0.000000   0.000000
     7  N    0.000000   0.000000   0.000000   0.000000   0.000000   0.000000
     8  H    0.000000   0.000000   0.000000   0.000000   0.000000   0.000000
     9  C    0.000000   0.000000   0.000000   0.000000   0.000000   0.000000
    10  H    0.000000   0.000000   0.000000   0.000000   0.000000   0.000000
    11  C    0.000000   0.000000   0.000000   0.000000   0.000000   0.000000
    12  H    0.000000   0.000000   0.000000   0.000000   0.000000   0.000000
    13  H    0.000000   0.000000   0.000000   0.000000   0.000000   0.000000
    14  H    0.000000   0.000000   0.000000   0.000000   0.000000   0.000000
    15  C    0.000002   0.000001   0.000000  -0.000001   0.000000   0.000000
    16  O    0.000000   0.000000   0.000000   0.000000   0.000000   0.000000
    17  N    0.000042   0.000005  -0.000001  -0.000033  -0.000002   0.000000
    18  H    0.000002   0.000040   0.000000  -0.000003  -0.000002  -0.000002
    19  C   -0.000590  -0.000052   0.000008   0.000311  -0.000010  -0.000057
    20  H    0.000012  -0.000001   0.000000  -0.000010  -0.000042  -0.000012
    21  C   -0.000003   0.000001   0.000000  -0.000005  -0.000001   0.000000
    22  H    0.000001   0.000000   0.000000  -0.000002   0.000000   0.000000
    23  H    0.000001   0.000000   0.000000  -0.000001   0.000000   0.000000
    24  H    0.000000   0.000000   0.000000   0.000000   0.000000   0.000000
    25  C   -0.003377  -0.000079   0.000250   0.000482   0.003868   0.000424
    26  O   -0.015398   0.000001   0.000252   0.010372   0.000455  -0.000003
    27  N   -0.063024   0.001616   0.004893  -0.005393  -0.036316  -0.006159
    28  H    0.002995   0.000267  -0.000074  -0.000205  -0.005625   0.022053
    29  C    0.335574  -0.043098  -0.042057  -0.026921   0.375440  -0.079232
    30  H   -0.044502   0.004468   0.000188  -0.003952  -0.036198   0.000997
    31  C    5.204799   0.385505   0.379832   0.387622  -0.063558   0.000011
    32  H    0.385505   0.527076  -0.023773  -0.020655  -0.002762   0.000631
    33  H    0.379832  -0.023773   0.561379  -0.019881  -0.006822   0.000025
    34  H    0.387622  -0.020655  -0.019881   0.425231   0.003930  -0.000064
    35  C   -0.063558  -0.002762  -0.006822   0.003930   4.142729   0.594127
    36  O    0.000011   0.000631   0.000025  -0.000064   0.594127   8.216871
    37  N    0.002422   0.000161   0.000446   0.000092   0.290807  -0.098996
    38  H    0.000002  -0.000009   0.002648  -0.000079  -0.020700   0.002366
    39  C   -0.000074  -0.000042   0.000158   0.000003  -0.025648  -0.004850
    40  H   -0.000049  -0.000001  -0.000008   0.000000  -0.001986   0.009747
    41  H   -0.000004   0.000001   0.000002   0.000000   0.000796   0.000366
    42  H    0.000011   0.000002  -0.000002  -0.000001   0.000921   0.000374
             37         38         39         40         41         42
     1  H    0.000000   0.000000   0.000000   0.000000   0.000000   0.000000
     2  C    0.000000   0.000000   0.000000   0.000000   0.000000   0.000000
     3  H    0.000000   0.000000   0.000000   0.000000   0.000000   0.000000
     4  H    0.000000   0.000000   0.000000   0.000000   0.000000   0.000000
     5  C    0.000000   0.000000   0.000000   0.000000   0.000000   0.000000
     6  O    0.000000   0.000000   0.000000   0.000000   0.000000   0.000000
     7  N    0.000000   0.000000   0.000000   0.000000   0.000000   0.000000
     8  H    0.000000   0.000000   0.000000   0.000000   0.000000   0.000000
     9  C    0.000000   0.000000   0.000000   0.000000   0.000000   0.000000
    10  H    0.000000   0.000000   0.000000   0.000000   0.000000   0.000000
    11  C    0.000000   0.000000   0.000000   0.000000   0.000000   0.000000
    12  H    0.000000   0.000000   0.000000   0.000000   0.000000   0.000000
    13  H    0.000000   0.000000   0.000000   0.000000   0.000000   0.000000
    14  H    0.000000   0.000000   0.000000   0.000000   0.000000   0.000000
    15  C    0.000000   0.000000   0.000000   0.000000   0.000000   0.000000
    16  O    0.000000   0.000000   0.000000   0.000000   0.000000   0.000000
    17  N    0.000000   0.000000   0.000000   0.000000   0.000000   0.000000
    18  H    0.000000   0.000000   0.000000   0.000000   0.000000   0.000000
    19  C    0.000000   0.000000   0.000000   0.000000   0.000000   0.000000
    20  H    0.000000   0.000000   0.000000   0.000000   0.000000   0.000000
    21  C    0.000000   0.000000   0.000000   0.000000   0.000000   0.000000
    22  H    0.000000   0.000000   0.000000   0.000000   0.000000   0.000000
    23  H    0.000000   0.000000   0.000000   0.000000   0.000000   0.000000
    24  H    0.000000   0.000000   0.000000   0.000000   0.000000   0.000000
    25  C   -0.000086   0.000002   0.000001   0.000000   0.000000   0.000000
    26  O   -0.000001   0.000001   0.000000   0.000000   0.000000   0.000000
    27  N    0.002824   0.000017  -0.000050  -0.000004   0.000000   0.000001
    28  H    0.000741  -0.000022  -0.000010  -0.000010   0.000000   0.000000
    29  C   -0.116652   0.001159   0.003626   0.000583  -0.000111  -0.000005
    30  H    0.002056   0.000463  -0.000212  -0.000017   0.000010  -0.000001
    31  C    0.002422   0.000002  -0.000074  -0.000049  -0.000004   0.000011
    32  H    0.000161  -0.000009  -0.000042  -0.000001   0.000001   0.000002
    33  H    0.000446   0.002648   0.000158  -0.000008   0.000002  -0.000002
    34  H    0.000092  -0.000079   0.000003   0.000000   0.000000  -0.000001
    35  C    0.290807  -0.020700  -0.025648  -0.001986   0.000796   0.000921
    36  O   -0.098996   0.002366  -0.004850   0.009747   0.000366   0.000374
    37  N    7.331019   0.322378   0.184710  -0.031742  -0.046844  -0.047875
[...]
    33  H    0.000000   0.000000   0.000000   0.000000   0.000000   0.000000
    34  H    0.000000   0.000000   0.000000   0.000000  -0.000020   0.000010
    35  C    0.000000   0.000000   0.000000   0.000000  -0.000002   0.000001
    36  O    0.000000   0.000000   0.000000   0.000000   0.000000  -0.000003
    37  N    0.000000   0.000000   0.000000   0.000000   0.000000   0.000000
    38  H    0.000000   0.000000   0.000000   0.000000   0.000000   0.000000
    39  C    0.000000   0.000000   0.000000   0.000000   0.000000   0.000000
    40  H    0.000000   0.000000   0.000000   0.000000   0.000000   0.000000
    41  H    0.000000   0.000000   0.000000   0.000000   0.000000   0.000000
    42  H    0.000000   0.000000   0.000000   0.000000   0.000000   0.000000
             19         20         21         22         23         24
     1  H    0.000000   0.000000   0.000000   0.000000   0.000000   0.000000
     2  C    0.000000   0.000000   0.000000   0.000000   0.000000   0.000000
     3  H    0.000000   0.000000   0.000000   0.000000   0.000000   0.000000
     4  H    0.000000   0.000000   0.000000   0.000000   0.000000   0.000000
     5  C    0.000001   0.000000   0.000000   0.000000   0.000000   0.000000
     6  O    0.000000   0.000000   0.000000   0.000000   0.000000   0.000000
     7  N   -0.000060   0.000000   0.000001  -0.000002   0.000000   0.000001
     8  H   -0.000008   0.000000  -0.000002   0.000001   0.000000   0.000001
     9  C    0.002388  -0.000095   0.000024   0.000008   0.000010  -0.000037
    10  H    0.000071   0.000001  -0.000008  -0.000002   0.000000   0.000000
    11  C   -0.000247   0.000055  -0.000010   0.000001   0.000000  -0.000002
    12  H    0.000020   0.000000  -0.000004   0.000000   0.000000   0.000003
    13  H   -0.000007  -0.000016  -0.000002   0.000000   0.000000   0.000001
    14  H    0.000002  -0.000001   0.000000   0.000000   0.000000   0.000000
    15  C   -0.017252   0.000922  -0.001403   0.000976   0.000154   0.000410
    16  O    0.002650  -0.000018  -0.006649   0.000088   0.000607   0.000066
    17  N    0.170837  -0.053566  -0.035385  -0.001717   0.003751  -0.002317
    18  H   -0.023792  -0.001189   0.002767  -0.000087  -0.000085  -0.000080
    19  C    5.028787   0.421890   0.354837  -0.030441  -0.036968  -0.035463
    20  H    0.421890   0.538641  -0.036126   0.003832  -0.002201  -0.003298
    21  C    0.354837  -0.036126   5.071409   0.393546   0.380431   0.395344
    22  H   -0.030441   0.003832   0.393546   0.453903  -0.023201  -0.021154
    23  H   -0.036968  -0.002201   0.380431  -0.023201   0.549336  -0.027057
    24  H   -0.035463  -0.003298   0.395344  -0.021154  -0.027057   0.498188
    25  C    0.358167  -0.067353  -0.046386  -0.005994  -0.004593   0.004851
    26  O   -0.070809   0.002504   0.001393   0.005419   0.000146   0.000155
    27  N   -0.109382   0.007487   0.002082   0.000281   0.000235  -0.000071
    28  H   -0.000728   0.002157  -0.000045  -0.000003  -0.000014  -0.000005
    29  C    0.005521  -0.000068  -0.000126  -0.000005  -0.000017   0.000002
    30  H    0.000164  -0.000031   0.000021  -0.000002  -0.000006   0.000000
    31  C   -0.000460   0.000015  -0.000001   0.000000   0.000001   0.000000
    32  H   -0.000004  -0.000001   0.000000   0.000000   0.000000   0.000000
    33  H    0.000005   0.000000   0.000000   0.000000   0.000000   0.000000
    34  H    0.000098  -0.000006  -0.000001  -0.000001   0.000000   0.000000
    35  C   -0.000022  -0.000060   0.000000   0.000000   0.000000   0.000000
    36  O   -0.000062  -0.000027   0.000000   0.000000   0.000000   0.000000
    37  N    0.000000   0.000000   0.000000   0.000000   0.000000   0.000000
    38  H    0.000000   0.000000   0.000000   0.000000   0.000000   0.000000
    39  C    0.000000   0.000000   0.000000   0.000000   0.000000   0.000000
    40  H    0.000000   0.000000   0.000000   0.000000   0.000000   0.000000
    41  H    0.000000   0.000000   0.000000   0.000000   0.000000   0.000000
    42  H    0.000000   0.000000   0.000000   0.000000   0.000000   0.000000
             25         26         27         28         29         30
     1  H    0.000000   0.000000   0.000000   0.000000   0.000000   0.000000
     2  C    0.000000   0.000000   0.000000   0.000000   0.000000   0.000000
     3  H    0.000000   0.000000   0.000000   0.000000   0.000000   0.000000
     4  H    0.000000   0.000000   0.000000   0.000000   0.000000   0.000000
     5  C    0.000000   0.000000   0.000000   0.000000   0.000000   0.000000
     6  O    0.000000   0.000000   0.000000   0.000000   0.000000   0.000000
     7  N    0.000003   0.000000   0.000000   0.000000   0.000000   0.000000
     8  H    0.000001   0.000000   0.000000   0.000000   0.000000   0.000000
     9  C   -0.000177   0.000002  -0.000011   0.000000   0.000000   0.000000
    10  H    0.000010   0.000003  -0.000004   0.000000   0.000000   0.000000
    11  C   -0.000001   0.000000   0.000000   0.000000   0.000000   0.000000
    12  H    0.000000   0.000000   0.000000   0.000000   0.000000   0.000000
    13  H    0.000005   0.000000  -0.000001   0.000000   0.000000   0.000000
    14  H    0.000000   0.000000   0.000000   0.000000   0.000000   0.000000
    15  C   -0.000593   0.000687   0.000148  -0.000003  -0.000005   0.000000
    16  O   -0.000330  -0.000026  -0.000002   0.000000   0.000000   0.000000
    17  N   -0.062635   0.001084   0.000337   0.000262  -0.000280  -0.000013
    18  H   -0.002892  -0.000197   0.004840   0.000131  -0.000132   0.000007
    19  C    0.358167  -0.070809  -0.109382  -0.000728   0.005521   0.000164
    20  H   -0.067353   0.002504   0.007487   0.002157  -0.000068  -0.000031
    21  C   -0.046386   0.001393   0.002082  -0.000045  -0.000126   0.000021
    22  H   -0.005994   0.005419   0.000281  -0.000003  -0.000005  -0.000002
    23  H   -0.004593   0.000146   0.000235  -0.000014  -0.000017  -0.000006
    24  H    0.004851   0.000155  -0.000071  -0.000005   0.000002   0.000000
    25  C    4.234599   0.592743   0.260319  -0.014379  -0.028863  -0.000987
    26  O    0.592743   8.168304  -0.106983   0.001921   0.010515   0.006349
    27  N    0.260319  -0.106983   7.440618   0.306657   0.191052  -0.043562
    28  H   -0.014379   0.001921   0.306657   0.285673  -0.028910   0.002695
    29  C   -0.028863   0.010515   0.191052  -0.028910   5.052653   0.410898
    30  H   -0.000987   0.006349  -0.043562   0.002695   0.410898   0.483366
    31  C   -0.001691  -0.004055  -0.063798   0.002788   0.337504  -0.040833
    32  H    0.000148  -0.000008   0.000439   0.000393  -0.038649   0.004007
    33  H    0.000013   0.000003   0.004641  -0.000065  -0.037617   0.000069
    34  H    0.001993   0.004523  -0.005573  -0.000170  -0.029475  -0.003624
    35  C    0.003455   0.000471  -0.040580  -0.007853   0.377453  -0.041916
    36  O    0.000481  -0.000004  -0.011020   0.025880  -0.075825   0.001628
    37  N   -0.000090  -0.000001   0.002574   0.001112  -0.117365   0.003471
    38  H   -0.000004   0.000000   0.000013  -0.000033   0.000521   0.001154
    39  C    0.000001   0.000000  -0.000076  -0.000034   0.004302  -0.000114
    40  H    0.000000   0.000000  -0.000003  -0.000004   0.000152  -0.000001
    41  H    0.000000   0.000000   0.000005   0.000001  -0.000167  -0.000001
    42  H    0.000000   0.000000   0.000000   0.000000   0.000005  -0.000010
             31         32         33         34         35         36
     1  H    0.000000   0.000000   0.000000   0.000000   0.000000   0.000000
     2  C    0.000000   0.000000   0.000000   0.000000   0.000000   0.000000
     3  H    0.000000   0.000000   0.000000   0.000000   0.000000   0.000000
     4  H    0.000000   0.000000   0.000000   0.000000   0.000000   0.000000
     5  C    0.000000   0.000000   0.000000   0.000000   0.000000   0.000000
     6  O    0.000000   0.000000   0.000000   0.000000   0.000000   0.000000
     7  N    0.000000   0.000000   0.000000   0.000000   0.000000   0.000000
     8  H    0.000000   0.000000   0.000000   0.000000   0.000000   0.000000
     9  C    0.000000   0.000000   0.000000   0.000000   0.000000   0.000000
    10  H    0.000000   0.000000   0.000000   0.000001   0.000000   0.000000
    11  C    0.000000   0.000000   0.000000   0.000000   0.000000   0.000000
    12  H    0.000000   0.000000   0.000000   0.000000   0.000000   0.000000
    13  H    0.000000   0.000000   0.000000   0.000000   0.000000   0.000000
    14  H    0.000000   0.000000   0.000000   0.000000   0.000000   0.000000
    15  C    0.000002   0.000000   0.000000   0.000000   0.000000   0.000000
    16  O    0.000000   0.000000   0.000000   0.000000   0.000000   0.000000
    17  N    0.000083  -0.000007   0.000000  -0.000020  -0.000002   0.000000
    18  H    0.000013   0.000041   0.000000   0.000010   0.000001  -0.000003
    19  C   -0.000460  -0.000004   0.000005   0.000098  -0.000022  -0.000062
    20  H    0.000015  -0.000001   0.000000  -0.000006  -0.000060  -0.000027
    21  C   -0.000001   0.000000   0.000000  -0.000001   0.000000   0.000000
    22  H    0.000000   0.000000   0.000000  -0.000001   0.000000   0.000000
    23  H    0.000001   0.000000   0.000000   0.000000   0.000000   0.000000
    24  H    0.000000   0.000000   0.000000   0.000000   0.000000   0.000000
    25  C   -0.001691   0.000148   0.000013   0.001993   0.003455   0.000481
    26  O   -0.004055  -0.000008   0.000003   0.004523   0.000471  -0.000004
    27  N   -0.063798   0.000439   0.004641  -0.005573  -0.040580  -0.011020
    28  H    0.002788   0.000393  -0.000065  -0.000170  -0.007853   0.025880
    29  C    0.337504  -0.038649  -0.037617  -0.029475   0.377453  -0.075825
    30  H   -0.040833   0.004007   0.000069  -0.003624  -0.041916   0.001628
    31  C    5.142939   0.388450   0.382825   0.391759  -0.052646  -0.000762
    32  H    0.388450   0.517788  -0.024530  -0.023286  -0.004017   0.001286
    33  H    0.382825  -0.024530   0.536549  -0.022662  -0.003293   0.000017
    34  H    0.391759  -0.023286  -0.022662   0.469125   0.004134  -0.000071
    35  C   -0.052646  -0.004017  -0.003293   0.004134   4.158680   0.597735
    36  O   -0.000762   0.001286   0.000017  -0.000071   0.597735   8.181999
    37  N    0.002324   0.000394   0.002185  -0.000040   0.285633  -0.104262
    38  H    0.000375   0.000004   0.000696  -0.000040  -0.022389   0.002517
    39  C   -0.000245  -0.000012   0.000000   0.000003  -0.028749   0.008401
    40  H   -0.000005   0.000003  -0.000010   0.000000  -0.003043   0.002990
    41  H   -0.000004   0.000000   0.000003   0.000000  -0.003790   0.001242
    42  H    0.000002  -0.000001  -0.000007   0.000000   0.004541   0.000354
             37         38         39         40         41         42
     1  H    0.000000   0.000000   0.000000   0.000000   0.000000   0.000000
     2  C    0.000000   0.000000   0.000000   0.000000   0.000000   0.000000
     3  H    0.000000   0.000000   0.000000   0.000000   0.000000   0.000000
     4  H    0.000000   0.000000   0.000000   0.000000   0.000000   0.000000
     5  C    0.000000   0.000000   0.000000   0.000000   0.000000   0.000000
     6  O    0.000000   0.000000   0.000000   0.000000   0.000000   0.000000
     7  N    0.000000   0.000000   0.000000   0.000000   0.000000   0.000000
     8  H    0.000000   0.000000   0.000000   0.000000   0.000000   0.000000
     9  C    0.000000   0.000000   0.000000   0.000000   0.000000   0.000000
    10  H    0.000000   0.000000   0.000000   0.000000   0.000000   0.000000
    11  C    0.000000   0.000000   0.000000   0.000000   0.000000   0.000000
    12  H    0.000000   0.000000   0.000000   0.000000   0.000000   0.000000
    13  H    0.000000   0.000000   0.000000   0.000000   0.000000   0.000000
    14  H    0.000000   0.000000   0.000000   0.000000   0.000000   0.000000
    15  C    0.000000   0.000000   0.000000   0.000000   0.000000   0.000000
    16  O    0.000000   0.000000   0.000000   0.000000   0.000000   0.000000
    17  N    0.000000   0.000000   0.000000   0.000000   0.000000   0.000000
    18  H    0.000000   0.000000   0.000000   0.000000   0.000000   0.000000
    19  C    0.000000   0.000000   0.000000   0.000000   0.000000   0.000000
    20  H    0.000000   0.000000   0.000000   0.000000   0.000000   0.000000
    21  C    0.000000   0.000000   0.000000   0.000000   0.000000   0.000000
    22  H    0.000000   0.000000   0.000000   0.000000   0.000000   0.000000
    23  H    0.000000   0.000000   0.000000   0.000000   0.000000   0.000000
    24  H    0.000000   0.000000   0.000000   0.000000   0.000000   0.000000
    25  C   -0.000090  -0.000004   0.000001   0.000000   0.000000   0.000000
    26  O   -0.000001   0.000000   0.000000   0.000000   0.000000   0.000000
    27  N    0.002574   0.000013  -0.000076  -0.000003   0.000005   0.000000
    28  H    0.001112  -0.000033  -0.000034  -0.000004   0.000001   0.000000
    29  C   -0.117365   0.000521   0.004302   0.000152  -0.000167   0.000005
    30  H    0.003471   0.001154  -0.000114  -0.000001  -0.000001  -0.000010
    31  C    0.002324   0.000375  -0.000245  -0.000005  -0.000004   0.000002
    32  H    0.000394   0.000004  -0.000012   0.000003   0.000000  -0.000001
    33  H    0.002185   0.000696   0.000000  -0.000010   0.000003  -0.000007
    34  H   -0.000040  -0.000040   0.000003   0.000000   0.000000   0.000000
    35  C    0.285633  -0.022389  -0.028749  -0.003043  -0.003790   0.004541
    36  O   -0.104262   0.002517   0.008401   0.002990   0.001242   0.000354
    37  N    7.323761   0.328578   0.193669  -0.040731  -0.045302  -0.036869
    38  H    0.328578   0.319476  -0.021983   0.002471   0.001379  -0.004582
    39  C    0.193669  -0.021983   4.909643   0.404387   0.406328   0.397496
    40  H   -0.040731   0.002471   0.404387   0.488152  -0.032765  -0.024900
    41  H   -0.045302   0.001379   0.406328  -0.032765   0.517198  -0.030443
    42  H   -0.036869  -0.004582   0.397496  -0.024900  -0.030443   0.520293
 Mulliken atomic charges:
              1
     1  H    0.206407
     2  C   -0.575210
     3  H    0.203581
     4  H    0.173461
     5  C    0.756234
     6  O   -0.624467
     7  N   -0.822507
     8  H    0.420211
     9  C   -0.036559
    10  H    0.214989
    11  C   -0.484909
    12  H    0.178493
    13  H    0.154749
    14  H    0.212760
    15  C    0.802232
    16  O   -0.624911
    17  N   -0.838151
    18  H    0.391063
    19  C   -0.019733
    20  H    0.186551
    21  C   -0.475710
    22  H    0.224553
    23  H    0.159472
    24  H    0.190463
    25  C    0.780179
    26  O   -0.614137
    27  N   -0.840662
    28  H    0.422574
    29  C   -0.033072
    30  H    0.217272
    31  C   -0.484580
    32  H    0.177560
    33  H    0.161176
    34  H    0.213324
    35  C    0.776257
    36  O   -0.632492
    37  N   -0.799039
    38  H    0.391849
    39  C   -0.273017
    40  H    0.203308
    41  H    0.186317
    42  H    0.174119
 Sum of Mulliken atomic charges =   0.00000
 Mulliken charges with hydrogens summed into heavy atoms:
              1
     2  C    0.008240
     5  C    0.756234
     6  O   -0.624467
     7  N   -0.402295
     9  C    0.178431
    11  C    0.061094
    15  C    0.802232
    16  O   -0.624911
    17  N   -0.447089
    19  C    0.166819
    21  C    0.098778
    25  C    0.780179
    26  O   -0.614137
    27  N   -0.418088
    29  C    0.184200
    31  C    0.067480
    35  C    0.776257
    36  O   -0.632492
    37  N   -0.407191
    39  C    0.290728
 Sum of Mulliken charges with hydrogens summed into heavy atoms =   0.00000
 Electronic spatial extent (au):  <R**2>=           9799.6775
 Charge=              0.0000 electrons
 Dipole moment (field-independent basis, Debye):
    X=             -4.9372    Y=              0.0554    Z=             -0.0266  Tot=              4.9376
 Quadrupole moment (field-independent basis, Debye-Ang):
   XX=            -92.5951   YY=           -132.0295   ZZ=           -124.3921
   XY=             12.9752   XZ=              7.1946   YZ=              8.9244
 Traceless Quadrupole moment (field-independent basis, Debye-Ang):
   XX=             23.7438   YY=            -15.6906   ZZ=             -8.0532
   XY=             12.9752   XZ=              7.1946   YZ=              8.9244
 Octapole moment (field-independent basis, Debye-Ang**2):
  XXX=           -162.4506  YYY=             29.3655  ZZZ=              0.7229  XYY=            -70.5299
  XXY=              2.3837  XXZ=           -102.0432  XZZ=             20.4311  YZZ=            -11.0739
  YYZ=              0.4025  XYZ=              1.9624
 Hexadecapole moment (field-independent basis, Debye-Ang**3):
 XXXX=          -8442.4813 YYYY=          -1613.1232 ZZZZ=           -827.3286 XXXY=            422.3838
 XXXZ=             77.1209 YYYX=            110.0398 YYYZ=              7.9284 ZZZX=             19.8024
 ZZZY=             15.8086 XXYY=          -2202.0851 XXZZ=          -1827.3451 YYZZ=           -384.0263
 XXYZ=            103.9800 YYXZ=            -31.2455 ZZXY=              1.6271
 N-N= 1.596689435838D+03 E-N=-5.501190285694D+03  KE= 9.830815577994D+02
 1\1\GINC-NODE007\FOpt\RHF\6-31G(d)\C12H22N4O4\MANAGER\26-Dec-2016\0\\#
  HF/6-31G* Opt=(ModRedundant, maxcycles=1000, calcfc) geom=nocrowd\\Ph
 i Psi fixed scan\\0,1\H,4.4703931119,1.2461270979,3.4528936208\C,4.797
 1049141,2.2740037596,3.5368172288\H,5.6991259896,2.2883691952,4.139065
 7276\H,4.0346692155,2.8579345725,4.0378241708\C,5.1330023849,2.7913506
 916,2.154970835\O,5.7539072504,2.1274291336,1.3655210823\N,4.713376574
 6,4.0423327095,1.8788887194\H,4.2296690927,4.5878457864,2.5563879939\C
 ,5.0240167939,4.698573951,0.6333019865\H,6.0348008669,4.4303782242,0.3
 526318395\C,4.0657842113,4.2811420681,-0.4908149601\H,3.0470235126,4.5
 526997521,-0.2365588391\H,4.3246917051,4.75669808,-1.4316380671\H,4.12
 11831609,3.2088807721,-0.6232491427\C,4.9328822211,6.2069423673,0.8755
 641052\O,4.2637575344,6.6437983181,1.7720854623\N,5.6261119732,6.94498
 95585,-0.0194915758\H,6.1534303315,6.4296581297,-0.688580387\C,5.73714
 75982,8.3974402057,-0.1561969153\H,5.4324428145,8.6375280499,-1.171117
 1102\C,4.890577361,9.2251110357,0.8029196852\H,5.1921776439,9.07199871
 89,1.8257611007\H,5.0309104769,10.271202339,0.5498151131\H,3.842881006
 1,8.9816342161,0.7045541594\C,7.2239171731,8.745274345,0.0020713874\O,
 7.7236868441,8.9502720781,1.0743050788\N,7.9289762102,8.7474580049,-1.
 1478425591\H,7.4761561183,8.6959659979,-2.033831563\C,9.3390728526,9.0
 586909777,-1.1822964566\H,9.5327483676,9.8496112619,-0.4675468806\C,10
 .201967247,7.8418246491,-0.8243063476\H,10.0426511669,7.0424722718,-1.
 5398907487\H,11.2573162602,8.0928078474,-0.8194362623\H,9.9302831631,7
 .490605216,0.1623405498\C,9.6587054873,9.5545038798,-2.5907656347\O,8.
 9224913852,9.3308628364,-3.5175038758\N,10.8196147314,10.2167971487,-2
 .7256870183\H,11.3398510828,10.4508441724,-1.9123077144\C,11.255497658
 2,10.7375292653,-4.0059026148\H,11.202546724,9.9638124772,-4.758277743
 \H,10.6413118612,11.5710492601,-4.3257633756\H,12.2804379217,11.069349
 5775,-3.9123140548\\Version=EM64L-G09RevA.02\State=1-A\HF=-984.5527337
 \RMSD=6.820e-09\RMSF=1.794e-04\Dipole=1.1015943,1.3171942,-0.9084259\Q
 uadrupole=13.8113232,-8.0759331,-5.7353901,12.826065,-5.4477638,-8.298
 0003\PG=C01 [X(C12H22N4O4)]\\@


 WE MIGHT AS WELL ATTEMPT TO INTRODUCE A NEW PLANET 
 INTO THE SOLAR SYSTEM, OR TO ANNIHILATE ONE ALREADYIN EXISTENCE, 
 AS TO CREATE OR DESTROY A PARTICLE OF HYDROGEN.
 ALL THE CHANGES WE CAN PRODUCE CONSIST IN SEPARATING PARTICLES
 THAT ARE IN A STATE OF ... COMBINATION, AND JOINING 
 THOSE THAT WERE PREVIOUSLY AT A DISTANCE.

                                    -- JOHN DALTON, 1810
 Job cpu time:  0 days  2 hours  3 minutes 14.2 seconds.
 File lengths (MBytes):  RWF=    553 Int=      0 D2E=      0 Chk=     11 Scr=      1
 Normal termination of Gaussian 09 at Mon Dec 26 15:12:37 2016.
