 Entering Gaussian System, Link 0=g09
 Initial command:
 /home/steboss/Software/g09/l1.exe /tmp/Gau-32480.inp -scrdir=/tmp/
 Entering Link 1 = /home/steboss/Software/g09/l1.exe PID=     32482.
  
 Copyright (c) 1988,1990,1992,1993,1995,1998,2003,2009, Gaussian, Inc.
                  All Rights Reserved.
  
 This is part of the Gaussian(R) 09 program.  It is based on
 the Gaussian(R) 03 system (copyright 2003, Gaussian, Inc.),
 the Gaussian(R) 98 system (copyright 1998, Gaussian, Inc.),
 the Gaussian(R) 94 system (copyright 1995, Gaussian, Inc.),
 the Gaussian 92(TM) system (copyright 1992, Gaussian, Inc.),
 the Gaussian 90(TM) system (copyright 1990, Gaussian, Inc.),
 the Gaussian 88(TM) system (copyright 1988, Gaussian, Inc.),
 the Gaussian 86(TM) system (copyright 1986, Carnegie Mellon
 University), and the Gaussian 82(TM) system (copyright 1983,
 Carnegie Mellon University). Gaussian is a federally registered
 trademark of Gaussian, Inc.
  
 This software contains proprietary and confidential information,
 including trade secrets, belonging to Gaussian, Inc.
  
 This software is provided under written license and may be
 used, copied, transmitted, or stored only in accord with that
 written license.
  
 The following legend is applicable only to US Government
 contracts under FAR:
  
                    RESTRICTED RIGHTS LEGEND
  
 Use, reproduction and disclosure by the US Government is
 subject to restrictions as set forth in subparagraphs (a)
 and (c) of the Commercial Computer Software - Restricted
 Rights clause in FAR 52.227-19.
  
 Gaussian, Inc.
 340 Quinnipiac St., Bldg. 40, Wallingford CT 06492
  
  
 ---------------------------------------------------------------
 Warning -- This program may not be used in any manner that
 competes with the business of Gaussian, Inc. or will provide
 assistance to any competitor of Gaussian, Inc.  The licensee
 of this program is prohibited from giving any competitor of
 Gaussian, Inc. access to this program.  By using this program,
 the user acknowledges that Gaussian, Inc. is engaged in the
 business of creating and licensing software in the field of
 computational chemistry and represents and warrants to the
 licensee that it is not a competitor of Gaussian, Inc. and that
 it will not use this program in any manner prohibited above.
 ---------------------------------------------------------------
  

 Cite this work as:
 Gaussian 09, Revision A.02,
 M. J. Frisch, G. W. Trucks, H. B. Schlegel, G. E. Scuseria, 
 M. A. Robb, J. R. Cheeseman, G. Scalmani, V. Barone, B. Mennucci, 
 G. A. Petersson, H. Nakatsuji, M. Caricato, X. Li, H. P. Hratchian, 
 A. F. Izmaylov, J. Bloino, G. Zheng, J. L. Sonnenberg, M. Hada, 
 M. Ehara, K. Toyota, R. Fukuda, J. Hasegawa, M. Ishida, T. Nakajima, 
 Y. Honda, O. Kitao, H. Nakai, T. Vreven, J. A. Montgomery, Jr., 
 J. E. Peralta, F. Ogliaro, M. Bearpark, J. J. Heyd, E. Brothers, 
 K. N. Kudin, V. N. Staroverov, R. Kobayashi, J. Normand, 
 K. Raghavachari, A. Rendell, J. C. Burant, S. S. Iyengar, J. Tomasi, 
 M. Cossi, N. Rega, J. M. Millam, M. Klene, J. E. Knox, J. B. Cross, 
 V. Bakken, C. Adamo, J. Jaramillo, R. Gomperts, R. E. Stratmann, 
 O. Yazyev, A. J. Austin, R. Cammi, C. Pomelli, J. W. Ochterski, 
 R. L. Martin, K. Morokuma, V. G. Zakrzewski, G. A. Voth, 
 P. Salvador, J. J. Dannenberg, S. Dapprich, A. D. Daniels, 
 O. Farkas, J. B. Foresman, J. V. Ortiz, J. Cioslowski, 
 and D. J. Fox, Gaussian, Inc., Wallingford CT, 2009.
 
 ******************************************
 Gaussian 09:  EM64L-G09RevA.02 11-Jun-2009
                26-Dec-2016 
 ******************************************
 %chk=structure_30.chk
 -------------------------------------------------------------------
 # HF/6-31G* Opt=(ModRedundant, maxcycles=1000, calcfc) geom=nocrowd
 -------------------------------------------------------------------
 1/6=1000,10=4,18=120,19=15,38=1/1,3;
 2/9=110,12=1,17=6,18=5,40=1/2;
 3/5=1,6=6,7=1,11=9,16=1,25=1,30=1,71=2/1,2,3;
 4//1;
 5/5=2,38=5/2;
 8/6=4,10=90,11=11/1;
 11/6=1,8=1,9=11,15=111,16=1/1,2,10;
 10/6=1,7=6,13=1/2;
 6/7=2,8=2,9=2,10=2,28=1/1;
 7/10=1,18=20,25=1/1,2,3,16;
 1/6=1000,10=4,18=20,19=15/3(2);
 2/9=110,12=1/2;
 99//99;
 2/9=110,12=1/2;
 3/5=1,6=6,7=1,11=9,16=1,25=1,30=1,71=1/1,2,3;
 4/5=5,16=3/1;
 5/5=2,38=5/2;
 7//1,2,3,16;
 1/6=1000,18=20,19=15/3(-5);
 2/9=110,12=1/2;
 6/7=2,8=2,9=2,10=2,19=2,28=1/1;
 99/9=1/99;
 ------------------
 Phi Psi fixed scan
 ------------------
 Symbolic Z-matrix:
 Charge =  0 Multiplicity = 1
 H                     2.5153    1.       -1.923 
 C                     2.5153    2.09     -1.923 
 H                     1.6255    2.4539   -1.4093 
 H                     2.5153    2.4539   -2.9505 
 C                     3.7515    2.6408   -1.2093 
 O                     4.5856    1.8774   -0.7277 
 N                     3.8623    3.9697   -1.1453 
 H                     3.1502    4.5562   -1.5565 
 C                     4.9863    4.6139   -0.4964 
 H                     5.0214    4.3155    0.5514 
 C                     6.3021    4.2208   -1.1594 
 H                     6.2857    4.5214   -2.2071 
 H                     7.1283    4.7189   -0.652 
 H                     6.4342    3.1409   -1.0938 
 C                     4.8645    6.1294   -0.5667 
 O                     3.9015    6.6527   -1.1227 
 N                     5.846     6.8349    0. 
 H                     6.6176    6.3592    0.4455 
 C                     5.8461    8.2839    0. 
 H                     5.3323    8.6477   -0.8898 
 C                     5.1347    8.8329    1.2322 
 H                     5.6431    8.4846    2.1312 
 H                     5.1499    9.9224    1.2058 
 H                     4.1019    8.4846    1.2414 
 C                     7.266     8.8318    0. 
 O                     7.5178    9.9119    0.5295 
 N                     8.1958    8.0825   -0.5969 
 H                     7.94      7.2011   -1.0185 
 C                     9.5836    8.4938   -0.6638 
 H                     9.6567    9.4425   -1.1954 
 C                     10.1717   8.6708    0.7321 
 H                     10.114    7.7266    1.2737 
 H                     11.2139   8.9796    0.6514 
 H                     9.6082    9.4329    1.2704 
 C                     10.4268   7.4597   -1.396 
 O                     9.9117    6.4362   -1.8403 
 N                     11.7283   7.7297   -1.5211 
 H                     12.1056   8.585    -1.1388 
 C                     12.6364   6.8252   -2.197 
 H                     12.0854   5.9542   -2.5517 
 H                     13.0938   7.3352   -3.0449 
 H                     13.4141   6.505    -1.5037 
 
 The following ModRedundant input section has been read:
 D   15   17   19   25 F                                                       
 D   17   19   25   27 F                                                       

 GradGradGradGradGradGradGradGradGradGradGradGradGradGradGradGradGradGrad
 Berny optimization.
 Initialization pass.
                           ----------------------------
                           !    Initial Parameters    !
                           ! (Angstroms and Degrees)  !
 --------------------------                            --------------------------
 ! Name  Definition              Value          Derivative Info.                !
 --------------------------------------------------------------------------------
 ! R1    R(1,2)                  1.09           calculate D2E/DX2 analytically  !
 ! R2    R(2,3)                  1.09           calculate D2E/DX2 analytically  !
 ! R3    R(2,4)                  1.09           calculate D2E/DX2 analytically  !
 ! R4    R(2,5)                  1.53           calculate D2E/DX2 analytically  !
 ! R5    R(5,6)                  1.229          calculate D2E/DX2 analytically  !
 ! R6    R(5,7)                  1.335          calculate D2E/DX2 analytically  !
 ! R7    R(7,8)                  1.01           calculate D2E/DX2 analytically  !
 ! R8    R(7,9)                  1.4489         calculate D2E/DX2 analytically  !
 ! R9    R(9,10)                 1.09           calculate D2E/DX2 analytically  !
 ! R10   R(9,11)                 1.5249         calculate D2E/DX2 analytically  !
 ! R11   R(9,15)                 1.522          calculate D2E/DX2 analytically  !
 ! R12   R(11,12)                1.0901         calculate D2E/DX2 analytically  !
 ! R13   R(11,13)                1.09           calculate D2E/DX2 analytically  !
 ! R14   R(11,14)                1.0899         calculate D2E/DX2 analytically  !
 ! R15   R(15,16)                1.229          calculate D2E/DX2 analytically  !
 ! R16   R(15,17)                1.335          calculate D2E/DX2 analytically  !
 ! R17   R(17,18)                1.01           calculate D2E/DX2 analytically  !
 ! R18   R(17,19)                1.449          calculate D2E/DX2 analytically  !
 ! R19   R(19,20)                1.09           calculate D2E/DX2 analytically  !
 ! R20   R(19,21)                1.5251         calculate D2E/DX2 analytically  !
 ! R21   R(19,25)                1.5219         calculate D2E/DX2 analytically  !
 ! R22   R(21,22)                1.0899         calculate D2E/DX2 analytically  !
 ! R23   R(21,23)                1.0899         calculate D2E/DX2 analytically  !
 ! R24   R(21,24)                1.09           calculate D2E/DX2 analytically  !
 ! R25   R(25,26)                1.229          calculate D2E/DX2 analytically  !
 ! R26   R(25,27)                1.335          calculate D2E/DX2 analytically  !
 ! R27   R(27,28)                1.01           calculate D2E/DX2 analytically  !
 ! R28   R(27,29)                1.449          calculate D2E/DX2 analytically  !
 ! R29   R(29,30)                1.0899         calculate D2E/DX2 analytically  !
 ! R30   R(29,31)                1.525          calculate D2E/DX2 analytically  !
 ! R31   R(29,35)                1.522          calculate D2E/DX2 analytically  !
 ! R32   R(31,32)                1.09           calculate D2E/DX2 analytically  !
 ! R33   R(31,33)                1.09           calculate D2E/DX2 analytically  !
 ! R34   R(31,34)                1.09           calculate D2E/DX2 analytically  !
 ! R35   R(35,36)                1.2289         calculate D2E/DX2 analytically  !
 ! R36   R(35,37)                1.3351         calculate D2E/DX2 analytically  !
 ! R37   R(37,38)                1.01           calculate D2E/DX2 analytically  !
 ! R38   R(37,39)                1.449          calculate D2E/DX2 analytically  !
 ! R39   R(39,40)                1.09           calculate D2E/DX2 analytically  !
 ! R40   R(39,41)                1.0901         calculate D2E/DX2 analytically  !
 ! R41   R(39,42)                1.09           calculate D2E/DX2 analytically  !
 ! A1    A(1,2,3)              109.5032         calculate D2E/DX2 analytically  !
 ! A2    A(1,2,4)              109.5021         calculate D2E/DX2 analytically  !
 ! A3    A(1,2,5)              111.1            calculate D2E/DX2 analytically  !
 ! A4    A(3,2,4)              109.4387         calculate D2E/DX2 analytically  !
 ! A5    A(3,2,5)              108.6357         calculate D2E/DX2 analytically  !
 ! A6    A(4,2,5)              108.6341         calculate D2E/DX2 analytically  !
 ! A7    A(2,5,6)              120.4994         calculate D2E/DX2 analytically  !
 ! A8    A(2,5,7)              116.5999         calculate D2E/DX2 analytically  !
 ! A9    A(6,5,7)              122.9007         calculate D2E/DX2 analytically  !
 ! A10   A(5,7,8)              119.9983         calculate D2E/DX2 analytically  !
 ! A11   A(5,7,9)              121.8976         calculate D2E/DX2 analytically  !
 ! A12   A(8,7,9)              118.1041         calculate D2E/DX2 analytically  !
 ! A13   A(7,9,10)             109.4973         calculate D2E/DX2 analytically  !
 ! A14   A(7,9,11)             111.1021         calculate D2E/DX2 analytically  !
 ! A15   A(7,9,15)             111.0961         calculate D2E/DX2 analytically  !
 ! A16   A(10,9,11)            108.6373         calculate D2E/DX2 analytically  !
 ! A17   A(10,9,15)            108.6363         calculate D2E/DX2 analytically  !
 ! A18   A(11,9,15)            107.7971         calculate D2E/DX2 analytically  !
 ! A19   A(9,11,12)            109.4995         calculate D2E/DX2 analytically  !
 ! A20   A(9,11,13)            109.5016         calculate D2E/DX2 analytically  !
 ! A21   A(9,11,14)            109.5009         calculate D2E/DX2 analytically  !
 ! A22   A(12,11,13)           109.4378         calculate D2E/DX2 analytically  !
 ! A23   A(12,11,14)           109.4443         calculate D2E/DX2 analytically  !
 ! A24   A(13,11,14)           109.4433         calculate D2E/DX2 analytically  !
 ! A25   A(9,15,16)            120.5033         calculate D2E/DX2 analytically  !
 ! A26   A(9,15,17)            116.6002         calculate D2E/DX2 analytically  !
 ! A27   A(16,15,17)           122.8965         calculate D2E/DX2 analytically  !
 ! A28   A(15,17,18)           120.0            calculate D2E/DX2 analytically  !
 ! A29   A(15,17,19)           121.9052         calculate D2E/DX2 analytically  !
 ! A30   A(18,17,19)           118.0948         calculate D2E/DX2 analytically  !
 ! A31   A(17,19,20)           109.4954         calculate D2E/DX2 analytically  !
 ! A32   A(17,19,21)           111.0974         calculate D2E/DX2 analytically  !
 ! A33   A(17,19,25)           111.1042         calculate D2E/DX2 analytically  !
 ! A34   A(20,19,21)           108.6349         calculate D2E/DX2 analytically  !
 ! A35   A(20,19,25)           108.6399         calculate D2E/DX2 analytically  !
 ! A36   A(21,19,25)           107.7944         calculate D2E/DX2 analytically  !
 ! A37   A(19,21,22)           109.4996         calculate D2E/DX2 analytically  !
 ! A38   A(19,21,23)           109.4977         calculate D2E/DX2 analytically  !
 ! A39   A(19,21,24)           109.4988         calculate D2E/DX2 analytically  !
 ! A40   A(22,21,23)           109.4452         calculate D2E/DX2 analytically  !
 ! A41   A(22,21,24)           109.4447         calculate D2E/DX2 analytically  !
 ! A42   A(23,21,24)           109.4412         calculate D2E/DX2 analytically  !
 ! A43   A(19,25,26)           120.5            calculate D2E/DX2 analytically  !
 ! A44   A(19,25,27)           116.5974         calculate D2E/DX2 analytically  !
 ! A45   A(26,25,27)           122.9027         calculate D2E/DX2 analytically  !
 ! A46   A(25,27,28)           120.0038         calculate D2E/DX2 analytically  !
 ! A47   A(25,27,29)           121.8959         calculate D2E/DX2 analytically  !
 ! A48   A(28,27,29)           118.1003         calculate D2E/DX2 analytically  !
 ! A49   A(27,29,30)           109.5007         calculate D2E/DX2 analytically  !
 ! A50   A(27,29,31)           111.1017         calculate D2E/DX2 analytically  !
 ! A51   A(27,29,35)           111.0978         calculate D2E/DX2 analytically  !
 ! A52   A(30,29,31)           108.6355         calculate D2E/DX2 analytically  !
 ! A53   A(30,29,35)           108.6386         calculate D2E/DX2 analytically  !
 ! A54   A(31,29,35)           107.7917         calculate D2E/DX2 analytically  !
 ! A55   A(29,31,32)           109.5023         calculate D2E/DX2 analytically  !
 ! A56   A(29,31,33)           109.502          calculate D2E/DX2 analytically  !
 ! A57   A(29,31,34)           109.501          calculate D2E/DX2 analytically  !
 ! A58   A(32,31,33)           109.4392         calculate D2E/DX2 analytically  !
 ! A59   A(32,31,34)           109.4443         calculate D2E/DX2 analytically  !
 ! A60   A(33,31,34)           109.4385         calculate D2E/DX2 analytically  !
 ! A61   A(29,35,36)           120.5025         calculate D2E/DX2 analytically  !
 ! A62   A(29,35,37)           116.5992         calculate D2E/DX2 analytically  !
 ! A63   A(36,35,37)           122.8984         calculate D2E/DX2 analytically  !
 ! A64   A(35,37,38)           119.9981         calculate D2E/DX2 analytically  !
 ! A65   A(35,37,39)           121.8981         calculate D2E/DX2 analytically  !
 ! A66   A(38,37,39)           118.1038         calculate D2E/DX2 analytically  !
 ! A67   A(37,39,40)           109.4996         calculate D2E/DX2 analytically  !
 ! A68   A(37,39,41)           109.4967         calculate D2E/DX2 analytically  !
 ! A69   A(37,39,42)           109.5019         calculate D2E/DX2 analytically  !
 ! A70   A(40,39,41)           109.4424         calculate D2E/DX2 analytically  !
 ! A71   A(40,39,42)           109.4467         calculate D2E/DX2 analytically  !
 ! A72   A(41,39,42)           109.4399         calculate D2E/DX2 analytically  !
 ! D1    D(1,2,5,6)             -0.0022         calculate D2E/DX2 analytically  !
 ! D2    D(1,2,5,7)           -179.9987         calculate D2E/DX2 analytically  !
 ! D3    D(3,2,5,6)            120.5139         calculate D2E/DX2 analytically  !
 ! D4    D(3,2,5,7)            -59.4827         calculate D2E/DX2 analytically  !
 ! D5    D(4,2,5,6)           -120.5158         calculate D2E/DX2 analytically  !
 ! D6    D(4,2,5,7)             59.4876         calculate D2E/DX2 analytically  !
 ! D7    D(2,5,7,8)             -0.0058         calculate D2E/DX2 analytically  !
 ! D8    D(2,5,7,9)           -179.9989         calculate D2E/DX2 analytically  !
 ! D9    D(6,5,7,8)            179.9977         calculate D2E/DX2 analytically  !
 ! D10   D(6,5,7,9)              0.0046         calculate D2E/DX2 analytically  !
 ! D11   D(5,7,9,10)           -60.0044         calculate D2E/DX2 analytically  !
 ! D12   D(5,7,9,11)            59.997          calculate D2E/DX2 analytically  !
 ! D13   D(5,7,9,15)           179.9991         calculate D2E/DX2 analytically  !
 ! D14   D(8,7,9,10)           120.0023         calculate D2E/DX2 analytically  !
 ! D15   D(8,7,9,11)          -119.9962         calculate D2E/DX2 analytically  !
 ! D16   D(8,7,9,15)             0.0059         calculate D2E/DX2 analytically  !
 ! D17   D(7,9,11,12)           60.0032         calculate D2E/DX2 analytically  !
 ! D18   D(7,9,11,13)          179.9981         calculate D2E/DX2 analytically  !
 ! D19   D(7,9,11,14)          -59.9993         calculate D2E/DX2 analytically  !
 ! D20   D(10,9,11,12)        -179.4858         calculate D2E/DX2 analytically  !
 ! D21   D(10,9,11,13)         -59.4909         calculate D2E/DX2 analytically  !
 ! D22   D(10,9,11,14)          60.5117         calculate D2E/DX2 analytically  !
 ! D23   D(15,9,11,12)         -61.9399         calculate D2E/DX2 analytically  !
 ! D24   D(15,9,11,13)          58.055          calculate D2E/DX2 analytically  !
 ! D25   D(15,9,11,14)         178.0576         calculate D2E/DX2 analytically  !
 ! D26   D(7,9,15,16)           -0.0028         calculate D2E/DX2 analytically  !
 ! D27   D(7,9,15,17)          179.9973         calculate D2E/DX2 analytically  !
 ! D28   D(10,9,15,16)        -120.5094         calculate D2E/DX2 analytically  !
 ! D29   D(10,9,15,17)          59.4906         calculate D2E/DX2 analytically  !
 ! D30   D(11,9,15,16)         121.944          calculate D2E/DX2 analytically  !
 ! D31   D(11,9,15,17)         -58.056          calculate D2E/DX2 analytically  !
 ! D32   D(9,15,17,18)          -0.0005         calculate D2E/DX2 analytically  !
 ! D33   D(9,15,17,19)         179.9968         calculate D2E/DX2 analytically  !
 ! D34   D(16,15,17,18)        179.9995         calculate D2E/DX2 analytically  !
 ! D35   D(16,15,17,19)         -0.0032         calculate D2E/DX2 analytically  !
 ! D36   D(15,17,19,20)        -29.9927         calculate D2E/DX2 analytically  !
 ! D37   D(15,17,19,21)         90.0016         calculate D2E/DX2 analytically  !
 ! D38   D(15,17,19,25)       -149.9974         frozen, calculate D2E/DX2 analyt!
 ! D39   D(18,17,19,20)        150.0046         calculate D2E/DX2 analytically  !
 ! D40   D(18,17,19,21)        -90.0011         calculate D2E/DX2 analytically  !
 ! D41   D(18,17,19,25)         29.9999         calculate D2E/DX2 analytically  !
 ! D42   D(17,19,21,22)         60.0039         calculate D2E/DX2 analytically  !
 ! D43   D(17,19,21,23)       -179.9943         calculate D2E/DX2 analytically  !
 ! D44   D(17,19,21,24)        -59.998          calculate D2E/DX2 analytically  !
 ! D45   D(20,19,21,22)       -179.4919         calculate D2E/DX2 analytically  !
 ! D46   D(20,19,21,23)        -59.4901         calculate D2E/DX2 analytically  !
 ! D47   D(20,19,21,24)         60.5062         calculate D2E/DX2 analytically  !
 ! D48   D(25,19,21,22)        -61.9445         calculate D2E/DX2 analytically  !
 ! D49   D(25,19,21,23)         58.0573         calculate D2E/DX2 analytically  !
 ! D50   D(25,19,21,24)        178.0536         calculate D2E/DX2 analytically  !
 ! D51   D(17,19,25,26)       -149.9976         calculate D2E/DX2 analytically  !
 ! D52   D(17,19,25,27)         30.0017         frozen, calculate D2E/DX2 analyt!
 ! D53   D(20,19,25,26)         89.4907         calculate D2E/DX2 analytically  !
 ! D54   D(20,19,25,27)        -90.5099         calculate D2E/DX2 analytically  !
 ! D55   D(21,19,25,26)        -28.0535         calculate D2E/DX2 analytically  !
 ! D56   D(21,19,25,27)        151.9459         calculate D2E/DX2 analytically  !
 ! D57   D(19,25,27,28)         -0.0011         calculate D2E/DX2 analytically  !
 ! D58   D(19,25,27,29)       -179.9996         calculate D2E/DX2 analytically  !
 ! D59   D(26,25,27,28)        179.9982         calculate D2E/DX2 analytically  !
 ! D60   D(26,25,27,29)         -0.0002         calculate D2E/DX2 analytically  !
 ! D61   D(25,27,29,30)        -60.0016         calculate D2E/DX2 analytically  !
 ! D62   D(25,27,29,31)         59.9997         calculate D2E/DX2 analytically  !
 ! D63   D(25,27,29,35)        179.9959         calculate D2E/DX2 analytically  !
 ! D64   D(28,27,29,30)        120.0            calculate D2E/DX2 analytically  !
 ! D65   D(28,27,29,31)       -119.9988         calculate D2E/DX2 analytically  !
 ! D66   D(28,27,29,35)         -0.0026         calculate D2E/DX2 analytically  !
 ! D67   D(27,29,31,32)         60.0004         calculate D2E/DX2 analytically  !
 ! D68   D(27,29,31,33)        179.9991         calculate D2E/DX2 analytically  !
 ! D69   D(27,29,31,34)        -60.0039         calculate D2E/DX2 analytically  !
 ! D70   D(30,29,31,32)       -179.4857         calculate D2E/DX2 analytically  !
 ! D71   D(30,29,31,33)        -59.487          calculate D2E/DX2 analytically  !
 ! D72   D(30,29,31,34)         60.51           calculate D2E/DX2 analytically  !
 ! D73   D(35,29,31,32)        -61.941          calculate D2E/DX2 analytically  !
 ! D74   D(35,29,31,33)         58.0577         calculate D2E/DX2 analytically  !
 ! D75   D(35,29,31,34)        178.0547         calculate D2E/DX2 analytically  !
 ! D76   D(27,29,35,36)          0.0048         calculate D2E/DX2 analytically  !
 ! D77   D(27,29,35,37)        179.9987         calculate D2E/DX2 analytically  !
 ! D78   D(30,29,35,36)       -120.5087         calculate D2E/DX2 analytically  !
 ! D79   D(30,29,35,37)         59.4852         calculate D2E/DX2 analytically  !
 ! D80   D(31,29,35,36)        121.9486         calculate D2E/DX2 analytically  !
 ! D81   D(31,29,35,37)        -58.0575         calculate D2E/DX2 analytically  !
 ! D82   D(29,35,37,38)          0.0044         calculate D2E/DX2 analytically  !
 ! D83   D(29,35,37,39)       -179.9996         calculate D2E/DX2 analytically  !
 ! D84   D(36,35,37,38)        179.9981         calculate D2E/DX2 analytically  !
 ! D85   D(36,35,37,39)         -0.0059         calculate D2E/DX2 analytically  !
 ! D86   D(35,37,39,40)          0.0057         calculate D2E/DX2 analytically  !
 ! D87   D(35,37,39,41)        120.0034         calculate D2E/DX2 analytically  !
 ! D88   D(35,37,39,42)       -120.0005         calculate D2E/DX2 analytically  !
 ! D89   D(38,37,39,40)       -179.9982         calculate D2E/DX2 analytically  !
 ! D90   D(38,37,39,41)        -60.0005         calculate D2E/DX2 analytically  !
 ! D91   D(38,37,39,42)         59.9956         calculate D2E/DX2 analytically  !
 --------------------------------------------------------------------------------
 Trust Radius=3.00D-01 FncErr=1.00D-07 GrdErr=1.00D-07
 Number of steps in this run= 252 maximum allowed number of steps= 252.
 GradGradGradGradGradGradGradGradGradGradGradGradGradGradGradGradGradGrad

                          Input orientation:                          
 ---------------------------------------------------------------------
 Center     Atomic      Atomic             Coordinates (Angstroms)
 Number     Number       Type             X           Y           Z
 ---------------------------------------------------------------------
      1          1           0        2.515300    1.000000   -1.923000
      2          6           0        2.515300    2.090000   -1.923000
      3          1           0        1.625500    2.453900   -1.409300
      4          1           0        2.515300    2.453900   -2.950500
      5          6           0        3.751500    2.640800   -1.209300
      6          8           0        4.585600    1.877400   -0.727700
      7          7           0        3.862300    3.969700   -1.145300
      8          1           0        3.150200    4.556200   -1.556500
      9          6           0        4.986300    4.613900   -0.496400
     10          1           0        5.021400    4.315500    0.551400
     11          6           0        6.302100    4.220800   -1.159400
     12          1           0        6.285700    4.521400   -2.207100
     13          1           0        7.128300    4.718900   -0.652000
     14          1           0        6.434200    3.140900   -1.093800
     15          6           0        4.864500    6.129400   -0.566700
     16          8           0        3.901500    6.652700   -1.122700
     17          7           0        5.846000    6.834900    0.000000
     18          1           0        6.617600    6.359200    0.445500
     19          6           0        5.846100    8.283900    0.000000
     20          1           0        5.332300    8.647700   -0.889800
     21          6           0        5.134700    8.832900    1.232200
     22          1           0        5.643100    8.484600    2.131200
     23          1           0        5.149900    9.922400    1.205800
     24          1           0        4.101900    8.484600    1.241400
     25          6           0        7.266000    8.831800    0.000000
     26          8           0        7.517800    9.911900    0.529500
     27          7           0        8.195800    8.082500   -0.596900
     28          1           0        7.940000    7.201100   -1.018500
     29          6           0        9.583600    8.493800   -0.663800
     30          1           0        9.656700    9.442500   -1.195400
     31          6           0       10.171700    8.670800    0.732100
     32          1           0       10.114000    7.726600    1.273700
     33          1           0       11.213900    8.979600    0.651400
     34          1           0        9.608200    9.432900    1.270400
     35          6           0       10.426800    7.459700   -1.396000
     36          8           0        9.911700    6.436200   -1.840300
     37          7           0       11.728300    7.729700   -1.521100
     38          1           0       12.105600    8.585000   -1.138800
     39          6           0       12.636400    6.825200   -2.197000
     40          1           0       12.085400    5.954200   -2.551700
     41          1           0       13.093800    7.335200   -3.044900
     42          1           0       13.414100    6.505000   -1.503700
 ---------------------------------------------------------------------
                    Distance matrix (angstroms):
                    1          2          3          4          5
     1  H    0.000000
     2  C    1.090000   0.000000
     3  H    1.780297   1.089979   0.000000
     4  H    1.780332   1.090036   1.779618   0.000000
     5  C    2.174806   1.530013   2.143550   2.143572   0.000000
     6  O    2.546510   2.400017   3.091783   3.091817   1.229000
     7  N    3.352364   2.439774   2.714889   2.714923   1.335046
     8  H    3.630975   2.572851   2.601162   2.601153   2.037368
     9  C    4.604487   3.809344   4.098044   4.098054   2.434354
    10  H    4.836914   4.166058   4.340741   4.691417   2.741775
    11  C    5.029562   4.411717   5.005494   4.546408   3.000742
    12  H    5.166903   4.495368   5.160281   4.363842   3.309748
    13  H    6.060151   5.459517   5.998711   5.629662   4.003981
    14  H    4.541894   4.141225   4.867762   4.390567   2.731359
    15  C    5.802502   4.865701   4.970955   4.970970   3.717800
    16  O    5.874951   4.835314   4.784583   4.784592   4.015637
    17  N    6.988387   6.107828   6.244350   6.244371   4.841468
    18  H    7.152600   6.376890   6.603992   6.604018   4.977890
    19  C    8.236951   7.290854   7.334064   7.334070   6.139571
    20  H    8.215248   7.211548   7.236947   7.109510   6.219635
    21  C    8.841429   7.891973   7.744911   8.065226   6.798255
    22  H    9.068567   8.192105   8.065085   8.483876   6.991930
    23  H    9.815280   8.836119   8.662484   8.943961   7.798072
    24  H    8.279491   7.309011   7.037621   7.513898   6.346551
    25  C    9.359710   8.468704   8.630120   8.482465   7.220983
    26  O   10.510077   9.603222   9.700511   9.631052   8.371221
    27  N    9.175425   8.362815   8.689648   8.335985   7.052584
    28  H    8.288494   7.507918   7.909585   7.462969   6.194859
    29  C   10.378029   9.620556  10.018359   9.574458   8.280614
    30  H   11.081733  10.275614  10.648308  10.144974   9.007480
    31  C   11.158458  10.439202  10.782995  10.527671   9.019363
    32  H   10.639844   9.986511  10.346714  10.167865   8.515401
    33  H   12.081688  11.391214  11.780011  11.455308   9.966444
    34  H   11.472612  10.696972  10.936669  10.808870   9.304970
    35  C   10.227281   9.576181  10.125270   9.490329   8.235064
    36  O    9.179643   8.579221   9.203564   8.473369   7.263008
    37  N   11.416206  10.809584  11.397944  10.712452   9.466967
    38  H   12.252390  11.609214  12.144795  11.525906  10.253266
    39  C   11.680954  11.177382  11.873022  11.050461   9.870471
    40  H   10.794729  10.339928  11.089034  10.197939   9.068327
    41  H   12.381360  11.860668  12.570767  11.650780  10.615337
    42  H   12.217392  11.766558  12.465609  11.717017  10.410790
                    6          7          8          9         10
     6  O    0.000000
     7  N    2.252836   0.000000
     8  H    3.150119   1.010027   0.000000
     9  C    2.775336   1.448945   2.120944   0.000000
    10  H    2.787535   2.083718   2.828881   1.090027   0.000000
    11  C    2.936709   2.452728   3.194473   1.524935   2.139158
    12  H    3.474147   2.702713   3.202476   2.150230   3.041409
    13  H    3.813814   3.386946   4.082875   2.150209   2.459661
    14  H    2.268873   2.702634   3.605804   2.150123   2.466247
    15  C    4.264178   2.450201   2.528535   1.522011   2.136586
    16  O    4.840197   2.683382   2.268909   2.392854   3.085335
    17  N    5.166717   3.668262   3.857785   2.432763   2.707653
    18  H    5.058849   3.978949   4.391090   2.567954   2.595338
    19  C    6.569753   4.884618   4.856575   3.801916   4.090522
    20  H    6.813281   4.910180   4.684701   4.067680   4.576207
    21  C    7.247186   5.560775   5.477705   4.561802   4.569817
    22  H    7.276449   5.855854   5.936835   4.724192   4.501519
    23  H    8.293303   6.528417   6.358082   5.577134   5.646422
    24  H    6.911325   5.112540   4.915924   4.334101   4.324694
    25  C    7.488509   6.044576   6.135410   4.820179   5.073385
    26  O    8.644741   7.174774   7.218784   5.960685   6.127984
    27  N    7.180106   5.999591   6.230064   4.726751   5.058231
    28  H    6.299075   5.204389   5.497920   3.961128   4.394258
    29  C    8.292215   7.309760   7.595409   6.018041   6.304647
    30  H    9.119514   7.970516   8.144990   6.754007   7.129056
    31  C    8.915482   8.089098   8.453939   6.697464   6.747361
    32  H    8.293488   7.684375   8.158185   6.254236   6.171863
    33  H    9.812111   9.075971   9.458570   7.691540   7.753121
    34  H    9.290021   8.288397   8.572009   6.906975   6.909666
    35  C    8.107300   7.438791   7.836133   6.205393   6.549558
    36  O    7.098442   6.569771   7.023733   5.420923   5.842314
    37  N    9.268067   8.726556   9.146374   7.497519   7.806057
    38  H   10.085202   9.447382   9.828779   8.177209   8.442233
    39  C    9.563208   9.286807   9.774794   8.142845   8.475879
    40  H    8.728933   8.575289   9.098496   7.511184   7.887627
    41  H   10.370461  10.007780  10.431364   8.923670   9.338929
    42  H    9.997963   9.889038  10.447404   8.695903   8.913740
                   11         12         13         14         15
    11  C    0.000000
    12  H    1.090094   0.000000
    13  H    1.090030   1.779696   0.000000
    14  H    1.089926   1.779682   1.779620   0.000000
    15  C    2.461857   2.701182   2.668628   3.416566   0.000000
    16  O    3.417362   3.376799   3.791224   4.329913   1.228962
    17  N    2.895817   3.227524   2.558682   3.897180   1.334999
    18  H    2.692211   3.244064   2.038604   3.572189   2.037331
    19  C    4.249815   4.384170   3.844264   5.290814   2.434452
    20  H    4.539894   4.435155   4.326388   5.619666   2.581679
    21  C    5.324851   5.634059   4.944658   6.284731   3.258521
    22  H    5.426078   5.911069   4.912486   6.291390   3.664949
    23  H    6.279329   6.489124   5.868722   7.275048   4.196434
    24  H    5.365138   5.689296   5.188888   6.280757   3.065575
    25  C    4.851251   4.940833   4.166535   5.854454   3.659415
    26  O    6.059615   6.169647   5.339935   7.046682   4.748575
    27  N    4.337653   4.350018   3.529362   5.269683   3.861745
    28  H    3.403639   3.366047   2.637138   4.331089   3.288064
    29  C    5.410397   5.388681   4.503166   6.225525   5.279178
    30  H    6.206512   6.050157   5.385210   7.078488   5.859785
    31  C    6.193067   6.399798   5.176440   6.919726   6.025941
    32  H    5.721992   6.086473   4.654996   6.338346   5.787518
    33  H    7.074670   7.234205   6.045208   7.744784   7.065571
    34  H    6.633266   6.874216   5.662802   7.433235   6.065537
    35  C    5.249724   5.142003   4.352657   5.889330   5.778981
    36  O    4.289619   4.116901   3.479726   4.848636   5.214443
    37  N    6.472005   6.354973   5.565991   7.019057   7.112214
    38  H    7.261355   7.178116   6.321172   7.861617   7.667516
    39  C    6.926967   6.755663   6.096121   7.297835   7.971477
    40  H    6.195945   5.983994   5.450474   6.478904   7.490815
    41  H    7.705958   7.414149   6.939610   8.108589   8.678526
    42  H    7.477744   7.432599   6.589903   7.759136   8.608990
                   16         17         18         19         20
    16  O    0.000000
    17  N    2.252717   0.000000
    18  H    3.150015   1.010014   0.000000
    19  C    2.775381   1.449000   2.120885   0.000000
    20  H    2.466061   2.083717   2.944869   1.089993   0.000000
    21  C    3.437966   2.452808   2.989495   1.525060   2.139212
    22  H    4.120303   2.702719   2.882457   2.150233   3.041322
    23  H    4.203731   3.386911   3.927925   2.150193   2.459608
    24  H    2.997497   2.702678   3.388145   2.150253   2.466272
    25  C    4.162787   2.450308   2.594734   1.521943   2.136547
    26  O    5.140990   3.541640   3.665937   2.392767   2.896381
    27  N    4.556513   2.726601   2.558725   2.432682   2.933407
    28  H    4.076896   2.357176   2.144955   2.567920   2.984847
    29  C    5.990534   4.142733   3.818929   3.801788   4.260084
    30  H    6.396139   4.769695   4.629840   4.158366   4.407441
    31  C    6.843129   4.755857   4.249384   4.404143   5.104007
    32  H    6.744713   4.542385   3.844543   4.488637   5.328584
    33  H    7.876109   5.817079   5.294796   5.451752   6.089226
    34  H    6.784015   4.745279   4.367125   4.133705   4.854516
    35  C    6.580690   4.829381   4.371753   4.859108   5.255617
    36  O    6.056759   4.480578   4.010225   4.830093   5.173499
    37  N    7.910591   6.141324   5.644913   6.100915   6.492309
    38  H    8.428600   6.598660   6.130443   6.369369   6.778165
    39  C    8.802406   7.136977   6.589834   7.284421   7.640691
    40  H    8.337036   6.798303   6.248525   7.132148   7.457963
    41  H    9.415893   7.877330   7.421363   7.918371   8.161372
    42  H    9.521373   7.723088   7.071991   7.918347   8.383527
                   21         22         23         24         25
    21  C    0.000000
    22  H    1.089947   0.000000
    23  H    1.089926   1.779573   0.000000
    24  H    1.089988   1.779618   1.779562   0.000000
    25  C    2.461861   2.701179   2.668565   3.416599   0.000000
    26  O    2.708726   2.849057   2.462609   3.769928   1.228979
    27  N    3.644042   3.757724   3.989043   4.505668   1.335016
    28  H    3.949447   4.104112   4.487498   4.635249   2.037351
    29  C    4.847939   4.831113   5.019362   5.803353   2.434367
    30  H    5.168495   5.300266   5.129065   6.140958   2.741784
    31  C    5.064360   4.743455   5.197054   6.093975   3.000831
    32  H    5.100887   4.615064   5.428484   6.059782   3.309816
    33  H    6.108643   5.785209   6.161844   7.153577   4.004008
    34  H    4.513719   4.166805   4.485557   5.587437   2.731508
    35  C    6.066254   6.031198   6.378082   6.928972   3.717813
    36  O    6.164751   6.179782   6.641314   6.888149   4.015636
    37  N    7.230026   7.137144   7.451125   8.146365   4.841538
    38  H    7.367262   7.243403   7.461069   8.350727   4.977902
    39  C    8.489156   8.390064   8.787456   9.349540   6.139581
    40  H    8.421226   8.356776   8.829869   9.193846   6.165904
    41  H    9.158819   9.144729   9.373772  10.027350   6.743477
    42  H    9.025117   8.804530   9.344357   9.908151   6.743459
                   26         27         28         29         30
    26  O    0.000000
    27  N    2.252813   0.000000
    28  H    3.150078   1.009973   0.000000
    29  C    2.775338   1.449011   2.120921   0.000000
    30  H    2.787563   2.083754   2.828821   1.089942   0.000000
    31  C    2.936760   2.452859   3.194543   1.525034   2.139159
    32  H    3.474136   2.702832   3.202594   2.150308   3.041363
    33  H    3.813817   3.387030   4.082897   2.150263   2.459638
    34  H    2.268953   2.702825   3.605951   2.150266   2.466296
    35  C    4.264167   2.450266   2.528548   1.521994   2.136537
    36  O    4.840165   2.683405   2.268927   2.392806   3.085249
    37  N    5.166746   3.668402   3.857880   2.432807   2.707636
    38  H    5.058834   3.979032   4.391113   2.567962   2.595308
    39  C    6.569748   4.884675   4.856577   3.801910   4.090486
    40  H    6.783815   4.845605   4.592364   4.033948   4.461656
    41  H    7.106862   5.526442   5.539489   4.396987   4.435653
    42  H    7.106843   5.526432   5.539472   4.396986   4.779332
                   31         32         33         34         35
    31  C    0.000000
    32  H    1.090034   0.000000
    33  H    1.089977   1.779620   0.000000
    34  H    1.089998   1.779692   1.779583   0.000000
    35  C    2.461839   2.701181   2.668608   3.416623   0.000000
    36  O    3.417350   3.376841   3.791197   4.329986   1.228936
    37  N    2.895787   3.227519   2.558635   3.897202   1.335085
    38  H    2.692136   3.243991   2.038542   3.572140   2.037356
    39  C    4.249778   4.384151   3.844259   5.290837   2.434445
    40  H    4.671778   4.654192   4.491370   5.731171   2.520541
    41  H    4.958652   5.261436   4.461021   5.930562   3.138034
    42  H    4.494736   4.482959   3.950820   5.545548   3.137995
                   36         37         38         39         40
    36  O    0.000000
    37  N    2.252791   0.000000
    38  H    3.150022   1.009974   0.000000
    39  C    2.775346   1.449002   2.120951   0.000000
    40  H    2.337389   2.083760   2.986269   1.089979   0.000000
    41  H    3.519236   2.083791   2.484302   1.090068   1.779685
    42  H    3.519210   2.083774   2.484296   1.089959   1.779643
                   41         42
    41  H    0.000000
    42  H    1.779641   0.000000
 Stoichiometry    C12H22N4O4
 Framework group  C1[X(C12H22N4O4)]
 Deg. of freedom   120
 Full point group                 C1      NOp   1
 Largest Abelian subgroup         C1      NOp   1
 Largest concise Abelian subgroup C1      NOp   1
                         Standard orientation:                         
 ---------------------------------------------------------------------
 Center     Atomic      Atomic             Coordinates (Angstroms)
 Number     Number       Type             X           Y           Z
 ---------------------------------------------------------------------
      1          1           0       -6.807735   -2.119258   -0.088930
      2          6           0       -6.184276   -1.319428   -0.488519
      3          1           0       -6.687312   -0.362387   -0.350385
      4          1           0       -6.012188   -1.488704   -1.551492
      5          6           0       -4.831099   -1.267797    0.223650
      6          8           0       -4.567291   -2.065819    1.120314
      7          7           0       -3.977946   -0.324250   -0.181561
      8          1           0       -4.240486    0.309159   -0.923195
      9          6           0       -2.665569   -0.172095    0.413382
     10          1           0       -2.770715    0.035249    1.478329
     11          6           0       -1.835361   -1.439880    0.243379
     12          1           0       -1.713628   -1.655484   -0.818224
     13          1           0       -0.855568   -1.297083    0.699208
     14          1           0       -2.342483   -2.274499    0.727296
     15          6           0       -1.901016    0.974705   -0.232239
     16          8           0       -2.410403    1.633312   -1.136180
     17          7           0       -0.673243    1.212509    0.234926
     18          1           0       -0.297363    0.643414    0.979890
     19          6           0        0.155639    2.275715   -0.296250
     20          1           0       -0.088565    2.437320   -1.346170
     21          6           0       -0.070108    3.579063    0.462783
     22          1           0        0.178859    3.435602    1.514172
     23          1           0        0.564595    4.359254    0.042794
     24          1           0       -1.115403    3.875115    0.374542
     25          6           0        1.632658    1.924744   -0.188808
     26          8           0        2.475390    2.808610   -0.051062
     27          7           0        1.945114    0.628358   -0.252242
     28          1           0        1.216543   -0.061767   -0.366082
     29          6           0        3.315346    0.165767   -0.162216
     30          1           0        3.899237    0.597415   -0.975067
     31          6           0        3.947527    0.576493    1.163445
     32          1           0        3.379182    0.144227    1.987036
     33          1           0        4.975423    0.216111    1.203522
     34          1           0        3.940526    1.663129    1.248705
     35          6           0        3.389183   -1.351127   -0.262451
     36          8           0        2.366037   -2.017647   -0.401036
     37          7           0        4.605828   -1.896348   -0.192017
     38          1           0        5.417662   -1.306498   -0.077781
     39          6           0        4.808957   -3.328655   -0.274737
     40          1           0        3.846761   -3.826187   -0.395963
     41          1           0        5.445760   -3.557034   -1.129473
     42          1           0        5.287474   -3.681659    0.638728
 ---------------------------------------------------------------------
 Rotational constants (GHZ):      0.4639892      0.1531048      0.1204670
 Standard basis: 6-31G(d) (6D, 7F)
 There are   344 symmetry adapted basis functions of A   symmetry.
 Integral buffers will be    131072 words long.
 Raffenetti 1 integral format.
 Two-electron integral symmetry is turned on.
   344 basis functions,   648 primitive gaussians,   344 cartesian basis functions
    77 alpha electrons       77 beta electrons
       nuclear repulsion energy      1625.0800183887 Hartrees.
 NAtoms=   42 NActive=   42 NUniq=   42 SFac= 7.50D-01 NAtFMM=   80 NAOKFM=F Big=F
 One-electron integrals computed using PRISM.
 NBasis=   344 RedAO= T  NBF=   344
 NBsUse=   344 1.00D-06 NBFU=   344
 Harris functional with IExCor=  205 diagonalized for initial guess.
 ExpMin= 1.61D-01 ExpMax= 5.48D+03 ExpMxC= 8.25D+02 IAcc=1 IRadAn=         1 AccDes= 0.00D+00
 HarFok:  IExCor=  205 AccDes= 0.00D+00 IRadAn=         1 IDoV= 1
 ScaDFX=  1.000000  1.000000  1.000000  1.000000
 FoFCou: FMM=F IPFlag=           0 FMFlag=      100000 FMFlg1=           0
         NFxFlg=           0 DoJE=T BraDBF=F KetDBF=T FulRan=T
         Omega=  0.000000  0.000000  1.000000  0.000000  0.000000 ICntrl=     500 IOpCl=  0
         NMat0=    1 NMatS0=    1 NMatT0=    0 NMatD0=    1 NMtDS0=    0 NMtDT0=    0
         I1Cent=           4 NGrid=           0.
 Petite list used in FoFCou.
 Initial guess orbital symmetries:
       Occupied  (A) (A) (A) (A) (A) (A) (A) (A) (A) (A) (A) (A)
                 (A) (A) (A) (A) (A) (A) (A) (A) (A) (A) (A) (A)
                 (A) (A) (A) (A) (A) (A) (A) (A) (A) (A) (A) (A)
                 (A) (A) (A) (A) (A) (A) (A) (A) (A) (A) (A) (A)
                 (A) (A) (A) (A) (A) (A) (A) (A) (A) (A) (A) (A)
                 (A) (A) (A) (A) (A) (A) (A) (A) (A) (A) (A) (A)
                 (A) (A) (A) (A) (A)
       Virtual   (A) (A) (A) (A) (A) (A) (A) (A) (A) (A) (A) (A)
                 (A) (A) (A) (A) (A) (A) (A) (A) (A) (A) (A) (A)
                 (A) (A) (A) (A) (A) (A) (A) (A) (A) (A) (A) (A)
                 (A) (A) (A) (A) (A) (A) (A) (A) (A) (A) (A) (A)
                 (A) (A) (A) (A) (A) (A) (A) (A) (A) (A) (A) (A)
                 (A) (A) (A) (A) (A) (A) (A) (A) (A) (A) (A) (A)
                 (A) (A) (A) (A) (A) (A) (A) (A) (A) (A) (A) (A)
                 (A) (A) (A) (A) (A) (A) (A) (A) (A) (A) (A) (A)
                 (A) (A) (A) (A) (A) (A) (A) (A) (A) (A) (A) (A)
                 (A) (A) (A) (A) (A) (A) (A) (A) (A) (A) (A) (A)
                 (A) (A) (A) (A) (A) (A) (A) (A) (A) (A) (A) (A)
                 (A) (A) (A) (A) (A) (A) (A) (A) (A) (A) (A) (A)
                 (A) (A) (A) (A) (A) (A) (A) (A) (A) (A) (A) (A)
                 (A) (A) (A) (A) (A) (A) (A) (A) (A) (A) (A) (A)
                 (A) (A) (A) (A) (A) (A) (A) (A) (A) (A) (A) (A)
                 (A) (A) (A) (A) (A) (A) (A) (A) (A) (A) (A) (A)
                 (A) (A) (A) (A) (A) (A) (A) (A) (A) (A) (A) (A)
                 (A) (A) (A) (A) (A) (A) (A) (A) (A) (A) (A) (A)
                 (A) (A) (A) (A) (A) (A) (A) (A) (A) (A) (A) (A)
                 (A) (A) (A) (A) (A) (A) (A) (A) (A) (A) (A) (A)
                 (A) (A) (A) (A) (A) (A) (A) (A) (A) (A) (A) (A)
                 (A) (A) (A) (A) (A) (A) (A) (A) (A) (A) (A) (A)
                 (A) (A) (A)
 The electronic state of the initial guess is 1-A.
 Requested convergence on RMS density matrix=1.00D-08 within 128 cycles.
 Requested convergence on MAX density matrix=1.00D-06.
 Requested convergence on             energy=1.00D-06.
 No special actions if energy rises.
 Integral accuracy reduced to 1.0D-05 until final iterations.
 Initial convergence to 1.0D-05 achieved.  Increase integral accuracy.
 SCF Done:  E(RHF) =  -984.542433755     A.U. after   15 cycles
             Convg  =    0.3320D-08             -V/T =  2.0020
 Range of M.O.s used for correlation:     1   344
 NBasis=   344 NAE=    77 NBE=    77 NFC=     0 NFV=     0
 NROrb=    344 NOA=    77 NOB=    77 NVA=   267 NVB=   267
 Symmetrizing basis deriv contribution to polar:
 IMax=3 JMax=2 DiffMx= 0.00D+00
 G2DrvN: will do    43 centers at a time, making    1 passes doing MaxLOS=2.
 Calling FoFCou, ICntrl=  3107 FMM=F I1Cent=   0 AccDes= 0.00D+00.
 FoFDir/FoFCou used for L=0 through L=2.
 End of G2Drv Frequency-dependent properties file   721 does not exist.
 End of G2Drv Frequency-dependent properties file   722 does not exist.
          IDoAtm=111111111111111111111111111111111111111111
          Differentiating once with respect to nuclear coordinates.
          There are   129 degrees of freedom in the 1st order CPHF.  IDoFFX=5.
    123 vectors produced by pass  0 Test12= 2.06D-10 1.00D-07 XBig12= 9.83D-02 5.93D-02.
 AX will form   123 AO Fock derivatives at one time.
    123 vectors produced by pass  1 Test12= 2.06D-10 1.00D-07 XBig12= 7.29D-03 3.11D-02.
    123 vectors produced by pass  2 Test12= 2.06D-10 1.00D-07 XBig12= 1.09D-04 2.16D-03.
    123 vectors produced by pass  3 Test12= 2.06D-10 1.00D-07 XBig12= 1.10D-06 1.50D-04.
    123 vectors produced by pass  4 Test12= 2.06D-10 1.00D-07 XBig12= 6.78D-09 8.61D-06.
     38 vectors produced by pass  5 Test12= 2.06D-10 1.00D-07 XBig12= 3.71D-11 6.39D-07.
 Inverted reduced A of dimension   653 with in-core refinement.
 End of Minotr Frequency-dependent properties file   721 does not exist.
 End of Minotr Frequency-dependent properties file   722 does not exist.

 **********************************************************************

            Population analysis using the SCF density.

 **********************************************************************

 Orbital symmetries:
       Occupied  (A) (A) (A) (A) (A) (A) (A) (A) (A) (A) (A) (A)
                 (A) (A) (A) (A) (A) (A) (A) (A) (A) (A) (A) (A)
                 (A) (A) (A) (A) (A) (A) (A) (A) (A) (A) (A) (A)
                 (A) (A) (A) (A) (A) (A) (A) (A) (A) (A) (A) (A)
                 (A) (A) (A) (A) (A) (A) (A) (A) (A) (A) (A) (A)
                 (A) (A) (A) (A) (A) (A) (A) (A) (A) (A) (A) (A)
                 (A) (A) (A) (A) (A)
       Virtual   (A) (A) (A) (A) (A) (A) (A) (A) (A) (A) (A) (A)
                 (A) (A) (A) (A) (A) (A) (A) (A) (A) (A) (A) (A)
                 (A) (A) (A) (A) (A) (A) (A) (A) (A) (A) (A) (A)
                 (A) (A) (A) (A) (A) (A) (A) (A) (A) (A) (A) (A)
                 (A) (A) (A) (A) (A) (A) (A) (A) (A) (A) (A) (A)
                 (A) (A) (A) (A) (A) (A) (A) (A) (A) (A) (A) (A)
                 (A) (A) (A) (A) (A) (A) (A) (A) (A) (A) (A) (A)
                 (A) (A) (A) (A) (A) (A) (A) (A) (A) (A) (A) (A)
                 (A) (A) (A) (A) (A) (A) (A) (A) (A) (A) (A) (A)
                 (A) (A) (A) (A) (A) (A) (A) (A) (A) (A) (A) (A)
                 (A) (A) (A) (A) (A) (A) (A) (A) (A) (A) (A) (A)
                 (A) (A) (A) (A) (A) (A) (A) (A) (A) (A) (A) (A)
                 (A) (A) (A) (A) (A) (A) (A) (A) (A) (A) (A) (A)
                 (A) (A) (A) (A) (A) (A) (A) (A) (A) (A) (A) (A)
                 (A) (A) (A) (A) (A) (A) (A) (A) (A) (A) (A) (A)
                 (A) (A) (A) (A) (A) (A) (A) (A) (A) (A) (A) (A)
                 (A) (A) (A) (A) (A) (A) (A) (A) (A) (A) (A) (A)
                 (A) (A) (A) (A) (A) (A) (A) (A) (A) (A) (A) (A)
                 (A) (A) (A) (A) (A) (A) (A) (A) (A) (A) (A) (A)
                 (A) (A) (A) (A) (A) (A) (A) (A) (A) (A) (A) (A)
                 (A) (A) (A) (A) (A) (A) (A) (A) (A) (A) (A) (A)
                 (A) (A) (A) (A) (A) (A) (A) (A) (A) (A) (A) (A)
                 (A) (A) (A)
 The electronic state is 1-A.
 Alpha  occ. eigenvalues --  -20.53971 -20.53964 -20.53082 -20.51309 -15.61149
 Alpha  occ. eigenvalues --  -15.61015 -15.60239 -15.58714 -11.36822 -11.36671
 Alpha  occ. eigenvalues --  -11.35996 -11.34641 -11.29646 -11.28889 -11.28762
 Alpha  occ. eigenvalues --  -11.27319 -11.23281 -11.23250 -11.22088 -11.21701
 Alpha  occ. eigenvalues --   -1.40102  -1.39768  -1.38725  -1.36975  -1.26854
 Alpha  occ. eigenvalues --   -1.25343  -1.24460  -1.23613  -1.08335  -1.06162
 Alpha  occ. eigenvalues --   -1.03051  -0.98324  -0.96919  -0.92086  -0.89914
 Alpha  occ. eigenvalues --   -0.87042  -0.82182  -0.81344  -0.79043  -0.78168
 Alpha  occ. eigenvalues --   -0.77077  -0.72200  -0.69037  -0.68761  -0.68066
 Alpha  occ. eigenvalues --   -0.66145  -0.65295  -0.64424  -0.63782  -0.62571
 Alpha  occ. eigenvalues --   -0.62045  -0.60855  -0.60588  -0.60010  -0.58308
 Alpha  occ. eigenvalues --   -0.57857  -0.57245  -0.56261  -0.56023  -0.55608
 Alpha  occ. eigenvalues --   -0.55038  -0.54495  -0.53971  -0.53067  -0.52432
 Alpha  occ. eigenvalues --   -0.52215  -0.51614  -0.50478  -0.48985  -0.43456
 Alpha  occ. eigenvalues --   -0.43416  -0.43031  -0.41116  -0.40821  -0.40309
 Alpha  occ. eigenvalues --   -0.39680  -0.38514
 Alpha virt. eigenvalues --    0.17313   0.17944   0.19141   0.19633   0.20266
 Alpha virt. eigenvalues --    0.21439   0.23863   0.25429   0.26219   0.26849
 Alpha virt. eigenvalues --    0.27735   0.28279   0.29186   0.29513   0.30250
 Alpha virt. eigenvalues --    0.30387   0.30876   0.31319   0.31748   0.31851
 Alpha virt. eigenvalues --    0.33065   0.33361   0.33426   0.34599   0.35226
 Alpha virt. eigenvalues --    0.35751   0.36672   0.37188   0.38849   0.39193
 Alpha virt. eigenvalues --    0.40772   0.41512   0.42646   0.43339   0.43711
 Alpha virt. eigenvalues --    0.47689   0.49027   0.51090   0.52436   0.53310
 Alpha virt. eigenvalues --    0.56356   0.58700   0.59952   0.61621   0.63659
 Alpha virt. eigenvalues --    0.70448   0.71792   0.71949   0.72833   0.73258
 Alpha virt. eigenvalues --    0.73476   0.74733   0.75241   0.75487   0.76362
 Alpha virt. eigenvalues --    0.76758   0.77350   0.78694   0.79690   0.81089
 Alpha virt. eigenvalues --    0.82977   0.83174   0.85227   0.87507   0.87827
 Alpha virt. eigenvalues --    0.88333   0.90185   0.90984   0.91913   0.92776
 Alpha virt. eigenvalues --    0.93176   0.93568   0.94007   0.97240   0.97463
 Alpha virt. eigenvalues --    0.97824   0.98946   0.99387   0.99744   1.00464
 Alpha virt. eigenvalues --    1.02181   1.03786   1.04732   1.06010   1.07273
 Alpha virt. eigenvalues --    1.07753   1.08717   1.09956   1.10125   1.11867
 Alpha virt. eigenvalues --    1.12474   1.13605   1.14074   1.14327   1.14807
 Alpha virt. eigenvalues --    1.15207   1.15774   1.15899   1.16287   1.16743
 Alpha virt. eigenvalues --    1.17712   1.18191   1.19257   1.19338   1.19848
 Alpha virt. eigenvalues --    1.20961   1.21032   1.21231   1.21919   1.22803
 Alpha virt. eigenvalues --    1.23521   1.24645   1.25111   1.26584   1.27107
 Alpha virt. eigenvalues --    1.29949   1.31672   1.33784   1.35093   1.35799
 Alpha virt. eigenvalues --    1.37561   1.39042   1.39754   1.42304   1.45212
 Alpha virt. eigenvalues --    1.46298   1.46863   1.48481   1.51458   1.52336
 Alpha virt. eigenvalues --    1.54241   1.54909   1.57514   1.59180   1.59347
 Alpha virt. eigenvalues --    1.60992   1.61443   1.63065   1.64083   1.65807
 Alpha virt. eigenvalues --    1.68279   1.70377   1.72630   1.73813   1.74535
 Alpha virt. eigenvalues --    1.74963   1.76615   1.78087   1.79248   1.87082
 Alpha virt. eigenvalues --    1.91027   1.92971   1.96630   1.98330   1.98840
 Alpha virt. eigenvalues --    1.99083   2.01663   2.02027   2.04709   2.05796
 Alpha virt. eigenvalues --    2.06712   2.08539   2.09640   2.10526   2.11025
 Alpha virt. eigenvalues --    2.13002   2.13211   2.13663   2.14314   2.14533
 Alpha virt. eigenvalues --    2.14853   2.15635   2.16882   2.17168   2.17571
 Alpha virt. eigenvalues --    2.20049   2.20500   2.22552   2.24355   2.25336
 Alpha virt. eigenvalues --    2.26099   2.28063   2.28854   2.30235   2.32758
 Alpha virt. eigenvalues --    2.34536   2.35606   2.36063   2.36422   2.37911
 Alpha virt. eigenvalues --    2.39423   2.40438   2.42890   2.46141   2.48671
 Alpha virt. eigenvalues --    2.49326   2.50654   2.53405   2.53903   2.57527
 Alpha virt. eigenvalues --    2.57979   2.58823   2.60710   2.61162   2.61431
 Alpha virt. eigenvalues --    2.62694   2.63231   2.64826   2.66250   2.67368
 Alpha virt. eigenvalues --    2.67934   2.70583   2.73362   2.75747   2.77049
 Alpha virt. eigenvalues --    2.77149   2.78389   2.79674   2.81418   2.83449
 Alpha virt. eigenvalues --    2.86686   2.89487   2.90724   2.93801   2.94624
 Alpha virt. eigenvalues --    2.95685   2.99360   2.99751   3.04620   3.06268
 Alpha virt. eigenvalues --    3.07221   3.09517   3.09754   3.15213   3.18559
 Alpha virt. eigenvalues --    3.22777   3.26512   3.29846   3.32482   3.33757
 Alpha virt. eigenvalues --    3.35964   3.37922   3.42831   3.52466   3.53513
 Alpha virt. eigenvalues --    3.60859   3.62361   4.38929   4.43748   4.44471
 Alpha virt. eigenvalues --    4.46662   4.49608   4.50193   4.51801   4.57226
 Alpha virt. eigenvalues --    4.63017   4.64952   4.66072   4.70566   4.72197
 Alpha virt. eigenvalues --    4.83184   4.86384   4.86772   4.90212   5.00043
 Alpha virt. eigenvalues --    5.05088   5.11185
          Condensed to atoms (all electrons):
              1          2          3          4          5          6
     1  H    0.458378   0.385686  -0.018785  -0.018736  -0.030780   0.003517
     2  C    0.385686   5.244798   0.374650   0.374886   0.378096  -0.067227
     3  H   -0.018785   0.374650   0.510765  -0.023636  -0.034542   0.001267
     4  H   -0.018736   0.374886  -0.023636   0.511627  -0.035410   0.001180
     5  C   -0.030780   0.378096  -0.034542  -0.035410   4.186735   0.587283
     6  O    0.003517  -0.067227   0.001267   0.001180   0.587283   8.210254
     7  N    0.003856  -0.119927   0.003484   0.003706   0.246474  -0.107625
     8  H   -0.000018  -0.001189   0.000640   0.000482  -0.017290   0.002013
     9  C   -0.000076   0.004560  -0.000242  -0.000091  -0.030137   0.014496
    10  H    0.000002  -0.000008  -0.000004  -0.000002  -0.001720   0.002952
    11  C    0.000006  -0.000505   0.000008   0.000030  -0.003761  -0.015843
    12  H    0.000000  -0.000041   0.000000   0.000002   0.000011  -0.000027
    13  H    0.000000   0.000007   0.000000  -0.000001   0.000269   0.000266
    14  H    0.000001   0.000302  -0.000005  -0.000025   0.000462   0.011148
    15  C    0.000000   0.000012  -0.000011  -0.000006   0.004074   0.000549
    16  O    0.000000  -0.000039  -0.000001  -0.000001   0.000292  -0.000003
    17  N    0.000000   0.000000   0.000000   0.000000  -0.000085  -0.000002
    18  H    0.000000   0.000000   0.000000   0.000000   0.000001   0.000001
    19  C    0.000000   0.000000   0.000000   0.000000   0.000001   0.000000
    20  H    0.000000   0.000000   0.000000   0.000000   0.000000   0.000000
    21  C    0.000000   0.000000   0.000000   0.000000   0.000000   0.000000
    22  H    0.000000   0.000000   0.000000   0.000000   0.000000   0.000000
    23  H    0.000000   0.000000   0.000000   0.000000   0.000000   0.000000
    24  H    0.000000   0.000000   0.000000   0.000000   0.000000   0.000000
    25  C    0.000000   0.000000   0.000000   0.000000   0.000000   0.000000
    26  O    0.000000   0.000000   0.000000   0.000000   0.000000   0.000000
    27  N    0.000000   0.000000   0.000000   0.000000   0.000000   0.000000
    28  H    0.000000   0.000000   0.000000   0.000000   0.000000   0.000000
    29  C    0.000000   0.000000   0.000000   0.000000   0.000000   0.000000
    30  H    0.000000   0.000000   0.000000   0.000000   0.000000   0.000000
    31  C    0.000000   0.000000   0.000000   0.000000   0.000000   0.000000
    32  H    0.000000   0.000000   0.000000   0.000000   0.000000   0.000000
    33  H    0.000000   0.000000   0.000000   0.000000   0.000000   0.000000
    34  H    0.000000   0.000000   0.000000   0.000000   0.000000   0.000000
    35  C    0.000000   0.000000   0.000000   0.000000   0.000000   0.000000
    36  O    0.000000   0.000000   0.000000   0.000000   0.000000   0.000000
    37  N    0.000000   0.000000   0.000000   0.000000   0.000000   0.000000
    38  H    0.000000   0.000000   0.000000   0.000000   0.000000   0.000000
    39  C    0.000000   0.000000   0.000000   0.000000   0.000000   0.000000
    40  H    0.000000   0.000000   0.000000   0.000000   0.000000   0.000000
    41  H    0.000000   0.000000   0.000000   0.000000   0.000000   0.000000
    42  H    0.000000   0.000000   0.000000   0.000000   0.000000   0.000000
              7          8          9         10         11         12
     1  H    0.003856  -0.000018  -0.000076   0.000002   0.000006   0.000000
     2  C   -0.119927  -0.001189   0.004560  -0.000008  -0.000505  -0.000041
     3  H    0.003484   0.000640  -0.000242  -0.000004   0.000008   0.000000
     4  H    0.003706   0.000482  -0.000091  -0.000002   0.000030   0.000002
     5  C    0.246474  -0.017290  -0.030137  -0.001720  -0.003761   0.000011
     6  O   -0.107625   0.002013   0.014496   0.002952  -0.015843  -0.000027
     7  N    7.419831   0.311479   0.196535  -0.041398  -0.062856   0.001636
     8  H    0.311479   0.287835  -0.026581   0.002346   0.002985   0.000236
     9  C    0.196535  -0.026581   5.025571   0.405906   0.329335  -0.043124
    10  H   -0.041398   0.002346   0.405906   0.499537  -0.045231   0.004483
    11  C   -0.062856   0.002985   0.329335  -0.045231   5.217097   0.386748
    12  H    0.001636   0.000236  -0.043124   0.004483   0.386748   0.518980
    13  H    0.004876  -0.000076  -0.042699   0.000089   0.377846  -0.024378
    14  H   -0.005526  -0.000195  -0.026542  -0.003931   0.387252  -0.019567
    15  C   -0.037475  -0.005827   0.386663  -0.039837  -0.065273  -0.002818
    16  O   -0.006398   0.020138  -0.073597   0.000916   0.000046   0.000580
    17  N    0.002768   0.000735  -0.114863   0.002232   0.003591   0.000115
    18  H    0.000029  -0.000018   0.000079   0.000448   0.000743  -0.000053
    19  C   -0.000043  -0.000024   0.004078  -0.000260  -0.000044  -0.000041
    20  H   -0.000003  -0.000005   0.000422  -0.000010  -0.000065   0.000000
    21  C    0.000001   0.000001  -0.000371   0.000052   0.000003   0.000001
    22  H    0.000000   0.000000  -0.000002   0.000000   0.000000   0.000000
    23  H    0.000000   0.000000   0.000004   0.000000   0.000000   0.000000
    24  H    0.000000  -0.000001   0.000018  -0.000013   0.000000   0.000000
    25  C    0.000000   0.000000   0.000020  -0.000008  -0.000021  -0.000005
    26  O    0.000000   0.000000   0.000000   0.000000   0.000000   0.000000
    27  N    0.000000   0.000000  -0.000031  -0.000001  -0.000169  -0.000018
    28  H    0.000001   0.000000  -0.000175   0.000009   0.000193   0.000209
    29  C    0.000000   0.000000   0.000000   0.000000   0.000010   0.000001
    30  H    0.000000   0.000000   0.000000   0.000000   0.000000   0.000000
    31  C    0.000000   0.000000   0.000000   0.000000   0.000000   0.000000
    32  H    0.000000   0.000000   0.000000   0.000000   0.000000   0.000000
    33  H    0.000000   0.000000   0.000000   0.000000   0.000000   0.000000
    34  H    0.000000   0.000000   0.000000   0.000000   0.000000   0.000000
    35  C    0.000000   0.000000   0.000000   0.000000  -0.000002   0.000000
    36  O    0.000000   0.000000   0.000003   0.000000  -0.000166   0.000010
    37  N    0.000000   0.000000   0.000000   0.000000   0.000000   0.000000
    38  H    0.000000   0.000000   0.000000   0.000000   0.000000   0.000000
    39  C    0.000000   0.000000   0.000000   0.000000   0.000000   0.000000
    40  H    0.000000   0.000000   0.000000   0.000000   0.000000   0.000000
    41  H    0.000000   0.000000   0.000000   0.000000   0.000000   0.000000
    42  H    0.000000   0.000000   0.000000   0.000000   0.000000   0.000000
             13         14         15         16         17         18
     1  H    0.000000   0.000001   0.000000   0.000000   0.000000   0.000000
     2  C    0.000007   0.000302   0.000012  -0.000039   0.000000   0.000000
     3  H    0.000000  -0.000005  -0.000011  -0.000001   0.000000   0.000000
     4  H   -0.000001  -0.000025  -0.000006  -0.000001   0.000000   0.000000
     5  C    0.000269   0.000462   0.004074   0.000292  -0.000085   0.000001
     6  O    0.000266   0.011148   0.000549  -0.000003  -0.000002   0.000001
     7  N    0.004876  -0.005526  -0.037475  -0.006398   0.002768   0.000029
     8  H   -0.000076  -0.000195  -0.005827   0.020138   0.000735  -0.000018
     9  C   -0.042699  -0.026542   0.386663  -0.073597  -0.114863   0.000079
    10  H    0.000089  -0.003931  -0.039837   0.000916   0.002232   0.000448
    11  C    0.377846   0.387252  -0.065273   0.000046   0.003591   0.000743
    12  H   -0.024378  -0.019567  -0.002818   0.000580   0.000115  -0.000053
    13  H    0.561165  -0.018960  -0.007337   0.000032  -0.000400   0.003275
    14  H   -0.018960   0.420865   0.004108  -0.000059   0.000088  -0.000128
    15  C   -0.007337   0.004108   4.160392   0.586697   0.256951  -0.016269
    16  O    0.000032  -0.000059   0.586697   8.211919  -0.104874   0.002240
    17  N   -0.000400   0.000088   0.256951  -0.104874   7.496453   0.312732
    18  H    0.003275  -0.000128  -0.016269   0.002240   0.312732   0.311524
    19  C    0.000290   0.000004  -0.024875   0.007454   0.137816  -0.024960
    20  H   -0.000006   0.000000  -0.001179   0.006999  -0.035555   0.002809
    21  C   -0.000006   0.000000  -0.003051  -0.001816  -0.075036   0.000991
    22  H   -0.000002   0.000000   0.000231  -0.000013  -0.000420   0.001184
    23  H    0.000000   0.000000   0.000020  -0.000013   0.004567  -0.000035
    24  H    0.000000   0.000000   0.001753   0.002365  -0.004070  -0.000156
    25  C   -0.000042   0.000000   0.002355   0.000449  -0.038752  -0.004037
    26  O    0.000000   0.000000  -0.000055  -0.000001   0.001631  -0.000109
    27  N    0.000228   0.000000   0.000543   0.000008  -0.007030   0.007967
    28  H    0.000978   0.000008  -0.000232  -0.000066   0.009092  -0.001160
    29  C   -0.000034   0.000000   0.000007   0.000000   0.000306  -0.000311
    30  H    0.000001   0.000000   0.000001   0.000000  -0.000009   0.000019
    31  C   -0.000003   0.000000  -0.000001   0.000000  -0.000012  -0.000033
    32  H    0.000003   0.000000   0.000001   0.000000  -0.000014   0.000097
    33  H    0.000000   0.000000   0.000000   0.000000   0.000000   0.000001
    34  H    0.000000   0.000000   0.000000   0.000000  -0.000013  -0.000008
    35  C    0.000040   0.000000   0.000001   0.000000  -0.000029  -0.000009
    36  O    0.000852   0.000001   0.000000   0.000000  -0.000030  -0.000054
    37  N    0.000001   0.000000   0.000000   0.000000   0.000000   0.000000
    38  H    0.000000   0.000000   0.000000   0.000000   0.000000   0.000000
    39  C    0.000000   0.000000   0.000000   0.000000   0.000000   0.000000
    40  H    0.000000   0.000000   0.000000   0.000000   0.000000   0.000000
    41  H    0.000000   0.000000   0.000000   0.000000   0.000000   0.000000
    42  H    0.000000   0.000000   0.000000   0.000000   0.000000   0.000000
             19         20         21         22         23         24
     1  H    0.000000   0.000000   0.000000   0.000000   0.000000   0.000000
     2  C    0.000000   0.000000   0.000000   0.000000   0.000000   0.000000
     3  H    0.000000   0.000000   0.000000   0.000000   0.000000   0.000000
     4  H    0.000000   0.000000   0.000000   0.000000   0.000000   0.000000
     5  C    0.000001   0.000000   0.000000   0.000000   0.000000   0.000000
     6  O    0.000000   0.000000   0.000000   0.000000   0.000000   0.000000
     7  N   -0.000043  -0.000003   0.000001   0.000000   0.000000   0.000000
     8  H   -0.000024  -0.000005   0.000001   0.000000   0.000000  -0.000001
     9  C    0.004078   0.000422  -0.000371  -0.000002   0.000004   0.000018
    10  H   -0.000260  -0.000010   0.000052   0.000000   0.000000  -0.000013
    11  C   -0.000044  -0.000065   0.000003   0.000000   0.000000   0.000000
    12  H   -0.000041   0.000000   0.000001   0.000000   0.000000   0.000000
    13  H    0.000290  -0.000006  -0.000006  -0.000002   0.000000   0.000000
    14  H    0.000004   0.000000   0.000000   0.000000   0.000000   0.000000
    15  C   -0.024875  -0.001179  -0.003051   0.000231   0.000020   0.001753
    16  O    0.007454   0.006999  -0.001816  -0.000013  -0.000013   0.002365
    17  N    0.137816  -0.035555  -0.075036  -0.000420   0.004567  -0.004070
    18  H   -0.024960   0.002809   0.000991   0.001184  -0.000035  -0.000156
    19  C    5.099110   0.400313   0.359309  -0.038901  -0.033466  -0.036875
    20  H    0.400313   0.434282  -0.034237   0.003722  -0.000304  -0.003112
    21  C    0.359309  -0.034237   5.115520   0.390307   0.388392   0.389436
    22  H   -0.038901   0.003722   0.390307   0.538033  -0.019898  -0.026140
    23  H   -0.033466  -0.000304   0.388392  -0.019898   0.480562  -0.023018
    24  H   -0.036875  -0.003112   0.389436  -0.026140  -0.023018   0.509755
    25  C    0.383709  -0.028558  -0.067160  -0.005506  -0.003596   0.005737
    26  O   -0.072203   0.000112  -0.000777   0.000674   0.003895   0.000440
    27  N   -0.118909  -0.000660   0.003620  -0.000036   0.000183  -0.000047
    28  H   -0.003270  -0.000262   0.000350  -0.000025  -0.000020  -0.000005
    29  C    0.004405  -0.000202  -0.000100  -0.000026  -0.000006   0.000002
    30  H   -0.000109   0.000020  -0.000013   0.000001   0.000001   0.000000
    31  C   -0.000516  -0.000001   0.000027   0.000006   0.000002   0.000000
    32  H   -0.000040   0.000001  -0.000005   0.000004   0.000000   0.000000
    33  H    0.000007   0.000000   0.000000   0.000000   0.000000   0.000000
    34  H    0.000285  -0.000002  -0.000003   0.000001   0.000001   0.000000
    35  C    0.000044  -0.000003  -0.000001   0.000000   0.000000   0.000000
    36  O   -0.000038   0.000000   0.000000   0.000000   0.000000   0.000000
    37  N    0.000000   0.000000   0.000000   0.000000   0.000000   0.000000
    38  H    0.000000   0.000000   0.000000   0.000000   0.000000   0.000000
    39  C    0.000000   0.000000   0.000000   0.000000   0.000000   0.000000
    40  H    0.000000   0.000000   0.000000   0.000000   0.000000   0.000000
    41  H    0.000000   0.000000   0.000000   0.000000   0.000000   0.000000
    42  H    0.000000   0.000000   0.000000   0.000000   0.000000   0.000000
             25         26         27         28         29         30
     1  H    0.000000   0.000000   0.000000   0.000000   0.000000   0.000000
     2  C    0.000000   0.000000   0.000000   0.000000   0.000000   0.000000
     3  H    0.000000   0.000000   0.000000   0.000000   0.000000   0.000000
     4  H    0.000000   0.000000   0.000000   0.000000   0.000000   0.000000
     5  C    0.000000   0.000000   0.000000   0.000000   0.000000   0.000000
     6  O    0.000000   0.000000   0.000000   0.000000   0.000000   0.000000
     7  N    0.000000   0.000000   0.000000   0.000001   0.000000   0.000000
     8  H    0.000000   0.000000   0.000000   0.000000   0.000000   0.000000
     9  C    0.000020   0.000000  -0.000031  -0.000175   0.000000   0.000000
    10  H   -0.000008   0.000000  -0.000001   0.000009   0.000000   0.000000
    11  C   -0.000021   0.000000  -0.000169   0.000193   0.000010   0.000000
    12  H   -0.000005   0.000000  -0.000018   0.000209   0.000001   0.000000
    13  H   -0.000042   0.000000   0.000228   0.000978  -0.000034   0.000001
    14  H    0.000000   0.000000   0.000000   0.000008   0.000000   0.000000
    15  C    0.002355  -0.000055   0.000543  -0.000232   0.000007   0.000001
    16  O    0.000449  -0.000001   0.000008  -0.000066   0.000000   0.000000
    17  N   -0.038752   0.001631  -0.007030   0.009092   0.000306  -0.000009
    18  H   -0.004037  -0.000109   0.007967  -0.001160  -0.000311   0.000019
    19  C    0.383709  -0.072203  -0.118909  -0.003270   0.004405  -0.000109
    20  H   -0.028558   0.000112  -0.000660  -0.000262  -0.000202   0.000020
    21  C   -0.067160  -0.000777   0.003620   0.000350  -0.000100  -0.000013
    22  H   -0.005506   0.000674  -0.000036  -0.000025  -0.000026   0.000001
    23  H   -0.003596   0.003895   0.000183  -0.000020  -0.000006   0.000001
    24  H    0.005737   0.000440  -0.000047  -0.000005   0.000002   0.000000
    25  C    4.167533   0.569347   0.282502  -0.017561  -0.034280  -0.001042
    26  O    0.569347   8.238396  -0.103083   0.001978   0.013013   0.002788
    27  N    0.282502  -0.103083   7.432957   0.300454   0.191848  -0.040641
    28  H   -0.017561   0.001978   0.300454   0.275160  -0.026175   0.001790
    29  C   -0.034280   0.013013   0.191848  -0.026175   5.048676   0.404514
    30  H   -0.001042   0.002788  -0.040641   0.001790   0.404514   0.493069
    31  C   -0.004309  -0.014678  -0.063049   0.003384   0.334473  -0.044785
    32  H    0.000074  -0.000023   0.001739   0.000139  -0.043048   0.004492
    33  H    0.000297   0.000242   0.004853  -0.000085  -0.041738   0.000216
    34  H    0.000657   0.009638  -0.005286  -0.000192  -0.027305  -0.003977
    35  C    0.003492   0.000408  -0.036694  -0.005230   0.378059  -0.036522
    36  O    0.000469  -0.000003  -0.005599   0.021595  -0.079273   0.000979
    37  N   -0.000078  -0.000001   0.002826   0.000722  -0.116951   0.002178
    38  H    0.000001   0.000001   0.000017  -0.000022   0.001229   0.000465
    39  C    0.000001   0.000000  -0.000051  -0.000010   0.003626  -0.000207
    40  H    0.000000   0.000000  -0.000004  -0.000010   0.000583  -0.000016
    41  H    0.000000   0.000000   0.000000   0.000000  -0.000111   0.000010
    42  H    0.000000   0.000000   0.000001   0.000000  -0.000004  -0.000001
             31         32         33         34         35         36
     1  H    0.000000   0.000000   0.000000   0.000000   0.000000   0.000000
     2  C    0.000000   0.000000   0.000000   0.000000   0.000000   0.000000
     3  H    0.000000   0.000000   0.000000   0.000000   0.000000   0.000000
     4  H    0.000000   0.000000   0.000000   0.000000   0.000000   0.000000
     5  C    0.000000   0.000000   0.000000   0.000000   0.000000   0.000000
     6  O    0.000000   0.000000   0.000000   0.000000   0.000000   0.000000
     7  N    0.000000   0.000000   0.000000   0.000000   0.000000   0.000000
     8  H    0.000000   0.000000   0.000000   0.000000   0.000000   0.000000
     9  C    0.000000   0.000000   0.000000   0.000000   0.000000   0.000003
    10  H    0.000000   0.000000   0.000000   0.000000   0.000000   0.000000
    11  C    0.000000   0.000000   0.000000   0.000000  -0.000002  -0.000166
    12  H    0.000000   0.000000   0.000000   0.000000   0.000000   0.000010
    13  H   -0.000003   0.000003   0.000000   0.000000   0.000040   0.000852
    14  H    0.000000   0.000000   0.000000   0.000000   0.000000   0.000001
    15  C   -0.000001   0.000001   0.000000   0.000000   0.000001   0.000000
    16  O    0.000000   0.000000   0.000000   0.000000   0.000000   0.000000
    17  N   -0.000012  -0.000014   0.000000  -0.000013  -0.000029  -0.000030
    18  H   -0.000033   0.000097   0.000001  -0.000008  -0.000009  -0.000054
    19  C   -0.000516  -0.000040   0.000007   0.000285   0.000044  -0.000038
    20  H   -0.000001   0.000001   0.000000  -0.000002  -0.000003   0.000000
    21  C    0.000027  -0.000005   0.000000  -0.000003  -0.000001   0.000000
    22  H    0.000006   0.000004   0.000000   0.000001   0.000000   0.000000
    23  H    0.000002   0.000000   0.000000   0.000001   0.000000   0.000000
    24  H    0.000000   0.000000   0.000000   0.000000   0.000000   0.000000
    25  C   -0.004309   0.000074   0.000297   0.000657   0.003492   0.000469
    26  O   -0.014678  -0.000023   0.000242   0.009638   0.000408  -0.000003
    27  N   -0.063049   0.001739   0.004853  -0.005286  -0.036694  -0.005599
    28  H    0.003384   0.000139  -0.000085  -0.000192  -0.005230   0.021595
    29  C    0.334473  -0.043048  -0.041738  -0.027305   0.378059  -0.079273
    30  H   -0.044785   0.004492   0.000216  -0.003977  -0.036522   0.000979
    31  C    5.205501   0.385124   0.380118   0.388294  -0.063075   0.000015
    32  H    0.385124   0.527916  -0.023529  -0.020919  -0.002894   0.000633
    33  H    0.380118  -0.023529   0.558952  -0.019909  -0.006831   0.000025
    34  H    0.388294  -0.020919  -0.019909   0.427496   0.003909  -0.000064
    35  C   -0.063075  -0.002894  -0.006831   0.003909   4.140794   0.593033
    36  O    0.000015   0.000633   0.000025  -0.000064   0.593033   8.215769
    37  N    0.002371   0.000195   0.000489   0.000092   0.291365  -0.098779
    38  H   -0.000031  -0.000010   0.002627  -0.000080  -0.020892   0.002359
    39  C   -0.000079  -0.000041   0.000155   0.000003  -0.025633  -0.004815
    40  H   -0.000049  -0.000001  -0.000008   0.000000  -0.001993   0.009643
    41  H   -0.000004   0.000001   0.000002   0.000000   0.000795   0.000365
    42  H    0.000010   0.000002  -0.000002  -0.000001   0.000921   0.000374
             37         38         39         40         41         42
     1  H    0.000000   0.000000   0.000000   0.000000   0.000000   0.000000
     2  C    0.000000   0.000000   0.000000   0.000000   0.000000   0.000000
     3  H    0.000000   0.000000   0.000000   0.000000   0.000000   0.000000
     4  H    0.000000   0.000000   0.000000   0.000000   0.000000   0.000000
     5  C    0.000000   0.000000   0.000000   0.000000   0.000000   0.000000
     6  O    0.000000   0.000000   0.000000   0.000000   0.000000   0.000000
     7  N    0.000000   0.000000   0.000000   0.000000   0.000000   0.000000
     8  H    0.000000   0.000000   0.000000   0.000000   0.000000   0.000000
     9  C    0.000000   0.000000   0.000000   0.000000   0.000000   0.000000
    10  H    0.000000   0.000000   0.000000   0.000000   0.000000   0.000000
    11  C    0.000000   0.000000   0.000000   0.000000   0.000000   0.000000
    12  H    0.000000   0.000000   0.000000   0.000000   0.000000   0.000000
    13  H    0.000001   0.000000   0.000000   0.000000   0.000000   0.000000
    14  H    0.000000   0.000000   0.000000   0.000000   0.000000   0.000000
    15  C    0.000000   0.000000   0.000000   0.000000   0.000000   0.000000
    16  O    0.000000   0.000000   0.000000   0.000000   0.000000   0.000000
    17  N    0.000000   0.000000   0.000000   0.000000   0.000000   0.000000
    18  H    0.000000   0.000000   0.000000   0.000000   0.000000   0.000000
    19  C    0.000000   0.000000   0.000000   0.000000   0.000000   0.000000
    20  H    0.000000   0.000000   0.000000   0.000000   0.000000   0.000000
    21  C    0.000000   0.000000   0.000000   0.000000   0.000000   0.000000
    22  H    0.000000   0.000000   0.000000   0.000000   0.000000   0.000000
    23  H    0.000000   0.000000   0.000000   0.000000   0.000000   0.000000
    24  H    0.000000   0.000000   0.000000   0.000000   0.000000   0.000000
    25  C   -0.000078   0.000001   0.000001   0.000000   0.000000   0.000000
    26  O   -0.000001   0.000001   0.000000   0.000000   0.000000   0.000000
    27  N    0.002826   0.000017  -0.000051  -0.000004   0.000000   0.000001
    28  H    0.000722  -0.000022  -0.000010  -0.000010   0.000000   0.000000
    29  C   -0.116951   0.001229   0.003626   0.000583  -0.000111  -0.000004
    30  H    0.002178   0.000465  -0.000207  -0.000016   0.000010  -0.000001
    31  C    0.002371  -0.000031  -0.000079  -0.000049  -0.000004   0.000010
    32  H    0.000195  -0.000010  -0.000041  -0.000001   0.000001   0.000002
    33  H    0.000489   0.002627   0.000155  -0.000008   0.000002  -0.000002
    34  H    0.000092  -0.000080   0.000003   0.000000   0.000000  -0.000001
    35  C    0.291365  -0.020892  -0.025633  -0.001993   0.000795   0.000921
    36  O   -0.098779   0.002359  -0.004815   0.009643   0.000365   0.000374
    37  N    7.331077   0.322482   0.183956  -0.031645  -0.046802  -0.047852
[...]
    29  C   -0.000008   0.000000   0.000010   0.000000   0.000117  -0.000186
    30  H    0.000000   0.000000   0.000001   0.000000  -0.000015   0.000006
    31  C    0.000000   0.000000  -0.000001   0.000000  -0.000008   0.000003
    32  H    0.000002   0.000000   0.000000   0.000000  -0.000006   0.000027
    33  H    0.000000   0.000000   0.000000   0.000000   0.000000   0.000000
    34  H    0.000000   0.000000   0.000000   0.000000  -0.000012  -0.000002
    35  C    0.000004   0.000000   0.000001   0.000000  -0.000033   0.000001
    36  O    0.000436   0.000000  -0.000001   0.000000  -0.000038  -0.000004
    37  N    0.000000   0.000000   0.000000   0.000000   0.000000   0.000000
    38  H    0.000000   0.000000   0.000000   0.000000   0.000000   0.000000
    39  C    0.000000   0.000000   0.000000   0.000000   0.000000   0.000000
    40  H    0.000000   0.000000   0.000000   0.000000   0.000000   0.000000
    41  H    0.000000   0.000000   0.000000   0.000000   0.000000   0.000000
    42  H    0.000000   0.000000   0.000000   0.000000   0.000000   0.000000
             19         20         21         22         23         24
     1  H    0.000000   0.000000   0.000000   0.000000   0.000000   0.000000
     2  C    0.000000   0.000000   0.000000   0.000000   0.000000   0.000000
     3  H    0.000000   0.000000   0.000000   0.000000   0.000000   0.000000
     4  H    0.000000   0.000000   0.000000   0.000000   0.000000   0.000000
     5  C    0.000002   0.000000   0.000000   0.000000   0.000000   0.000000
     6  O    0.000000   0.000000   0.000000   0.000000   0.000000   0.000000
     7  N   -0.000070  -0.000005   0.000008   0.000000   0.000000   0.000000
     8  H   -0.000028  -0.000009   0.000003   0.000000   0.000000  -0.000002
     9  C    0.004318   0.000392  -0.000315  -0.000009   0.000004   0.000014
    10  H   -0.000182  -0.000014   0.000036  -0.000001   0.000000  -0.000012
    11  C   -0.000273  -0.000022  -0.000001   0.000000   0.000000   0.000000
    12  H   -0.000007  -0.000002   0.000000   0.000000   0.000000   0.000000
    13  H   -0.000010  -0.000003   0.000001   0.000000   0.000000   0.000000
    14  H    0.000004   0.000000   0.000000   0.000000   0.000000   0.000000
    15  C   -0.025625  -0.002466  -0.003137   0.000097   0.000030   0.002056
    16  O    0.006887   0.007545  -0.001550  -0.000001  -0.000023   0.002208
    17  N    0.148054  -0.038311  -0.068883  -0.000951   0.004330  -0.004073
    18  H   -0.023658   0.003214   0.001056   0.001863  -0.000055  -0.000204
    19  C    5.096705   0.403028   0.352554  -0.036977  -0.032102  -0.036780
    20  H    0.403028   0.441291  -0.032341   0.003590  -0.000670  -0.003273
    21  C    0.352554  -0.032341   5.108383   0.389836   0.389128   0.391793
    22  H   -0.036977   0.003590   0.389836   0.536451  -0.021845  -0.027202
    23  H   -0.032102  -0.000670   0.389128  -0.021845   0.480583  -0.023394
    24  H   -0.036780  -0.003273   0.391793  -0.027202  -0.023394   0.509483
    25  C    0.389285  -0.031467  -0.059213  -0.004962  -0.002554   0.004965
    26  O   -0.074188   0.000193   0.003470   0.000894   0.003790   0.000261
    27  N   -0.121058  -0.000406   0.003607  -0.000053   0.000136  -0.000034
    28  H   -0.003206  -0.000101   0.000281  -0.000014  -0.000017  -0.000005
    29  C    0.004510  -0.000224  -0.000087  -0.000013  -0.000005   0.000001
    30  H    0.000102   0.000007  -0.000018   0.000000   0.000001   0.000000
    31  C   -0.000273   0.000000   0.000014   0.000001   0.000000   0.000000
    32  H   -0.000014   0.000000  -0.000001   0.000000   0.000000   0.000000
    33  H    0.000002   0.000000   0.000000   0.000000   0.000000   0.000000
    34  H    0.000134  -0.000001  -0.000003   0.000000   0.000000   0.000000
    35  C    0.000029  -0.000002  -0.000001   0.000000   0.000000   0.000000
    36  O   -0.000042   0.000000   0.000000   0.000000   0.000000   0.000000
    37  N    0.000000   0.000000   0.000000   0.000000   0.000000   0.000000
    38  H    0.000000   0.000000   0.000000   0.000000   0.000000   0.000000
    39  C    0.000000   0.000000   0.000000   0.000000   0.000000   0.000000
    40  H    0.000000   0.000000   0.000000   0.000000   0.000000   0.000000
    41  H    0.000000   0.000000   0.000000   0.000000   0.000000   0.000000
    42  H    0.000000   0.000000   0.000000   0.000000   0.000000   0.000000
             25         26         27         28         29         30
     1  H    0.000000   0.000000   0.000000   0.000000   0.000000   0.000000
     2  C    0.000000   0.000000   0.000000   0.000000   0.000000   0.000000
     3  H    0.000000   0.000000   0.000000   0.000000   0.000000   0.000000
     4  H    0.000000   0.000000   0.000000   0.000000   0.000000   0.000000
     5  C    0.000000   0.000000   0.000000   0.000000   0.000000   0.000000
     6  O    0.000000   0.000000   0.000000   0.000000   0.000000   0.000000
     7  N    0.000000   0.000000   0.000000   0.000001   0.000000   0.000000
     8  H    0.000000   0.000000   0.000000   0.000000   0.000000   0.000000
     9  C   -0.000052   0.000000  -0.000031  -0.000018   0.000000   0.000000
    10  H   -0.000012   0.000000   0.000000   0.000000   0.000000   0.000000
    11  C    0.000015   0.000000  -0.000035   0.000072   0.000002   0.000000
    12  H   -0.000001   0.000000   0.000000   0.000009   0.000000   0.000000
    13  H   -0.000006   0.000000   0.000015   0.000771  -0.000008   0.000000
    14  H    0.000000   0.000000   0.000000  -0.000001   0.000000   0.000000
    15  C    0.002469  -0.000056   0.000235  -0.000393   0.000010   0.000001
    16  O    0.000271   0.000000   0.000015  -0.000071   0.000000   0.000000
    17  N   -0.040497   0.001525  -0.007236   0.009771   0.000117  -0.000015
    18  H   -0.003829  -0.000025   0.003982  -0.000342  -0.000186   0.000006
    19  C    0.389285  -0.074188  -0.121058  -0.003206   0.004510   0.000102
    20  H   -0.031467   0.000193  -0.000406  -0.000101  -0.000224   0.000007
    21  C   -0.059213   0.003470   0.003607   0.000281  -0.000087  -0.000018
    22  H   -0.004962   0.000894  -0.000053  -0.000014  -0.000013   0.000000
    23  H   -0.002554   0.003790   0.000136  -0.000017  -0.000005   0.000001
    24  H    0.004965   0.000261  -0.000034  -0.000005   0.000001   0.000000
    25  C    4.130104   0.593466   0.287421  -0.015469  -0.030319  -0.000347
    26  O    0.593466   8.187994  -0.106571   0.001907   0.010000   0.005872
    27  N    0.287421  -0.106571   7.437338   0.302327   0.194798  -0.044467
    28  H   -0.015469   0.001907   0.302327   0.271657  -0.028278   0.002189
    29  C   -0.030319   0.010000   0.194798  -0.028278   5.040875   0.412026
    30  H   -0.000347   0.005872  -0.044467   0.002189   0.412026   0.490310
    31  C   -0.002878  -0.004342  -0.063221   0.003078   0.337212  -0.041654
    32  H    0.000246  -0.000005   0.000484   0.000313  -0.038863   0.004055
    33  H    0.000068   0.000015   0.004607  -0.000072  -0.037598   0.000181
    34  H    0.002090   0.004906  -0.005449  -0.000178  -0.029468  -0.003612
    35  C    0.003514   0.000429  -0.040488  -0.007010   0.378578  -0.043255
    36  O    0.000507  -0.000004  -0.009671   0.023800  -0.076086   0.001739
    37  N   -0.000092  -0.000001   0.002507   0.001037  -0.116038   0.003860
    38  H   -0.000006   0.000000   0.000006  -0.000033   0.000523   0.001374
    39  C    0.000001   0.000000  -0.000079  -0.000033   0.004365  -0.000093
    40  H    0.000000   0.000000   0.000007   0.000001  -0.000170  -0.000002
    41  H    0.000000   0.000000   0.000000   0.000000   0.000005  -0.000011
    42  H    0.000000   0.000000  -0.000004  -0.000004   0.000146  -0.000001
             31         32         33         34         35         36
     1  H    0.000000   0.000000   0.000000   0.000000   0.000000   0.000000
     2  C    0.000000   0.000000   0.000000   0.000000   0.000000   0.000000
     3  H    0.000000   0.000000   0.000000   0.000000   0.000000   0.000000
     4  H    0.000000   0.000000   0.000000   0.000000   0.000000   0.000000
     5  C    0.000000   0.000000   0.000000   0.000000   0.000000   0.000000
     6  O    0.000000   0.000000   0.000000   0.000000   0.000000   0.000000
     7  N    0.000000   0.000000   0.000000   0.000000   0.000000   0.000000
     8  H    0.000000   0.000000   0.000000   0.000000   0.000000   0.000000
     9  C    0.000000   0.000000   0.000000   0.000000   0.000000   0.000001
    10  H    0.000000   0.000000   0.000000   0.000000   0.000000   0.000000
    11  C    0.000000   0.000000   0.000000   0.000000   0.000000  -0.000068
    12  H    0.000000   0.000000   0.000000   0.000000   0.000000  -0.000001
    13  H    0.000000   0.000002   0.000000   0.000000   0.000004   0.000436
    14  H    0.000000   0.000000   0.000000   0.000000   0.000000   0.000000
    15  C   -0.000001   0.000000   0.000000   0.000000   0.000001  -0.000001
    16  O    0.000000   0.000000   0.000000   0.000000   0.000000   0.000000
    17  N   -0.000008  -0.000006   0.000000  -0.000012  -0.000033  -0.000038
    18  H    0.000003   0.000027   0.000000  -0.000002   0.000001  -0.000004
    19  C   -0.000273  -0.000014   0.000002   0.000134   0.000029  -0.000042
    20  H    0.000000   0.000000   0.000000  -0.000001  -0.000002   0.000000
    21  C    0.000014  -0.000001   0.000000  -0.000003  -0.000001   0.000000
    22  H    0.000001   0.000000   0.000000   0.000000   0.000000   0.000000
    23  H    0.000000   0.000000   0.000000   0.000000   0.000000   0.000000
    24  H    0.000000   0.000000   0.000000   0.000000   0.000000   0.000000
    25  C   -0.002878   0.000246   0.000068   0.002090   0.003514   0.000507
    26  O   -0.004342  -0.000005   0.000015   0.004906   0.000429  -0.000004
    27  N   -0.063221   0.000484   0.004607  -0.005449  -0.040488  -0.009671
    28  H    0.003078   0.000313  -0.000072  -0.000178  -0.007010   0.023800
    29  C    0.337212  -0.038863  -0.037598  -0.029468   0.378578  -0.076086
    30  H   -0.041654   0.004055   0.000181  -0.003612  -0.043255   0.001739
    31  C    5.148206   0.388264   0.382037   0.391614  -0.052551  -0.000884
    32  H    0.388264   0.517837  -0.024422  -0.023225  -0.004040   0.001539
    33  H    0.382037  -0.024422   0.537089  -0.022660  -0.003192   0.000022
    34  H    0.391614  -0.023225  -0.022660   0.469725   0.004122  -0.000071
    35  C   -0.052551  -0.004040  -0.003192   0.004122   4.161860   0.597034
    36  O   -0.000884   0.001539   0.000022  -0.000071   0.597034   8.181262
    37  N    0.001784   0.000418   0.002321  -0.000046   0.283487  -0.104142
    38  H    0.000322   0.000006   0.000548  -0.000037  -0.022192   0.002521
    39  C   -0.000262  -0.000009  -0.000009   0.000003  -0.028867   0.008403
    40  H   -0.000005   0.000000   0.000003   0.000000  -0.003785   0.001228
    41  H    0.000003   0.000000  -0.000007   0.000000   0.004550   0.000355
    42  H    0.000002   0.000003  -0.000012   0.000000  -0.002995   0.003064
             37         38         39         40         41         42
     1  H    0.000000   0.000000   0.000000   0.000000   0.000000   0.000000
     2  C    0.000000   0.000000   0.000000   0.000000   0.000000   0.000000
     3  H    0.000000   0.000000   0.000000   0.000000   0.000000   0.000000
     4  H    0.000000   0.000000   0.000000   0.000000   0.000000   0.000000
     5  C    0.000000   0.000000   0.000000   0.000000   0.000000   0.000000
     6  O    0.000000   0.000000   0.000000   0.000000   0.000000   0.000000
     7  N    0.000000   0.000000   0.000000   0.000000   0.000000   0.000000
     8  H    0.000000   0.000000   0.000000   0.000000   0.000000   0.000000
     9  C    0.000000   0.000000   0.000000   0.000000   0.000000   0.000000
    10  H    0.000000   0.000000   0.000000   0.000000   0.000000   0.000000
    11  C    0.000000   0.000000   0.000000   0.000000   0.000000   0.000000
    12  H    0.000000   0.000000   0.000000   0.000000   0.000000   0.000000
    13  H    0.000000   0.000000   0.000000   0.000000   0.000000   0.000000
    14  H    0.000000   0.000000   0.000000   0.000000   0.000000   0.000000
    15  C    0.000000   0.000000   0.000000   0.000000   0.000000   0.000000
    16  O    0.000000   0.000000   0.000000   0.000000   0.000000   0.000000
    17  N    0.000000   0.000000   0.000000   0.000000   0.000000   0.000000
    18  H    0.000000   0.000000   0.000000   0.000000   0.000000   0.000000
    19  C    0.000000   0.000000   0.000000   0.000000   0.000000   0.000000
    20  H    0.000000   0.000000   0.000000   0.000000   0.000000   0.000000
    21  C    0.000000   0.000000   0.000000   0.000000   0.000000   0.000000
    22  H    0.000000   0.000000   0.000000   0.000000   0.000000   0.000000
    23  H    0.000000   0.000000   0.000000   0.000000   0.000000   0.000000
    24  H    0.000000   0.000000   0.000000   0.000000   0.000000   0.000000
    25  C   -0.000092  -0.000006   0.000001   0.000000   0.000000   0.000000
    26  O   -0.000001   0.000000   0.000000   0.000000   0.000000   0.000000
    27  N    0.002507   0.000006  -0.000079   0.000007   0.000000  -0.000004
    28  H    0.001037  -0.000033  -0.000033   0.000001   0.000000  -0.000004
    29  C   -0.116038   0.000523   0.004365  -0.000170   0.000005   0.000146
    30  H    0.003860   0.001374  -0.000093  -0.000002  -0.000011  -0.000001
    31  C    0.001784   0.000322  -0.000262  -0.000005   0.000003   0.000002
    32  H    0.000418   0.000006  -0.000009   0.000000   0.000000   0.000003
    33  H    0.002321   0.000548  -0.000009   0.000003  -0.000007  -0.000012
    34  H   -0.000046  -0.000037   0.000003   0.000000   0.000000   0.000000
    35  C    0.283487  -0.022192  -0.028867  -0.003785   0.004550  -0.002995
    36  O   -0.104142   0.002521   0.008403   0.001228   0.000355   0.003064
    37  N    7.324866   0.328507   0.193920  -0.045340  -0.037023  -0.040644
    38  H    0.328507   0.320415  -0.022092   0.001368  -0.004582   0.002487
    39  C    0.193920  -0.022092   4.909787   0.406378   0.397406   0.404339
    40  H   -0.045340   0.001368   0.406378   0.517378  -0.030631  -0.032685
    41  H   -0.037023  -0.004582   0.397406  -0.030631   0.521619  -0.024885
    42  H   -0.040644   0.002487   0.404339  -0.032685  -0.024885   0.487850
 Mulliken atomic charges:
              1
     1  H    0.208697
     2  C   -0.576516
     3  H    0.173809
     4  H    0.202998
     5  C    0.755625
     6  O   -0.621280
     7  N   -0.822278
     8  H    0.417318
     9  C   -0.031762
    10  H    0.214614
    11  C   -0.489573
    12  H    0.179159
    13  H    0.174310
    14  H    0.210022
    15  C    0.788637
    16  O   -0.623063
    17  N   -0.844717
    18  H    0.391292
    19  C   -0.051122
    20  H    0.250058
    21  C   -0.474619
    22  H    0.159294
    23  H    0.202662
    24  H    0.184197
    25  C    0.777281
    26  O   -0.629528
    27  N   -0.838685
    28  H    0.438029
    29  C   -0.025826
    30  H    0.211755
    31  C   -0.486459
    32  H    0.177394
    33  H    0.161077
    34  H    0.212172
    35  C    0.774803
    36  O   -0.630898
    37  N   -0.799381
    38  H    0.390864
    39  C   -0.273158
    40  H    0.186256
    41  H    0.173200
    42  H    0.203340
 Sum of Mulliken atomic charges =   0.00000
 Mulliken charges with hydrogens summed into heavy atoms:
              1
     2  C    0.008988
     5  C    0.755625
     6  O   -0.621280
     7  N   -0.404961
     9  C    0.182852
    11  C    0.073918
    15  C    0.788637
    16  O   -0.623063
    17  N   -0.453425
    19  C    0.198936
    21  C    0.071534
    25  C    0.777281
    26  O   -0.629528
    27  N   -0.400657
    29  C    0.185930
    31  C    0.064184
    35  C    0.774803
    36  O   -0.630898
    37  N   -0.408517
    39  C    0.289638
 Sum of Mulliken charges with hydrogens summed into heavy atoms =   0.00000
 Electronic spatial extent (au):  <R**2>=           8956.9608
 Charge=              0.0000 electrons
 Dipole moment (field-independent basis, Debye):
    X=              3.9988    Y=             -0.8235    Z=             -0.7873  Tot=              4.1579
 Quadrupole moment (field-independent basis, Debye-Ang):
   XX=            -93.8376   YY=           -132.6628   ZZ=           -125.6378
   XY=            -15.5258   XZ=              8.4638   YZ=              7.3394
 Traceless Quadrupole moment (field-independent basis, Debye-Ang):
   XX=             23.5418   YY=            -15.2834   ZZ=             -8.2584
   XY=            -15.5258   XZ=              8.4638   YZ=              7.3394
 Octapole moment (field-independent basis, Debye-Ang**2):
  XXX=            157.5112  YYY=            -34.6047  ZZZ=             -2.7335  XYY=            -11.9294
  XXY=            -40.5395  XXZ=            -89.7658  XZZ=             35.8486  YZZ=              5.9119
  YYZ=            -12.3946  XYZ=            -24.7343
 Hexadecapole moment (field-independent basis, Debye-Ang**3):
 XXXX=          -7315.4763 YYYY=          -2307.7316 ZZZZ=           -575.9557 XXXY=           -386.7819
 XXXZ=            260.2546 YYYX=           -165.7582 YYYZ=             -2.0713 ZZZX=             17.6716
 ZZZY=             20.5591 XXYY=          -1886.2146 XXZZ=          -1698.8917 YYZZ=           -469.2355
 XXYZ=            174.5127 YYXZ=              4.4146 ZZXY=            -31.7944
 N-N= 1.616784068979D+03 E-N=-5.541318129258D+03  KE= 9.830940484809D+02
 1\1\GINC-NODE005\FOpt\RHF\6-31G(d)\C12H22N4O4\MANAGER\27-Dec-2016\0\\#
  HF/6-31G* Opt=(ModRedundant, maxcycles=1000, calcfc) geom=nocrowd\\Ph
 i Psi fixed scan\\0,1\H,1.5232524877,1.8588276889,-0.5908083263\C,2.13
 36259837,2.3010454035,-1.366509996\H,1.5867440738,3.1028797579,-1.8476
 219154\H,2.3445058419,1.5331767785,-2.1033063605\C,3.4413085941,2.7549
 287839,-0.7552361848\O,4.0214897549,2.0908342834,0.0636796868\N,3.9202
 748188,3.9336656978,-1.2036898763\H,3.4171881854,4.4757195973,-1.86943
 22004\C,5.164837003,4.486971435,-0.7296661929\H,5.2451503967,4.2735445
 063,0.3288033535\C,6.3807272448,3.8893621317,-1.4519262117\H,6.3254051
 091,4.0956537735,-2.5151883096\H,7.3113901051,4.2962346223,-1.07115192
 9\H,6.387788603,2.8177640249,-1.302228122\C,5.109807573,5.9951369892,-
 0.9499373857\O,4.3965420343,6.4845109853,-1.7840712135\N,5.9655141985,
 6.7230054395,-0.1901589251\H,6.3460569139,6.2795000498,0.6172964174\C,
 5.9497301302,8.1781568522,-0.2013465732\H,5.7007898996,8.4706792759,-1
 .2131150196\C,4.9114428821,8.7587219733,0.7553606835\H,5.1200298497,8.
 464312075,1.7790194099\H,4.9175704356,9.8384960701,0.7102304511\H,3.92
 76048258,8.397134328,0.4815739954\C,7.3450214592,8.7430045491,0.080681
 6821\O,7.4858461591,9.8221512026,0.5937407251\N,8.3792869905,7.9836945
 414,-0.3207727759\H,8.222970066,7.1269889865,-0.8034866827\C,9.7468400
 954,8.4367338664,-0.2330387304\H,9.7827727577,9.4846871997,-0.50639133
 47\C,10.3190489869,8.2718227381,1.1812294553\H,10.3141598436,7.2260875
 839,1.4689341563\H,11.3381640942,8.6394834771,1.2388800209\H,9.7124548
 648,8.8329023136,1.8794228464\C,10.5576808482,7.6154703866,-1.23265112
 86\O,10.1694110072,6.5466193623,-1.6287411295\N,11.7376258689,8.144237
 6161,-1.5990253992\H,11.9593646791,9.0709418638,-1.3179244484\C,12.617
 8386784,7.4694529582,-2.5314938883\H,12.2102412297,7.47107361,-3.53563
 84446\H,13.5716382738,7.9791520217,-2.5364340105\H,12.7672571526,6.444
 5331998,-2.2238601689\\Version=EM64L-G09RevA.02\State=1-A\HF=-984.5650
 704\RMSD=9.618e-09\RMSF=2.676e-04\Dipole=1.3978195,0.7469247,-0.405266
 2\Quadrupole=19.635657,-16.7641593,-2.8714978,9.9482024,0.0282342,1.67
 49525\PG=C01 [X(C12H22N4O4)]\\@


 ART, GLORY, FREEDOM FAIL, BUT NATURE STILL IS FAIR.

                                           -- BYRON
 Job cpu time:  0 days  4 hours  9 minutes 50.5 seconds.
 File lengths (MBytes):  RWF=    553 Int=      0 D2E=      0 Chk=     11 Scr=      1
 Normal termination of Gaussian 09 at Tue Dec 27 00:40:12 2016.
