 Entering Gaussian System, Link 0=g09
 Initial command:
 /home/steboss/Software/g09/l1.exe /tmp/Gau-32648.inp -scrdir=/tmp/
 Entering Link 1 = /home/steboss/Software/g09/l1.exe PID=     32650.
  
 Copyright (c) 1988,1990,1992,1993,1995,1998,2003,2009, Gaussian, Inc.
                  All Rights Reserved.
  
 This is part of the Gaussian(R) 09 program.  It is based on
 the Gaussian(R) 03 system (copyright 2003, Gaussian, Inc.),
 the Gaussian(R) 98 system (copyright 1998, Gaussian, Inc.),
 the Gaussian(R) 94 system (copyright 1995, Gaussian, Inc.),
 the Gaussian 92(TM) system (copyright 1992, Gaussian, Inc.),
 the Gaussian 90(TM) system (copyright 1990, Gaussian, Inc.),
 the Gaussian 88(TM) system (copyright 1988, Gaussian, Inc.),
 the Gaussian 86(TM) system (copyright 1986, Carnegie Mellon
 University), and the Gaussian 82(TM) system (copyright 1983,
 Carnegie Mellon University). Gaussian is a federally registered
 trademark of Gaussian, Inc.
  
 This software contains proprietary and confidential information,
 including trade secrets, belonging to Gaussian, Inc.
  
 This software is provided under written license and may be
 used, copied, transmitted, or stored only in accord with that
 written license.
  
 The following legend is applicable only to US Government
 contracts under FAR:
  
                    RESTRICTED RIGHTS LEGEND
  
 Use, reproduction and disclosure by the US Government is
 subject to restrictions as set forth in subparagraphs (a)
 and (c) of the Commercial Computer Software - Restricted
 Rights clause in FAR 52.227-19.
  
 Gaussian, Inc.
 340 Quinnipiac St., Bldg. 40, Wallingford CT 06492
  
  
 ---------------------------------------------------------------
 Warning -- This program may not be used in any manner that
 competes with the business of Gaussian, Inc. or will provide
 assistance to any competitor of Gaussian, Inc.  The licensee
 of this program is prohibited from giving any competitor of
 Gaussian, Inc. access to this program.  By using this program,
 the user acknowledges that Gaussian, Inc. is engaged in the
 business of creating and licensing software in the field of
 computational chemistry and represents and warrants to the
 licensee that it is not a competitor of Gaussian, Inc. and that
 it will not use this program in any manner prohibited above.
 ---------------------------------------------------------------
  

 Cite this work as:
 Gaussian 09, Revision A.02,
 M. J. Frisch, G. W. Trucks, H. B. Schlegel, G. E. Scuseria, 
 M. A. Robb, J. R. Cheeseman, G. Scalmani, V. Barone, B. Mennucci, 
 G. A. Petersson, H. Nakatsuji, M. Caricato, X. Li, H. P. Hratchian, 
 A. F. Izmaylov, J. Bloino, G. Zheng, J. L. Sonnenberg, M. Hada, 
 M. Ehara, K. Toyota, R. Fukuda, J. Hasegawa, M. Ishida, T. Nakajima, 
 Y. Honda, O. Kitao, H. Nakai, T. Vreven, J. A. Montgomery, Jr., 
 J. E. Peralta, F. Ogliaro, M. Bearpark, J. J. Heyd, E. Brothers, 
 K. N. Kudin, V. N. Staroverov, R. Kobayashi, J. Normand, 
 K. Raghavachari, A. Rendell, J. C. Burant, S. S. Iyengar, J. Tomasi, 
 M. Cossi, N. Rega, J. M. Millam, M. Klene, J. E. Knox, J. B. Cross, 
 V. Bakken, C. Adamo, J. Jaramillo, R. Gomperts, R. E. Stratmann, 
 O. Yazyev, A. J. Austin, R. Cammi, C. Pomelli, J. W. Ochterski, 
 R. L. Martin, K. Morokuma, V. G. Zakrzewski, G. A. Voth, 
 P. Salvador, J. J. Dannenberg, S. Dapprich, A. D. Daniels, 
 O. Farkas, J. B. Foresman, J. V. Ortiz, J. Cioslowski, 
 and D. J. Fox, Gaussian, Inc., Wallingford CT, 2009.
 
 ******************************************
 Gaussian 09:  EM64L-G09RevA.02 11-Jun-2009
                26-Dec-2016 
 ******************************************
 %chk=structure_90.chk
 -------------------------------------------------------------------
 # HF/6-31G* Opt=(ModRedundant, maxcycles=1000, calcfc) geom=nocrowd
 -------------------------------------------------------------------
 1/6=1000,10=4,18=120,19=15,38=1/1,3;
 2/9=110,12=1,17=6,18=5,40=1/2;
 3/5=1,6=6,7=1,11=9,16=1,25=1,30=1,71=2/1,2,3;
 4//1;
 5/5=2,38=5/2;
 8/6=4,10=90,11=11/1;
 11/6=1,8=1,9=11,15=111,16=1/1,2,10;
 10/6=1,7=6,13=1/2;
 6/7=2,8=2,9=2,10=2,28=1/1;
 7/10=1,18=20,25=1/1,2,3,16;
 1/6=1000,10=4,18=20,19=15/3(2);
 2/9=110,12=1/2;
 99//99;
 2/9=110,12=1/2;
 3/5=1,6=6,7=1,11=9,16=1,25=1,30=1,71=1/1,2,3;
 4/5=5,16=3/1;
 5/5=2,38=5/2;
 7//1,2,3,16;
 1/6=1000,18=20,19=15/3(-5);
 2/9=110,12=1/2;
 6/7=2,8=2,9=2,10=2,19=2,28=1/1;
 99/9=1/99;
 ------------------
 Phi Psi fixed scan
 ------------------
 Symbolic Z-matrix:
 Charge =  0 Multiplicity = 1
 H                     2.5153    1.       -1.923 
 C                     2.5153    2.09     -1.923 
 H                     1.6255    2.4539   -1.4093 
 H                     2.5153    2.4539   -2.9505 
 C                     3.7515    2.6408   -1.2093 
 O                     4.5856    1.8774   -0.7277 
 N                     3.8623    3.9697   -1.1453 
 H                     3.1502    4.5562   -1.5565 
 C                     4.9863    4.6139   -0.4964 
 H                     5.0214    4.3155    0.5514 
 C                     6.3021    4.2208   -1.1594 
 H                     6.2857    4.5214   -2.2071 
 H                     7.1283    4.7189   -0.652 
 H                     6.4342    3.1409   -1.0938 
 C                     4.8645    6.1294   -0.5667 
 O                     3.9015    6.6527   -1.1227 
 N                     5.846     6.8349    0. 
 H                     6.6176    6.3592    0.4455 
 C                     5.8461    8.2839    0. 
 H                     5.3323    8.6477   -0.8898 
 C                     5.1347    8.8329    1.2322 
 H                     5.6431    8.4846    2.1312 
 H                     5.1499    9.9224    1.2058 
 H                     4.1019    8.4846    1.2414 
 C                     7.266     8.8318    0. 
 O                     7.848     9.0564    1.0589 
 N                     7.8237    9.047    -1.1937 
 H                     7.305     8.8468   -2.0369 
 C                     9.1698    9.5664   -1.3276 
 H                     9.2317    10.5441  -0.8496 
 C                     10.1846   8.6373   -0.6699 
 H                     10.1409   7.6568   -1.144 
 H                     11.186    9.052    -0.7857 
 H                     9.9534    8.5382    0.3906 
 C                     9.5564    9.7156   -2.792 
 O                     8.7642    9.4099   -3.6806 
 N                     10.7798   10.1877  -3.0422 
 H                     11.3955   10.4253  -2.2776 
 C                     11.2665   10.3755  -4.3941 
 H                     10.4943   10.0775  -5.1034 
 H                     11.5155   11.4253  -4.5486 
 H                     12.1562   9.765    -4.5486 
 
 The following ModRedundant input section has been read:
 D   15   17   19   25 F                                                       
 D   17   19   25   27 F                                                       

 GradGradGradGradGradGradGradGradGradGradGradGradGradGradGradGradGradGrad
 Berny optimization.
 Initialization pass.
                           ----------------------------
                           !    Initial Parameters    !
                           ! (Angstroms and Degrees)  !
 --------------------------                            --------------------------
 ! Name  Definition              Value          Derivative Info.                !
 --------------------------------------------------------------------------------
 ! R1    R(1,2)                  1.09           calculate D2E/DX2 analytically  !
 ! R2    R(2,3)                  1.09           calculate D2E/DX2 analytically  !
 ! R3    R(2,4)                  1.09           calculate D2E/DX2 analytically  !
 ! R4    R(2,5)                  1.53           calculate D2E/DX2 analytically  !
 ! R5    R(5,6)                  1.229          calculate D2E/DX2 analytically  !
 ! R6    R(5,7)                  1.335          calculate D2E/DX2 analytically  !
 ! R7    R(7,8)                  1.01           calculate D2E/DX2 analytically  !
 ! R8    R(7,9)                  1.4489         calculate D2E/DX2 analytically  !
 ! R9    R(9,10)                 1.09           calculate D2E/DX2 analytically  !
 ! R10   R(9,11)                 1.5249         calculate D2E/DX2 analytically  !
 ! R11   R(9,15)                 1.522          calculate D2E/DX2 analytically  !
 ! R12   R(11,12)                1.0901         calculate D2E/DX2 analytically  !
 ! R13   R(11,13)                1.09           calculate D2E/DX2 analytically  !
 ! R14   R(11,14)                1.0899         calculate D2E/DX2 analytically  !
 ! R15   R(15,16)                1.229          calculate D2E/DX2 analytically  !
 ! R16   R(15,17)                1.335          calculate D2E/DX2 analytically  !
 ! R17   R(17,18)                1.01           calculate D2E/DX2 analytically  !
 ! R18   R(17,19)                1.449          calculate D2E/DX2 analytically  !
 ! R19   R(19,20)                1.09           calculate D2E/DX2 analytically  !
 ! R20   R(19,21)                1.5251         calculate D2E/DX2 analytically  !
 ! R21   R(19,25)                1.5219         calculate D2E/DX2 analytically  !
 ! R22   R(21,22)                1.0899         calculate D2E/DX2 analytically  !
 ! R23   R(21,23)                1.0899         calculate D2E/DX2 analytically  !
 ! R24   R(21,24)                1.09           calculate D2E/DX2 analytically  !
 ! R25   R(25,26)                1.229          calculate D2E/DX2 analytically  !
 ! R26   R(25,27)                1.335          calculate D2E/DX2 analytically  !
 ! R27   R(27,28)                1.01           calculate D2E/DX2 analytically  !
 ! R28   R(27,29)                1.449          calculate D2E/DX2 analytically  !
 ! R29   R(29,30)                1.0901         calculate D2E/DX2 analytically  !
 ! R30   R(29,31)                1.525          calculate D2E/DX2 analytically  !
 ! R31   R(29,35)                1.5219         calculate D2E/DX2 analytically  !
 ! R32   R(31,32)                1.09           calculate D2E/DX2 analytically  !
 ! R33   R(31,33)                1.09           calculate D2E/DX2 analytically  !
 ! R34   R(31,34)                1.0899         calculate D2E/DX2 analytically  !
 ! R35   R(35,36)                1.2291         calculate D2E/DX2 analytically  !
 ! R36   R(35,37)                1.335          calculate D2E/DX2 analytically  !
 ! R37   R(37,38)                1.01           calculate D2E/DX2 analytically  !
 ! R38   R(37,39)                1.4491         calculate D2E/DX2 analytically  !
 ! R39   R(39,40)                1.09           calculate D2E/DX2 analytically  !
 ! R40   R(39,41)                1.0899         calculate D2E/DX2 analytically  !
 ! R41   R(39,42)                1.09           calculate D2E/DX2 analytically  !
 ! A1    A(1,2,3)              109.5032         calculate D2E/DX2 analytically  !
 ! A2    A(1,2,4)              109.5021         calculate D2E/DX2 analytically  !
 ! A3    A(1,2,5)              111.1            calculate D2E/DX2 analytically  !
 ! A4    A(3,2,4)              109.4387         calculate D2E/DX2 analytically  !
 ! A5    A(3,2,5)              108.6357         calculate D2E/DX2 analytically  !
 ! A6    A(4,2,5)              108.6341         calculate D2E/DX2 analytically  !
 ! A7    A(2,5,6)              120.4994         calculate D2E/DX2 analytically  !
 ! A8    A(2,5,7)              116.5999         calculate D2E/DX2 analytically  !
 ! A9    A(6,5,7)              122.9007         calculate D2E/DX2 analytically  !
 ! A10   A(5,7,8)              119.9983         calculate D2E/DX2 analytically  !
 ! A11   A(5,7,9)              121.8976         calculate D2E/DX2 analytically  !
 ! A12   A(8,7,9)              118.1041         calculate D2E/DX2 analytically  !
 ! A13   A(7,9,10)             109.4973         calculate D2E/DX2 analytically  !
 ! A14   A(7,9,11)             111.1021         calculate D2E/DX2 analytically  !
 ! A15   A(7,9,15)             111.0961         calculate D2E/DX2 analytically  !
 ! A16   A(10,9,11)            108.6373         calculate D2E/DX2 analytically  !
 ! A17   A(10,9,15)            108.6363         calculate D2E/DX2 analytically  !
 ! A18   A(11,9,15)            107.7971         calculate D2E/DX2 analytically  !
 ! A19   A(9,11,12)            109.4995         calculate D2E/DX2 analytically  !
 ! A20   A(9,11,13)            109.5016         calculate D2E/DX2 analytically  !
 ! A21   A(9,11,14)            109.5009         calculate D2E/DX2 analytically  !
 ! A22   A(12,11,13)           109.4378         calculate D2E/DX2 analytically  !
 ! A23   A(12,11,14)           109.4443         calculate D2E/DX2 analytically  !
 ! A24   A(13,11,14)           109.4433         calculate D2E/DX2 analytically  !
 ! A25   A(9,15,16)            120.5033         calculate D2E/DX2 analytically  !
 ! A26   A(9,15,17)            116.6002         calculate D2E/DX2 analytically  !
 ! A27   A(16,15,17)           122.8965         calculate D2E/DX2 analytically  !
 ! A28   A(15,17,18)           120.0            calculate D2E/DX2 analytically  !
 ! A29   A(15,17,19)           121.9052         calculate D2E/DX2 analytically  !
 ! A30   A(18,17,19)           118.0948         calculate D2E/DX2 analytically  !
 ! A31   A(17,19,20)           109.4954         calculate D2E/DX2 analytically  !
 ! A32   A(17,19,21)           111.0974         calculate D2E/DX2 analytically  !
 ! A33   A(17,19,25)           111.1042         calculate D2E/DX2 analytically  !
 ! A34   A(20,19,21)           108.6349         calculate D2E/DX2 analytically  !
 ! A35   A(20,19,25)           108.6399         calculate D2E/DX2 analytically  !
 ! A36   A(21,19,25)           107.7944         calculate D2E/DX2 analytically  !
 ! A37   A(19,21,22)           109.4996         calculate D2E/DX2 analytically  !
 ! A38   A(19,21,23)           109.4977         calculate D2E/DX2 analytically  !
 ! A39   A(19,21,24)           109.4988         calculate D2E/DX2 analytically  !
 ! A40   A(22,21,23)           109.4452         calculate D2E/DX2 analytically  !
 ! A41   A(22,21,24)           109.4447         calculate D2E/DX2 analytically  !
 ! A42   A(23,21,24)           109.4412         calculate D2E/DX2 analytically  !
 ! A43   A(19,25,26)           120.5038         calculate D2E/DX2 analytically  !
 ! A44   A(19,25,27)           116.6007         calculate D2E/DX2 analytically  !
 ! A45   A(26,25,27)           122.8955         calculate D2E/DX2 analytically  !
 ! A46   A(25,27,28)           119.999          calculate D2E/DX2 analytically  !
 ! A47   A(25,27,29)           121.9028         calculate D2E/DX2 analytically  !
 ! A48   A(28,27,29)           118.0982         calculate D2E/DX2 analytically  !
 ! A49   A(27,29,30)           109.4955         calculate D2E/DX2 analytically  !
 ! A50   A(27,29,31)           111.0965         calculate D2E/DX2 analytically  !
 ! A51   A(27,29,35)           111.1024         calculate D2E/DX2 analytically  !
 ! A52   A(30,29,31)           108.6353         calculate D2E/DX2 analytically  !
 ! A53   A(30,29,35)           108.638          calculate D2E/DX2 analytically  !
 ! A54   A(31,29,35)           107.7987         calculate D2E/DX2 analytically  !
 ! A55   A(29,31,32)           109.4985         calculate D2E/DX2 analytically  !
 ! A56   A(29,31,33)           109.4953         calculate D2E/DX2 analytically  !
 ! A57   A(29,31,34)           109.5041         calculate D2E/DX2 analytically  !
 ! A58   A(32,31,33)           109.4422         calculate D2E/DX2 analytically  !
 ! A59   A(32,31,34)           109.4463         calculate D2E/DX2 analytically  !
 ! A60   A(33,31,34)           109.4408         calculate D2E/DX2 analytically  !
 ! A61   A(29,35,36)           120.5006         calculate D2E/DX2 analytically  !
 ! A62   A(29,35,37)           116.6024         calculate D2E/DX2 analytically  !
 ! A63   A(36,35,37)           122.8969         calculate D2E/DX2 analytically  !
 ! A64   A(35,37,38)           119.9966         calculate D2E/DX2 analytically  !
 ! A65   A(35,37,39)           121.9029         calculate D2E/DX2 analytically  !
 ! A66   A(38,37,39)           118.1005         calculate D2E/DX2 analytically  !
 ! A67   A(37,39,40)           109.494          calculate D2E/DX2 analytically  !
 ! A68   A(37,39,41)           109.5001         calculate D2E/DX2 analytically  !
 ! A69   A(37,39,42)           109.4993         calculate D2E/DX2 analytically  !
 ! A70   A(40,39,41)           109.4459         calculate D2E/DX2 analytically  !
 ! A71   A(40,39,42)           109.4432         calculate D2E/DX2 analytically  !
 ! A72   A(41,39,42)           109.4447         calculate D2E/DX2 analytically  !
 ! D1    D(1,2,5,6)             -0.0022         calculate D2E/DX2 analytically  !
 ! D2    D(1,2,5,7)           -179.9987         calculate D2E/DX2 analytically  !
 ! D3    D(3,2,5,6)            120.5139         calculate D2E/DX2 analytically  !
 ! D4    D(3,2,5,7)            -59.4827         calculate D2E/DX2 analytically  !
 ! D5    D(4,2,5,6)           -120.5158         calculate D2E/DX2 analytically  !
 ! D6    D(4,2,5,7)             59.4876         calculate D2E/DX2 analytically  !
 ! D7    D(2,5,7,8)             -0.0058         calculate D2E/DX2 analytically  !
 ! D8    D(2,5,7,9)           -179.9989         calculate D2E/DX2 analytically  !
 ! D9    D(6,5,7,8)            179.9977         calculate D2E/DX2 analytically  !
 ! D10   D(6,5,7,9)              0.0046         calculate D2E/DX2 analytically  !
 ! D11   D(5,7,9,10)           -60.0044         calculate D2E/DX2 analytically  !
 ! D12   D(5,7,9,11)            59.997          calculate D2E/DX2 analytically  !
 ! D13   D(5,7,9,15)           179.9991         calculate D2E/DX2 analytically  !
 ! D14   D(8,7,9,10)           120.0023         calculate D2E/DX2 analytically  !
 ! D15   D(8,7,9,11)          -119.9962         calculate D2E/DX2 analytically  !
 ! D16   D(8,7,9,15)             0.0059         calculate D2E/DX2 analytically  !
 ! D17   D(7,9,11,12)           60.0032         calculate D2E/DX2 analytically  !
 ! D18   D(7,9,11,13)          179.9981         calculate D2E/DX2 analytically  !
 ! D19   D(7,9,11,14)          -59.9993         calculate D2E/DX2 analytically  !
 ! D20   D(10,9,11,12)        -179.4858         calculate D2E/DX2 analytically  !
 ! D21   D(10,9,11,13)         -59.4909         calculate D2E/DX2 analytically  !
 ! D22   D(10,9,11,14)          60.5117         calculate D2E/DX2 analytically  !
 ! D23   D(15,9,11,12)         -61.9399         calculate D2E/DX2 analytically  !
 ! D24   D(15,9,11,13)          58.055          calculate D2E/DX2 analytically  !
 ! D25   D(15,9,11,14)         178.0576         calculate D2E/DX2 analytically  !
 ! D26   D(7,9,15,16)           -0.0028         calculate D2E/DX2 analytically  !
 ! D27   D(7,9,15,17)          179.9973         calculate D2E/DX2 analytically  !
 ! D28   D(10,9,15,16)        -120.5094         calculate D2E/DX2 analytically  !
 ! D29   D(10,9,15,17)          59.4906         calculate D2E/DX2 analytically  !
 ! D30   D(11,9,15,16)         121.944          calculate D2E/DX2 analytically  !
 ! D31   D(11,9,15,17)         -58.056          calculate D2E/DX2 analytically  !
 ! D32   D(9,15,17,18)          -0.0005         calculate D2E/DX2 analytically  !
 ! D33   D(9,15,17,19)         179.9968         calculate D2E/DX2 analytically  !
 ! D34   D(16,15,17,18)        179.9995         calculate D2E/DX2 analytically  !
 ! D35   D(16,15,17,19)         -0.0032         calculate D2E/DX2 analytically  !
 ! D36   D(15,17,19,20)        -29.9927         calculate D2E/DX2 analytically  !
 ! D37   D(15,17,19,21)         90.0016         calculate D2E/DX2 analytically  !
 ! D38   D(15,17,19,25)       -149.9974         frozen, calculate D2E/DX2 analyt!
 ! D39   D(18,17,19,20)        150.0046         calculate D2E/DX2 analytically  !
 ! D40   D(18,17,19,21)        -90.0011         calculate D2E/DX2 analytically  !
 ! D41   D(18,17,19,25)         29.9999         calculate D2E/DX2 analytically  !
 ! D42   D(17,19,21,22)         60.0039         calculate D2E/DX2 analytically  !
 ! D43   D(17,19,21,23)       -179.9943         calculate D2E/DX2 analytically  !
 ! D44   D(17,19,21,24)        -59.998          calculate D2E/DX2 analytically  !
 ! D45   D(20,19,21,22)       -179.4919         calculate D2E/DX2 analytically  !
 ! D46   D(20,19,21,23)        -59.4901         calculate D2E/DX2 analytically  !
 ! D47   D(20,19,21,24)         60.5062         calculate D2E/DX2 analytically  !
 ! D48   D(25,19,21,22)        -61.9445         calculate D2E/DX2 analytically  !
 ! D49   D(25,19,21,23)         58.0573         calculate D2E/DX2 analytically  !
 ! D50   D(25,19,21,24)        178.0536         calculate D2E/DX2 analytically  !
 ! D51   D(17,19,25,26)        -90.0011         calculate D2E/DX2 analytically  !
 ! D52   D(17,19,25,27)         90.0            frozen, calculate D2E/DX2 analyt!
 ! D53   D(20,19,25,26)        149.4872         calculate D2E/DX2 analytically  !
 ! D54   D(20,19,25,27)        -30.5117         calculate D2E/DX2 analytically  !
 ! D55   D(21,19,25,26)         31.943          calculate D2E/DX2 analytically  !
 ! D56   D(21,19,25,27)       -148.0559         calculate D2E/DX2 analytically  !
 ! D57   D(19,25,27,28)         -0.0029         calculate D2E/DX2 analytically  !
 ! D58   D(19,25,27,29)       -179.999          calculate D2E/DX2 analytically  !
 ! D59   D(26,25,27,28)        179.9982         calculate D2E/DX2 analytically  !
 ! D60   D(26,25,27,29)          0.0021         calculate D2E/DX2 analytically  !
 ! D61   D(25,27,29,30)        -59.9981         calculate D2E/DX2 analytically  !
 ! D62   D(25,27,29,31)         59.9962         calculate D2E/DX2 analytically  !
 ! D63   D(25,27,29,35)       -179.9993         calculate D2E/DX2 analytically  !
 ! D64   D(28,27,29,30)        120.0057         calculate D2E/DX2 analytically  !
 ! D65   D(28,27,29,31)       -120.0            calculate D2E/DX2 analytically  !
 ! D66   D(28,27,29,35)          0.0045         calculate D2E/DX2 analytically  !
 ! D67   D(27,29,31,32)         60.0075         calculate D2E/DX2 analytically  !
 ! D68   D(27,29,31,33)       -179.9966         calculate D2E/DX2 analytically  !
 ! D69   D(27,29,31,34)        -59.9989         calculate D2E/DX2 analytically  !
 ! D70   D(30,29,31,32)       -179.4885         calculate D2E/DX2 analytically  !
 ! D71   D(30,29,31,33)        -59.4926         calculate D2E/DX2 analytically  !
 ! D72   D(30,29,31,34)         60.5051         calculate D2E/DX2 analytically  !
 ! D73   D(35,29,31,32)        -61.9409         calculate D2E/DX2 analytically  !
 ! D74   D(35,29,31,33)         58.055          calculate D2E/DX2 analytically  !
 ! D75   D(35,29,31,34)        178.0527         calculate D2E/DX2 analytically  !
 ! D76   D(27,29,35,36)         -0.0022         calculate D2E/DX2 analytically  !
 ! D77   D(27,29,35,37)        179.9981         calculate D2E/DX2 analytically  !
 ! D78   D(30,29,35,36)       -120.5116         calculate D2E/DX2 analytically  !
 ! D79   D(30,29,35,37)         59.4887         calculate D2E/DX2 analytically  !
 ! D80   D(31,29,35,36)        121.9425         calculate D2E/DX2 analytically  !
 ! D81   D(31,29,35,37)        -58.0572         calculate D2E/DX2 analytically  !
 ! D82   D(29,35,37,38)         -0.001          calculate D2E/DX2 analytically  !
 ! D83   D(29,35,37,39)        179.9989         calculate D2E/DX2 analytically  !
 ! D84   D(36,35,37,38)        179.9994         calculate D2E/DX2 analytically  !
 ! D85   D(36,35,37,39)         -0.0008         calculate D2E/DX2 analytically  !
 ! D86   D(35,37,39,40)         -0.0003         calculate D2E/DX2 analytically  !
 ! D87   D(35,37,39,41)        120.0004         calculate D2E/DX2 analytically  !
 ! D88   D(35,37,39,42)       -119.9972         calculate D2E/DX2 analytically  !
 ! D89   D(38,37,39,40)        179.9995         calculate D2E/DX2 analytically  !
 ! D90   D(38,37,39,41)        -59.9998         calculate D2E/DX2 analytically  !
 ! D91   D(38,37,39,42)         60.0026         calculate D2E/DX2 analytically  !
 --------------------------------------------------------------------------------
 Trust Radius=3.00D-01 FncErr=1.00D-07 GrdErr=1.00D-07
 Number of steps in this run= 252 maximum allowed number of steps= 252.
 GradGradGradGradGradGradGradGradGradGradGradGradGradGradGradGradGradGrad

                          Input orientation:                          
 ---------------------------------------------------------------------
 Center     Atomic      Atomic             Coordinates (Angstroms)
 Number     Number       Type             X           Y           Z
 ---------------------------------------------------------------------
      1          1           0        2.515300    1.000000   -1.923000
      2          6           0        2.515300    2.090000   -1.923000
      3          1           0        1.625500    2.453900   -1.409300
      4          1           0        2.515300    2.453900   -2.950500
      5          6           0        3.751500    2.640800   -1.209300
      6          8           0        4.585600    1.877400   -0.727700
      7          7           0        3.862300    3.969700   -1.145300
      8          1           0        3.150200    4.556200   -1.556500
      9          6           0        4.986300    4.613900   -0.496400
     10          1           0        5.021400    4.315500    0.551400
     11          6           0        6.302100    4.220800   -1.159400
     12          1           0        6.285700    4.521400   -2.207100
     13          1           0        7.128300    4.718900   -0.652000
     14          1           0        6.434200    3.140900   -1.093800
     15          6           0        4.864500    6.129400   -0.566700
     16          8           0        3.901500    6.652700   -1.122700
     17          7           0        5.846000    6.834900    0.000000
     18          1           0        6.617600    6.359200    0.445500
     19          6           0        5.846100    8.283900    0.000000
     20          1           0        5.332300    8.647700   -0.889800
     21          6           0        5.134700    8.832900    1.232200
     22          1           0        5.643100    8.484600    2.131200
     23          1           0        5.149900    9.922400    1.205800
     24          1           0        4.101900    8.484600    1.241400
     25          6           0        7.266000    8.831800    0.000000
     26          8           0        7.848000    9.056400    1.058900
     27          7           0        7.823700    9.047000   -1.193700
     28          1           0        7.305000    8.846800   -2.036900
     29          6           0        9.169800    9.566400   -1.327600
     30          1           0        9.231700   10.544100   -0.849600
     31          6           0       10.184600    8.637300   -0.669900
     32          1           0       10.140900    7.656800   -1.144000
     33          1           0       11.186000    9.052000   -0.785700
     34          1           0        9.953400    8.538200    0.390600
     35          6           0        9.556400    9.715600   -2.792000
     36          8           0        8.764200    9.409900   -3.680600
     37          7           0       10.779800   10.187700   -3.042200
     38          1           0       11.395500   10.425300   -2.277600
     39          6           0       11.266500   10.375500   -4.394100
     40          1           0       10.494300   10.077500   -5.103400
     41          1           0       11.515500   11.425300   -4.548600
     42          1           0       12.156200    9.765000   -4.548600
 ---------------------------------------------------------------------
                    Distance matrix (angstroms):
                    1          2          3          4          5
     1  H    0.000000
     2  C    1.090000   0.000000
     3  H    1.780297   1.089979   0.000000
     4  H    1.780332   1.090036   1.779618   0.000000
     5  C    2.174806   1.530013   2.143550   2.143572   0.000000
     6  O    2.546510   2.400017   3.091783   3.091817   1.229000
     7  N    3.352364   2.439774   2.714889   2.714923   1.335046
     8  H    3.630975   2.572851   2.601162   2.601153   2.037368
     9  C    4.604487   3.809344   4.098044   4.098054   2.434354
    10  H    4.836914   4.166058   4.340741   4.691417   2.741775
    11  C    5.029562   4.411717   5.005494   4.546408   3.000742
    12  H    5.166903   4.495368   5.160281   4.363842   3.309748
    13  H    6.060151   5.459517   5.998711   5.629662   4.003981
    14  H    4.541894   4.141225   4.867762   4.390567   2.731359
    15  C    5.802502   4.865701   4.970955   4.970970   3.717800
    16  O    5.874951   4.835314   4.784583   4.784592   4.015637
    17  N    6.988387   6.107828   6.244350   6.244371   4.841468
    18  H    7.152600   6.376890   6.603992   6.604018   4.977890
    19  C    8.236951   7.290854   7.334064   7.334070   6.139571
    20  H    8.215248   7.211548   7.236947   7.109510   6.219635
    21  C    8.841429   7.891973   7.744911   8.065226   6.798255
    22  H    9.068567   8.192105   8.065085   8.483876   6.991930
    23  H    9.815280   8.836119   8.662484   8.943961   7.798072
    24  H    8.279491   7.309011   7.037621   7.513898   6.346551
    25  C    9.359710   8.468704   8.630120   8.482465   7.220983
    26  O   10.111132   9.266075   9.402368   9.386479   7.942667
    27  N    9.667740   8.781278   9.051692   8.644907   7.590946
    28  H    9.193828   8.283028   8.574367   8.040215   7.199078
    29  C   10.863705  10.026636  10.368741   9.874403   8.794084
    30  H   11.719730  10.850531  11.118403  10.722646   9.624143
    31  C   10.895723  10.161474  10.584864  10.112059   8.811001
    32  H   10.152320   9.473430   9.982614   9.406561   8.123358
    33  H   11.887354  11.177832  11.633012  11.108660   9.826226
    34  H   10.839859  10.112238  10.469588  10.173838   8.706467
    35  C   11.238057  10.415470  10.841740  10.116052   9.287335
    36  O   10.623762   9.783601  10.222807   9.379112   8.778109
    37  N   12.408400  11.624427  12.094595  11.319100  10.474360
    38  H   12.954535  12.184454  12.639227  11.952153  10.962228
    39  C   13.061004  12.302006  12.830030  11.891982  11.244721
    40  H   12.497215  11.729431  12.264635  11.243607  10.767259
    41  H   14.020851  13.230465  13.716899  12.807948  12.190080
    42  H   13.291575  12.599458  13.198600  12.204633  11.512781
                    6          7          8          9         10
     6  O    0.000000
     7  N    2.252836   0.000000
     8  H    3.150119   1.010027   0.000000
     9  C    2.775336   1.448945   2.120944   0.000000
    10  H    2.787535   2.083718   2.828881   1.090027   0.000000
    11  C    2.936709   2.452728   3.194473   1.524935   2.139158
    12  H    3.474147   2.702713   3.202476   2.150230   3.041409
    13  H    3.813814   3.386946   4.082875   2.150209   2.459661
    14  H    2.268873   2.702634   3.605804   2.150123   2.466247
    15  C    4.264178   2.450201   2.528535   1.522011   2.136586
    16  O    4.840197   2.683382   2.268909   2.392854   3.085335
    17  N    5.166717   3.668262   3.857785   2.432763   2.707653
    18  H    5.058849   3.978949   4.391090   2.567954   2.595338
    19  C    6.569753   4.884618   4.856575   3.801916   4.090522
    20  H    6.813281   4.910180   4.684701   4.067680   4.576207
    21  C    7.247186   5.560775   5.477705   4.561802   4.569817
    22  H    7.276449   5.855854   5.936835   4.724192   4.501519
    23  H    8.293303   6.528417   6.358082   5.577134   5.646422
    24  H    6.911325   5.112540   4.915924   4.334101   4.324694
    25  C    7.488509   6.044576   6.135410   4.820179   5.073385
    26  O    8.085372   6.827798   7.011522   5.508547   5.542865
    27  N    7.880711   6.440032   6.491572   5.309373   5.769346
    28  H    7.594845   6.035995   5.991861   5.066256   5.696210
    29  C    8.971928   7.715299   7.835182   6.536040   6.950670
    30  H    9.834266   8.493564   8.563837   7.301742   7.647541
    31  C    8.777721   7.872990   8.180722   6.575726   6.843111
    32  H    8.027212   7.281176   7.658574   6.020675   6.344127
    33  H    9.749027   8.921640   9.240153   7.629987   7.888255
    34  H    8.627290   7.767347   8.119794   6.392103   6.494742
    35  C    9.508289   8.255287   8.317768   7.223776   7.804206
    36  O    9.105980   7.749332   7.719275   6.885730   7.607318
    37  N   10.620081   9.492816   9.598536   8.432852   8.975292
    38  H   11.038275   9.985288  10.146492   8.833057   9.271572
    39  C   11.414667  10.315578  10.382223   9.371713  10.009138
    40  H   11.013679   9.846583   9.848912   9.022940   9.753463
    41  H   12.401015  11.213380  11.230113  10.268688  10.896449
    42  H   11.581343  10.675052  10.825539   9.713991  10.325329
                   11         12         13         14         15
    11  C    0.000000
    12  H    1.090094   0.000000
    13  H    1.090030   1.779696   0.000000
    14  H    1.089926   1.779682   1.779620   0.000000
    15  C    2.461857   2.701182   2.668628   3.416566   0.000000
    16  O    3.417362   3.376799   3.791224   4.329913   1.228962
    17  N    2.895817   3.227524   2.558682   3.897180   1.334999
    18  H    2.692211   3.244064   2.038604   3.572189   2.037331
    19  C    4.249815   4.384170   3.844264   5.290814   2.434452
    20  H    4.539894   4.435155   4.326388   5.619666   2.581679
    21  C    5.324851   5.634059   4.944658   6.284731   3.258521
    22  H    5.426078   5.911069   4.912486   6.291390   3.664949
    23  H    6.279329   6.489124   5.868722   7.275048   4.196434
    24  H    5.365138   5.689296   5.188888   6.280757   3.065575
    25  C    4.851251   4.940833   4.166535   5.854454   3.659415
    26  O    5.540189   5.802910   4.717950   6.451828   4.484549
    27  N    5.060499   4.886049   4.416953   6.068172   4.202664
    28  H    4.814114   4.447137   4.357606   5.848506   3.937231
    29  C    6.068561   5.877379   5.303057   6.987505   5.561254
    30  H    6.975862   6.840661   6.196474   7.917892   6.216273
    31  C    5.900753   5.874099   4.969421   6.667504   5.882489
    32  H    5.151963   5.081681   4.236635   5.842559   5.523280
    33  H    6.879871   6.823464   5.937892   7.590496   6.967849
    34  H    5.862971   6.027831   4.863667   6.612039   5.711011
    35  C    6.591561   6.165979   5.953342   7.473868   6.310841
    36  O    6.272571   5.675526   5.818425   7.170829   5.972078
    37  N    7.694065   7.280198   6.996734   8.505169   7.588720
    38  H    8.104870   7.808397   7.308527   8.892602   8.002243
    39  C    8.543353   7.991359   7.945133   9.304974   8.582771
    40  H    8.211614   7.547921   7.736893   8.982078   8.237948
    41  H    9.516882   8.972027   8.911050  10.314385   9.388178
    42  H    8.746160   8.212231   8.119507   9.410400   9.068738
                   16         17         18         19         20
    16  O    0.000000
    17  N    2.252717   0.000000
    18  H    3.150015   1.010014   0.000000
    19  C    2.775381   1.449000   2.120885   0.000000
    20  H    2.466061   2.083717   2.944869   1.089993   0.000000
    21  C    3.437966   2.452808   2.989495   1.525060   2.139212
    22  H    4.120303   2.702719   2.882457   2.150233   3.041322
    23  H    4.203731   3.386911   3.927925   2.150193   2.459608
    24  H    2.997497   2.702678   3.388145   2.150253   2.466272
    25  C    4.162787   2.450308   2.594734   1.521943   2.136547
    26  O    5.109992   3.172434   3.027380   2.392829   3.208304
    27  N    4.595799   3.198375   3.371338   2.432723   2.541431
    28  H    4.151343   3.213314   3.580919   2.567919   2.290638
    29  C    6.023837   4.502362   4.465841   3.801882   3.970149
    30  H    6.605196   5.093422   5.101391   4.158439   4.336274
    31  C    6.604620   4.745615   4.376911   4.404116   4.857291
    32  H    6.319714   4.520002   4.077244   4.488574   4.916211
    33  H    7.676858   5.835106   5.444015   5.451773   5.868569
    34  H    6.516953   4.463691   3.984798   4.133661   4.796455
    35  C    6.644232   5.464500   5.512111   4.859152   4.754135
    36  O    6.147427   5.356616   5.562316   4.830114   4.488591
    37  N    7.968169   6.696165   6.644198   6.100888   6.056375
    38  H    8.469140   6.991093   6.839355   6.369372   6.469022
    39  C    8.877191   7.824691   7.820784   7.284479   7.104938
    40  H    8.428537   7.626653   7.723008   7.132142   6.815057
    41  H    9.617042   8.596788   8.636888   7.918349   7.702846
    42  H    9.463788   8.312272   8.198573   7.918382   7.823093
                   21         22         23         24         25
    21  C    0.000000
    22  H    1.089947   0.000000
    23  H    1.089926   1.779573   0.000000
    24  H    1.089988   1.779618   1.779562   0.000000
    25  C    2.461861   2.701179   2.668565   3.416599   0.000000
    26  O    2.728000   2.517611   2.837478   3.793880   1.228999
    27  N    3.627885   4.015753   3.697720   4.483057   1.335013
    28  H    3.923953   4.501795   4.039366   4.597640   2.037329
    29  C    4.834525   5.056798   4.764918   5.783914   2.434464
    30  H    4.903826   5.099486   4.612187   5.910048   2.741855
    31  C    5.399790   5.338043   5.524304   6.377744   3.000804
    32  H    5.664943   5.625157   5.963605   6.545602   3.309745
    33  H    6.382645   6.289196   6.415463   7.390233   4.004025
    34  H    4.900511   4.648790   5.064995   5.913272   2.731463
    35  C    6.043573   6.408368   5.953353   6.894581   3.717835
    36  O    6.135292   6.661416   6.099404   6.842463   4.015672
    37  N    7.209239   7.486675   7.057738   8.114439   4.841512
    38  H    7.352010   7.502929   7.168996   8.327441   4.977899
    39  C    8.463678   8.819165   8.305238   9.309450   6.139636
    40  H    8.391315   8.854993   8.269986   9.146398   6.165905
    41  H    8.991818   9.367632   8.711641   9.855622   6.743460
    42  H    9.142643   9.416986   9.067863  10.001763   6.743492
                   26         27         28         29         30
    26  O    0.000000
    27  N    2.252751   0.000000
    28  H    3.150041   1.010008   0.000000
    29  C    2.775363   1.449031   2.120945   0.000000
    30  H    2.787517   2.083789   2.828901   1.090052   0.000000
    31  C    2.936681   2.452768   3.194476   1.524997   2.139205
    32  H    3.474052   2.702692   3.202452   2.150190   3.041351
    33  H    3.813766   3.386968   4.082863   2.150192   2.459621
    34  H    2.268891   2.702685   3.605830   2.150218   2.466289
    35  C    4.264107   2.450273   2.528595   1.521903   2.136530
    36  O    4.840170   2.683451   2.268942   2.392825   3.085373
    37  N    5.166654   3.668334   3.857833   2.432687   2.707606
    38  H    5.058743   3.978983   4.391103   2.567869   2.595251
    39  C    6.569732   4.884705   4.856624   3.801870   4.090516
    40  H    6.783767   4.845595   4.592350   4.033880   4.461691
    41  H    7.106778   5.526396   5.539459   4.396892   4.435635
    42  H    7.106811   5.526431   5.539483   4.396916   4.779362
                   31         32         33         34         35
    31  C    0.000000
    32  H    1.089982   0.000000
    33  H    1.090040   1.779662   0.000000
    34  H    1.089924   1.779612   1.779600   0.000000
    35  C    2.461844   2.701148   2.668558   3.416551   0.000000
    36  O    3.417420   3.376833   3.791260   4.329980   1.229082
    37  N    2.895826   3.227509   2.558633   3.897166   1.334985
    38  H    2.692197   3.244019   2.038531   3.572127   2.037295
    39  C    4.249884   4.384228   3.844305   5.290865   2.434468
    40  H    4.671832   4.654195   4.491395   5.731148   2.520555
    41  H    4.958685   5.261408   4.461002   5.930531   3.137960
    42  H    4.494800   4.482995   3.950832   5.545544   3.138000
                   36         37         38         39         40
    36  O    0.000000
    37  N    2.252814   0.000000
    38  H    3.150109   1.010026   0.000000
    39  C    2.775423   1.449062   2.121012   0.000000
    40  H    2.337369   2.083795   2.986348   1.090047   0.000000
    41  H    3.519220   2.083782   2.484319   1.089932   1.779668
    42  H    3.519259   2.083841   2.484371   1.090021   1.779711
                   41         42
    41  H    0.000000
    42  H    1.779633   0.000000
 Stoichiometry    C12H22N4O4
 Framework group  C1[X(C12H22N4O4)]
 Deg. of freedom   120
 Full point group                 C1      NOp   1
 Largest Abelian subgroup         C1      NOp   1
 Largest concise Abelian subgroup C1      NOp   1
                         Standard orientation:                         
 ---------------------------------------------------------------------
 Center     Atomic      Atomic             Coordinates (Angstroms)
 Number     Number       Type             X           Y           Z
 ---------------------------------------------------------------------
      1          1           0       -7.113098   -2.091791   -0.233875
      2          6           0       -6.324830   -1.561451   -0.768172
      3          1           0       -6.738730   -0.666663   -1.233033
      4          1           0       -5.907107   -2.210146   -1.538160
      5          6           0       -5.200561   -1.143489    0.181704
      6          8           0       -5.262832   -1.413694    1.379015
      7          7           0       -4.174463   -0.483445   -0.360342
      8          1           0       -4.168476   -0.284537   -1.350572
      9          6           0       -3.048533   -0.033669    0.433020
     10          1           0       -3.398281    0.651182    1.205558
     11          6           0       -2.346135   -1.208622    1.104993
     12          1           0       -1.982206   -1.898730    0.343671
     13          1           0       -1.505318   -0.841604    1.693626
     14          1           0       -3.047921   -1.726594    1.758552
     15          6           0       -2.024079    0.688937   -0.430028
     16          8           0       -2.211142    0.826699   -1.636833
     17          7           0       -0.937510    1.151307    0.192709
     18          1           0       -0.828421    1.013486    1.187310
     19          6           0        0.110448    1.856284   -0.517497
     20          1           0        0.161044    1.494261   -1.544368
     21          6           0       -0.157413    3.357425   -0.542654
     22          1           0       -0.201823    3.736234    0.478383
     23          1           0        0.644711    3.861097   -1.081960
     24          1           0       -1.106869    3.549251   -1.042463
     25          6           0        1.463803    1.636324    0.143076
     26          8           0        1.859263    2.397161    1.023517
     27          7           0        2.174922    0.590611   -0.284772
     28          1           0        1.807331   -0.006697   -1.011557
     29          6           0        3.478061    0.274464    0.264382
     30          1           0        4.154941    1.113098    0.100860
     31          6           0        3.391276    0.003241    1.762555
     32          1           0        2.724053   -0.839858    1.941605
     33          1           0        4.383620   -0.231188    2.147891
     34          1           0        3.004241    0.886518    2.270453
     35          6           0        4.066834   -0.962281   -0.398941
     36          8           0        3.445416   -1.553689   -1.279122
     37          7           0        5.270551   -1.352862    0.026145
     38          1           0        5.742398   -0.833762    0.752814
     39          6           0        5.937792   -2.514715   -0.525822
     40          1           0        5.308454   -2.965135   -1.293453
     41          1           0        6.888074   -2.213421   -0.966432
     42          1           0        6.119257   -3.240781    0.266671
 ---------------------------------------------------------------------
 Rotational constants (GHZ):      0.5521850      0.1245603      0.1121990
 Standard basis: 6-31G(d) (6D, 7F)
 There are   344 symmetry adapted basis functions of A   symmetry.
 Integral buffers will be    131072 words long.
 Raffenetti 1 integral format.
 Two-electron integral symmetry is turned on.
   344 basis functions,   648 primitive gaussians,   344 cartesian basis functions
    77 alpha electrons       77 beta electrons
       nuclear repulsion energy      1599.8728013990 Hartrees.
 NAtoms=   42 NActive=   42 NUniq=   42 SFac= 7.50D-01 NAtFMM=   80 NAOKFM=F Big=F
 One-electron integrals computed using PRISM.
 NBasis=   344 RedAO= T  NBF=   344
 NBsUse=   344 1.00D-06 NBFU=   344
 Harris functional with IExCor=  205 diagonalized for initial guess.
 ExpMin= 1.61D-01 ExpMax= 5.48D+03 ExpMxC= 8.25D+02 IAcc=1 IRadAn=         1 AccDes= 0.00D+00
 HarFok:  IExCor=  205 AccDes= 0.00D+00 IRadAn=         1 IDoV= 1
 ScaDFX=  1.000000  1.000000  1.000000  1.000000
 FoFCou: FMM=F IPFlag=           0 FMFlag=      100000 FMFlg1=           0
         NFxFlg=           0 DoJE=T BraDBF=F KetDBF=T FulRan=T
         Omega=  0.000000  0.000000  1.000000  0.000000  0.000000 ICntrl=     500 IOpCl=  0
         NMat0=    1 NMatS0=    1 NMatT0=    0 NMatD0=    1 NMtDS0=    0 NMtDT0=    0
         I1Cent=           4 NGrid=           0.
 Petite list used in FoFCou.
 Initial guess orbital symmetries:
       Occupied  (A) (A) (A) (A) (A) (A) (A) (A) (A) (A) (A) (A)
                 (A) (A) (A) (A) (A) (A) (A) (A) (A) (A) (A) (A)
                 (A) (A) (A) (A) (A) (A) (A) (A) (A) (A) (A) (A)
                 (A) (A) (A) (A) (A) (A) (A) (A) (A) (A) (A) (A)
                 (A) (A) (A) (A) (A) (A) (A) (A) (A) (A) (A) (A)
                 (A) (A) (A) (A) (A) (A) (A) (A) (A) (A) (A) (A)
                 (A) (A) (A) (A) (A)
       Virtual   (A) (A) (A) (A) (A) (A) (A) (A) (A) (A) (A) (A)
                 (A) (A) (A) (A) (A) (A) (A) (A) (A) (A) (A) (A)
                 (A) (A) (A) (A) (A) (A) (A) (A) (A) (A) (A) (A)
                 (A) (A) (A) (A) (A) (A) (A) (A) (A) (A) (A) (A)
                 (A) (A) (A) (A) (A) (A) (A) (A) (A) (A) (A) (A)
                 (A) (A) (A) (A) (A) (A) (A) (A) (A) (A) (A) (A)
                 (A) (A) (A) (A) (A) (A) (A) (A) (A) (A) (A) (A)
                 (A) (A) (A) (A) (A) (A) (A) (A) (A) (A) (A) (A)
                 (A) (A) (A) (A) (A) (A) (A) (A) (A) (A) (A) (A)
                 (A) (A) (A) (A) (A) (A) (A) (A) (A) (A) (A) (A)
                 (A) (A) (A) (A) (A) (A) (A) (A) (A) (A) (A) (A)
                 (A) (A) (A) (A) (A) (A) (A) (A) (A) (A) (A) (A)
                 (A) (A) (A) (A) (A) (A) (A) (A) (A) (A) (A) (A)
                 (A) (A) (A) (A) (A) (A) (A) (A) (A) (A) (A) (A)
                 (A) (A) (A) (A) (A) (A) (A) (A) (A) (A) (A) (A)
                 (A) (A) (A) (A) (A) (A) (A) (A) (A) (A) (A) (A)
                 (A) (A) (A) (A) (A) (A) (A) (A) (A) (A) (A) (A)
                 (A) (A) (A) (A) (A) (A) (A) (A) (A) (A) (A) (A)
                 (A) (A) (A) (A) (A) (A) (A) (A) (A) (A) (A) (A)
                 (A) (A) (A) (A) (A) (A) (A) (A) (A) (A) (A) (A)
                 (A) (A) (A) (A) (A) (A) (A) (A) (A) (A) (A) (A)
                 (A) (A) (A) (A) (A) (A) (A) (A) (A) (A) (A) (A)
                 (A) (A) (A)
 The electronic state of the initial guess is 1-A.
 Requested convergence on RMS density matrix=1.00D-08 within 128 cycles.
 Requested convergence on MAX density matrix=1.00D-06.
 Requested convergence on             energy=1.00D-06.
 No special actions if energy rises.
 Integral accuracy reduced to 1.0D-05 until final iterations.
 Initial convergence to 1.0D-05 achieved.  Increase integral accuracy.
 SCF Done:  E(RHF) =  -984.542027205     A.U. after   15 cycles
             Convg  =    0.2513D-08             -V/T =  2.0020
 Range of M.O.s used for correlation:     1   344
 NBasis=   344 NAE=    77 NBE=    77 NFC=     0 NFV=     0
 NROrb=    344 NOA=    77 NOB=    77 NVA=   267 NVB=   267
 Symmetrizing basis deriv contribution to polar:
 IMax=3 JMax=2 DiffMx= 0.00D+00
 G2DrvN: will do    43 centers at a time, making    1 passes doing MaxLOS=2.
 Calling FoFCou, ICntrl=  3107 FMM=F I1Cent=   0 AccDes= 0.00D+00.
 FoFDir/FoFCou used for L=0 through L=2.
 End of G2Drv Frequency-dependent properties file   721 does not exist.
 End of G2Drv Frequency-dependent properties file   722 does not exist.
          IDoAtm=111111111111111111111111111111111111111111
          Differentiating once with respect to nuclear coordinates.
          There are   129 degrees of freedom in the 1st order CPHF.  IDoFFX=5.
    123 vectors produced by pass  0 Test12= 2.06D-10 1.00D-07 XBig12= 9.62D-02 6.03D-02.
 AX will form   123 AO Fock derivatives at one time.
    123 vectors produced by pass  1 Test12= 2.06D-10 1.00D-07 XBig12= 6.58D-03 2.36D-02.
    123 vectors produced by pass  2 Test12= 2.06D-10 1.00D-07 XBig12= 9.71D-05 1.62D-03.
    123 vectors produced by pass  3 Test12= 2.06D-10 1.00D-07 XBig12= 8.82D-07 1.16D-04.
    123 vectors produced by pass  4 Test12= 2.06D-10 1.00D-07 XBig12= 5.64D-09 7.63D-06.
     33 vectors produced by pass  5 Test12= 2.06D-10 1.00D-07 XBig12= 3.09D-11 4.53D-07.
 Inverted reduced A of dimension   648 with in-core refinement.
 End of Minotr Frequency-dependent properties file   721 does not exist.
 End of Minotr Frequency-dependent properties file   722 does not exist.

 **********************************************************************

            Population analysis using the SCF density.

 **********************************************************************

 Orbital symmetries:
       Occupied  (A) (A) (A) (A) (A) (A) (A) (A) (A) (A) (A) (A)
                 (A) (A) (A) (A) (A) (A) (A) (A) (A) (A) (A) (A)
                 (A) (A) (A) (A) (A) (A) (A) (A) (A) (A) (A) (A)
                 (A) (A) (A) (A) (A) (A) (A) (A) (A) (A) (A) (A)
                 (A) (A) (A) (A) (A) (A) (A) (A) (A) (A) (A) (A)
                 (A) (A) (A) (A) (A) (A) (A) (A) (A) (A) (A) (A)
                 (A) (A) (A) (A) (A)
       Virtual   (A) (A) (A) (A) (A) (A) (A) (A) (A) (A) (A) (A)
                 (A) (A) (A) (A) (A) (A) (A) (A) (A) (A) (A) (A)
                 (A) (A) (A) (A) (A) (A) (A) (A) (A) (A) (A) (A)
                 (A) (A) (A) (A) (A) (A) (A) (A) (A) (A) (A) (A)
                 (A) (A) (A) (A) (A) (A) (A) (A) (A) (A) (A) (A)
                 (A) (A) (A) (A) (A) (A) (A) (A) (A) (A) (A) (A)
                 (A) (A) (A) (A) (A) (A) (A) (A) (A) (A) (A) (A)
                 (A) (A) (A) (A) (A) (A) (A) (A) (A) (A) (A) (A)
                 (A) (A) (A) (A) (A) (A) (A) (A) (A) (A) (A) (A)
                 (A) (A) (A) (A) (A) (A) (A) (A) (A) (A) (A) (A)
                 (A) (A) (A) (A) (A) (A) (A) (A) (A) (A) (A) (A)
                 (A) (A) (A) (A) (A) (A) (A) (A) (A) (A) (A) (A)
                 (A) (A) (A) (A) (A) (A) (A) (A) (A) (A) (A) (A)
                 (A) (A) (A) (A) (A) (A) (A) (A) (A) (A) (A) (A)
                 (A) (A) (A) (A) (A) (A) (A) (A) (A) (A) (A) (A)
                 (A) (A) (A) (A) (A) (A) (A) (A) (A) (A) (A) (A)
                 (A) (A) (A) (A) (A) (A) (A) (A) (A) (A) (A) (A)
                 (A) (A) (A) (A) (A) (A) (A) (A) (A) (A) (A) (A)
                 (A) (A) (A) (A) (A) (A) (A) (A) (A) (A) (A) (A)
                 (A) (A) (A) (A) (A) (A) (A) (A) (A) (A) (A) (A)
                 (A) (A) (A) (A) (A) (A) (A) (A) (A) (A) (A) (A)
                 (A) (A) (A) (A) (A) (A) (A) (A) (A) (A) (A) (A)
                 (A) (A) (A)
 The electronic state is 1-A.
 Alpha  occ. eigenvalues --  -20.53775 -20.53745 -20.53353 -20.51336 -15.60968
 Alpha  occ. eigenvalues --  -15.60887 -15.60187 -15.58725 -11.36660 -11.36522
 Alpha  occ. eigenvalues --  -11.35960 -11.34662 -11.29548 -11.28823 -11.28777
 Alpha  occ. eigenvalues --  -11.27236 -11.23265 -11.23207 -11.22259 -11.21689
 Alpha  occ. eigenvalues --   -1.39981  -1.39589  -1.38808  -1.36994  -1.25960
 Alpha  occ. eigenvalues --   -1.25204  -1.24828  -1.23624  -1.08321  -1.06176
 Alpha  occ. eigenvalues --   -1.02956  -0.98359  -0.96816  -0.91982  -0.90084
 Alpha  occ. eigenvalues --   -0.86947  -0.81819  -0.80957  -0.79186  -0.78130
 Alpha  occ. eigenvalues --   -0.76835  -0.72034  -0.69144  -0.68276  -0.67949
 Alpha  occ. eigenvalues --   -0.66288  -0.65057  -0.64574  -0.63542  -0.62578
 Alpha  occ. eigenvalues --   -0.62312  -0.60850  -0.60449  -0.59950  -0.58679
 Alpha  occ. eigenvalues --   -0.57840  -0.57170  -0.56242  -0.56041  -0.55588
 Alpha  occ. eigenvalues --   -0.54876  -0.54215  -0.53904  -0.53280  -0.52709
 Alpha  occ. eigenvalues --   -0.52210  -0.51127  -0.50571  -0.49071  -0.43331
 Alpha  occ. eigenvalues --   -0.43261  -0.42946  -0.41129  -0.40806  -0.40239
 Alpha  occ. eigenvalues --   -0.39506  -0.38477
 Alpha virt. eigenvalues --    0.16790   0.18384   0.18963   0.19799   0.20801
 Alpha virt. eigenvalues --    0.21790   0.23650   0.24293   0.25602   0.27006
 Alpha virt. eigenvalues --    0.28039   0.28307   0.29212   0.29378   0.30017
 Alpha virt. eigenvalues --    0.30672   0.31213   0.31370   0.31687   0.32463
 Alpha virt. eigenvalues --    0.33086   0.33426   0.33790   0.34213   0.35416
 Alpha virt. eigenvalues --    0.35563   0.35825   0.36646   0.38819   0.39463
 Alpha virt. eigenvalues --    0.40454   0.41112   0.42697   0.43001   0.44576
 Alpha virt. eigenvalues --    0.46919   0.47875   0.51709   0.52514   0.53430
 Alpha virt. eigenvalues --    0.55278   0.58594   0.60415   0.61323   0.64258
 Alpha virt. eigenvalues --    0.70693   0.71451   0.72142   0.72560   0.73043
 Alpha virt. eigenvalues --    0.73416   0.74232   0.75152   0.75695   0.76239
 Alpha virt. eigenvalues --    0.76753   0.77674   0.78865   0.79139   0.81589
 Alpha virt. eigenvalues --    0.83115   0.83699   0.84874   0.86378   0.87008
 Alpha virt. eigenvalues --    0.88139   0.88723   0.90979   0.91791   0.92790
 Alpha virt. eigenvalues --    0.93008   0.93542   0.94201   0.96450   0.97643
 Alpha virt. eigenvalues --    0.98411   0.99093   0.99338   0.99917   1.01428
 Alpha virt. eigenvalues --    1.02839   1.04035   1.04903   1.05728   1.07558
 Alpha virt. eigenvalues --    1.07873   1.09405   1.09913   1.11035   1.11682
 Alpha virt. eigenvalues --    1.12063   1.13029   1.13668   1.14352   1.14615
 Alpha virt. eigenvalues --    1.15340   1.15608   1.16296   1.16363   1.16772
 Alpha virt. eigenvalues --    1.17882   1.18032   1.18649   1.19231   1.19541
 Alpha virt. eigenvalues --    1.20028   1.20920   1.21238   1.21665   1.22918
 Alpha virt. eigenvalues --    1.23424   1.23899   1.24719   1.25944   1.26965
 Alpha virt. eigenvalues --    1.27497   1.29563   1.31703   1.33702   1.34565
 Alpha virt. eigenvalues --    1.37106   1.37885   1.39030   1.40577   1.43717
 Alpha virt. eigenvalues --    1.45060   1.48563   1.48901   1.49466   1.52860
 Alpha virt. eigenvalues --    1.54065   1.55238   1.56056   1.58796   1.60728
 Alpha virt. eigenvalues --    1.61434   1.62599   1.63988   1.64462   1.67784
 Alpha virt. eigenvalues --    1.68365   1.70595   1.72637   1.73885   1.75164
 Alpha virt. eigenvalues --    1.76527   1.78912   1.79445   1.82107   1.84499
 Alpha virt. eigenvalues --    1.88507   1.91901   1.93306   1.95931   1.98883
 Alpha virt. eigenvalues --    1.99219   2.01765   2.02482   2.03530   2.05304
 Alpha virt. eigenvalues --    2.06322   2.07675   2.09355   2.10786   2.11724
 Alpha virt. eigenvalues --    2.13109   2.13583   2.13898   2.14071   2.14932
 Alpha virt. eigenvalues --    2.16087   2.17166   2.17358   2.18049   2.19655
 Alpha virt. eigenvalues --    2.20114   2.21909   2.22397   2.23154   2.24573
 Alpha virt. eigenvalues --    2.25376   2.28152   2.29329   2.30167   2.32493
 Alpha virt. eigenvalues --    2.34280   2.35382   2.36375   2.36579   2.38081
 Alpha virt. eigenvalues --    2.40733   2.41785   2.43837   2.46072   2.47829
 Alpha virt. eigenvalues --    2.49449   2.50731   2.52901   2.53098   2.57269
 Alpha virt. eigenvalues --    2.58113   2.58284   2.60332   2.60984   2.62280
 Alpha virt. eigenvalues --    2.62649   2.63322   2.64868   2.66558   2.67520
 Alpha virt. eigenvalues --    2.68821   2.69771   2.72459   2.73307   2.76546
 Alpha virt. eigenvalues --    2.77109   2.78791   2.79568   2.81816   2.83381
 Alpha virt. eigenvalues --    2.86583   2.90783   2.91400   2.94528   2.95232
 Alpha virt. eigenvalues --    2.98403   2.98626   3.00523   3.04156   3.06224
 Alpha virt. eigenvalues --    3.08073   3.09777   3.11205   3.15770   3.19749
 Alpha virt. eigenvalues --    3.24137   3.26137   3.30096   3.31365   3.34321
 Alpha virt. eigenvalues --    3.34860   3.39383   3.39714   3.52418   3.53573
 Alpha virt. eigenvalues --    3.60463   3.61446   4.39292   4.43660   4.43881
 Alpha virt. eigenvalues --    4.45668   4.48310   4.49050   4.52038   4.60151
 Alpha virt. eigenvalues --    4.62985   4.65328   4.69713   4.71718   4.71915
 Alpha virt. eigenvalues --    4.82252   4.85497   4.86761   4.88585   4.99496
 Alpha virt. eigenvalues --    5.05658   5.08881
          Condensed to atoms (all electrons):
              1          2          3          4          5          6
     1  H    0.458481   0.385679  -0.018761  -0.018766  -0.030800   0.003514
     2  C    0.385679   5.244740   0.374717   0.374862   0.378057  -0.067244
     3  H   -0.018761   0.374717   0.510285  -0.023603  -0.034518   0.001266
     4  H   -0.018766   0.374862  -0.023603   0.511681  -0.035391   0.001184
     5  C   -0.030800   0.378057  -0.034518  -0.035391   4.186866   0.587098
     6  O    0.003514  -0.067244   0.001266   0.001184   0.587098   8.210882
     7  N    0.003859  -0.119837   0.003475   0.003692   0.246713  -0.107608
     8  H   -0.000018  -0.001187   0.000639   0.000480  -0.017255   0.002008
     9  C   -0.000076   0.004557  -0.000241  -0.000092  -0.030121   0.014490
    10  H    0.000002  -0.000009  -0.000004  -0.000002  -0.001684   0.002920
    11  C    0.000006  -0.000504   0.000008   0.000030  -0.003877  -0.015833
    12  H    0.000000  -0.000042   0.000000   0.000002   0.000028  -0.000024
    13  H    0.000000   0.000007   0.000000  -0.000001   0.000282   0.000272
    14  H    0.000001   0.000302  -0.000005  -0.000025   0.000419   0.011188
    15  C    0.000000   0.000010  -0.000011  -0.000006   0.004063   0.000546
    16  O    0.000000  -0.000039  -0.000001  -0.000001   0.000305  -0.000003
    17  N    0.000000   0.000000   0.000000   0.000000  -0.000080  -0.000002
    18  H    0.000000   0.000000   0.000000   0.000000   0.000001   0.000001
    19  C    0.000000   0.000000   0.000000   0.000000   0.000001   0.000000
    20  H    0.000000   0.000000   0.000000   0.000000   0.000000   0.000000
    21  C    0.000000   0.000000   0.000000   0.000000   0.000000   0.000000
    22  H    0.000000   0.000000   0.000000   0.000000   0.000000   0.000000
    23  H    0.000000   0.000000   0.000000   0.000000   0.000000   0.000000
    24  H    0.000000   0.000000   0.000000   0.000000   0.000000   0.000000
    25  C    0.000000   0.000000   0.000000   0.000000   0.000000   0.000000
    26  O    0.000000   0.000000   0.000000   0.000000   0.000000   0.000000
    27  N    0.000000   0.000000   0.000000   0.000000   0.000000   0.000000
    28  H    0.000000   0.000000   0.000000   0.000000   0.000000   0.000000
    29  C    0.000000   0.000000   0.000000   0.000000   0.000000   0.000000
    30  H    0.000000   0.000000   0.000000   0.000000   0.000000   0.000000
    31  C    0.000000   0.000000   0.000000   0.000000   0.000000   0.000000
    32  H    0.000000   0.000000   0.000000   0.000000   0.000000   0.000000
    33  H    0.000000   0.000000   0.000000   0.000000   0.000000   0.000000
    34  H    0.000000   0.000000   0.000000   0.000000   0.000000   0.000000
    35  C    0.000000   0.000000   0.000000   0.000000   0.000000   0.000000
    36  O    0.000000   0.000000   0.000000   0.000000   0.000000   0.000000
    37  N    0.000000   0.000000   0.000000   0.000000   0.000000   0.000000
    38  H    0.000000   0.000000   0.000000   0.000000   0.000000   0.000000
    39  C    0.000000   0.000000   0.000000   0.000000   0.000000   0.000000
    40  H    0.000000   0.000000   0.000000   0.000000   0.000000   0.000000
    41  H    0.000000   0.000000   0.000000   0.000000   0.000000   0.000000
    42  H    0.000000   0.000000   0.000000   0.000000   0.000000   0.000000
              7          8          9         10         11         12
     1  H    0.003859  -0.000018  -0.000076   0.000002   0.000006   0.000000
     2  C   -0.119837  -0.001187   0.004557  -0.000009  -0.000504  -0.000042
     3  H    0.003475   0.000639  -0.000241  -0.000004   0.000008   0.000000
     4  H    0.003692   0.000480  -0.000092  -0.000002   0.000030   0.000002
     5  C    0.246713  -0.017255  -0.030121  -0.001684  -0.003877   0.000028
     6  O   -0.107608   0.002008   0.014490   0.002920  -0.015833  -0.000024
     7  N    7.418085   0.311342   0.198717  -0.041318  -0.063534   0.001653
     8  H    0.311342   0.287531  -0.026621   0.002331   0.003017   0.000236
     9  C    0.198717  -0.026621   5.015407   0.406302   0.335011  -0.042323
    10  H   -0.041318   0.002331   0.406302   0.496686  -0.045655   0.004462
    11  C   -0.063534   0.003017   0.335011  -0.045655   5.212638   0.385521
    12  H    0.001653   0.000236  -0.042323   0.004462   0.385521   0.522479
    13  H    0.004894  -0.000079  -0.042019   0.000280   0.377500  -0.024077
    14  H   -0.005560  -0.000195  -0.026562  -0.003912   0.387086  -0.020045
    15  C   -0.037650  -0.005809   0.384706  -0.038990  -0.064828  -0.002906
    16  O   -0.006375   0.020270  -0.073765   0.000916   0.000040   0.000590
    17  N    0.002727   0.000727  -0.113728   0.002177   0.002260   0.000172
    18  H    0.000027  -0.000017   0.000010   0.000469   0.000702  -0.000012
    19  C   -0.000053  -0.000024   0.004200  -0.000288  -0.000087  -0.000047
    20  H   -0.000004  -0.000005   0.000497  -0.000011  -0.000056  -0.000002
    21  C    0.000001   0.000001  -0.000361   0.000054  -0.000003   0.000001
    22  H    0.000000   0.000000  -0.000001   0.000000   0.000000   0.000000
    23  H    0.000000   0.000000   0.000004   0.000000   0.000000   0.000000
    24  H    0.000000  -0.000001   0.000026  -0.000014   0.000000   0.000000
    25  C    0.000000   0.000000   0.000009  -0.000006  -0.000002  -0.000005
    26  O    0.000000   0.000000  -0.000001   0.000000   0.000001   0.000000
    27  N    0.000000   0.000000  -0.000007   0.000000  -0.000016   0.000002
    28  H    0.000000   0.000000  -0.000003   0.000000   0.000004   0.000005
    29  C    0.000000   0.000000   0.000000   0.000000   0.000000   0.000000
    30  H    0.000000   0.000000   0.000000   0.000000   0.000000   0.000000
    31  C    0.000000   0.000000   0.000000   0.000000  -0.000001   0.000000
    32  H    0.000000   0.000000   0.000000   0.000000   0.000000   0.000000
    33  H    0.000000   0.000000   0.000000   0.000000   0.000000   0.000000
    34  H    0.000000   0.000000   0.000000   0.000000   0.000000   0.000000
    35  C    0.000000   0.000000   0.000000   0.000000   0.000000   0.000000
    36  O    0.000000   0.000000   0.000000   0.000000   0.000000   0.000000
    37  N    0.000000   0.000000   0.000000   0.000000   0.000000   0.000000
    38  H    0.000000   0.000000   0.000000   0.000000   0.000000   0.000000
    39  C    0.000000   0.000000   0.000000   0.000000   0.000000   0.000000
    40  H    0.000000   0.000000   0.000000   0.000000   0.000000   0.000000
    41  H    0.000000   0.000000   0.000000   0.000000   0.000000   0.000000
    42  H    0.000000   0.000000   0.000000   0.000000   0.000000   0.000000
             13         14         15         16         17         18
     1  H    0.000000   0.000001   0.000000   0.000000   0.000000   0.000000
     2  C    0.000007   0.000302   0.000010  -0.000039   0.000000   0.000000
     3  H    0.000000  -0.000005  -0.000011  -0.000001   0.000000   0.000000
     4  H   -0.000001  -0.000025  -0.000006  -0.000001   0.000000   0.000000
     5  C    0.000282   0.000419   0.004063   0.000305  -0.000080   0.000001
     6  O    0.000272   0.011188   0.000546  -0.000003  -0.000002   0.000001
     7  N    0.004894  -0.005560  -0.037650  -0.006375   0.002727   0.000027
     8  H   -0.000079  -0.000195  -0.005809   0.020270   0.000727  -0.000017
     9  C   -0.042019  -0.026562   0.384706  -0.073765  -0.113728   0.000010
    10  H    0.000280  -0.003912  -0.038990   0.000916   0.002177   0.000469
    11  C    0.377500   0.387086  -0.064828   0.000040   0.002260   0.000702
    12  H   -0.024077  -0.020045  -0.002906   0.000590   0.000172  -0.000012
    13  H    0.566495  -0.019850  -0.007329   0.000024   0.000846   0.002724
    14  H   -0.019850   0.423988   0.004146  -0.000060   0.000091  -0.000105
    15  C   -0.007329   0.004146   4.155260   0.584355   0.269523  -0.017969
    16  O    0.000024  -0.000060   0.584355   8.217129  -0.103683   0.002179
    17  N    0.000846   0.000091   0.269523  -0.103683   7.423873   0.315004
    18  H    0.002724  -0.000105  -0.017969   0.002179   0.315004   0.305659
    19  C    0.000277   0.000005  -0.024905   0.006837   0.166110  -0.023763
    20  H   -0.000016   0.000000  -0.000777   0.006555  -0.037070   0.002807
    21  C    0.000002   0.000000  -0.002687  -0.001815  -0.070205   0.001187
    22  H   -0.000003   0.000000   0.000276  -0.000013  -0.000823   0.001027
    23  H    0.000000   0.000000   0.000019  -0.000018   0.004752  -0.000048
    24  H    0.000000   0.000000   0.001647   0.002427  -0.003945  -0.000191
    25  C   -0.000010   0.000000   0.003201   0.000500  -0.036883  -0.003271
    26  O   -0.000008   0.000000  -0.000016  -0.000001  -0.000194   0.002864
    27  N    0.000034   0.000000  -0.000136  -0.000007   0.002571   0.000562
    28  H    0.000003   0.000000   0.000031  -0.000022   0.000867   0.000002
    29  C   -0.000002   0.000000  -0.000001   0.000000  -0.000091  -0.000046
    30  H    0.000000   0.000000   0.000000   0.000000  -0.000006  -0.000001
    31  C    0.000000   0.000000   0.000001   0.000000   0.000038   0.000052
    32  H    0.000024   0.000000   0.000000   0.000000   0.000008   0.000005
    33  H    0.000000   0.000000   0.000000   0.000000   0.000000   0.000000
    34  H    0.000000   0.000000   0.000000   0.000000  -0.000017   0.000001
    35  C    0.000000   0.000000   0.000000   0.000000  -0.000002  -0.000001
    36  O    0.000000   0.000000   0.000000   0.000000   0.000000   0.000000
    37  N    0.000000   0.000000   0.000000   0.000000   0.000000   0.000000
    38  H    0.000000   0.000000   0.000000   0.000000   0.000000   0.000000
    39  C    0.000000   0.000000   0.000000   0.000000   0.000000   0.000000
    40  H    0.000000   0.000000   0.000000   0.000000   0.000000   0.000000
    41  H    0.000000   0.000000   0.000000   0.000000   0.000000   0.000000
    42  H    0.000000   0.000000   0.000000   0.000000   0.000000   0.000000
             19         20         21         22         23         24
     1  H    0.000000   0.000000   0.000000   0.000000   0.000000   0.000000
     2  C    0.000000   0.000000   0.000000   0.000000   0.000000   0.000000
     3  H    0.000000   0.000000   0.000000   0.000000   0.000000   0.000000
     4  H    0.000000   0.000000   0.000000   0.000000   0.000000   0.000000
     5  C    0.000001   0.000000   0.000000   0.000000   0.000000   0.000000
     6  O    0.000000   0.000000   0.000000   0.000000   0.000000   0.000000
     7  N   -0.000053  -0.000004   0.000001   0.000000   0.000000   0.000000
     8  H   -0.000024  -0.000005   0.000001   0.000000   0.000000  -0.000001
     9  C    0.004200   0.000497  -0.000361  -0.000001   0.000004   0.000026
    10  H   -0.000288  -0.000011   0.000054   0.000000   0.000000  -0.000014
    11  C   -0.000087  -0.000056  -0.000003   0.000000   0.000000   0.000000
    12  H   -0.000047  -0.000002   0.000001   0.000000   0.000000   0.000000
    13  H    0.000277  -0.000016   0.000002  -0.000003   0.000000   0.000000
    14  H    0.000005   0.000000   0.000000   0.000000   0.000000   0.000000
    15  C   -0.024905  -0.000777  -0.002687   0.000276   0.000019   0.001647
    16  O    0.006837   0.006555  -0.001815  -0.000013  -0.000018   0.002427
    17  N    0.166110  -0.037070  -0.070205  -0.000823   0.004752  -0.003945
    18  H   -0.023763   0.002807   0.001187   0.001027  -0.000048  -0.000191
    19  C    5.076144   0.411403   0.356482  -0.032361  -0.039013  -0.035965
    20  H    0.411403   0.466852  -0.040053   0.003767   0.000201  -0.003682
    21  C    0.356482  -0.040053   5.120340   0.388220   0.388043   0.389351
    22  H   -0.032361   0.003767   0.388220   0.498276  -0.019974  -0.025865
    23  H   -0.039013   0.000201   0.388043  -0.019974   0.523667  -0.023345
    24  H   -0.035965  -0.003682   0.389351  -0.025865  -0.023345   0.509240
    25  C    0.346142  -0.050159  -0.060830  -0.007637  -0.001708   0.005755
    26  O   -0.077406   0.002023  -0.000855   0.005244  -0.000305   0.000390
    27  N   -0.102876   0.004794   0.002938   0.000259   0.000002  -0.000057
    28  H   -0.001291   0.001260   0.000081  -0.000004  -0.000018  -0.000007
    29  C    0.005044  -0.000033  -0.000163  -0.000007  -0.000009   0.000002
    30  H   -0.000151  -0.000013   0.000024  -0.000001  -0.000002   0.000000
    31  C   -0.000599   0.000012   0.000000   0.000001   0.000000   0.000000
    32  H   -0.000054  -0.000001   0.000001   0.000000   0.000000   0.000000
    33  H    0.000008   0.000000   0.000000   0.000000   0.000000   0.000000
    34  H    0.000297  -0.000007  -0.000005  -0.000002   0.000000   0.000000
    35  C   -0.000020  -0.000031  -0.000001   0.000000   0.000000   0.000000
    36  O   -0.000052  -0.000013   0.000000   0.000000   0.000000   0.000000
    37  N    0.000000   0.000000   0.000000   0.000000   0.000000   0.000000
    38  H    0.000000   0.000000   0.000000   0.000000   0.000000   0.000000
    39  C    0.000000   0.000000   0.000000   0.000000   0.000000   0.000000
    40  H    0.000000   0.000000   0.000000   0.000000   0.000000   0.000000
    41  H    0.000000   0.000000   0.000000   0.000000   0.000000   0.000000
    42  H    0.000000   0.000000   0.000000   0.000000   0.000000   0.000000
             25         26         27         28         29         30
     1  H    0.000000   0.000000   0.000000   0.000000   0.000000   0.000000
     2  C    0.000000   0.000000   0.000000   0.000000   0.000000   0.000000
     3  H    0.000000   0.000000   0.000000   0.000000   0.000000   0.000000
     4  H    0.000000   0.000000   0.000000   0.000000   0.000000   0.000000
     5  C    0.000000   0.000000   0.000000   0.000000   0.000000   0.000000
     6  O    0.000000   0.000000   0.000000   0.000000   0.000000   0.000000
     7  N    0.000000   0.000000   0.000000   0.000000   0.000000   0.000000
     8  H    0.000000   0.000000   0.000000   0.000000   0.000000   0.000000
     9  C    0.000009  -0.000001  -0.000007  -0.000003   0.000000   0.000000
    10  H   -0.000006   0.000000   0.000000   0.000000   0.000000   0.000000
    11  C   -0.000002   0.000001  -0.000016   0.000004   0.000000   0.000000
    12  H   -0.000005   0.000000   0.000002   0.000005   0.000000   0.000000
    13  H   -0.000010  -0.000008   0.000034   0.000003  -0.000002   0.000000
    14  H    0.000000   0.000000   0.000000   0.000000   0.000000   0.000000
    15  C    0.003201  -0.000016  -0.000136   0.000031  -0.000001   0.000000
    16  O    0.000500  -0.000001  -0.000007  -0.000022   0.000000   0.000000
    17  N   -0.036883  -0.000194   0.002571   0.000867  -0.000091  -0.000006
    18  H   -0.003271   0.002864   0.000562   0.000002  -0.000046  -0.000001
    19  C    0.346142  -0.077406  -0.102876  -0.001291   0.005044  -0.000151
    20  H   -0.050159   0.002023   0.004794   0.001260  -0.000033  -0.000013
    21  C   -0.060830  -0.000855   0.002938   0.000081  -0.000163   0.000024
    22  H   -0.007637   0.005244   0.000259  -0.000004  -0.000007  -0.000001
    23  H   -0.001708  -0.000305   0.000002  -0.000018  -0.000009  -0.000002
    24  H    0.005755   0.000390  -0.000057  -0.000007   0.000002   0.000000
    25  C    4.237852   0.556986   0.282789  -0.016291  -0.034153  -0.001882
    26  O    0.556986   8.246546  -0.102873   0.001893   0.013323   0.002914
    27  N    0.282789  -0.102873   7.384762   0.308011   0.192831  -0.040275
    28  H   -0.016291   0.001893   0.308011   0.278312  -0.026857   0.002318
    29  C   -0.034153   0.013323   0.192831  -0.026857   5.054081   0.403555
    30  H   -0.001882   0.002914  -0.040275   0.002318   0.403555   0.495420
    31  C   -0.003471  -0.015107  -0.063105   0.002916   0.334458  -0.045197
    32  H   -0.000017   0.000010   0.001563   0.000256  -0.042762   0.004436
    33  H    0.000249   0.000240   0.004852  -0.000071  -0.041698   0.000283
    34  H    0.000681   0.009585  -0.005423  -0.000202  -0.027494  -0.004023
    35  C    0.003740   0.000420  -0.035935  -0.005287   0.375154  -0.036035
    36  O    0.000389  -0.000003  -0.005728   0.021476  -0.079624   0.000988
    37  N   -0.000091  -0.000001   0.002803   0.000730  -0.117484   0.002136
    38  H    0.000002   0.000001   0.000016  -0.000022   0.001233   0.000470
    39  C    0.000001   0.000000  -0.000049  -0.000010   0.003643  -0.000212
    40  H    0.000000   0.000000  -0.000004  -0.000010   0.000587  -0.000017
    41  H    0.000000   0.000000   0.000000   0.000000  -0.000111   0.000010
    42  H    0.000000   0.000000   0.000001   0.000000  -0.000004  -0.000001
             31         32         33         34         35         36
     1  H    0.000000   0.000000   0.000000   0.000000   0.000000   0.000000
     2  C    0.000000   0.000000   0.000000   0.000000   0.000000   0.000000
     3  H    0.000000   0.000000   0.000000   0.000000   0.000000   0.000000
     4  H    0.000000   0.000000   0.000000   0.000000   0.000000   0.000000
     5  C    0.000000   0.000000   0.000000   0.000000   0.000000   0.000000
     6  O    0.000000   0.000000   0.000000   0.000000   0.000000   0.000000
     7  N    0.000000   0.000000   0.000000   0.000000   0.000000   0.000000
     8  H    0.000000   0.000000   0.000000   0.000000   0.000000   0.000000
     9  C    0.000000   0.000000   0.000000   0.000000   0.000000   0.000000
    10  H    0.000000   0.000000   0.000000   0.000000   0.000000   0.000000
    11  C   -0.000001   0.000000   0.000000   0.000000   0.000000   0.000000
    12  H    0.000000   0.000000   0.000000   0.000000   0.000000   0.000000
    13  H    0.000000   0.000024   0.000000   0.000000   0.000000   0.000000
    14  H    0.000000   0.000000   0.000000   0.000000   0.000000   0.000000
    15  C    0.000001   0.000000   0.000000   0.000000   0.000000   0.000000
    16  O    0.000000   0.000000   0.000000   0.000000   0.000000   0.000000
    17  N    0.000038   0.000008   0.000000  -0.000017  -0.000002   0.000000
    18  H    0.000052   0.000005   0.000000   0.000001  -0.000001   0.000000
    19  C   -0.000599  -0.000054   0.000008   0.000297  -0.000020  -0.000052
    20  H    0.000012  -0.000001   0.000000  -0.000007  -0.000031  -0.000013
    21  C    0.000000   0.000001   0.000000  -0.000005  -0.000001   0.000000
    22  H    0.000001   0.000000   0.000000  -0.000002   0.000000   0.000000
    23  H    0.000000   0.000000   0.000000   0.000000   0.000000   0.000000
    24  H    0.000000   0.000000   0.000000   0.000000   0.000000   0.000000
    25  C   -0.003471  -0.000017   0.000249   0.000681   0.003740   0.000389
    26  O   -0.015107   0.000010   0.000240   0.009585   0.000420  -0.000003
    27  N   -0.063105   0.001563   0.004852  -0.005423  -0.035935  -0.005728
    28  H    0.002916   0.000256  -0.000071  -0.000202  -0.005287   0.021476
    29  C    0.334458  -0.042762  -0.041698  -0.027494   0.375154  -0.079624
    30  H   -0.045197   0.004436   0.000283  -0.004023  -0.036035   0.000988
    31  C    5.206339   0.385782   0.380208   0.388356  -0.062979  -0.000002
    32  H    0.385782   0.522352  -0.023329  -0.021012  -0.002705   0.000634
    33  H    0.380208  -0.023329   0.559227  -0.020189  -0.006830   0.000025
    34  H    0.388356  -0.021012  -0.020189   0.432395   0.003941  -0.000065
    35  C   -0.062979  -0.002705  -0.006830   0.003941   4.141709   0.595757
    36  O   -0.000002   0.000634   0.000025  -0.000065   0.595757   8.211584
    37  N    0.002485   0.000166   0.000485   0.000091   0.289209  -0.099003
    38  H   -0.000049  -0.000004   0.002605  -0.000080  -0.020797   0.002368
    39  C   -0.000074  -0.000041   0.000155   0.000003  -0.025574  -0.004851
    40  H   -0.000048  -0.000001  -0.000008   0.000000  -0.001966   0.009746
    41  H   -0.000004   0.000001   0.000002   0.000000   0.000795   0.000366
    42  H    0.000010   0.000002  -0.000003  -0.000001   0.000930   0.000374
             37         38         39         40         41         42
     1  H    0.000000   0.000000   0.000000   0.000000   0.000000   0.000000
     2  C    0.000000   0.000000   0.000000   0.000000   0.000000   0.000000
     3  H    0.000000   0.000000   0.000000   0.000000   0.000000   0.000000
     4  H    0.000000   0.000000   0.000000   0.000000   0.000000   0.000000
     5  C    0.000000   0.000000   0.000000   0.000000   0.000000   0.000000
     6  O    0.000000   0.000000   0.000000   0.000000   0.000000   0.000000
     7  N    0.000000   0.000000   0.000000   0.000000   0.000000   0.000000
     8  H    0.000000   0.000000   0.000000   0.000000   0.000000   0.000000
     9  C    0.000000   0.000000   0.000000   0.000000   0.000000   0.000000
    10  H    0.000000   0.000000   0.000000   0.000000   0.000000   0.000000
    11  C    0.000000   0.000000   0.000000   0.000000   0.000000   0.000000
    12  H    0.000000   0.000000   0.000000   0.000000   0.000000   0.000000
    13  H    0.000000   0.000000   0.000000   0.000000   0.000000   0.000000
    14  H    0.000000   0.000000   0.000000   0.000000   0.000000   0.000000
    15  C    0.000000   0.000000   0.000000   0.000000   0.000000   0.000000
    16  O    0.000000   0.000000   0.000000   0.000000   0.000000   0.000000
    17  N    0.000000   0.000000   0.000000   0.000000   0.000000   0.000000
    18  H    0.000000   0.000000   0.000000   0.000000   0.000000   0.000000
    19  C    0.000000   0.000000   0.000000   0.000000   0.000000   0.000000
    20  H    0.000000   0.000000   0.000000   0.000000   0.000000   0.000000
    21  C    0.000000   0.000000   0.000000   0.000000   0.000000   0.000000
    22  H    0.000000   0.000000   0.000000   0.000000   0.000000   0.000000
    23  H    0.000000   0.000000   0.000000   0.000000   0.000000   0.000000
    24  H    0.000000   0.000000   0.000000   0.000000   0.000000   0.000000
    25  C   -0.000091   0.000002   0.000001   0.000000   0.000000   0.000000
    26  O   -0.000001   0.000001   0.000000   0.000000   0.000000   0.000000
    27  N    0.002803   0.000016  -0.000049  -0.000004   0.000000   0.000001
    28  H    0.000730  -0.000022  -0.000010  -0.000010   0.000000   0.000000
    29  C   -0.117484   0.001233   0.003643   0.000587  -0.000111  -0.000004
    30  H    0.002136   0.000470  -0.000212  -0.000017   0.000010  -0.000001
    31  C    0.002485  -0.000049  -0.000074  -0.000048  -0.000004   0.000010
    32  H    0.000166  -0.000004  -0.000041  -0.000001   0.000001   0.000002
    33  H    0.000485   0.002605   0.000155  -0.000008   0.000002  -0.000003
    34  H    0.000091  -0.000080   0.000003   0.000000   0.000000  -0.000001
    35  C    0.289209  -0.020797  -0.025574  -0.001966   0.000795   0.000930
    36  O   -0.099003   0.002368  -0.004851   0.009746   0.000366   0.000374
    37  N    7.333924   0.322430   0.184450  -0.031646  -0.046889  -0.047897
[...]
    29  C   -0.000003   0.000000   0.000000   0.000000  -0.000312  -0.000031
    30  H    0.000000   0.000000   0.000000   0.000000  -0.000014  -0.000004
    31  C    0.000011   0.000000   0.000000   0.000000   0.000109   0.000028
    32  H    0.000027   0.000000   0.000000   0.000000   0.000001  -0.000001
    33  H    0.000000   0.000000   0.000000   0.000000   0.000000   0.000000
    34  H    0.000004   0.000000   0.000001   0.000000  -0.000009   0.000014
    35  C    0.000000   0.000000   0.000000   0.000000  -0.000002   0.000000
    36  O    0.000000   0.000000   0.000000   0.000000   0.000000   0.000000
    37  N    0.000000   0.000000   0.000000   0.000000   0.000000   0.000000
    38  H    0.000000   0.000000   0.000000   0.000000   0.000000   0.000000
    39  C    0.000000   0.000000   0.000000   0.000000   0.000000   0.000000
    40  H    0.000000   0.000000   0.000000   0.000000   0.000000   0.000000
    41  H    0.000000   0.000000   0.000000   0.000000   0.000000   0.000000
    42  H    0.000000   0.000000   0.000000   0.000000   0.000000   0.000000
             19         20         21         22         23         24
     1  H    0.000000   0.000000   0.000000   0.000000   0.000000   0.000000
     2  C    0.000000   0.000000   0.000000   0.000000   0.000000   0.000000
     3  H    0.000000   0.000000   0.000000   0.000000   0.000000   0.000000
     4  H    0.000000   0.000000   0.000000   0.000000   0.000000   0.000000
     5  C    0.000002   0.000000   0.000000   0.000000   0.000000   0.000000
     6  O    0.000000   0.000000   0.000000   0.000000   0.000000   0.000000
     7  N   -0.000080  -0.000006   0.000006   0.000000   0.000000   0.000000
     8  H   -0.000026  -0.000009   0.000002   0.000000   0.000000  -0.000002
     9  C    0.004447   0.000447  -0.000299  -0.000010   0.000004   0.000021
    10  H   -0.000162  -0.000015   0.000033   0.000000   0.000000  -0.000010
    11  C   -0.000297  -0.000024  -0.000002   0.000000   0.000000   0.000000
    12  H   -0.000003  -0.000002   0.000000   0.000000   0.000000   0.000000
    13  H    0.000002  -0.000006   0.000003   0.000000   0.000000   0.000000
    14  H    0.000004   0.000000   0.000000   0.000000   0.000000   0.000000
    15  C   -0.025228  -0.001426  -0.002669   0.000159   0.000036   0.001615
    16  O    0.005647   0.007251  -0.001334  -0.000009  -0.000022   0.001924
    17  N    0.176204  -0.039893  -0.064567  -0.001150   0.004375  -0.003362
    18  H   -0.024065   0.003284   0.001014   0.001638  -0.000055  -0.000246
    19  C    5.070465   0.408765   0.353689  -0.033215  -0.036052  -0.036290
    20  H    0.408765   0.464518  -0.035971   0.003609  -0.000251  -0.003618
    21  C    0.353689  -0.035971   5.112410   0.389336   0.387470   0.392402
    22  H   -0.033215   0.003609   0.389336   0.499030  -0.022396  -0.025705
    23  H   -0.036052  -0.000251   0.387470  -0.022396   0.521056  -0.023888
    24  H   -0.036290  -0.003618   0.392402  -0.025705  -0.023888   0.506212
    25  C    0.361716  -0.045600  -0.056156  -0.006207  -0.001832   0.004926
    26  O   -0.079090   0.002245   0.002928   0.005344   0.000147   0.000153
    27  N   -0.105140   0.004641   0.002789   0.000225  -0.000007  -0.000049
    28  H   -0.001126   0.001370   0.000050  -0.000004  -0.000018  -0.000005
    29  C    0.005558  -0.000046  -0.000147  -0.000004  -0.000006   0.000002
    30  H    0.000192  -0.000022   0.000009  -0.000002  -0.000002   0.000000
    31  C   -0.000492   0.000010   0.000000   0.000000   0.000000   0.000000
    32  H   -0.000007  -0.000001   0.000000   0.000000   0.000000   0.000000
    33  H    0.000005   0.000000   0.000000   0.000000   0.000000   0.000000
    34  H    0.000094  -0.000004   0.000000  -0.000001   0.000000   0.000000
    35  C   -0.000043  -0.000031   0.000000   0.000000   0.000000   0.000000
    36  O   -0.000051  -0.000017   0.000000   0.000000   0.000000   0.000000
    37  N    0.000000   0.000000   0.000000   0.000000   0.000000   0.000000
    38  H    0.000000   0.000000   0.000000   0.000000   0.000000   0.000000
    39  C    0.000000   0.000000   0.000000   0.000000   0.000000   0.000000
    40  H    0.000000   0.000000   0.000000   0.000000   0.000000   0.000000
    41  H    0.000000   0.000000   0.000000   0.000000   0.000000   0.000000
    42  H    0.000000   0.000000   0.000000   0.000000   0.000000   0.000000
             25         26         27         28         29         30
     1  H    0.000000   0.000000   0.000000   0.000000   0.000000   0.000000
     2  C    0.000000   0.000000   0.000000   0.000000   0.000000   0.000000
     3  H    0.000000   0.000000   0.000000   0.000000   0.000000   0.000000
     4  H    0.000000   0.000000   0.000000   0.000000   0.000000   0.000000
     5  C    0.000000   0.000000   0.000000   0.000000   0.000000   0.000000
     6  O    0.000000   0.000000   0.000000   0.000000   0.000000   0.000000
     7  N    0.000000   0.000000   0.000000   0.000000   0.000000   0.000000
     8  H    0.000000   0.000000   0.000000   0.000000   0.000000   0.000000
     9  C   -0.000055  -0.000003  -0.000008   0.000000   0.000000   0.000000
    10  H   -0.000012  -0.000001   0.000000   0.000000   0.000000   0.000000
    11  C    0.000011   0.000000  -0.000005   0.000001   0.000000   0.000000
    12  H   -0.000001   0.000000   0.000000   0.000001   0.000000   0.000000
    13  H    0.000002  -0.000001   0.000027   0.000004  -0.000003   0.000000
    14  H    0.000000   0.000000   0.000000   0.000000   0.000000   0.000000
    15  C    0.003461   0.000009  -0.000149   0.000037   0.000000   0.000000
    16  O    0.000354  -0.000001  -0.000014  -0.000016   0.000000   0.000000
    17  N   -0.051049  -0.000795   0.002920   0.000783  -0.000312  -0.000014
    18  H   -0.003612   0.004137   0.000387  -0.000009  -0.000031  -0.000004
    19  C    0.361716  -0.079090  -0.105140  -0.001126   0.005558   0.000192
    20  H   -0.045600   0.002245   0.004641   0.001370  -0.000046  -0.000022
    21  C   -0.056156   0.002928   0.002789   0.000050  -0.000147   0.000009
    22  H   -0.006207   0.005344   0.000225  -0.000004  -0.000004  -0.000002
    23  H   -0.001832   0.000147  -0.000007  -0.000018  -0.000006  -0.000002
    24  H    0.004926   0.000153  -0.000049  -0.000005   0.000002   0.000000
    25  C    4.188763   0.577537   0.285344  -0.014368  -0.031011  -0.001599
    26  O    0.577537   8.203151  -0.104744   0.001859   0.009826   0.005921
    27  N    0.285344  -0.104744   7.395154   0.308523   0.195303  -0.042312
    28  H   -0.014368   0.001859   0.308523   0.280496  -0.027018   0.002754
    29  C   -0.031011   0.009826   0.195303  -0.027018   5.051991   0.411141
    30  H   -0.001599   0.005921  -0.042312   0.002754   0.411141   0.486175
    31  C   -0.001761  -0.003815  -0.064701   0.002474   0.337268  -0.040512
    32  H    0.000092  -0.000005   0.000009   0.000605  -0.038254   0.003947
    33  H    0.000026  -0.000006   0.004664  -0.000059  -0.037363   0.000070
    34  H    0.002091   0.004418  -0.005444  -0.000195  -0.029987  -0.003671
    35  C    0.003547   0.000415  -0.041283  -0.007192   0.374816  -0.043016
    36  O    0.000439  -0.000004  -0.008427   0.022568  -0.077372   0.001825
    37  N   -0.000112  -0.000001   0.002410   0.000998  -0.115483   0.004161
    38  H   -0.000005  -0.000001  -0.000010  -0.000030   0.000623   0.001430
    39  C    0.000001   0.000000  -0.000082  -0.000029   0.004429  -0.000089
    40  H    0.000000   0.000000   0.000008   0.000001  -0.000174  -0.000003
    41  H    0.000000   0.000000   0.000000   0.000000   0.000002  -0.000012
    42  H    0.000000   0.000000  -0.000005  -0.000003   0.000150  -0.000001
             31         32         33         34         35         36
     1  H    0.000000   0.000000   0.000000   0.000000   0.000000   0.000000
     2  C    0.000000   0.000000   0.000000   0.000000   0.000000   0.000000
     3  H    0.000000   0.000000   0.000000   0.000000   0.000000   0.000000
     4  H    0.000000   0.000000   0.000000   0.000000   0.000000   0.000000
     5  C    0.000000   0.000000   0.000000   0.000000   0.000000   0.000000
     6  O    0.000000   0.000000   0.000000   0.000000   0.000000   0.000000
     7  N    0.000000   0.000000   0.000000   0.000000   0.000000   0.000000
     8  H    0.000000   0.000000   0.000000   0.000000   0.000000   0.000000
     9  C    0.000000   0.000000   0.000000   0.000000   0.000000   0.000000
    10  H    0.000000   0.000000   0.000000   0.000000   0.000000   0.000000
    11  C   -0.000002   0.000000   0.000000   0.000000   0.000000   0.000000
    12  H    0.000000   0.000000   0.000000   0.000000   0.000000   0.000000
    13  H    0.000011   0.000027   0.000000   0.000004   0.000000   0.000000
    14  H    0.000000   0.000000   0.000000   0.000000   0.000000   0.000000
    15  C    0.000000   0.000000   0.000000   0.000001   0.000000   0.000000
    16  O    0.000000   0.000000   0.000000   0.000000   0.000000   0.000000
    17  N    0.000109   0.000001   0.000000  -0.000009  -0.000002   0.000000
    18  H    0.000028  -0.000001   0.000000   0.000014   0.000000   0.000000
    19  C   -0.000492  -0.000007   0.000005   0.000094  -0.000043  -0.000051
    20  H    0.000010  -0.000001   0.000000  -0.000004  -0.000031  -0.000017
    21  C    0.000000   0.000000   0.000000   0.000000   0.000000   0.000000
    22  H    0.000000   0.000000   0.000000  -0.000001   0.000000   0.000000
    23  H    0.000000   0.000000   0.000000   0.000000   0.000000   0.000000
    24  H    0.000000   0.000000   0.000000   0.000000   0.000000   0.000000
    25  C   -0.001761   0.000092   0.000026   0.002091   0.003547   0.000439
    26  O   -0.003815  -0.000005  -0.000006   0.004418   0.000415  -0.000004
    27  N   -0.064701   0.000009   0.004664  -0.005444  -0.041283  -0.008427
    28  H    0.002474   0.000605  -0.000059  -0.000195  -0.007192   0.022568
    29  C    0.337268  -0.038254  -0.037363  -0.029987   0.374816  -0.077372
    30  H   -0.040512   0.003947   0.000070  -0.003671  -0.043016   0.001825
    31  C    5.147048   0.389090   0.382324   0.391767  -0.052923  -0.000917
    32  H    0.389090   0.512051  -0.024155  -0.023340  -0.004015   0.001697
    33  H    0.382324  -0.024155   0.534499  -0.023139  -0.002875   0.000022
    34  H    0.391767  -0.023340  -0.023139   0.477451   0.004188  -0.000071
    35  C   -0.052923  -0.004015  -0.002875   0.004188   4.163424   0.597983
    36  O   -0.000917   0.001697   0.000022  -0.000071   0.597983   8.178068
    37  N    0.001199   0.000415   0.002380  -0.000058   0.283245  -0.103689
    38  H    0.000333   0.000005   0.000418  -0.000034  -0.022070   0.002510
    39  C   -0.000266  -0.000007  -0.000018   0.000003  -0.029030   0.008233
    40  H   -0.000006   0.000000   0.000003   0.000000  -0.003747   0.001170
    41  H    0.000005   0.000000  -0.000007   0.000000   0.004551   0.000349
    42  H    0.000006   0.000003  -0.000012   0.000000  -0.002959   0.003208
             37         38         39         40         41         42
     1  H    0.000000   0.000000   0.000000   0.000000   0.000000   0.000000
     2  C    0.000000   0.000000   0.000000   0.000000   0.000000   0.000000
     3  H    0.000000   0.000000   0.000000   0.000000   0.000000   0.000000
     4  H    0.000000   0.000000   0.000000   0.000000   0.000000   0.000000
     5  C    0.000000   0.000000   0.000000   0.000000   0.000000   0.000000
     6  O    0.000000   0.000000   0.000000   0.000000   0.000000   0.000000
     7  N    0.000000   0.000000   0.000000   0.000000   0.000000   0.000000
     8  H    0.000000   0.000000   0.000000   0.000000   0.000000   0.000000
     9  C    0.000000   0.000000   0.000000   0.000000   0.000000   0.000000
    10  H    0.000000   0.000000   0.000000   0.000000   0.000000   0.000000
    11  C    0.000000   0.000000   0.000000   0.000000   0.000000   0.000000
    12  H    0.000000   0.000000   0.000000   0.000000   0.000000   0.000000
    13  H    0.000000   0.000000   0.000000   0.000000   0.000000   0.000000
    14  H    0.000000   0.000000   0.000000   0.000000   0.000000   0.000000
    15  C    0.000000   0.000000   0.000000   0.000000   0.000000   0.000000
    16  O    0.000000   0.000000   0.000000   0.000000   0.000000   0.000000
    17  N    0.000000   0.000000   0.000000   0.000000   0.000000   0.000000
    18  H    0.000000   0.000000   0.000000   0.000000   0.000000   0.000000
    19  C    0.000000   0.000000   0.000000   0.000000   0.000000   0.000000
    20  H    0.000000   0.000000   0.000000   0.000000   0.000000   0.000000
    21  C    0.000000   0.000000   0.000000   0.000000   0.000000   0.000000
    22  H    0.000000   0.000000   0.000000   0.000000   0.000000   0.000000
    23  H    0.000000   0.000000   0.000000   0.000000   0.000000   0.000000
    24  H    0.000000   0.000000   0.000000   0.000000   0.000000   0.000000
    25  C   -0.000112  -0.000005   0.000001   0.000000   0.000000   0.000000
    26  O   -0.000001  -0.000001   0.000000   0.000000   0.000000   0.000000
    27  N    0.002410  -0.000010  -0.000082   0.000008   0.000000  -0.000005
    28  H    0.000998  -0.000030  -0.000029   0.000001   0.000000  -0.000003
    29  C   -0.115483   0.000623   0.004429  -0.000174   0.000002   0.000150
    30  H    0.004161   0.001430  -0.000089  -0.000003  -0.000012  -0.000001
    31  C    0.001199   0.000333  -0.000266  -0.000006   0.000005   0.000006
    32  H    0.000415   0.000005  -0.000007   0.000000   0.000000   0.000003
    33  H    0.002380   0.000418  -0.000018   0.000003  -0.000007  -0.000012
    34  H   -0.000058  -0.000034   0.000003   0.000000   0.000000   0.000000
    35  C    0.283245  -0.022070  -0.029030  -0.003747   0.004551  -0.002959
    36  O   -0.103689   0.002510   0.008233   0.001170   0.000349   0.003208
    37  N    7.324942   0.328395   0.193944  -0.045448  -0.037197  -0.040361
    38  H    0.328395   0.321088  -0.022115   0.001328  -0.004553   0.002508
    39  C    0.193944  -0.022115   4.910632   0.406362   0.397432   0.404261
    40  H   -0.045448   0.001328   0.406362   0.518442  -0.030945  -0.032483
    41  H   -0.037197  -0.004553   0.397432  -0.030945   0.522041  -0.024670
    42  H   -0.040361   0.002508   0.404261  -0.032483  -0.024670   0.485786
 Mulliken atomic charges:
              1
     1  H    0.202967
     2  C   -0.575796
     3  H    0.208184
     4  H    0.173454
     5  C    0.756059
     6  O   -0.622004
     7  N   -0.823840
     8  H    0.418569
     9  C   -0.029404
    10  H    0.216090
    11  C   -0.485771
    12  H    0.177568
    13  H    0.163329
    14  H    0.211707
    15  C    0.788377
    16  O   -0.630045
    17  N   -0.827206
    18  H    0.399892
    19  C   -0.045424
    20  H    0.230801
    21  C   -0.480998
    22  H    0.189360
    23  H    0.171443
    24  H    0.185919
    25  C    0.785070
    26  O   -0.629623
    27  N   -0.830024
    28  H    0.427548
    29  C   -0.033898
    30  H    0.213634
    31  C   -0.486276
    32  H    0.181845
    33  H    0.163224
    34  H    0.205923
    35  C    0.777017
    36  O   -0.627522
    37  N   -0.799740
    38  H    0.390181
    39  C   -0.273660
    40  H    0.185492
    41  H    0.173004
    42  H    0.204574
 Sum of Mulliken atomic charges =   0.00000
 Mulliken charges with hydrogens summed into heavy atoms:
              1
     2  C    0.008808
     5  C    0.756059
     6  O   -0.622004
     7  N   -0.405270
     9  C    0.186687
    11  C    0.066833
    15  C    0.788377
    16  O   -0.630045
    17  N   -0.427314
    19  C    0.185378
    21  C    0.065723
    25  C    0.785070
    26  O   -0.629623
    27  N   -0.402476
    29  C    0.179737
    31  C    0.064716
    35  C    0.777017
    36  O   -0.627522
    37  N   -0.409559
    39  C    0.289409
 Sum of Mulliken charges with hydrogens summed into heavy atoms =   0.00000
 Electronic spatial extent (au):  <R**2>=           9804.7934
 Charge=              0.0000 electrons
 Dipole moment (field-independent basis, Debye):
    X=              4.7431    Y=             -0.2540    Z=             -0.2434  Tot=              4.7561
 Quadrupole moment (field-independent basis, Debye-Ang):
   XX=            -96.1266   YY=           -124.4471   ZZ=           -130.3914
   XY=             -3.6891   XZ=             18.3476   YZ=             -4.2000
 Traceless Quadrupole moment (field-independent basis, Debye-Ang):
   XX=             20.8618   YY=             -7.4588   ZZ=            -13.4030
   XY=             -3.6891   XZ=             18.3476   YZ=             -4.2000
 Octapole moment (field-independent basis, Debye-Ang**2):
  XXX=            276.1174  YYY=            -10.5260  ZZZ=              1.5605  XYY=            -17.6258
  XXY=             -5.3957  XXZ=            -77.0390  XZZ=             18.7746  YZZ=             -1.2489
  YYZ=            -14.7394  XYZ=            -34.1778
 Hexadecapole moment (field-independent basis, Debye-Ang**3):
 XXXX=          -8939.7683 YYYY=          -1414.4705 ZZZZ=           -802.4375 XXXY=           -185.8630
 XXXZ=            709.1252 YYYX=            -17.2559 YYYZ=            -25.0801 ZZZX=             16.5284
 ZZZY=              4.7971 XXYY=          -1986.1926 XXZZ=          -2021.9622 YYZZ=           -387.8786
 XXYZ=             92.4813 YYXZ=            -19.5130 ZZXY=            -15.0511
 N-N= 1.597871979678D+03 E-N=-5.503490187558D+03  KE= 9.831013460289D+02
 1\1\GINC-NODE005\FOpt\RHF\6-31G(d)\C12H22N4O4\MANAGER\27-Dec-2016\0\\#
  HF/6-31G* Opt=(ModRedundant, maxcycles=1000, calcfc) geom=nocrowd\\Ph
 i Psi fixed scan\\0,1\H,2.4442155553,1.3492584302,-1.7819835285\C,2.22
 41387662,2.1659013951,-1.1028503867\H,1.6480982051,1.7658527541,-0.279
 1835828\H,1.6375716484,2.9086334203,-1.6297536483\C,3.5295041049,2.708
 2498857,-0.5627414224\O,4.1715989936,2.1074558697,0.2590845427\N,3.932
 2609763,3.8886882181,-1.075804637\H,3.3761753817,4.3817439233,-1.73751
 86407\C,5.1577475207,4.5269112901,-0.6633025678\H,5.2709643367,4.38432
 34424,0.4041979261\C,6.3858888167,3.9431578717,-1.3753750074\H,6.30259
 86863,4.0852896295,-2.4474267748\H,7.3009253805,4.4156995579,-1.034473
 4898\H,6.4460573676,2.8837233399,-1.1646743461\C,5.0256841587,6.015350
 8666,-0.9715939251\O,4.250819554,6.4214622861,-1.7974884876\N,5.877330
 829,6.8210486116,-0.2995426939\H,6.3491134117,6.4508068209,0.496617651
 3\C,5.8262868452,8.2719229492,-0.4141804517\H,5.5064951617,8.486403745
 ,-1.4230453542\C,4.8576578155,8.9064895576,0.5769785784\H,5.1596106306
 ,8.6966330177,1.5948391199\H,4.8325626613,9.9836068716,0.4487781901\H,
 3.860412128,8.5176425124,0.4090596021\C,7.2561737377,8.7715459122,-0.2
 008055601\O,7.6802477811,8.9983519552,0.9038713142\N,8.0057966479,8.87
 41733069,-1.3096274053\H,7.6282369057,8.670045017,-2.208836886\C,9.392
 6696051,9.2740749767,-1.2722818383\H,9.4960933066,10.0646939236,-0.539
 729885\C,10.3207967038,8.1133042667,-0.8901701343\H,10.238833645,7.311
 977578,-1.6162427859\H,11.3559199386,8.4356705001,-0.8486016502\H,10.0
 405174114,7.7362936532,0.0846291849\C,9.7499251862,9.8006010742,-2.659
 5577757\O,9.1391259006,9.4529572625,-3.6365423887\N,10.8085531253,10.6
 274665358,-2.7143095218\H,11.2058026968,10.959356143,-1.8663622766\C,1
 1.2707915401,11.1904849505,-3.9668526443\H,10.5813712994,11.9349600894
 ,-4.3478617572\H,12.2348710672,11.6525085552,-3.8033201274\H,11.374654
 566,10.4094780333,-4.7060145281\\Version=EM64L-G09RevA.02\State=1-A\HF
 =-984.5639787\RMSD=9.923e-09\RMSF=4.343e-04\Dipole=1.2444181,1.3150034
 ,-0.4727893\Quadrupole=16.5094178,-3.3863093,-13.1231085,11.6799873,-0
 .8219371,4.8412678\PG=C01 [X(C12H22N4O4)]\\@


 HE THAT FOLLOWS NATURE IS NEVER LOST.

                             -- BACON
 Job cpu time:  0 days  3 hours 49 minutes 12.7 seconds.
 File lengths (MBytes):  RWF=    553 Int=      0 D2E=      0 Chk=     11 Scr=      1
 Normal termination of Gaussian 09 at Tue Dec 27 00:50:38 2016.
