 Entering Gaussian System, Link 0=g09
 Initial command:
 /home/steboss/Software/g09/l1.exe /tmp/Gau-21752.inp -scrdir=/tmp/
 Entering Link 1 = /home/steboss/Software/g09/l1.exe PID=     21754.
  
 Copyright (c) 1988,1990,1992,1993,1995,1998,2003,2009, Gaussian, Inc.
                  All Rights Reserved.
  
 This is part of the Gaussian(R) 09 program.  It is based on
 the Gaussian(R) 03 system (copyright 2003, Gaussian, Inc.),
 the Gaussian(R) 98 system (copyright 1998, Gaussian, Inc.),
 the Gaussian(R) 94 system (copyright 1995, Gaussian, Inc.),
 the Gaussian 92(TM) system (copyright 1992, Gaussian, Inc.),
 the Gaussian 90(TM) system (copyright 1990, Gaussian, Inc.),
 the Gaussian 88(TM) system (copyright 1988, Gaussian, Inc.),
 the Gaussian 86(TM) system (copyright 1986, Carnegie Mellon
 University), and the Gaussian 82(TM) system (copyright 1983,
 Carnegie Mellon University). Gaussian is a federally registered
 trademark of Gaussian, Inc.
  
 This software contains proprietary and confidential information,
 including trade secrets, belonging to Gaussian, Inc.
  
 This software is provided under written license and may be
 used, copied, transmitted, or stored only in accord with that
 written license.
  
 The following legend is applicable only to US Government
 contracts under FAR:
  
                    RESTRICTED RIGHTS LEGEND
  
 Use, reproduction and disclosure by the US Government is
 subject to restrictions as set forth in subparagraphs (a)
 and (c) of the Commercial Computer Software - Restricted
 Rights clause in FAR 52.227-19.
  
 Gaussian, Inc.
 340 Quinnipiac St., Bldg. 40, Wallingford CT 06492
  
  
 ---------------------------------------------------------------
 Warning -- This program may not be used in any manner that
 competes with the business of Gaussian, Inc. or will provide
 assistance to any competitor of Gaussian, Inc.  The licensee
 of this program is prohibited from giving any competitor of
 Gaussian, Inc. access to this program.  By using this program,
 the user acknowledges that Gaussian, Inc. is engaged in the
 business of creating and licensing software in the field of
 computational chemistry and represents and warrants to the
 licensee that it is not a competitor of Gaussian, Inc. and that
 it will not use this program in any manner prohibited above.
 ---------------------------------------------------------------
  

 Cite this work as:
 Gaussian 09, Revision A.02,
 M. J. Frisch, G. W. Trucks, H. B. Schlegel, G. E. Scuseria, 
 M. A. Robb, J. R. Cheeseman, G. Scalmani, V. Barone, B. Mennucci, 
 G. A. Petersson, H. Nakatsuji, M. Caricato, X. Li, H. P. Hratchian, 
 A. F. Izmaylov, J. Bloino, G. Zheng, J. L. Sonnenberg, M. Hada, 
 M. Ehara, K. Toyota, R. Fukuda, J. Hasegawa, M. Ishida, T. Nakajima, 
 Y. Honda, O. Kitao, H. Nakai, T. Vreven, J. A. Montgomery, Jr., 
 J. E. Peralta, F. Ogliaro, M. Bearpark, J. J. Heyd, E. Brothers, 
 K. N. Kudin, V. N. Staroverov, R. Kobayashi, J. Normand, 
 K. Raghavachari, A. Rendell, J. C. Burant, S. S. Iyengar, J. Tomasi, 
 M. Cossi, N. Rega, J. M. Millam, M. Klene, J. E. Knox, J. B. Cross, 
 V. Bakken, C. Adamo, J. Jaramillo, R. Gomperts, R. E. Stratmann, 
 O. Yazyev, A. J. Austin, R. Cammi, C. Pomelli, J. W. Ochterski, 
 R. L. Martin, K. Morokuma, V. G. Zakrzewski, G. A. Voth, 
 P. Salvador, J. J. Dannenberg, S. Dapprich, A. D. Daniels, 
 O. Farkas, J. B. Foresman, J. V. Ortiz, J. Cioslowski, 
 and D. J. Fox, Gaussian, Inc., Wallingford CT, 2009.
 
 ******************************************
 Gaussian 09:  EM64L-G09RevA.02 11-Jun-2009
                26-Dec-2016 
 ******************************************
 %chk=structure_60.chk
 -------------------------------------------------------------------
 # HF/6-31G* Opt=(ModRedundant, maxcycles=1000, calcfc) geom=nocrowd
 -------------------------------------------------------------------
 1/6=1000,10=4,18=120,19=15,38=1/1,3;
 2/9=110,12=1,17=6,18=5,40=1/2;
 3/5=1,6=6,7=1,11=9,16=1,25=1,30=1,71=2/1,2,3;
 4//1;
 5/5=2,38=5/2;
 8/6=4,10=90,11=11/1;
 11/6=1,8=1,9=11,15=111,16=1/1,2,10;
 10/6=1,7=6,13=1/2;
 6/7=2,8=2,9=2,10=2,28=1/1;
 7/10=1,18=20,25=1/1,2,3,16;
 1/6=1000,10=4,18=20,19=15/3(2);
 2/9=110,12=1/2;
 99//99;
 2/9=110,12=1/2;
 3/5=1,6=6,7=1,11=9,16=1,25=1,30=1,71=1/1,2,3;
 4/5=5,16=3/1;
 5/5=2,38=5/2;
 7//1,2,3,16;
 1/6=1000,18=20,19=15/3(-5);
 2/9=110,12=1/2;
 6/7=2,8=2,9=2,10=2,19=2,28=1/1;
 99/9=1/99;
 ------------------
 Phi Psi fixed scan
 ------------------
 Symbolic Z-matrix:
 Charge =  0 Multiplicity = 1
 H                     2.5153    1.       -1.923 
 C                     2.5153    2.09     -1.923 
 H                     1.6255    2.4539   -1.4093 
 H                     2.5153    2.4539   -2.9505 
 C                     3.7515    2.6408   -1.2093 
 O                     4.5856    1.8774   -0.7277 
 N                     3.8623    3.9697   -1.1453 
 H                     3.1502    4.5562   -1.5565 
 C                     4.9863    4.6139   -0.4964 
 H                     5.0214    4.3155    0.5514 
 C                     6.3021    4.2208   -1.1594 
 H                     6.2857    4.5214   -2.2071 
 H                     7.1283    4.7189   -0.652 
 H                     6.4342    3.1409   -1.0938 
 C                     4.8645    6.1294   -0.5667 
 O                     3.9015    6.6527   -1.1227 
 N                     5.846     6.8349    0. 
 H                     6.6176    6.3592    0.4455 
 C                     5.8461    8.2839    0. 
 H                     5.3323    8.6477   -0.8898 
 C                     5.1347    8.8329    1.2322 
 H                     5.6431    8.4846    2.1312 
 H                     5.1499    9.9224    1.2058 
 H                     4.1019    8.4846    1.2414 
 C                     7.266     8.8318    0. 
 O                     7.6574    9.5503    0.9171 
 N                     8.0386    8.4902   -1.0338 
 H                     7.6716    7.8967   -1.764 
 C                     9.4087    8.9471   -1.1497 
 H                     9.4275    10.0365  -1.1807 
 C                     10.2458   8.4788    0.0359 
 H                     10.244    7.3895    0.0749 
 H                     11.2693   8.8362   -0.0776 
 H                     9.8232    8.8756    0.959 
 C                     10.0589   8.4132   -2.418 
 O                     9.4267    7.693    -3.1875 
 N                     11.3274   8.7686   -2.6346 
 H                     11.8055   9.3628   -1.9725 
 C                     12.0574   8.3257   -3.8054 
 H                     11.4129   7.6969   -4.4197 
 H                     12.3771   9.1923   -4.3841 
 H                     12.932    7.7544   -3.4943 
 
 The following ModRedundant input section has been read:
 D   15   17   19   25 F                                                       
 D   17   19   25   27 F                                                       

 GradGradGradGradGradGradGradGradGradGradGradGradGradGradGradGradGradGrad
 Berny optimization.
 Initialization pass.
                           ----------------------------
                           !    Initial Parameters    !
                           ! (Angstroms and Degrees)  !
 --------------------------                            --------------------------
 ! Name  Definition              Value          Derivative Info.                !
 --------------------------------------------------------------------------------
 ! R1    R(1,2)                  1.09           calculate D2E/DX2 analytically  !
 ! R2    R(2,3)                  1.09           calculate D2E/DX2 analytically  !
 ! R3    R(2,4)                  1.09           calculate D2E/DX2 analytically  !
 ! R4    R(2,5)                  1.53           calculate D2E/DX2 analytically  !
 ! R5    R(5,6)                  1.229          calculate D2E/DX2 analytically  !
 ! R6    R(5,7)                  1.335          calculate D2E/DX2 analytically  !
 ! R7    R(7,8)                  1.01           calculate D2E/DX2 analytically  !
 ! R8    R(7,9)                  1.4489         calculate D2E/DX2 analytically  !
 ! R9    R(9,10)                 1.09           calculate D2E/DX2 analytically  !
 ! R10   R(9,11)                 1.5249         calculate D2E/DX2 analytically  !
 ! R11   R(9,15)                 1.522          calculate D2E/DX2 analytically  !
 ! R12   R(11,12)                1.0901         calculate D2E/DX2 analytically  !
 ! R13   R(11,13)                1.09           calculate D2E/DX2 analytically  !
 ! R14   R(11,14)                1.0899         calculate D2E/DX2 analytically  !
 ! R15   R(15,16)                1.229          calculate D2E/DX2 analytically  !
 ! R16   R(15,17)                1.335          calculate D2E/DX2 analytically  !
 ! R17   R(17,18)                1.01           calculate D2E/DX2 analytically  !
 ! R18   R(17,19)                1.449          calculate D2E/DX2 analytically  !
 ! R19   R(19,20)                1.09           calculate D2E/DX2 analytically  !
 ! R20   R(19,21)                1.5251         calculate D2E/DX2 analytically  !
 ! R21   R(19,25)                1.5219         calculate D2E/DX2 analytically  !
 ! R22   R(21,22)                1.0899         calculate D2E/DX2 analytically  !
 ! R23   R(21,23)                1.0899         calculate D2E/DX2 analytically  !
 ! R24   R(21,24)                1.09           calculate D2E/DX2 analytically  !
 ! R25   R(25,26)                1.229          calculate D2E/DX2 analytically  !
 ! R26   R(25,27)                1.335          calculate D2E/DX2 analytically  !
 ! R27   R(27,28)                1.01           calculate D2E/DX2 analytically  !
 ! R28   R(27,29)                1.4489         calculate D2E/DX2 analytically  !
 ! R29   R(29,30)                1.09           calculate D2E/DX2 analytically  !
 ! R30   R(29,31)                1.525          calculate D2E/DX2 analytically  !
 ! R31   R(29,35)                1.522          calculate D2E/DX2 analytically  !
 ! R32   R(31,32)                1.09           calculate D2E/DX2 analytically  !
 ! R33   R(31,33)                1.09           calculate D2E/DX2 analytically  !
 ! R34   R(31,34)                1.09           calculate D2E/DX2 analytically  !
 ! R35   R(35,36)                1.229          calculate D2E/DX2 analytically  !
 ! R36   R(35,37)                1.335          calculate D2E/DX2 analytically  !
 ! R37   R(37,38)                1.01           calculate D2E/DX2 analytically  !
 ! R38   R(37,39)                1.4491         calculate D2E/DX2 analytically  !
 ! R39   R(39,40)                1.09           calculate D2E/DX2 analytically  !
 ! R40   R(39,41)                1.09           calculate D2E/DX2 analytically  !
 ! R41   R(39,42)                1.09           calculate D2E/DX2 analytically  !
 ! A1    A(1,2,3)              109.5032         calculate D2E/DX2 analytically  !
 ! A2    A(1,2,4)              109.5021         calculate D2E/DX2 analytically  !
 ! A3    A(1,2,5)              111.1            calculate D2E/DX2 analytically  !
 ! A4    A(3,2,4)              109.4387         calculate D2E/DX2 analytically  !
 ! A5    A(3,2,5)              108.6357         calculate D2E/DX2 analytically  !
 ! A6    A(4,2,5)              108.6341         calculate D2E/DX2 analytically  !
 ! A7    A(2,5,6)              120.4994         calculate D2E/DX2 analytically  !
 ! A8    A(2,5,7)              116.5999         calculate D2E/DX2 analytically  !
 ! A9    A(6,5,7)              122.9007         calculate D2E/DX2 analytically  !
 ! A10   A(5,7,8)              119.9983         calculate D2E/DX2 analytically  !
 ! A11   A(5,7,9)              121.8976         calculate D2E/DX2 analytically  !
 ! A12   A(8,7,9)              118.1041         calculate D2E/DX2 analytically  !
 ! A13   A(7,9,10)             109.4973         calculate D2E/DX2 analytically  !
 ! A14   A(7,9,11)             111.1021         calculate D2E/DX2 analytically  !
 ! A15   A(7,9,15)             111.0961         calculate D2E/DX2 analytically  !
 ! A16   A(10,9,11)            108.6373         calculate D2E/DX2 analytically  !
 ! A17   A(10,9,15)            108.6363         calculate D2E/DX2 analytically  !
 ! A18   A(11,9,15)            107.7971         calculate D2E/DX2 analytically  !
 ! A19   A(9,11,12)            109.4995         calculate D2E/DX2 analytically  !
 ! A20   A(9,11,13)            109.5016         calculate D2E/DX2 analytically  !
 ! A21   A(9,11,14)            109.5009         calculate D2E/DX2 analytically  !
 ! A22   A(12,11,13)           109.4378         calculate D2E/DX2 analytically  !
 ! A23   A(12,11,14)           109.4443         calculate D2E/DX2 analytically  !
 ! A24   A(13,11,14)           109.4433         calculate D2E/DX2 analytically  !
 ! A25   A(9,15,16)            120.5033         calculate D2E/DX2 analytically  !
 ! A26   A(9,15,17)            116.6002         calculate D2E/DX2 analytically  !
 ! A27   A(16,15,17)           122.8965         calculate D2E/DX2 analytically  !
 ! A28   A(15,17,18)           120.0            calculate D2E/DX2 analytically  !
 ! A29   A(15,17,19)           121.9052         calculate D2E/DX2 analytically  !
 ! A30   A(18,17,19)           118.0948         calculate D2E/DX2 analytically  !
 ! A31   A(17,19,20)           109.4954         calculate D2E/DX2 analytically  !
 ! A32   A(17,19,21)           111.0974         calculate D2E/DX2 analytically  !
 ! A33   A(17,19,25)           111.1042         calculate D2E/DX2 analytically  !
 ! A34   A(20,19,21)           108.6349         calculate D2E/DX2 analytically  !
 ! A35   A(20,19,25)           108.6399         calculate D2E/DX2 analytically  !
 ! A36   A(21,19,25)           107.7944         calculate D2E/DX2 analytically  !
 ! A37   A(19,21,22)           109.4996         calculate D2E/DX2 analytically  !
 ! A38   A(19,21,23)           109.4977         calculate D2E/DX2 analytically  !
 ! A39   A(19,21,24)           109.4988         calculate D2E/DX2 analytically  !
 ! A40   A(22,21,23)           109.4452         calculate D2E/DX2 analytically  !
 ! A41   A(22,21,24)           109.4447         calculate D2E/DX2 analytically  !
 ! A42   A(23,21,24)           109.4412         calculate D2E/DX2 analytically  !
 ! A43   A(19,25,26)           120.5021         calculate D2E/DX2 analytically  !
 ! A44   A(19,25,27)           116.6021         calculate D2E/DX2 analytically  !
 ! A45   A(26,25,27)           122.8958         calculate D2E/DX2 analytically  !
 ! A46   A(25,27,28)           119.9937         calculate D2E/DX2 analytically  !
 ! A47   A(25,27,29)           121.9029         calculate D2E/DX2 analytically  !
 ! A48   A(28,27,29)           118.1034         calculate D2E/DX2 analytically  !
 ! A49   A(27,29,30)           109.4965         calculate D2E/DX2 analytically  !
 ! A50   A(27,29,31)           111.102          calculate D2E/DX2 analytically  !
 ! A51   A(27,29,35)           111.1008         calculate D2E/DX2 analytically  !
 ! A52   A(30,29,31)           108.6358         calculate D2E/DX2 analytically  !
 ! A53   A(30,29,35)           108.6347         calculate D2E/DX2 analytically  !
 ! A54   A(31,29,35)           107.7963         calculate D2E/DX2 analytically  !
 ! A55   A(29,31,32)           109.499          calculate D2E/DX2 analytically  !
 ! A56   A(29,31,33)           109.4979         calculate D2E/DX2 analytically  !
 ! A57   A(29,31,34)           109.4984         calculate D2E/DX2 analytically  !
 ! A58   A(32,31,33)           109.4477         calculate D2E/DX2 analytically  !
 ! A59   A(32,31,34)           109.4421         calculate D2E/DX2 analytically  !
 ! A60   A(33,31,34)           109.4422         calculate D2E/DX2 analytically  !
 ! A61   A(29,35,36)           120.5017         calculate D2E/DX2 analytically  !
 ! A62   A(29,35,37)           116.5984         calculate D2E/DX2 analytically  !
 ! A63   A(36,35,37)           122.8999         calculate D2E/DX2 analytically  !
 ! A64   A(35,37,38)           120.0034         calculate D2E/DX2 analytically  !
 ! A65   A(35,37,39)           121.8962         calculate D2E/DX2 analytically  !
 ! A66   A(38,37,39)           118.1004         calculate D2E/DX2 analytically  !
 ! A67   A(37,39,40)           109.4992         calculate D2E/DX2 analytically  !
 ! A68   A(37,39,41)           109.4946         calculate D2E/DX2 analytically  !
 ! A69   A(37,39,42)           109.5002         calculate D2E/DX2 analytically  !
 ! A70   A(40,39,41)           109.4421         calculate D2E/DX2 analytically  !
 ! A71   A(40,39,42)           109.4465         calculate D2E/DX2 analytically  !
 ! A72   A(41,39,42)           109.4447         calculate D2E/DX2 analytically  !
 ! D1    D(1,2,5,6)             -0.0022         calculate D2E/DX2 analytically  !
 ! D2    D(1,2,5,7)           -179.9987         calculate D2E/DX2 analytically  !
 ! D3    D(3,2,5,6)            120.5139         calculate D2E/DX2 analytically  !
 ! D4    D(3,2,5,7)            -59.4827         calculate D2E/DX2 analytically  !
 ! D5    D(4,2,5,6)           -120.5158         calculate D2E/DX2 analytically  !
 ! D6    D(4,2,5,7)             59.4876         calculate D2E/DX2 analytically  !
 ! D7    D(2,5,7,8)             -0.0058         calculate D2E/DX2 analytically  !
 ! D8    D(2,5,7,9)           -179.9989         calculate D2E/DX2 analytically  !
 ! D9    D(6,5,7,8)            179.9977         calculate D2E/DX2 analytically  !
 ! D10   D(6,5,7,9)              0.0046         calculate D2E/DX2 analytically  !
 ! D11   D(5,7,9,10)           -60.0044         calculate D2E/DX2 analytically  !
 ! D12   D(5,7,9,11)            59.997          calculate D2E/DX2 analytically  !
 ! D13   D(5,7,9,15)           179.9991         calculate D2E/DX2 analytically  !
 ! D14   D(8,7,9,10)           120.0023         calculate D2E/DX2 analytically  !
 ! D15   D(8,7,9,11)          -119.9962         calculate D2E/DX2 analytically  !
 ! D16   D(8,7,9,15)             0.0059         calculate D2E/DX2 analytically  !
 ! D17   D(7,9,11,12)           60.0032         calculate D2E/DX2 analytically  !
 ! D18   D(7,9,11,13)          179.9981         calculate D2E/DX2 analytically  !
 ! D19   D(7,9,11,14)          -59.9993         calculate D2E/DX2 analytically  !
 ! D20   D(10,9,11,12)        -179.4858         calculate D2E/DX2 analytically  !
 ! D21   D(10,9,11,13)         -59.4909         calculate D2E/DX2 analytically  !
 ! D22   D(10,9,11,14)          60.5117         calculate D2E/DX2 analytically  !
 ! D23   D(15,9,11,12)         -61.9399         calculate D2E/DX2 analytically  !
 ! D24   D(15,9,11,13)          58.055          calculate D2E/DX2 analytically  !
 ! D25   D(15,9,11,14)         178.0576         calculate D2E/DX2 analytically  !
 ! D26   D(7,9,15,16)           -0.0028         calculate D2E/DX2 analytically  !
 ! D27   D(7,9,15,17)          179.9973         calculate D2E/DX2 analytically  !
 ! D28   D(10,9,15,16)        -120.5094         calculate D2E/DX2 analytically  !
 ! D29   D(10,9,15,17)          59.4906         calculate D2E/DX2 analytically  !
 ! D30   D(11,9,15,16)         121.944          calculate D2E/DX2 analytically  !
 ! D31   D(11,9,15,17)         -58.056          calculate D2E/DX2 analytically  !
 ! D32   D(9,15,17,18)          -0.0005         calculate D2E/DX2 analytically  !
 ! D33   D(9,15,17,19)         179.9968         calculate D2E/DX2 analytically  !
 ! D34   D(16,15,17,18)        179.9995         calculate D2E/DX2 analytically  !
 ! D35   D(16,15,17,19)         -0.0032         calculate D2E/DX2 analytically  !
 ! D36   D(15,17,19,20)        -29.9927         calculate D2E/DX2 analytically  !
 ! D37   D(15,17,19,21)         90.0016         calculate D2E/DX2 analytically  !
 ! D38   D(15,17,19,25)       -149.9974         frozen, calculate D2E/DX2 analyt!
 ! D39   D(18,17,19,20)        150.0046         calculate D2E/DX2 analytically  !
 ! D40   D(18,17,19,21)        -90.0011         calculate D2E/DX2 analytically  !
 ! D41   D(18,17,19,25)         29.9999         calculate D2E/DX2 analytically  !
 ! D42   D(17,19,21,22)         60.0039         calculate D2E/DX2 analytically  !
 ! D43   D(17,19,21,23)       -179.9943         calculate D2E/DX2 analytically  !
 ! D44   D(17,19,21,24)        -59.998          calculate D2E/DX2 analytically  !
 ! D45   D(20,19,21,22)       -179.4919         calculate D2E/DX2 analytically  !
 ! D46   D(20,19,21,23)        -59.4901         calculate D2E/DX2 analytically  !
 ! D47   D(20,19,21,24)         60.5062         calculate D2E/DX2 analytically  !
 ! D48   D(25,19,21,22)        -61.9445         calculate D2E/DX2 analytically  !
 ! D49   D(25,19,21,23)         58.0573         calculate D2E/DX2 analytically  !
 ! D50   D(25,19,21,24)        178.0536         calculate D2E/DX2 analytically  !
 ! D51   D(17,19,25,26)       -119.9969         calculate D2E/DX2 analytically  !
 ! D52   D(17,19,25,27)         60.0013         frozen, calculate D2E/DX2 analyt!
 ! D53   D(20,19,25,26)        119.4914         calculate D2E/DX2 analytically  !
 ! D54   D(20,19,25,27)        -60.5103         calculate D2E/DX2 analytically  !
 ! D55   D(21,19,25,26)          1.9472         calculate D2E/DX2 analytically  !
 ! D56   D(21,19,25,27)       -178.0545         calculate D2E/DX2 analytically  !
 ! D57   D(19,25,27,28)         -0.0016         calculate D2E/DX2 analytically  !
 ! D58   D(19,25,27,29)       -179.9976         calculate D2E/DX2 analytically  !
 ! D59   D(26,25,27,28)        179.9966         calculate D2E/DX2 analytically  !
 ! D60   D(26,25,27,29)          0.0006         calculate D2E/DX2 analytically  !
 ! D61   D(25,27,29,30)        -60.0023         calculate D2E/DX2 analytically  !
 ! D62   D(25,27,29,31)         59.9967         calculate D2E/DX2 analytically  !
 ! D63   D(25,27,29,35)       -179.9991         calculate D2E/DX2 analytically  !
 ! D64   D(28,27,29,30)        120.0016         calculate D2E/DX2 analytically  !
 ! D65   D(28,27,29,31)       -119.9994         calculate D2E/DX2 analytically  !
 ! D66   D(28,27,29,35)          0.0048         calculate D2E/DX2 analytically  !
 ! D67   D(27,29,31,32)         59.9987         calculate D2E/DX2 analytically  !
 ! D68   D(27,29,31,33)       -179.9968         calculate D2E/DX2 analytically  !
 ! D69   D(27,29,31,34)        -59.9993         calculate D2E/DX2 analytically  !
 ! D70   D(30,29,31,32)       -179.4923         calculate D2E/DX2 analytically  !
 ! D71   D(30,29,31,33)        -59.4878         calculate D2E/DX2 analytically  !
 ! D72   D(30,29,31,34)         60.5096         calculate D2E/DX2 analytically  !
 ! D73   D(35,29,31,32)        -61.9496         calculate D2E/DX2 analytically  !
 ! D74   D(35,29,31,33)         58.0549         calculate D2E/DX2 analytically  !
 ! D75   D(35,29,31,34)        178.0524         calculate D2E/DX2 analytically  !
 ! D76   D(27,29,35,36)         -0.0068         calculate D2E/DX2 analytically  !
 ! D77   D(27,29,35,37)        179.9997         calculate D2E/DX2 analytically  !
 ! D78   D(30,29,35,36)       -120.5143         calculate D2E/DX2 analytically  !
 ! D79   D(30,29,35,37)         59.4922         calculate D2E/DX2 analytically  !
 ! D80   D(31,29,35,36)        121.9423         calculate D2E/DX2 analytically  !
 ! D81   D(31,29,35,37)        -58.0512         calculate D2E/DX2 analytically  !
 ! D82   D(29,35,37,38)         -0.0031         calculate D2E/DX2 analytically  !
 ! D83   D(29,35,37,39)        179.9956         calculate D2E/DX2 analytically  !
 ! D84   D(36,35,37,38)       -179.9964         calculate D2E/DX2 analytically  !
 ! D85   D(36,35,37,39)          0.0023         calculate D2E/DX2 analytically  !
 ! D86   D(35,37,39,40)          0.0021         calculate D2E/DX2 analytically  !
 ! D87   D(35,37,39,41)        119.9979         calculate D2E/DX2 analytically  !
 ! D88   D(35,37,39,42)       -120.0025         calculate D2E/DX2 analytically  !
 ! D89   D(38,37,39,40)       -179.9991         calculate D2E/DX2 analytically  !
 ! D90   D(38,37,39,41)        -60.0033         calculate D2E/DX2 analytically  !
 ! D91   D(38,37,39,42)         59.9962         calculate D2E/DX2 analytically  !
 --------------------------------------------------------------------------------
 Trust Radius=3.00D-01 FncErr=1.00D-07 GrdErr=1.00D-07
 Number of steps in this run= 252 maximum allowed number of steps= 252.
 GradGradGradGradGradGradGradGradGradGradGradGradGradGradGradGradGradGrad

                          Input orientation:                          
 ---------------------------------------------------------------------
 Center     Atomic      Atomic             Coordinates (Angstroms)
 Number     Number       Type             X           Y           Z
 ---------------------------------------------------------------------
      1          1           0        2.515300    1.000000   -1.923000
      2          6           0        2.515300    2.090000   -1.923000
      3          1           0        1.625500    2.453900   -1.409300
      4          1           0        2.515300    2.453900   -2.950500
      5          6           0        3.751500    2.640800   -1.209300
      6          8           0        4.585600    1.877400   -0.727700
      7          7           0        3.862300    3.969700   -1.145300
      8          1           0        3.150200    4.556200   -1.556500
      9          6           0        4.986300    4.613900   -0.496400
     10          1           0        5.021400    4.315500    0.551400
     11          6           0        6.302100    4.220800   -1.159400
     12          1           0        6.285700    4.521400   -2.207100
     13          1           0        7.128300    4.718900   -0.652000
     14          1           0        6.434200    3.140900   -1.093800
     15          6           0        4.864500    6.129400   -0.566700
     16          8           0        3.901500    6.652700   -1.122700
     17          7           0        5.846000    6.834900    0.000000
     18          1           0        6.617600    6.359200    0.445500
     19          6           0        5.846100    8.283900    0.000000
     20          1           0        5.332300    8.647700   -0.889800
     21          6           0        5.134700    8.832900    1.232200
     22          1           0        5.643100    8.484600    2.131200
     23          1           0        5.149900    9.922400    1.205800
     24          1           0        4.101900    8.484600    1.241400
     25          6           0        7.266000    8.831800    0.000000
     26          8           0        7.657400    9.550300    0.917100
     27          7           0        8.038600    8.490200   -1.033800
     28          1           0        7.671600    7.896700   -1.764000
     29          6           0        9.408700    8.947100   -1.149700
     30          1           0        9.427500   10.036500   -1.180700
     31          6           0       10.245800    8.478800    0.035900
     32          1           0       10.244000    7.389500    0.074900
     33          1           0       11.269300    8.836200   -0.077600
     34          1           0        9.823200    8.875600    0.959000
     35          6           0       10.058900    8.413200   -2.418000
     36          8           0        9.426700    7.693000   -3.187500
     37          7           0       11.327400    8.768600   -2.634600
     38          1           0       11.805500    9.362800   -1.972500
     39          6           0       12.057400    8.325700   -3.805400
     40          1           0       11.412900    7.696900   -4.419700
     41          1           0       12.377100    9.192300   -4.384100
     42          1           0       12.932000    7.754400   -3.494300
 ---------------------------------------------------------------------
                    Distance matrix (angstroms):
                    1          2          3          4          5
     1  H    0.000000
     2  C    1.090000   0.000000
     3  H    1.780297   1.089979   0.000000
     4  H    1.780332   1.090036   1.779618   0.000000
     5  C    2.174806   1.530013   2.143550   2.143572   0.000000
     6  O    2.546510   2.400017   3.091783   3.091817   1.229000
     7  N    3.352364   2.439774   2.714889   2.714923   1.335046
     8  H    3.630975   2.572851   2.601162   2.601153   2.037368
     9  C    4.604487   3.809344   4.098044   4.098054   2.434354
    10  H    4.836914   4.166058   4.340741   4.691417   2.741775
    11  C    5.029562   4.411717   5.005494   4.546408   3.000742
    12  H    5.166903   4.495368   5.160281   4.363842   3.309748
    13  H    6.060151   5.459517   5.998711   5.629662   4.003981
    14  H    4.541894   4.141225   4.867762   4.390567   2.731359
    15  C    5.802502   4.865701   4.970955   4.970970   3.717800
    16  O    5.874951   4.835314   4.784583   4.784592   4.015637
    17  N    6.988387   6.107828   6.244350   6.244371   4.841468
    18  H    7.152600   6.376890   6.603992   6.604018   4.977890
    19  C    8.236951   7.290854   7.334064   7.334070   6.139571
    20  H    8.215248   7.211548   7.236947   7.109510   6.219635
    21  C    8.841429   7.891973   7.744911   8.065226   6.798255
    22  H    9.068567   8.192105   8.065085   8.483876   6.991930
    23  H    9.815280   8.836119   8.662484   8.943961   7.798072
    24  H    8.279491   7.309011   7.037621   7.513898   6.346551
    25  C    9.359710   8.468704   8.630120   8.482465   7.220983
    26  O   10.373765   9.495443   9.599732   9.579061   8.216984
    27  N    9.348830   8.500593   8.815088   8.403422   7.254344
    28  H    8.612618   7.767270   8.142801   7.590737   6.580225
    29  C   10.548619   9.753808  10.139391   9.639683   8.472124
    30  H   11.401221  10.558238  10.882063  10.411845   9.322777
    31  C   10.932995  10.218350  10.615912  10.245908   8.820924
    32  H   10.224975   9.581707  10.041989   9.656397   8.145666
    33  H   11.893025  11.204875  11.640879  11.208025   9.807193
    34  H   11.123687  10.380544  10.679390  10.484647   8.968824
    35  C   10.588034   9.855647  10.375595   9.628225   8.635094
    36  O    9.703745   8.986658   9.563937   8.675932   7.851490
    37  N   11.769054  11.079855  11.640604  10.845660   9.847623
    38  H   12.499868  11.798470  12.315945  11.618830  10.518302
    39  C   12.176247  11.553314  12.208352  11.236573  10.394508
    40  H   11.412680  10.809169  11.504119  10.431437   9.724601
    41  H   13.054727  12.399789  13.032742  12.029811  11.287271
    42  H   12.513934  11.960855  12.660153  11.700370  10.754149
                    6          7          8          9         10
     6  O    0.000000
     7  N    2.252836   0.000000
     8  H    3.150119   1.010027   0.000000
     9  C    2.775336   1.448945   2.120944   0.000000
    10  H    2.787535   2.083718   2.828881   1.090027   0.000000
    11  C    2.936709   2.452728   3.194473   1.524935   2.139158
    12  H    3.474147   2.702713   3.202476   2.150230   3.041409
    13  H    3.813814   3.386946   4.082875   2.150209   2.459661
    14  H    2.268873   2.702634   3.605804   2.150123   2.466247
    15  C    4.264178   2.450201   2.528535   1.522011   2.136586
    16  O    4.840197   2.683382   2.268909   2.392854   3.085335
    17  N    5.166717   3.668262   3.857785   2.432763   2.707653
    18  H    5.058849   3.978949   4.391090   2.567954   2.595338
    19  C    6.569753   4.884618   4.856575   3.801916   4.090522
    20  H    6.813281   4.910180   4.684701   4.067680   4.576207
    21  C    7.247186   5.560775   5.477705   4.561802   4.569817
    22  H    7.276449   5.855854   5.936835   4.724192   4.501519
    23  H    8.293303   6.528417   6.358082   5.577134   5.646422
    24  H    6.911325   5.112540   4.915924   4.334101   4.324694
    25  C    7.488509   6.044576   6.135410   4.820179   5.073385
    26  O    8.427023   7.056867   7.167607   5.787988   5.872424
    27  N    7.466326   6.155391   6.296509   4.962966   5.389293
    28  H    6.843193   5.505895   5.625394   4.426559   5.020919
    29  C    8.568608   7.452321   7.655998   6.225837   6.602565
    30  H    9.498427   8.232786   8.341427   7.042522   7.425882
    31  C    8.729229   7.904194   8.262570   6.548522   6.700236
    32  H    7.940082   7.342344   7.810957   5.972750   6.078822
    33  H    9.670542   8.926727   9.296522   7.581510   7.737482
    34  H    8.902371   8.001766   8.337499   6.608773   6.634601
    35  C    8.690846   7.730609   7.959194   6.622575   7.140370
    36  O    7.956637   6.999721   7.203758   6.036558   6.692798
    37  N    9.827348   8.998621   9.261383   7.876737   8.351427
    38  H   10.474144   9.636608   9.909121   8.439930   8.824360
    39  C   10.338308   9.654560   9.930000   8.644501   9.196125
    40  H    9.701004   9.034671   9.291616   8.136237   8.774792
    41  H   11.295331  10.500819  10.706280   9.523649  10.111808
    42  H   10.576181  10.104514  10.472209   9.054518   9.527398
                   11         12         13         14         15
    11  C    0.000000
    12  H    1.090094   0.000000
    13  H    1.090030   1.779696   0.000000
    14  H    1.089926   1.779682   1.779620   0.000000
    15  C    2.461857   2.701182   2.668628   3.416566   0.000000
    16  O    3.417362   3.376799   3.791224   4.329913   1.228962
    17  N    2.895817   3.227524   2.558682   3.897180   1.334999
    18  H    2.692211   3.244064   2.038604   3.572189   2.037331
    19  C    4.249815   4.384170   3.844264   5.290814   2.434452
    20  H    4.539894   4.435155   4.326388   5.619666   2.581679
    21  C    5.324851   5.634059   4.944658   6.284731   3.258521
    22  H    5.426078   5.911069   4.912486   6.291390   3.664949
    23  H    6.279329   6.489124   5.868722   7.275048   4.196434
    24  H    5.365138   5.689296   5.188888   6.280757   3.065575
    25  C    4.851251   4.940833   4.166535   5.854454   3.659415
    26  O    5.878117   6.077172   5.107294   6.827909   4.658810
    27  N    4.610747   4.494515   3.898348   5.585043   3.983274
    28  H    3.969044   3.675555   3.410298   4.959633   3.526569
    29  C    5.655879   5.518881   4.829659   6.524012   5.378576
    30  H    6.602344   6.429676   5.817449   7.517759   6.038493
    31  C    5.925544   6.031124   4.932429   6.655651   5.902643
    32  H    5.206028   5.394595   4.167502   5.825035   5.562241
    33  H    6.866242   6.927376   5.867706   7.539715   6.970470
    34  H    6.209100   6.441828   5.209219   6.970373   5.870101
    35  C    5.768348   5.424723   5.035377   6.533690   5.968655
    36  O    5.092395   4.570133   4.533947   5.836116   5.488816
    37  N    6.936306   6.606073   6.161430   7.615017   7.280842
    38  H    7.575533   7.345909   6.722033   8.266500   7.785154
    39  C    7.548178   7.095053   6.873788   8.115128   8.188451
    40  H    6.988069   6.423985   6.435980   7.523709   7.757848
    41  H    8.486467   7.978834   7.841542   9.097449   8.966218
    42  H    7.867252   7.502165   7.139738   8.322751   8.734759
                   16         17         18         19         20
    16  O    0.000000
    17  N    2.252717   0.000000
    18  H    3.150015   1.010014   0.000000
    19  C    2.775381   1.449000   2.120885   0.000000
    20  H    2.466061   2.083717   2.944869   1.089993   0.000000
    21  C    3.437966   2.452808   2.989495   1.525060   2.139212
    22  H    4.120303   2.702719   2.882457   2.150233   3.041322
    23  H    4.203731   3.386911   3.927925   2.150193   2.459608
    24  H    2.997497   2.702678   3.388145   2.150253   2.466272
    25  C    4.162787   2.450308   2.594734   1.521943   2.136547
    26  O    5.163686   3.390522   3.389205   2.392833   3.079881
    27  N    4.527682   2.935346   2.957825   2.432768   2.714701
    28  H    4.021499   2.751714   2.890798   2.567892   2.607787
    29  C    5.966092   4.298375   4.127000   3.801811   4.095635
    30  H    6.479980   4.946861   4.905364   4.158375   4.334057
    31  C    6.702771   4.697014   4.221885   4.404161   5.002792
    32  H    6.496493   4.433463   3.788092   4.488551   5.161251
    33  H    7.755281   5.781298   5.295987   5.451803   5.995262
    34  H    6.658926   4.571899   4.107532   4.133656   4.861911
    35  C    6.533815   5.107473   4.925555   4.859128   4.973041
    36  O    5.989446   4.870103   4.782129   4.830115   4.791136
    37  N    7.868092   6.381697   6.121637   6.100877   6.245011
    38  H    8.398811   6.767324   6.463950   6.369398   6.601964
    39  C    8.747257   7.435391   7.178349   7.284440   7.336987
    40  H    8.269322   7.160109   6.960928   7.132151   7.094921
    41  H    9.429851   8.211756   8.032642   7.918301   7.882635
    42  H    9.401498   7.954056   7.572335   7.918364   8.083121
                   21         22         23         24         25
    21  C    0.000000
    22  H    1.089947   0.000000
    23  H    1.089926   1.779573   0.000000
    24  H    1.089988   1.779618   1.779562   0.000000
    25  C    2.461861   2.701179   2.668565   3.416599   0.000000
    26  O    2.641584   2.582084   2.551345   3.725918   1.229028
    27  N    3.699302   3.969342   3.925760   4.546886   1.335044
    28  H    4.036031   4.430917   4.391144   4.703277   2.037307
    29  C    4.894238   5.015771   4.963564   5.838955   2.434393
    30  H    5.069405   5.262961   4.899619   6.052849   2.741794
    31  C    5.261166   5.057189   5.424098   6.261052   3.000851
    32  H    5.433939   5.157121   5.800377   6.347075   3.309732
    33  H    6.272870   6.054465   6.346180   7.296232   4.004054
    34  H    4.696647   4.358918   4.795460   5.741594   2.731460
    35  C    6.143928   6.340316   6.285530   6.991577   3.717827
    36  O    6.265332   6.575016   6.523981   6.971032   4.015675
    37  N    7.301083   7.423259   7.364878   8.204382   4.841496
    38  H    7.419600   7.455653   7.396739   8.393202   4.977929
    39  C    8.576622   8.741379   8.681885   9.422602   6.139603
    40  H    8.523512   8.765007   8.707713   9.280046   6.165916
    41  H    9.171933   9.396634   9.165830  10.031252   6.743414
    42  H    9.181550   9.236206   9.346242  10.046428   6.743477
                   26         27         28         29         30
    26  O    0.000000
    27  N    2.252806   0.000000
    28  H    3.150062   1.010012   0.000000
    29  C    2.775349   1.448918   2.120901   0.000000
    30  H    2.787545   2.083667   2.828810   1.090003   0.000000
    31  C    2.936740   2.452778   3.194524   1.525021   2.139196
    32  H    3.474026   2.702692   3.202506   2.150230   3.041350
    33  H    3.813815   3.386954   4.082897   2.150239   2.459629
    34  H    2.268847   2.702699   3.605878   2.150241   2.466289
    35  C    4.264164   2.450214   2.528575   1.521970   2.136511
    36  O    4.840220   2.683426   2.268969   2.392848   3.085326
    37  N    5.166675   3.668279   3.857853   2.432735   2.707585
    38  H    5.058822   3.978960   4.391133   2.567967   2.595323
    39  C    6.569753   4.884627   4.856603   3.801906   4.090509
    40  H    6.783827   4.845570   4.592384   4.033946   4.461688
    41  H    7.106789   5.526304   5.539425   4.396915   4.435604
    42  H    7.106836   5.526375   5.539494   4.396968   4.779356
                   31         32         33         34         35
    31  C    0.000000
    32  H    1.089999   0.000000
    33  H    1.090032   1.779730   0.000000
    34  H    1.090025   1.779663   1.779690   0.000000
    35  C    2.461881   2.701254   2.668608   3.416650   0.000000
    36  O    3.417413   3.376884   3.791248   4.330037   1.229022
    37  N    2.895758   3.227547   2.558553   3.897182   1.335034
    38  H    2.692172   3.244078   2.038496   3.572194   2.037357
    39  C    4.249814   4.384247   3.844243   5.290893   2.434448
    40  H    4.671816   4.654272   4.491376   5.731221   2.520556
    41  H    4.958621   5.261453   4.460938   5.930550   3.137929
    42  H    4.494746   4.483044   3.950785   5.545594   3.138016
                   36         37         38         39         40
    36  O    0.000000
    37  N    2.252837   0.000000
    38  H    3.150103   1.009965   0.000000
    39  C    2.775372   1.449080   2.120979   0.000000
    40  H    2.337375   2.083851   2.986326   1.090016   0.000000
    41  H    3.519178   2.083781   2.484273   1.089999   1.779655
    42  H    3.519236   2.083849   2.484316   1.089996   1.779701
                   41         42
    41  H    0.000000
    42  H    1.779667   0.000000
 Stoichiometry    C12H22N4O4
 Framework group  C1[X(C12H22N4O4)]
 Deg. of freedom   120
 Full point group                 C1      NOp   1
 Largest Abelian subgroup         C1      NOp   1
 Largest concise Abelian subgroup C1      NOp   1
                         Standard orientation:                         
 ---------------------------------------------------------------------
 Center     Atomic      Atomic             Coordinates (Angstroms)
 Number     Number       Type             X           Y           Z
 ---------------------------------------------------------------------
      1          1           0       -6.876774   -2.193975   -0.127278
      2          6           0       -6.185328   -1.514122   -0.625077
      3          1           0       -6.684160   -0.564298   -0.817576
      4          1           0       -5.861347   -1.951653   -1.569419
      5          6           0       -4.951577   -1.251726    0.240918
      6          8           0       -4.839152   -1.782595    1.343632
      7          7           0       -4.029323   -0.430120   -0.265797
      8          1           0       -4.166687   -0.017618   -1.177459
      9          6           0       -2.816587   -0.102119    0.456094
     10          1           0       -3.073911    0.373985    1.402281
     11          6           0       -1.995701   -1.353730    0.747711
     12          1           0       -1.722634   -1.836606   -0.190675
     13          1           0       -1.091441   -1.077626    1.290156
     14          1           0       -2.585272   -2.042852    1.352240
     15          6           0       -1.942358    0.851133   -0.346123
     16          8           0       -2.299306    1.240721   -1.455698
     17          7           0       -0.792684    1.226768    0.219004
     18          1           0       -0.542464    0.879435    1.133814
     19          6           0        0.126572    2.130492   -0.442701
     20          1           0        0.043558    2.007517   -1.522549
     21          6           0       -0.183011    3.582112   -0.092323
     22          1           0       -0.095144    3.723075    0.984892
     23          1           0        0.522180    4.237906   -0.602791
     24          1           0       -1.197681    3.824234   -0.408384
     25          6           0        1.564206    1.848870   -0.030136
     26          8           0        2.237339    2.718286    0.518970
     27          7           0        2.034353    0.628050   -0.296413
     28          1           0        1.442304   -0.053241   -0.749673
     29          6           0        3.386534    0.236579    0.046691
     30          1           0        4.094843    0.887756   -0.465534
     31          6           0        3.624646    0.343741    1.549192
     32          1           0        2.928727   -0.309663    2.075366
     33          1           0        4.647403    0.043924    1.777767
     34          1           0        3.468248    1.373744    1.869798
     35          6           0        3.661984   -1.202102   -0.366489
     36          8           0        2.789529   -1.871407   -0.915440
     37          7           0        4.880908   -1.677401   -0.100718
     38          1           0        5.564866   -1.088489    0.352508
     39          6           0        5.266509   -3.031302   -0.444370
     40          1           0        4.428522   -3.537829   -0.923267
     41          1           0        6.114134   -3.005396   -1.129175
     42          1           0        5.547341   -3.570400    0.460394
 ---------------------------------------------------------------------
 Rotational constants (GHZ):      0.4828296      0.1417709      0.1179937
 Standard basis: 6-31G(d) (6D, 7F)
 There are   344 symmetry adapted basis functions of A   symmetry.
 Integral buffers will be    131072 words long.
 Raffenetti 1 integral format.
 Two-electron integral symmetry is turned on.
   344 basis functions,   648 primitive gaussians,   344 cartesian basis functions
    77 alpha electrons       77 beta electrons
       nuclear repulsion energy      1614.2271703750 Hartrees.
 NAtoms=   42 NActive=   42 NUniq=   42 SFac= 7.50D-01 NAtFMM=   80 NAOKFM=F Big=F
 One-electron integrals computed using PRISM.
 NBasis=   344 RedAO= T  NBF=   344
 NBsUse=   344 1.00D-06 NBFU=   344
 Harris functional with IExCor=  205 diagonalized for initial guess.
 ExpMin= 1.61D-01 ExpMax= 5.48D+03 ExpMxC= 8.25D+02 IAcc=1 IRadAn=         1 AccDes= 0.00D+00
 HarFok:  IExCor=  205 AccDes= 0.00D+00 IRadAn=         1 IDoV= 1
 ScaDFX=  1.000000  1.000000  1.000000  1.000000
 FoFCou: FMM=F IPFlag=           0 FMFlag=      100000 FMFlg1=           0
         NFxFlg=           0 DoJE=T BraDBF=F KetDBF=T FulRan=T
         Omega=  0.000000  0.000000  1.000000  0.000000  0.000000 ICntrl=     500 IOpCl=  0
         NMat0=    1 NMatS0=    1 NMatT0=    0 NMatD0=    1 NMtDS0=    0 NMtDT0=    0
         I1Cent=           4 NGrid=           0.
 Petite list used in FoFCou.
 Initial guess orbital symmetries:
       Occupied  (A) (A) (A) (A) (A) (A) (A) (A) (A) (A) (A) (A)
                 (A) (A) (A) (A) (A) (A) (A) (A) (A) (A) (A) (A)
                 (A) (A) (A) (A) (A) (A) (A) (A) (A) (A) (A) (A)
                 (A) (A) (A) (A) (A) (A) (A) (A) (A) (A) (A) (A)
                 (A) (A) (A) (A) (A) (A) (A) (A) (A) (A) (A) (A)
                 (A) (A) (A) (A) (A) (A) (A) (A) (A) (A) (A) (A)
                 (A) (A) (A) (A) (A)
       Virtual   (A) (A) (A) (A) (A) (A) (A) (A) (A) (A) (A) (A)
                 (A) (A) (A) (A) (A) (A) (A) (A) (A) (A) (A) (A)
                 (A) (A) (A) (A) (A) (A) (A) (A) (A) (A) (A) (A)
                 (A) (A) (A) (A) (A) (A) (A) (A) (A) (A) (A) (A)
                 (A) (A) (A) (A) (A) (A) (A) (A) (A) (A) (A) (A)
                 (A) (A) (A) (A) (A) (A) (A) (A) (A) (A) (A) (A)
                 (A) (A) (A) (A) (A) (A) (A) (A) (A) (A) (A) (A)
                 (A) (A) (A) (A) (A) (A) (A) (A) (A) (A) (A) (A)
                 (A) (A) (A) (A) (A) (A) (A) (A) (A) (A) (A) (A)
                 (A) (A) (A) (A) (A) (A) (A) (A) (A) (A) (A) (A)
                 (A) (A) (A) (A) (A) (A) (A) (A) (A) (A) (A) (A)
                 (A) (A) (A) (A) (A) (A) (A) (A) (A) (A) (A) (A)
                 (A) (A) (A) (A) (A) (A) (A) (A) (A) (A) (A) (A)
                 (A) (A) (A) (A) (A) (A) (A) (A) (A) (A) (A) (A)
                 (A) (A) (A) (A) (A) (A) (A) (A) (A) (A) (A) (A)
                 (A) (A) (A) (A) (A) (A) (A) (A) (A) (A) (A) (A)
                 (A) (A) (A) (A) (A) (A) (A) (A) (A) (A) (A) (A)
                 (A) (A) (A) (A) (A) (A) (A) (A) (A) (A) (A) (A)
                 (A) (A) (A) (A) (A) (A) (A) (A) (A) (A) (A) (A)
                 (A) (A) (A) (A) (A) (A) (A) (A) (A) (A) (A) (A)
                 (A) (A) (A) (A) (A) (A) (A) (A) (A) (A) (A) (A)
                 (A) (A) (A) (A) (A) (A) (A) (A) (A) (A) (A) (A)
                 (A) (A) (A)
 The electronic state of the initial guess is 1-A.
 Requested convergence on RMS density matrix=1.00D-08 within 128 cycles.
 Requested convergence on MAX density matrix=1.00D-06.
 Requested convergence on             energy=1.00D-06.
 No special actions if energy rises.
 Integral accuracy reduced to 1.0D-05 until final iterations.
 Initial convergence to 1.0D-05 achieved.  Increase integral accuracy.
 SCF Done:  E(RHF) =  -984.541530823     A.U. after   15 cycles
             Convg  =    0.3256D-08             -V/T =  2.0020
 Range of M.O.s used for correlation:     1   344
 NBasis=   344 NAE=    77 NBE=    77 NFC=     0 NFV=     0
 NROrb=    344 NOA=    77 NOB=    77 NVA=   267 NVB=   267
 Symmetrizing basis deriv contribution to polar:
 IMax=3 JMax=2 DiffMx= 0.00D+00
 G2DrvN: will do    43 centers at a time, making    1 passes doing MaxLOS=2.
 Calling FoFCou, ICntrl=  3107 FMM=F I1Cent=   0 AccDes= 0.00D+00.
 FoFDir/FoFCou used for L=0 through L=2.
 End of G2Drv Frequency-dependent properties file   721 does not exist.
 End of G2Drv Frequency-dependent properties file   722 does not exist.
          IDoAtm=111111111111111111111111111111111111111111
          Differentiating once with respect to nuclear coordinates.
          There are   129 degrees of freedom in the 1st order CPHF.  IDoFFX=5.
    123 vectors produced by pass  0 Test12= 2.06D-10 1.00D-07 XBig12= 9.05D-02 5.95D-02.
 AX will form   123 AO Fock derivatives at one time.
    123 vectors produced by pass  1 Test12= 2.06D-10 1.00D-07 XBig12= 6.49D-03 2.74D-02.
    123 vectors produced by pass  2 Test12= 2.06D-10 1.00D-07 XBig12= 1.08D-04 1.82D-03.
    123 vectors produced by pass  3 Test12= 2.06D-10 1.00D-07 XBig12= 9.34D-07 9.93D-05.
    123 vectors produced by pass  4 Test12= 2.06D-10 1.00D-07 XBig12= 5.87D-09 6.45D-06.
     35 vectors produced by pass  5 Test12= 2.06D-10 1.00D-07 XBig12= 3.26D-11 4.73D-07.
 Inverted reduced A of dimension   650 with in-core refinement.
 End of Minotr Frequency-dependent properties file   721 does not exist.
 End of Minotr Frequency-dependent properties file   722 does not exist.

 **********************************************************************

            Population analysis using the SCF density.

 **********************************************************************

 Orbital symmetries:
       Occupied  (A) (A) (A) (A) (A) (A) (A) (A) (A) (A) (A) (A)
                 (A) (A) (A) (A) (A) (A) (A) (A) (A) (A) (A) (A)
                 (A) (A) (A) (A) (A) (A) (A) (A) (A) (A) (A) (A)
                 (A) (A) (A) (A) (A) (A) (A) (A) (A) (A) (A) (A)
                 (A) (A) (A) (A) (A) (A) (A) (A) (A) (A) (A) (A)
                 (A) (A) (A) (A) (A) (A) (A) (A) (A) (A) (A) (A)
                 (A) (A) (A) (A) (A)
       Virtual   (A) (A) (A) (A) (A) (A) (A) (A) (A) (A) (A) (A)
                 (A) (A) (A) (A) (A) (A) (A) (A) (A) (A) (A) (A)
                 (A) (A) (A) (A) (A) (A) (A) (A) (A) (A) (A) (A)
                 (A) (A) (A) (A) (A) (A) (A) (A) (A) (A) (A) (A)
                 (A) (A) (A) (A) (A) (A) (A) (A) (A) (A) (A) (A)
                 (A) (A) (A) (A) (A) (A) (A) (A) (A) (A) (A) (A)
                 (A) (A) (A) (A) (A) (A) (A) (A) (A) (A) (A) (A)
                 (A) (A) (A) (A) (A) (A) (A) (A) (A) (A) (A) (A)
                 (A) (A) (A) (A) (A) (A) (A) (A) (A) (A) (A) (A)
                 (A) (A) (A) (A) (A) (A) (A) (A) (A) (A) (A) (A)
                 (A) (A) (A) (A) (A) (A) (A) (A) (A) (A) (A) (A)
                 (A) (A) (A) (A) (A) (A) (A) (A) (A) (A) (A) (A)
                 (A) (A) (A) (A) (A) (A) (A) (A) (A) (A) (A) (A)
                 (A) (A) (A) (A) (A) (A) (A) (A) (A) (A) (A) (A)
                 (A) (A) (A) (A) (A) (A) (A) (A) (A) (A) (A) (A)
                 (A) (A) (A) (A) (A) (A) (A) (A) (A) (A) (A) (A)
                 (A) (A) (A) (A) (A) (A) (A) (A) (A) (A) (A) (A)
                 (A) (A) (A) (A) (A) (A) (A) (A) (A) (A) (A) (A)
                 (A) (A) (A) (A) (A) (A) (A) (A) (A) (A) (A) (A)
                 (A) (A) (A) (A) (A) (A) (A) (A) (A) (A) (A) (A)
                 (A) (A) (A) (A) (A) (A) (A) (A) (A) (A) (A) (A)
                 (A) (A) (A) (A) (A) (A) (A) (A) (A) (A) (A) (A)
                 (A) (A) (A)
 The electronic state is 1-A.
 Alpha  occ. eigenvalues --  -20.53917 -20.53772 -20.53330 -20.51358 -15.61161
 Alpha  occ. eigenvalues --  -15.60902 -15.60025 -15.58757 -11.36674 -11.36639
 Alpha  occ. eigenvalues --  -11.35914 -11.34685 -11.29556 -11.28829 -11.28785
 Alpha  occ. eigenvalues --  -11.27247 -11.23277 -11.23257 -11.22250 -11.21395
 Alpha  occ. eigenvalues --   -1.40023  -1.39665  -1.38792  -1.37021  -1.26375
 Alpha  occ. eigenvalues --   -1.25221  -1.24597  -1.23658  -1.08279  -1.06160
 Alpha  occ. eigenvalues --   -1.02926  -0.98364  -0.96834  -0.92018  -0.89996
 Alpha  occ. eigenvalues --   -0.86879  -0.81856  -0.81145  -0.79089  -0.78176
 Alpha  occ. eigenvalues --   -0.76904  -0.72090  -0.69020  -0.68487  -0.68155
 Alpha  occ. eigenvalues --   -0.66309  -0.65120  -0.64577  -0.63647  -0.62676
 Alpha  occ. eigenvalues --   -0.62240  -0.60730  -0.60541  -0.59955  -0.58388
 Alpha  occ. eigenvalues --   -0.57790  -0.57212  -0.56159  -0.56056  -0.55594
 Alpha  occ. eigenvalues --   -0.54855  -0.54278  -0.53729  -0.53113  -0.52525
 Alpha  occ. eigenvalues --   -0.52060  -0.51373  -0.50630  -0.49061  -0.43446
 Alpha  occ. eigenvalues --   -0.43285  -0.43018  -0.41179  -0.40819  -0.40359
 Alpha  occ. eigenvalues --   -0.39433  -0.38510
 Alpha virt. eigenvalues --    0.17043   0.18008   0.18832   0.19664   0.20551
 Alpha virt. eigenvalues --    0.21703   0.23765   0.24796   0.25549   0.26448
 Alpha virt. eigenvalues --    0.27813   0.28195   0.29265   0.29492   0.30137
 Alpha virt. eigenvalues --    0.30798   0.31126   0.31351   0.31996   0.32522
 Alpha virt. eigenvalues --    0.32990   0.33270   0.33533   0.34129   0.35259
 Alpha virt. eigenvalues --    0.35593   0.35901   0.36760   0.38443   0.38952
 Alpha virt. eigenvalues --    0.40641   0.41189   0.42861   0.43397   0.44315
 Alpha virt. eigenvalues --    0.47753   0.48528   0.51627   0.52575   0.53092
 Alpha virt. eigenvalues --    0.56187   0.58715   0.60281   0.60748   0.62639
 Alpha virt. eigenvalues --    0.70585   0.72052   0.72233   0.72672   0.73147
 Alpha virt. eigenvalues --    0.73329   0.74118   0.75119   0.75673   0.76265
 Alpha virt. eigenvalues --    0.76758   0.77499   0.78856   0.79503   0.81470
 Alpha virt. eigenvalues --    0.83105   0.83343   0.85087   0.87087   0.87574
 Alpha virt. eigenvalues --    0.87985   0.89764   0.91087   0.91878   0.92761
 Alpha virt. eigenvalues --    0.93066   0.93626   0.94146   0.96894   0.97537
 Alpha virt. eigenvalues --    0.98057   0.98966   0.99338   0.99889   1.00720
 Alpha virt. eigenvalues --    1.02268   1.03765   1.04412   1.05896   1.06630
 Alpha virt. eigenvalues --    1.08065   1.08857   1.09623   1.10319   1.11798
 Alpha virt. eigenvalues --    1.12812   1.13366   1.14086   1.14345   1.14355
 Alpha virt. eigenvalues --    1.15179   1.15557   1.16166   1.16540   1.17078
 Alpha virt. eigenvalues --    1.17872   1.18367   1.18853   1.19056   1.19870
 Alpha virt. eigenvalues --    1.20122   1.20880   1.21250   1.21732   1.22693
 Alpha virt. eigenvalues --    1.23485   1.24035   1.24618   1.26020   1.27347
 Alpha virt. eigenvalues --    1.27936   1.31347   1.32731   1.33925   1.34693
 Alpha virt. eigenvalues --    1.36568   1.38165   1.38735   1.43394   1.43667
 Alpha virt. eigenvalues --    1.44930   1.48441   1.49696   1.51395   1.52154
 Alpha virt. eigenvalues --    1.54704   1.55471   1.56002   1.58931   1.60444
 Alpha virt. eigenvalues --    1.61128   1.61984   1.63748   1.64342   1.67542
 Alpha virt. eigenvalues --    1.68187   1.70007   1.71978   1.73836   1.75428
 Alpha virt. eigenvalues --    1.76047   1.76666   1.79315   1.80494   1.87094
 Alpha virt. eigenvalues --    1.89428   1.92008   1.94039   1.98750   1.99071
 Alpha virt. eigenvalues --    1.99666   2.01587   2.02526   2.04626   2.05892
 Alpha virt. eigenvalues --    2.06472   2.08008   2.09365   2.09669   2.10994
 Alpha virt. eigenvalues --    2.13204   2.13671   2.13738   2.14619   2.14992
 Alpha virt. eigenvalues --    2.15449   2.17034   2.17204   2.17737   2.19136
 Alpha virt. eigenvalues --    2.19684   2.21385   2.21616   2.23304   2.24451
 Alpha virt. eigenvalues --    2.24795   2.28157   2.28449   2.29850   2.32934
 Alpha virt. eigenvalues --    2.33927   2.35441   2.36255   2.36388   2.37916
 Alpha virt. eigenvalues --    2.40065   2.41227   2.42049   2.46392   2.48049
 Alpha virt. eigenvalues --    2.49167   2.51055   2.52448   2.53127   2.57382
 Alpha virt. eigenvalues --    2.57894   2.58342   2.60708   2.61220   2.61670
 Alpha virt. eigenvalues --    2.62620   2.63097   2.64873   2.66514   2.67016
 Alpha virt. eigenvalues --    2.68198   2.70555   2.72891   2.73838   2.76677
 Alpha virt. eigenvalues --    2.77242   2.78330   2.80672   2.81378   2.83409
 Alpha virt. eigenvalues --    2.87968   2.90961   2.91068   2.94833   2.95393
 Alpha virt. eigenvalues --    2.96474   2.98281   3.00169   3.05494   3.05707
 Alpha virt. eigenvalues --    3.07657   3.09105   3.10854   3.15284   3.18993
 Alpha virt. eigenvalues --    3.24692   3.26190   3.29975   3.32120   3.33957
 Alpha virt. eigenvalues --    3.35542   3.38409   3.41948   3.53015   3.53373
 Alpha virt. eigenvalues --    3.60659   3.61765   4.39214   4.43499   4.43710
 Alpha virt. eigenvalues --    4.46241   4.47901   4.50475   4.51883   4.53100
 Alpha virt. eigenvalues --    4.62972   4.65258   4.68855   4.70318   4.71955
 Alpha virt. eigenvalues --    4.83275   4.86615   4.87558   4.89061   4.98804
 Alpha virt. eigenvalues --    5.05217   5.09251
          Condensed to atoms (all electrons):
              1          2          3          4          5          6
     1  H    0.458362   0.385693  -0.018770  -0.018737  -0.030797   0.003508
     2  C    0.385693   5.244629   0.374689   0.374906   0.378109  -0.067215
     3  H   -0.018770   0.374689   0.510421  -0.023603  -0.034532   0.001268
     4  H   -0.018737   0.374906  -0.023603   0.511353  -0.035396   0.001181
     5  C   -0.030797   0.378109  -0.034532  -0.035396   4.186779   0.587094
     6  O    0.003508  -0.067215   0.001268   0.001181   0.587094   8.210802
     7  N    0.003856  -0.119804   0.003472   0.003693   0.246554  -0.107611
     8  H   -0.000018  -0.001181   0.000640   0.000481  -0.017262   0.002009
     9  C   -0.000076   0.004561  -0.000242  -0.000091  -0.030118   0.014519
    10  H    0.000002  -0.000009  -0.000004  -0.000002  -0.001703   0.002940
    11  C    0.000006  -0.000504   0.000008   0.000030  -0.003818  -0.015849
    12  H    0.000000  -0.000042   0.000000   0.000002   0.000016  -0.000026
    13  H    0.000000   0.000007   0.000000  -0.000001   0.000280   0.000271
    14  H    0.000001   0.000301  -0.000005  -0.000025   0.000430   0.011185
    15  C    0.000000   0.000011  -0.000011  -0.000006   0.004074   0.000551
    16  O    0.000000  -0.000039  -0.000001  -0.000001   0.000296  -0.000003
    17  N    0.000000   0.000000   0.000000   0.000000  -0.000082  -0.000002
    18  H    0.000000   0.000000   0.000000   0.000000   0.000001   0.000001
    19  C    0.000000   0.000000   0.000000   0.000000   0.000001   0.000000
    20  H    0.000000   0.000000   0.000000   0.000000   0.000000   0.000000
    21  C    0.000000   0.000000   0.000000   0.000000   0.000000   0.000000
    22  H    0.000000   0.000000   0.000000   0.000000   0.000000   0.000000
    23  H    0.000000   0.000000   0.000000   0.000000   0.000000   0.000000
    24  H    0.000000   0.000000   0.000000   0.000000   0.000000   0.000000
    25  C    0.000000   0.000000   0.000000   0.000000   0.000000   0.000000
    26  O    0.000000   0.000000   0.000000   0.000000   0.000000   0.000000
    27  N    0.000000   0.000000   0.000000   0.000000   0.000000   0.000000
    28  H    0.000000   0.000000   0.000000   0.000000   0.000000   0.000000
    29  C    0.000000   0.000000   0.000000   0.000000   0.000000   0.000000
    30  H    0.000000   0.000000   0.000000   0.000000   0.000000   0.000000
    31  C    0.000000   0.000000   0.000000   0.000000   0.000000   0.000000
    32  H    0.000000   0.000000   0.000000   0.000000   0.000000   0.000000
    33  H    0.000000   0.000000   0.000000   0.000000   0.000000   0.000000
    34  H    0.000000   0.000000   0.000000   0.000000   0.000000   0.000000
    35  C    0.000000   0.000000   0.000000   0.000000   0.000000   0.000000
    36  O    0.000000   0.000000   0.000000   0.000000   0.000000   0.000000
    37  N    0.000000   0.000000   0.000000   0.000000   0.000000   0.000000
    38  H    0.000000   0.000000   0.000000   0.000000   0.000000   0.000000
    39  C    0.000000   0.000000   0.000000   0.000000   0.000000   0.000000
    40  H    0.000000   0.000000   0.000000   0.000000   0.000000   0.000000
    41  H    0.000000   0.000000   0.000000   0.000000   0.000000   0.000000
    42  H    0.000000   0.000000   0.000000   0.000000   0.000000   0.000000
              7          8          9         10         11         12
     1  H    0.003856  -0.000018  -0.000076   0.000002   0.000006   0.000000
     2  C   -0.119804  -0.001181   0.004561  -0.000009  -0.000504  -0.000042
     3  H    0.003472   0.000640  -0.000242  -0.000004   0.000008   0.000000
     4  H    0.003693   0.000481  -0.000091  -0.000002   0.000030   0.000002
     5  C    0.246554  -0.017262  -0.030118  -0.001703  -0.003818   0.000016
     6  O   -0.107611   0.002009   0.014519   0.002940  -0.015849  -0.000026
     7  N    7.417926   0.311441   0.198727  -0.041311  -0.063410   0.001663
     8  H    0.311441   0.287487  -0.026616   0.002336   0.003005   0.000234
     9  C    0.198727  -0.026616   5.017049   0.406066   0.333646  -0.042554
    10  H   -0.041311   0.002336   0.406066   0.498245  -0.045647   0.004449
    11  C   -0.063410   0.003005   0.333646  -0.045647   5.214040   0.386159
    12  H    0.001663   0.000234  -0.042554   0.004449   0.386159   0.518034
    13  H    0.004919  -0.000078  -0.042523   0.000263   0.377616  -0.023958
    14  H   -0.005581  -0.000194  -0.026525  -0.003912   0.387079  -0.019686
    15  C   -0.037644  -0.005808   0.385909  -0.039245  -0.065456  -0.002782
    16  O   -0.006421   0.020158  -0.073411   0.000907   0.000028   0.000584
    17  N    0.002726   0.000736  -0.114522   0.002143   0.002973   0.000128
    18  H    0.000029  -0.000018   0.000016   0.000488   0.000586  -0.000013
    19  C   -0.000051  -0.000024   0.004170  -0.000275  -0.000090  -0.000050
    20  H   -0.000004  -0.000005   0.000465  -0.000010  -0.000056  -0.000001
    21  C    0.000001   0.000001  -0.000361   0.000052  -0.000003   0.000001
    22  H    0.000000   0.000000   0.000000   0.000000   0.000000   0.000000
    23  H    0.000000   0.000000   0.000004   0.000000   0.000000   0.000000
    24  H    0.000000  -0.000001   0.000020  -0.000013   0.000000   0.000000
    25  C    0.000000   0.000000   0.000012  -0.000008   0.000000  -0.000006
    26  O    0.000000   0.000000   0.000000   0.000000   0.000000   0.000000
    27  N    0.000000   0.000000  -0.000022   0.000000  -0.000082  -0.000003
    28  H    0.000000   0.000000  -0.000047   0.000001   0.000116   0.000097
    29  C    0.000000   0.000000   0.000000   0.000000   0.000002   0.000000
    30  H    0.000000   0.000000   0.000000   0.000000   0.000000   0.000000
    31  C    0.000000   0.000000   0.000000   0.000000   0.000000   0.000000
    32  H    0.000000   0.000000   0.000000   0.000000  -0.000001   0.000000
    33  H    0.000000   0.000000   0.000000   0.000000   0.000000   0.000000
    34  H    0.000000   0.000000   0.000000   0.000000   0.000000   0.000000
    35  C    0.000000   0.000000   0.000000   0.000000   0.000000   0.000000
    36  O    0.000000   0.000000   0.000000   0.000000  -0.000003   0.000004
    37  N    0.000000   0.000000   0.000000   0.000000   0.000000   0.000000
    38  H    0.000000   0.000000   0.000000   0.000000   0.000000   0.000000
    39  C    0.000000   0.000000   0.000000   0.000000   0.000000   0.000000
    40  H    0.000000   0.000000   0.000000   0.000000   0.000000   0.000000
    41  H    0.000000   0.000000   0.000000   0.000000   0.000000   0.000000
    42  H    0.000000   0.000000   0.000000   0.000000   0.000000   0.000000
             13         14         15         16         17         18
     1  H    0.000000   0.000001   0.000000   0.000000   0.000000   0.000000
     2  C    0.000007   0.000301   0.000011  -0.000039   0.000000   0.000000
     3  H    0.000000  -0.000005  -0.000011  -0.000001   0.000000   0.000000
     4  H   -0.000001  -0.000025  -0.000006  -0.000001   0.000000   0.000000
     5  C    0.000280   0.000430   0.004074   0.000296  -0.000082   0.000001
     6  O    0.000271   0.011185   0.000551  -0.000003  -0.000002   0.000001
     7  N    0.004919  -0.005581  -0.037644  -0.006421   0.002726   0.000029
     8  H   -0.000078  -0.000194  -0.005808   0.020158   0.000736  -0.000018
     9  C   -0.042523  -0.026525   0.385909  -0.073411  -0.114522   0.000016
    10  H    0.000263  -0.003912  -0.039245   0.000907   0.002143   0.000488
    11  C    0.377616   0.387079  -0.065456   0.000028   0.002973   0.000586
    12  H   -0.023958  -0.019686  -0.002782   0.000584   0.000128  -0.000013
    13  H    0.567261  -0.019778  -0.007165   0.000024   0.000315   0.002997
    14  H   -0.019778   0.423079   0.004156  -0.000060   0.000085  -0.000110
    15  C   -0.007165   0.004156   4.161103   0.585220   0.263590  -0.018104
    16  O    0.000024  -0.000060   0.585220   8.214545  -0.104762   0.002229
    17  N    0.000315   0.000085   0.263590  -0.104762   7.442230   0.316377
    18  H    0.002997  -0.000110  -0.018104   0.002229   0.316377   0.309201
    19  C    0.000202   0.000004  -0.025472   0.007612   0.153133  -0.023883
    20  H   -0.000013   0.000000  -0.001801   0.006392  -0.037445   0.002693
    21  C   -0.000001   0.000000  -0.002356  -0.001743  -0.070291   0.001598
    22  H   -0.000003   0.000000   0.000180  -0.000015  -0.000973   0.001008
    23  H    0.000000   0.000000   0.000024  -0.000015   0.004640  -0.000056
    24  H    0.000000   0.000000   0.001723   0.002358  -0.003880  -0.000113
    25  C   -0.000014   0.000000   0.002711   0.000450  -0.039884  -0.003461
    26  O   -0.000001   0.000000  -0.000076  -0.000001   0.000362   0.000320
    27  N    0.000197   0.000000   0.000400   0.000005   0.002592   0.002606
    28  H    0.000096   0.000000   0.000070  -0.000051   0.004375  -0.000030
    29  C   -0.000009   0.000000   0.000002   0.000000   0.000042  -0.000160
    30  H    0.000000   0.000000   0.000000   0.000000  -0.000004   0.000004
    31  C   -0.000002   0.000000  -0.000001   0.000000   0.000007   0.000047
    32  H    0.000030   0.000000   0.000001   0.000000   0.000001   0.000073
    33  H    0.000000   0.000000   0.000000   0.000000   0.000000   0.000000
    34  H    0.000000   0.000000   0.000000   0.000000  -0.000020  -0.000008
    35  C    0.000002   0.000000   0.000001   0.000000  -0.000007  -0.000004
    36  O    0.000007   0.000000  -0.000001   0.000000  -0.000002  -0.000001
    37  N    0.000000   0.000000   0.000000   0.000000   0.000000   0.000000
    38  H    0.000000   0.000000   0.000000   0.000000   0.000000   0.000000
    39  C    0.000000   0.000000   0.000000   0.000000   0.000000   0.000000
    40  H    0.000000   0.000000   0.000000   0.000000   0.000000   0.000000
    41  H    0.000000   0.000000   0.000000   0.000000   0.000000   0.000000
    42  H    0.000000   0.000000   0.000000   0.000000   0.000000   0.000000
             19         20         21         22         23         24
     1  H    0.000000   0.000000   0.000000   0.000000   0.000000   0.000000
     2  C    0.000000   0.000000   0.000000   0.000000   0.000000   0.000000
     3  H    0.000000   0.000000   0.000000   0.000000   0.000000   0.000000
     4  H    0.000000   0.000000   0.000000   0.000000   0.000000   0.000000
     5  C    0.000001   0.000000   0.000000   0.000000   0.000000   0.000000
     6  O    0.000000   0.000000   0.000000   0.000000   0.000000   0.000000
     7  N   -0.000051  -0.000004   0.000001   0.000000   0.000000   0.000000
     8  H   -0.000024  -0.000005   0.000001   0.000000   0.000000  -0.000001
     9  C    0.004170   0.000465  -0.000361   0.000000   0.000004   0.000020
    10  H   -0.000275  -0.000010   0.000052   0.000000   0.000000  -0.000013
    11  C   -0.000090  -0.000056  -0.000003   0.000000   0.000000   0.000000
    12  H   -0.000050  -0.000001   0.000001   0.000000   0.000000   0.000000
    13  H    0.000202  -0.000013  -0.000001  -0.000003   0.000000   0.000000
    14  H    0.000004   0.000000   0.000000   0.000000   0.000000   0.000000
    15  C   -0.025472  -0.001801  -0.002356   0.000180   0.000024   0.001723
    16  O    0.007612   0.006392  -0.001743  -0.000015  -0.000015   0.002358
    17  N    0.153133  -0.037445  -0.070291  -0.000973   0.004640  -0.003880
    18  H   -0.023883   0.002693   0.001598   0.001008  -0.000056  -0.000113
    19  C    5.103876   0.405932   0.362250  -0.034705  -0.036378  -0.035726
    20  H    0.405932   0.452327  -0.035913   0.003806  -0.000401  -0.003197
    21  C    0.362250  -0.035913   5.095560   0.390782   0.390800   0.386916
    22  H   -0.034705   0.003806   0.390782   0.519256  -0.019638  -0.026891
    23  H   -0.036378  -0.000401   0.390800  -0.019638   0.502954  -0.023989
    24  H   -0.035726  -0.003197   0.386916  -0.026891  -0.023989   0.517131
    25  C    0.370311  -0.036681  -0.066041  -0.006189  -0.001603   0.005584
    26  O   -0.072665   0.000982  -0.003211   0.002265   0.000651   0.000648
    27  N   -0.126303   0.000481   0.004981  -0.000004  -0.000019  -0.000043
    28  H   -0.002596   0.000121   0.000175  -0.000005  -0.000016  -0.000007
    29  C    0.004437  -0.000245  -0.000107  -0.000009  -0.000003   0.000001
    30  H   -0.000132   0.000001  -0.000003   0.000000   0.000002   0.000000
    31  C   -0.000507   0.000006   0.000010   0.000001   0.000000   0.000000
    32  H   -0.000074   0.000000   0.000001   0.000000   0.000000   0.000000
    33  H    0.000007   0.000000   0.000000   0.000000   0.000000   0.000000
    34  H    0.000333  -0.000004  -0.000007  -0.000003   0.000000   0.000000
    35  C    0.000000  -0.000011  -0.000001   0.000000   0.000000   0.000000
    36  O   -0.000056  -0.000001   0.000000   0.000000   0.000000   0.000000
    37  N    0.000000   0.000000   0.000000   0.000000   0.000000   0.000000
    38  H    0.000000   0.000000   0.000000   0.000000   0.000000   0.000000
    39  C    0.000000   0.000000   0.000000   0.000000   0.000000   0.000000
    40  H    0.000000   0.000000   0.000000   0.000000   0.000000   0.000000
    41  H    0.000000   0.000000   0.000000   0.000000   0.000000   0.000000
    42  H    0.000000   0.000000   0.000000   0.000000   0.000000   0.000000
             25         26         27         28         29         30
     1  H    0.000000   0.000000   0.000000   0.000000   0.000000   0.000000
     2  C    0.000000   0.000000   0.000000   0.000000   0.000000   0.000000
     3  H    0.000000   0.000000   0.000000   0.000000   0.000000   0.000000
     4  H    0.000000   0.000000   0.000000   0.000000   0.000000   0.000000
     5  C    0.000000   0.000000   0.000000   0.000000   0.000000   0.000000
     6  O    0.000000   0.000000   0.000000   0.000000   0.000000   0.000000
     7  N    0.000000   0.000000   0.000000   0.000000   0.000000   0.000000
     8  H    0.000000   0.000000   0.000000   0.000000   0.000000   0.000000
     9  C    0.000012   0.000000  -0.000022  -0.000047   0.000000   0.000000
    10  H   -0.000008   0.000000   0.000000   0.000001   0.000000   0.000000
    11  C    0.000000   0.000000  -0.000082   0.000116   0.000002   0.000000
    12  H   -0.000006   0.000000  -0.000003   0.000097   0.000000   0.000000
    13  H   -0.000014  -0.000001   0.000197   0.000096  -0.000009   0.000000
    14  H    0.000000   0.000000   0.000000   0.000000   0.000000   0.000000
    15  C    0.002711  -0.000076   0.000400   0.000070   0.000002   0.000000
    16  O    0.000450  -0.000001   0.000005  -0.000051   0.000000   0.000000
    17  N   -0.039884   0.000362   0.002592   0.004375   0.000042  -0.000004
    18  H   -0.003461   0.000320   0.002606  -0.000030  -0.000160   0.000004
    19  C    0.370311  -0.072665  -0.126303  -0.002596   0.004437  -0.000132
    20  H   -0.036681   0.000982   0.000481   0.000121  -0.000245   0.000001
    21  C   -0.066041  -0.003211   0.004981   0.000175  -0.000107  -0.000003
    22  H   -0.006189   0.002265  -0.000004  -0.000005  -0.000009   0.000000
    23  H   -0.001603   0.000651  -0.000019  -0.000016  -0.000003   0.000002
    24  H    0.005584   0.000648  -0.000043  -0.000007   0.000001   0.000000
    25  C    4.209652   0.571684   0.276097  -0.019314  -0.033202  -0.001939
    26  O    0.571684   8.230741  -0.103831   0.001898   0.013182   0.002854
    27  N    0.276097  -0.103831   7.408822   0.309250   0.194976  -0.040666
    28  H   -0.019314   0.001898   0.309250   0.279219  -0.026487   0.002155
    29  C   -0.033202   0.013182   0.194976  -0.026487   5.048143   0.404288
    30  H   -0.001939   0.002854  -0.040666   0.002155   0.404288   0.495859
    31  C   -0.003816  -0.014980  -0.063236   0.003065   0.334329  -0.045410
    32  H   -0.000031  -0.000012   0.001767   0.000228  -0.042942   0.004497
    33  H    0.000276   0.000237   0.004850  -0.000077  -0.041636   0.000326
    34  H    0.000675   0.009599  -0.005441  -0.000199  -0.027410  -0.004048
    35  C    0.003647   0.000400  -0.036772  -0.005292   0.377001  -0.036411
    36  O    0.000506  -0.000003  -0.005446   0.021239  -0.079899   0.000983
    37  N   -0.000077  -0.000001   0.002868   0.000718  -0.117568   0.002193
    38  H    0.000001   0.000001   0.000012  -0.000022   0.001249   0.000475
    39  C    0.000001   0.000000  -0.000051  -0.000010   0.003640  -0.000210
    40  H    0.000000   0.000000  -0.000004  -0.000010   0.000587  -0.000017
    41  H    0.000000   0.000000   0.000000   0.000000  -0.000111   0.000010
    42  H    0.000000   0.000000   0.000001   0.000000  -0.000004  -0.000001
             31         32         33         34         35         36
     1  H    0.000000   0.000000   0.000000   0.000000   0.000000   0.000000
     2  C    0.000000   0.000000   0.000000   0.000000   0.000000   0.000000
     3  H    0.000000   0.000000   0.000000   0.000000   0.000000   0.000000
     4  H    0.000000   0.000000   0.000000   0.000000   0.000000   0.000000
     5  C    0.000000   0.000000   0.000000   0.000000   0.000000   0.000000
     6  O    0.000000   0.000000   0.000000   0.000000   0.000000   0.000000
     7  N    0.000000   0.000000   0.000000   0.000000   0.000000   0.000000
     8  H    0.000000   0.000000   0.000000   0.000000   0.000000   0.000000
     9  C    0.000000   0.000000   0.000000   0.000000   0.000000   0.000000
    10  H    0.000000   0.000000   0.000000   0.000000   0.000000   0.000000
    11  C    0.000000  -0.000001   0.000000   0.000000   0.000000  -0.000003
    12  H    0.000000   0.000000   0.000000   0.000000   0.000000   0.000004
    13  H   -0.000002   0.000030   0.000000   0.000000   0.000002   0.000007
    14  H    0.000000   0.000000   0.000000   0.000000   0.000000   0.000000
    15  C   -0.000001   0.000001   0.000000   0.000000   0.000001  -0.000001
    16  O    0.000000   0.000000   0.000000   0.000000   0.000000   0.000000
    17  N    0.000007   0.000001   0.000000  -0.000020  -0.000007  -0.000002
    18  H    0.000047   0.000073   0.000000  -0.000008  -0.000004  -0.000001
    19  C   -0.000507  -0.000074   0.000007   0.000333   0.000000  -0.000056
    20  H    0.000006   0.000000   0.000000  -0.000004  -0.000011  -0.000001
    21  C    0.000010   0.000001   0.000000  -0.000007  -0.000001   0.000000
    22  H    0.000001   0.000000   0.000000  -0.000003   0.000000   0.000000
    23  H    0.000000   0.000000   0.000000   0.000000   0.000000   0.000000
    24  H    0.000000   0.000000   0.000000   0.000000   0.000000   0.000000
    25  C   -0.003816  -0.000031   0.000276   0.000675   0.003647   0.000506
    26  O   -0.014980  -0.000012   0.000237   0.009599   0.000400  -0.000003
    27  N   -0.063236   0.001767   0.004850  -0.005441  -0.036772  -0.005446
    28  H    0.003065   0.000228  -0.000077  -0.000199  -0.005292   0.021239
    29  C    0.334329  -0.042942  -0.041636  -0.027410   0.377001  -0.079899
    30  H   -0.045410   0.004497   0.000326  -0.004048  -0.036411   0.000983
    31  C    5.206903   0.385084   0.380188   0.388345  -0.062808   0.000006
    32  H    0.385084   0.527460  -0.023355  -0.021228  -0.002847   0.000636
    33  H    0.380188  -0.023355   0.558480  -0.020015  -0.006823   0.000025
    34  H    0.388345  -0.021228  -0.020015   0.430728   0.003935  -0.000065
    35  C   -0.062808  -0.002847  -0.006823   0.003935   4.140441   0.595578
    36  O    0.000006   0.000636   0.000025  -0.000065   0.595578   8.212488
    37  N    0.002393   0.000190   0.000505   0.000091   0.290091  -0.098953
    38  H   -0.000049  -0.000005   0.002606  -0.000081  -0.020845   0.002369
    39  C   -0.000076  -0.000041   0.000153   0.000003  -0.025570  -0.004839
    40  H   -0.000048  -0.000001  -0.000008   0.000000  -0.001973   0.009743
    41  H   -0.000004   0.000001   0.000003   0.000000   0.000794   0.000365
    42  H    0.000010   0.000002  -0.000003  -0.000001   0.000926   0.000374
             37         38         39         40         41         42
     1  H    0.000000   0.000000   0.000000   0.000000   0.000000   0.000000
     2  C    0.000000   0.000000   0.000000   0.000000   0.000000   0.000000
     3  H    0.000000   0.000000   0.000000   0.000000   0.000000   0.000000
     4  H    0.000000   0.000000   0.000000   0.000000   0.000000   0.000000
     5  C    0.000000   0.000000   0.000000   0.000000   0.000000   0.000000
     6  O    0.000000   0.000000   0.000000   0.000000   0.000000   0.000000
     7  N    0.000000   0.000000   0.000000   0.000000   0.000000   0.000000
     8  H    0.000000   0.000000   0.000000   0.000000   0.000000   0.000000
     9  C    0.000000   0.000000   0.000000   0.000000   0.000000   0.000000
    10  H    0.000000   0.000000   0.000000   0.000000   0.000000   0.000000
    11  C    0.000000   0.000000   0.000000   0.000000   0.000000   0.000000
    12  H    0.000000   0.000000   0.000000   0.000000   0.000000   0.000000
    13  H    0.000000   0.000000   0.000000   0.000000   0.000000   0.000000
    14  H    0.000000   0.000000   0.000000   0.000000   0.000000   0.000000
    15  C    0.000000   0.000000   0.000000   0.000000   0.000000   0.000000
    16  O    0.000000   0.000000   0.000000   0.000000   0.000000   0.000000
    17  N    0.000000   0.000000   0.000000   0.000000   0.000000   0.000000
    18  H    0.000000   0.000000   0.000000   0.000000   0.000000   0.000000
    19  C    0.000000   0.000000   0.000000   0.000000   0.000000   0.000000
    20  H    0.000000   0.000000   0.000000   0.000000   0.000000   0.000000
    21  C    0.000000   0.000000   0.000000   0.000000   0.000000   0.000000
    22  H    0.000000   0.000000   0.000000   0.000000   0.000000   0.000000
    23  H    0.000000   0.000000   0.000000   0.000000   0.000000   0.000000
    24  H    0.000000   0.000000   0.000000   0.000000   0.000000   0.000000
    25  C   -0.000077   0.000001   0.000001   0.000000   0.000000   0.000000
    26  O   -0.000001   0.000001   0.000000   0.000000   0.000000   0.000000
    27  N    0.002868   0.000012  -0.000051  -0.000004   0.000000   0.000001
    28  H    0.000718  -0.000022  -0.000010  -0.000010   0.000000   0.000000
    29  C   -0.117568   0.001249   0.003640   0.000587  -0.000111  -0.000004
    30  H    0.002193   0.000475  -0.000210  -0.000017   0.000010  -0.000001
    31  C    0.002393  -0.000049  -0.000076  -0.000048  -0.000004   0.000010
    32  H    0.000190  -0.000005  -0.000041  -0.000001   0.000001   0.000002
    33  H    0.000505   0.002606   0.000153  -0.000008   0.000003  -0.000003
    34  H    0.000091  -0.000081   0.000003   0.000000   0.000000  -0.000001
    35  C    0.290091  -0.020845  -0.025570  -0.001973   0.000794   0.000926
    36  O   -0.098953   0.002369  -0.004839   0.009743   0.000365   0.000374
    37  N    7.333189   0.322460   0.184340  -0.031651  -0.046879  -0.047893
[...]
    29  C   -0.000005   0.000000   0.000003   0.000000  -0.000127  -0.000104
    30  H    0.000000   0.000000   0.000001   0.000000  -0.000012   0.000001
    31  C    0.000002   0.000000  -0.000001   0.000000   0.000047   0.000035
    32  H    0.000035   0.000000   0.000001   0.000000   0.000002   0.000016
    33  H    0.000000   0.000000   0.000000   0.000000   0.000000   0.000000
    34  H    0.000000   0.000000   0.000000   0.000000  -0.000022   0.000004
    35  C    0.000000   0.000000   0.000001   0.000000  -0.000010   0.000000
    36  O    0.000004   0.000000  -0.000001   0.000000  -0.000004   0.000000
    37  N    0.000000   0.000000   0.000000   0.000000   0.000000   0.000000
    38  H    0.000000   0.000000   0.000000   0.000000   0.000000   0.000000
    39  C    0.000000   0.000000   0.000000   0.000000   0.000000   0.000000
    40  H    0.000000   0.000000   0.000000   0.000000   0.000000   0.000000
    41  H    0.000000   0.000000   0.000000   0.000000   0.000000   0.000000
    42  H    0.000000   0.000000   0.000000   0.000000   0.000000   0.000000
             19         20         21         22         23         24
     1  H    0.000000   0.000000   0.000000   0.000000   0.000000   0.000000
     2  C    0.000000   0.000000   0.000000   0.000000   0.000000   0.000000
     3  H    0.000000   0.000000   0.000000   0.000000   0.000000   0.000000
     4  H    0.000000   0.000000   0.000000   0.000000   0.000000   0.000000
     5  C    0.000002   0.000000   0.000000   0.000000   0.000000   0.000000
     6  O    0.000000   0.000000   0.000000   0.000000   0.000000   0.000000
     7  N   -0.000076  -0.000006   0.000007   0.000000   0.000000   0.000000
     8  H   -0.000028  -0.000009   0.000003   0.000000   0.000000  -0.000002
     9  C    0.004363   0.000418  -0.000300  -0.000009   0.000004   0.000016
    10  H   -0.000183  -0.000014   0.000033   0.000000   0.000000  -0.000012
    11  C   -0.000294  -0.000020  -0.000002   0.000000   0.000000   0.000000
    12  H   -0.000007  -0.000002   0.000000   0.000000   0.000000   0.000000
    13  H   -0.000028  -0.000006   0.000002   0.000000   0.000000   0.000000
    14  H    0.000004   0.000000   0.000000   0.000000   0.000000   0.000000
    15  C   -0.025805  -0.002931  -0.002361   0.000065   0.000033   0.001953
    16  O    0.006925   0.006864  -0.001440  -0.000007  -0.000022   0.002118
    17  N    0.161703  -0.040001  -0.064616  -0.001377   0.004359  -0.003755
    18  H   -0.022731   0.003180   0.001453   0.001620  -0.000071  -0.000172
    19  C    5.101826   0.407757   0.354182  -0.033933  -0.034387  -0.036275
    20  H    0.407757   0.453747  -0.033487   0.003648  -0.000743  -0.003322
    21  C    0.354182  -0.033487   5.089380   0.390581   0.390542   0.390500
    22  H   -0.033933   0.003648   0.390581   0.518746  -0.022169  -0.027085
    23  H   -0.034387  -0.000743   0.390542  -0.022169   0.502602  -0.024247
    24  H   -0.036275  -0.003322   0.390500  -0.027085  -0.024247   0.513028
    25  C    0.378362  -0.037619  -0.057899  -0.005229  -0.001407   0.004843
    26  O   -0.073296   0.001154   0.004543   0.002465   0.001097   0.000329
    27  N   -0.129471   0.001322   0.004483   0.000006  -0.000019  -0.000035
    28  H   -0.002756   0.000241   0.000158  -0.000005  -0.000015  -0.000006
    29  C    0.004891  -0.000224  -0.000101  -0.000005  -0.000003   0.000001
    30  H    0.000132  -0.000016  -0.000008   0.000000   0.000001   0.000000
    31  C   -0.000342   0.000005   0.000006   0.000000   0.000000   0.000000
    32  H   -0.000024   0.000000   0.000000   0.000000   0.000000   0.000000
    33  H    0.000002   0.000000   0.000000   0.000000   0.000000   0.000000
    34  H    0.000145  -0.000001  -0.000002  -0.000001   0.000000   0.000000
    35  C   -0.000038  -0.000014   0.000000   0.000000   0.000000   0.000000
    36  O   -0.000055  -0.000001   0.000000   0.000000   0.000000   0.000000
    37  N    0.000000   0.000000   0.000000   0.000000   0.000000   0.000000
    38  H    0.000000   0.000000   0.000000   0.000000   0.000000   0.000000
    39  C    0.000000   0.000000   0.000000   0.000000   0.000000   0.000000
    40  H    0.000000   0.000000   0.000000   0.000000   0.000000   0.000000
    41  H    0.000000   0.000000   0.000000   0.000000   0.000000   0.000000
    42  H    0.000000   0.000000   0.000000   0.000000   0.000000   0.000000
             25         26         27         28         29         30
     1  H    0.000000   0.000000   0.000000   0.000000   0.000000   0.000000
     2  C    0.000000   0.000000   0.000000   0.000000   0.000000   0.000000
     3  H    0.000000   0.000000   0.000000   0.000000   0.000000   0.000000
     4  H    0.000000   0.000000   0.000000   0.000000   0.000000   0.000000
     5  C    0.000000   0.000000   0.000000   0.000000   0.000000   0.000000
     6  O    0.000000   0.000000   0.000000   0.000000   0.000000   0.000000
     7  N    0.000000   0.000000   0.000000   0.000000   0.000000   0.000000
     8  H    0.000000   0.000000   0.000000   0.000000   0.000000   0.000000
     9  C   -0.000059   0.000000  -0.000020  -0.000015   0.000000   0.000000
    10  H   -0.000010   0.000000   0.000000   0.000001   0.000000   0.000000
    11  C    0.000018   0.000000  -0.000035   0.000056   0.000001   0.000000
    12  H   -0.000001   0.000000  -0.000001   0.000019   0.000000   0.000000
    13  H   -0.000001   0.000000   0.000099   0.000159  -0.000005   0.000000
    14  H    0.000000   0.000000   0.000000   0.000000   0.000000   0.000000
    15  C    0.002771  -0.000081   0.000401   0.000075   0.000003   0.000001
    16  O    0.000251  -0.000001   0.000006  -0.000046   0.000000   0.000000
    17  N   -0.047774   0.000094   0.002331   0.005062  -0.000127  -0.000012
    18  H   -0.003986   0.000458   0.001526   0.000030  -0.000104   0.000001
    19  C    0.378362  -0.073296  -0.129471  -0.002756   0.004891   0.000132
    20  H   -0.037619   0.001154   0.001322   0.000241  -0.000224  -0.000016
    21  C   -0.057899   0.004543   0.004483   0.000158  -0.000101  -0.000008
    22  H   -0.005229   0.002465   0.000006  -0.000005  -0.000005   0.000000
    23  H   -0.001407   0.001097  -0.000019  -0.000015  -0.000003   0.000001
    24  H    0.004843   0.000329  -0.000035  -0.000006   0.000001   0.000000
    25  C    4.164482   0.597627   0.278834  -0.017095  -0.030025  -0.001627
    26  O    0.597627   8.174787  -0.107665   0.001902   0.010087   0.005743
    27  N    0.278834  -0.107665   7.420083   0.309548   0.197513  -0.043196
    28  H   -0.017095   0.001902   0.309548   0.280313  -0.026801   0.002609
    29  C   -0.030025   0.010087   0.197513  -0.026801   5.040976   0.412153
    30  H   -0.001627   0.005743  -0.043196   0.002609   0.412153   0.490441
    31  C   -0.002406  -0.004125  -0.064047   0.002681   0.337155  -0.041283
    32  H    0.000109  -0.000002   0.000163   0.000578  -0.038730   0.004014
    33  H    0.000055  -0.000001   0.004658  -0.000066  -0.037245   0.000193
    34  H    0.002149   0.004647  -0.005415  -0.000202  -0.029898  -0.003648
    35  C    0.003669   0.000394  -0.041411  -0.007182   0.375430  -0.043925
    36  O    0.000531  -0.000003  -0.007946   0.021973  -0.077912   0.001890
    37  N   -0.000100  -0.000001   0.002378   0.000977  -0.114370   0.004350
    38  H   -0.000006  -0.000001  -0.000017  -0.000030   0.000623   0.001549
    39  C    0.000001   0.000000  -0.000085  -0.000029   0.004471  -0.000075
    40  H    0.000000   0.000000   0.000009   0.000001  -0.000176  -0.000004
    41  H    0.000000   0.000000   0.000000   0.000000   0.000002  -0.000012
    42  H    0.000000   0.000000  -0.000005  -0.000003   0.000142  -0.000001
             31         32         33         34         35         36
     1  H    0.000000   0.000000   0.000000   0.000000   0.000000   0.000000
     2  C    0.000000   0.000000   0.000000   0.000000   0.000000   0.000000
     3  H    0.000000   0.000000   0.000000   0.000000   0.000000   0.000000
     4  H    0.000000   0.000000   0.000000   0.000000   0.000000   0.000000
     5  C    0.000000   0.000000   0.000000   0.000000   0.000000   0.000000
     6  O    0.000000   0.000000   0.000000   0.000000   0.000000   0.000000
     7  N    0.000000   0.000000   0.000000   0.000000   0.000000   0.000000
     8  H    0.000000   0.000000   0.000000   0.000000   0.000000   0.000000
     9  C    0.000000   0.000000   0.000000   0.000000   0.000000   0.000000
    10  H    0.000000   0.000000   0.000000   0.000000   0.000000   0.000000
    11  C   -0.000001  -0.000001   0.000000   0.000000   0.000000  -0.000001
    12  H    0.000000   0.000000   0.000000   0.000000   0.000000   0.000000
    13  H    0.000002   0.000035   0.000000   0.000000   0.000000   0.000004
    14  H    0.000000   0.000000   0.000000   0.000000   0.000000   0.000000
    15  C   -0.000001   0.000001   0.000000   0.000000   0.000001  -0.000001
    16  O    0.000000   0.000000   0.000000   0.000000   0.000000   0.000000
    17  N    0.000047   0.000002   0.000000  -0.000022  -0.000010  -0.000004
    18  H    0.000035   0.000016   0.000000   0.000004   0.000000   0.000000
    19  C   -0.000342  -0.000024   0.000002   0.000145  -0.000038  -0.000055
    20  H    0.000005   0.000000   0.000000  -0.000001  -0.000014  -0.000001
    21  C    0.000006   0.000000   0.000000  -0.000002   0.000000   0.000000
    22  H    0.000000   0.000000   0.000000  -0.000001   0.000000   0.000000
    23  H    0.000000   0.000000   0.000000   0.000000   0.000000   0.000000
    24  H    0.000000   0.000000   0.000000   0.000000   0.000000   0.000000
    25  C   -0.002406   0.000109   0.000055   0.002149   0.003669   0.000531
    26  O   -0.004125  -0.000002  -0.000001   0.004647   0.000394  -0.000003
    27  N   -0.064047   0.000163   0.004658  -0.005415  -0.041411  -0.007946
    28  H    0.002681   0.000578  -0.000066  -0.000202  -0.007182   0.021973
    29  C    0.337155  -0.038730  -0.037245  -0.029898   0.375430  -0.077912
    30  H   -0.041283   0.004014   0.000193  -0.003648  -0.043925   0.001890
    31  C    5.152196   0.388436   0.381938   0.391732  -0.052537  -0.000963
    32  H    0.388436   0.515813  -0.024074  -0.023429  -0.004099   0.001870
    33  H    0.381938  -0.024074   0.533614  -0.022842  -0.002864   0.000025
    34  H    0.391732  -0.023429  -0.022842   0.474900   0.004177  -0.000070
    35  C   -0.052537  -0.004099  -0.002864   0.004177   4.164853   0.596853
    36  O   -0.000963   0.001870   0.000025  -0.000070   0.596853   8.180202
    37  N    0.000881   0.000434   0.002426  -0.000060   0.283486  -0.103581
    38  H    0.000312   0.000004   0.000367  -0.000032  -0.021946   0.002512
    39  C   -0.000275  -0.000007  -0.000021   0.000003  -0.029217   0.008268
    40  H   -0.000006   0.000000   0.000003   0.000000  -0.003742   0.001179
    41  H    0.000005   0.000000  -0.000006   0.000000   0.004558   0.000349
    42  H    0.000011   0.000003  -0.000013   0.000000  -0.002937   0.003209
             37         38         39         40         41         42
     1  H    0.000000   0.000000   0.000000   0.000000   0.000000   0.000000
     2  C    0.000000   0.000000   0.000000   0.000000   0.000000   0.000000
     3  H    0.000000   0.000000   0.000000   0.000000   0.000000   0.000000
     4  H    0.000000   0.000000   0.000000   0.000000   0.000000   0.000000
     5  C    0.000000   0.000000   0.000000   0.000000   0.000000   0.000000
     6  O    0.000000   0.000000   0.000000   0.000000   0.000000   0.000000
     7  N    0.000000   0.000000   0.000000   0.000000   0.000000   0.000000
     8  H    0.000000   0.000000   0.000000   0.000000   0.000000   0.000000
     9  C    0.000000   0.000000   0.000000   0.000000   0.000000   0.000000
    10  H    0.000000   0.000000   0.000000   0.000000   0.000000   0.000000
    11  C    0.000000   0.000000   0.000000   0.000000   0.000000   0.000000
    12  H    0.000000   0.000000   0.000000   0.000000   0.000000   0.000000
    13  H    0.000000   0.000000   0.000000   0.000000   0.000000   0.000000
    14  H    0.000000   0.000000   0.000000   0.000000   0.000000   0.000000
    15  C    0.000000   0.000000   0.000000   0.000000   0.000000   0.000000
    16  O    0.000000   0.000000   0.000000   0.000000   0.000000   0.000000
    17  N    0.000000   0.000000   0.000000   0.000000   0.000000   0.000000
    18  H    0.000000   0.000000   0.000000   0.000000   0.000000   0.000000
    19  C    0.000000   0.000000   0.000000   0.000000   0.000000   0.000000
    20  H    0.000000   0.000000   0.000000   0.000000   0.000000   0.000000
    21  C    0.000000   0.000000   0.000000   0.000000   0.000000   0.000000
    22  H    0.000000   0.000000   0.000000   0.000000   0.000000   0.000000
    23  H    0.000000   0.000000   0.000000   0.000000   0.000000   0.000000
    24  H    0.000000   0.000000   0.000000   0.000000   0.000000   0.000000
    25  C   -0.000100  -0.000006   0.000001   0.000000   0.000000   0.000000
    26  O   -0.000001  -0.000001   0.000000   0.000000   0.000000   0.000000
    27  N    0.002378  -0.000017  -0.000085   0.000009   0.000000  -0.000005
    28  H    0.000977  -0.000030  -0.000029   0.000001   0.000000  -0.000003
    29  C   -0.114370   0.000623   0.004471  -0.000176   0.000002   0.000142
    30  H    0.004350   0.001549  -0.000075  -0.000004  -0.000012  -0.000001
    31  C    0.000881   0.000312  -0.000275  -0.000006   0.000005   0.000011
    32  H    0.000434   0.000004  -0.000007   0.000000   0.000000   0.000003
    33  H    0.002426   0.000367  -0.000021   0.000003  -0.000006  -0.000013
    34  H   -0.000060  -0.000032   0.000003   0.000000   0.000000   0.000000
    35  C    0.283486  -0.021946  -0.029217  -0.003742   0.004558  -0.002937
    36  O   -0.103581   0.002512   0.008268   0.001179   0.000349   0.003209
    37  N    7.323484   0.328332   0.194063  -0.045414  -0.037203  -0.040404
    38  H    0.328332   0.321030  -0.022137   0.001336  -0.004561   0.002507
    39  C    0.194063  -0.022137   4.910758   0.406349   0.397403   0.404244
    40  H   -0.045414   0.001336   0.406349   0.518229  -0.030930  -0.032498
    41  H   -0.037203  -0.004561   0.397403  -0.030930   0.522263  -0.024716
    42  H   -0.040404   0.002507   0.404244  -0.032498  -0.024716   0.486329
 Mulliken atomic charges:
              1
     1  H    0.208528
     2  C   -0.576077
     3  H    0.173804
     4  H    0.203208
     5  C    0.755783
     6  O   -0.621801
     7  N   -0.822978
     8  H    0.418436
     9  C   -0.030276
    10  H    0.215163
    11  C   -0.486572
    12  H    0.180660
    13  H    0.163853
    14  H    0.211684
    15  C    0.787380
    16  O   -0.626208
    17  N   -0.828146
    18  H    0.393417
    19  C   -0.060565
    20  H    0.240082
    21  C   -0.465655
    22  H    0.172689
    23  H    0.184447
    24  H    0.182120
    25  C    0.771542
    26  O   -0.620153
    27  N   -0.823990
    28  H    0.427872
    29  C   -0.027720
    30  H    0.210731
    31  C   -0.489456
    32  H    0.178890
    33  H    0.163853
    34  H    0.207866
    35  C    0.776503
    36  O   -0.628326
    37  N   -0.799677
    38  H    0.390157
    39  C   -0.273713
    40  H    0.185663
    41  H    0.172848
    42  H    0.204134
 Sum of Mulliken atomic charges =   0.00000
 Mulliken charges with hydrogens summed into heavy atoms:
              1
     2  C    0.009463
     5  C    0.755783
     6  O   -0.621801
     7  N   -0.404542
     9  C    0.184887
    11  C    0.069625
    15  C    0.787380
    16  O   -0.626208
    17  N   -0.434729
    19  C    0.179516
    21  C    0.073601
    25  C    0.771542
    26  O   -0.620153
    27  N   -0.396119
    29  C    0.183011
    31  C    0.061152
    35  C    0.776503
    36  O   -0.628326
    37  N   -0.409520
    39  C    0.288932
 Sum of Mulliken charges with hydrogens summed into heavy atoms =   0.00000
 Electronic spatial extent (au):  <R**2>=           9244.6521
 Charge=              0.0000 electrons
 Dipole moment (field-independent basis, Debye):
    X=              4.3107    Y=             -0.5033    Z=             -0.5909  Tot=              4.3800
 Quadrupole moment (field-independent basis, Debye-Ang):
   XX=            -94.4830   YY=           -130.4815   ZZ=           -126.9707
   XY=             -9.1052   XZ=             12.0026   YZ=              0.7427
 Traceless Quadrupole moment (field-independent basis, Debye-Ang):
   XX=             22.8287   YY=            -13.1697   ZZ=             -9.6590
   XY=             -9.1052   XZ=             12.0026   YZ=              0.7427
 Octapole moment (field-independent basis, Debye-Ang**2):
  XXX=            220.8905  YYY=            -28.6256  ZZZ=             -0.8483  XYY=            -24.2552
  XXY=            -28.8690  XXZ=            -96.2048  XZZ=             33.4786  YZZ=              4.6252
  YYZ=            -15.6821  XYZ=            -31.0287
 Hexadecapole moment (field-independent basis, Debye-Ang**3):
 XXXX=          -7851.4583 YYYY=          -1979.5405 ZZZZ=           -706.2185 XXXY=           -279.2080
 XXXZ=            442.5355 YYYX=            -90.7352 YYYZ=            -35.8923 ZZZX=             16.4086
 ZZZY=             25.4400 XXYY=          -1889.3403 XXZZ=          -1832.7219 YYZZ=           -436.7948
 XXYZ=            138.3190 YYXZ=            -20.6055 ZZXY=            -28.1797
 N-N= 1.609376338972D+03 E-N=-5.526491553763D+03  KE= 9.830935101249D+02
 1\1\GINC-NODE007\FOpt\RHF\6-31G(d)\C12H22N4O4\MANAGER\27-Dec-2016\0\\#
  HF/6-31G* Opt=(ModRedundant, maxcycles=1000, calcfc) geom=nocrowd\\Ph
 i Psi fixed scan\\0,1\H,1.5661503791,1.8149602851,-0.4836841007\C,2.15
 96668695,2.24781124,-1.277681817\H,1.5951303804,3.031381256,-1.7682974
 43\H,2.3704314017,1.4662113568,-1.9997720457\C,3.4696841672,2.73160566
 08,-0.695152539\O,4.0803268313,2.082758093,0.1139367323\N,3.9148825809
 ,3.9182501525,-1.156903151\H,3.3844881498,4.4515014039,-1.8084526465\C
 ,5.1520274088,4.5026098782,-0.7020510469\H,5.246091276,4.3092772776,0.
 3593442161\C,6.3730449848,3.91607535,-1.4243404763\H,6.3097146919,4.10
 86318824,-2.4897563831\H,7.2971815315,4.3447845978,-1.0514045675\H,6.3
 997343472,2.8468932678,-1.2612372546\C,5.0660869075,6.0062883649,-0.94
 47391534\O,4.3154594956,6.4718137038,-1.7604051351\N,5.9328853259,6.75
 82307986,-0.2265723638\H,6.3780531542,6.3307628903,0.5557121539\C,5.91
 14703114,8.2141329764,-0.270870166\H,5.6249771496,8.4815708661,-1.2786
 01974\C,4.9169482831,8.8130812586,0.7164024189\H,5.1749018478,8.549225
 6433,1.7349600828\H,4.9128568132,9.893358006,0.6454043371\H,3.92317259
 24,8.4436548083,0.4930427069\C,7.3327595169,8.7377170108,-0.0304518315
 \O,7.5953581425,9.4772088457,0.880828207\N,8.2470616042,8.3294554379,-
 0.9287578898\H,8.0026468339,7.6904179319,-1.653249227\C,9.6292055427,8
 .7412356336,-0.8695651661\H,9.6583048682,9.7942282081,-0.618371353\C,1
 0.4296267673,7.9559308398,0.1783573864\H,10.4235746662,6.897934722,-0.
 0603333909\H,11.4601658031,8.2931392039,0.2180283007\H,9.984172193,8.1
 014854066,1.1536540119\C,10.2260013848,8.5188248569,-2.2563723732\O,9.
 7782395957,7.6877796044,-3.0030496419\N,11.300685091,9.2688759472,-2.5
 562175835\H,11.557829302,10.0088335498,-1.9452674619\C,11.9803589011,9
 .1500800605,-3.8303001342\H,11.3836090549,9.5543148699,-4.6397392875\H
 ,12.91484034,9.6917682379,-3.7754944492\H,12.1867935116,8.111098615,-4
 .0425785006\\Version=EM64L-G09RevA.02\State=1-A\HF=-984.5634721\RMSD=8
 .461e-09\RMSF=3.063e-04\Dipole=1.2844873,1.0300408,-0.5085942\Quadrupo
 le=17.3597985,-9.3989574,-7.9608411,10.81165,-0.2939219,-0.0031316\PG=
 C01 [X(C12H22N4O4)]\\@


 At the touch of love, everyone becomves a poet.
                                -- Plato
 Job cpu time:  0 days  4 hours 43 minutes 57.3 seconds.
 File lengths (MBytes):  RWF=    553 Int=      0 D2E=      0 Chk=     11 Scr=      1
 Normal termination of Gaussian 09 at Tue Dec 27 01:39:21 2016.
