 Entering Gaussian System, Link 0=g09
 Initial command:
 /home/steboss/Software/g09/l1.exe /tmp/Gau-3671.inp -scrdir=/tmp/
 Entering Link 1 = /home/steboss/Software/g09/l1.exe PID=      3673.
  
 Copyright (c) 1988,1990,1992,1993,1995,1998,2003,2009, Gaussian, Inc.
                  All Rights Reserved.
  
 This is part of the Gaussian(R) 09 program.  It is based on
 the Gaussian(R) 03 system (copyright 2003, Gaussian, Inc.),
 the Gaussian(R) 98 system (copyright 1998, Gaussian, Inc.),
 the Gaussian(R) 94 system (copyright 1995, Gaussian, Inc.),
 the Gaussian 92(TM) system (copyright 1992, Gaussian, Inc.),
 the Gaussian 90(TM) system (copyright 1990, Gaussian, Inc.),
 the Gaussian 88(TM) system (copyright 1988, Gaussian, Inc.),
 the Gaussian 86(TM) system (copyright 1986, Carnegie Mellon
 University), and the Gaussian 82(TM) system (copyright 1983,
 Carnegie Mellon University). Gaussian is a federally registered
 trademark of Gaussian, Inc.
  
 This software contains proprietary and confidential information,
 including trade secrets, belonging to Gaussian, Inc.
  
 This software is provided under written license and may be
 used, copied, transmitted, or stored only in accord with that
 written license.
  
 The following legend is applicable only to US Government
 contracts under FAR:
  
                    RESTRICTED RIGHTS LEGEND
  
 Use, reproduction and disclosure by the US Government is
 subject to restrictions as set forth in subparagraphs (a)
 and (c) of the Commercial Computer Software - Restricted
 Rights clause in FAR 52.227-19.
  
 Gaussian, Inc.
 340 Quinnipiac St., Bldg. 40, Wallingford CT 06492
  
  
 ---------------------------------------------------------------
 Warning -- This program may not be used in any manner that
 competes with the business of Gaussian, Inc. or will provide
 assistance to any competitor of Gaussian, Inc.  The licensee
 of this program is prohibited from giving any competitor of
 Gaussian, Inc. access to this program.  By using this program,
 the user acknowledges that Gaussian, Inc. is engaged in the
 business of creating and licensing software in the field of
 computational chemistry and represents and warrants to the
 licensee that it is not a competitor of Gaussian, Inc. and that
 it will not use this program in any manner prohibited above.
 ---------------------------------------------------------------
  

 Cite this work as:
 Gaussian 09, Revision A.02,
 M. J. Frisch, G. W. Trucks, H. B. Schlegel, G. E. Scuseria, 
 M. A. Robb, J. R. Cheeseman, G. Scalmani, V. Barone, B. Mennucci, 
 G. A. Petersson, H. Nakatsuji, M. Caricato, X. Li, H. P. Hratchian, 
 A. F. Izmaylov, J. Bloino, G. Zheng, J. L. Sonnenberg, M. Hada, 
 M. Ehara, K. Toyota, R. Fukuda, J. Hasegawa, M. Ishida, T. Nakajima, 
 Y. Honda, O. Kitao, H. Nakai, T. Vreven, J. A. Montgomery, Jr., 
 J. E. Peralta, F. Ogliaro, M. Bearpark, J. J. Heyd, E. Brothers, 
 K. N. Kudin, V. N. Staroverov, R. Kobayashi, J. Normand, 
 K. Raghavachari, A. Rendell, J. C. Burant, S. S. Iyengar, J. Tomasi, 
 M. Cossi, N. Rega, J. M. Millam, M. Klene, J. E. Knox, J. B. Cross, 
 V. Bakken, C. Adamo, J. Jaramillo, R. Gomperts, R. E. Stratmann, 
 O. Yazyev, A. J. Austin, R. Cammi, C. Pomelli, J. W. Ochterski, 
 R. L. Martin, K. Morokuma, V. G. Zakrzewski, G. A. Voth, 
 P. Salvador, J. J. Dannenberg, S. Dapprich, A. D. Daniels, 
 O. Farkas, J. B. Foresman, J. V. Ortiz, J. Cioslowski, 
 and D. J. Fox, Gaussian, Inc., Wallingford CT, 2009.
 
 ******************************************
 Gaussian 09:  EM64L-G09RevA.02 11-Jun-2009
                26-Dec-2016 
 ******************************************
 %chk=structure_0.chk
 -------------------------------------------------------------------
 # HF/6-31G* Opt=(ModRedundant, maxcycles=1000, calcfc) geom=nocrowd
 -------------------------------------------------------------------
 1/6=1000,10=4,18=120,19=15,38=1/1,3;
 2/9=110,12=1,17=6,18=5,40=1/2;
 3/5=1,6=6,7=1,11=9,16=1,25=1,30=1,71=2/1,2,3;
 4//1;
 5/5=2,38=5/2;
 8/6=4,10=90,11=11/1;
 11/6=1,8=1,9=11,15=111,16=1/1,2,10;
 10/6=1,7=6,13=1/2;
 6/7=2,8=2,9=2,10=2,28=1/1;
 7/10=1,18=20,25=1/1,2,3,16;
 1/6=1000,10=4,18=20,19=15/3(2);
 2/9=110,12=1/2;
 99//99;
 2/9=110,12=1/2;
 3/5=1,6=6,7=1,11=9,16=1,25=1,30=1,71=1/1,2,3;
 4/5=5,16=3/1;
 5/5=2,38=5/2;
 7//1,2,3,16;
 1/6=1000,18=20,19=15/3(-5);
 2/9=110,12=1/2;
 6/7=2,8=2,9=2,10=2,19=2,28=1/1;
 99/9=1/99;
 ------------------
 Phi Psi fixed scan
 ------------------
 Symbolic Z-matrix:
 Charge =  0 Multiplicity = 1
 H                     2.5153    1.       -1.923 
 C                     2.5153    2.09     -1.923 
 H                     1.6255    2.4539   -1.4093 
 H                     2.5153    2.4539   -2.9505 
 C                     3.7515    2.6408   -1.2093 
 O                     4.5856    1.8774   -0.7277 
 N                     3.8623    3.9697   -1.1453 
 H                     3.1502    4.5562   -1.5565 
 C                     4.9863    4.6139   -0.4964 
 H                     5.0214    4.3155    0.5514 
 C                     6.3021    4.2208   -1.1594 
 H                     6.2857    4.5214   -2.2071 
 H                     7.1283    4.7189   -0.652 
 H                     6.4342    3.1409   -1.0938 
 C                     4.8645    6.1294   -0.5667 
 O                     3.9015    6.6527   -1.1227 
 N                     5.846     6.8349    0. 
 H                     6.6176    6.3592    0.4455 
 C                     5.8461    8.2839    0. 
 H                     5.3323    8.6477   -0.8898 
 C                     5.1347    8.8329    1.2322 
 H                     5.6431    8.4846    2.1312 
 H                     5.1499    9.9224    1.2058 
 H                     4.1019    8.4846    1.2414 
 C                     7.266     8.8318    0. 
 O                     7.4667    10.0443   0. 
 N                     8.2534    7.9333    0. 
 H                     8.0383    6.9465    0. 
 C                     9.6477    8.3279    0. 
 H                     9.8579    8.9213   -0.8898 
 C                     9.9822    9.1618    1.2321 
 H                     9.7855    8.5778    2.1312 
 H                     11.0348   9.4439    1.2058 
 H                     9.3659    10.0608   1.2414 
 C                     10.5615   7.1107    0. 
 O                     10.0892   5.9761    0. 
 N                     11.875    7.3494    0. 
 H                     12.2155   8.3003    0. 
 C                     12.8483   6.276     0. 
 H                     12.3316   5.3163    0. 
 H                     13.4733   6.3516   -0.8899 
 H                     13.4733   6.3516    0.8898 
 
 The following ModRedundant input section has been read:
 D   15   17   19   25 F                                                       
 D   17   19   25   27 F                                                       

 GradGradGradGradGradGradGradGradGradGradGradGradGradGradGradGradGradGrad
 Berny optimization.
 Initialization pass.
                           ----------------------------
                           !    Initial Parameters    !
                           ! (Angstroms and Degrees)  !
 --------------------------                            --------------------------
 ! Name  Definition              Value          Derivative Info.                !
 --------------------------------------------------------------------------------
 ! R1    R(1,2)                  1.09           calculate D2E/DX2 analytically  !
 ! R2    R(2,3)                  1.09           calculate D2E/DX2 analytically  !
 ! R3    R(2,4)                  1.09           calculate D2E/DX2 analytically  !
 ! R4    R(2,5)                  1.53           calculate D2E/DX2 analytically  !
 ! R5    R(5,6)                  1.229          calculate D2E/DX2 analytically  !
 ! R6    R(5,7)                  1.335          calculate D2E/DX2 analytically  !
 ! R7    R(7,8)                  1.01           calculate D2E/DX2 analytically  !
 ! R8    R(7,9)                  1.4489         calculate D2E/DX2 analytically  !
 ! R9    R(9,10)                 1.09           calculate D2E/DX2 analytically  !
 ! R10   R(9,11)                 1.5249         calculate D2E/DX2 analytically  !
 ! R11   R(9,15)                 1.522          calculate D2E/DX2 analytically  !
 ! R12   R(11,12)                1.0901         calculate D2E/DX2 analytically  !
 ! R13   R(11,13)                1.09           calculate D2E/DX2 analytically  !
 ! R14   R(11,14)                1.0899         calculate D2E/DX2 analytically  !
 ! R15   R(15,16)                1.229          calculate D2E/DX2 analytically  !
 ! R16   R(15,17)                1.335          calculate D2E/DX2 analytically  !
 ! R17   R(17,18)                1.01           calculate D2E/DX2 analytically  !
 ! R18   R(17,19)                1.449          calculate D2E/DX2 analytically  !
 ! R19   R(19,20)                1.09           calculate D2E/DX2 analytically  !
 ! R20   R(19,21)                1.5251         calculate D2E/DX2 analytically  !
 ! R21   R(19,25)                1.5219         calculate D2E/DX2 analytically  !
 ! R22   R(21,22)                1.0899         calculate D2E/DX2 analytically  !
 ! R23   R(21,23)                1.0899         calculate D2E/DX2 analytically  !
 ! R24   R(21,24)                1.09           calculate D2E/DX2 analytically  !
 ! R25   R(25,26)                1.229          calculate D2E/DX2 analytically  !
 ! R26   R(25,27)                1.335          calculate D2E/DX2 analytically  !
 ! R27   R(27,28)                1.01           calculate D2E/DX2 analytically  !
 ! R28   R(27,29)                1.4491         calculate D2E/DX2 analytically  !
 ! R29   R(29,30)                1.09           calculate D2E/DX2 analytically  !
 ! R30   R(29,31)                1.5249         calculate D2E/DX2 analytically  !
 ! R31   R(29,35)                1.522          calculate D2E/DX2 analytically  !
 ! R32   R(31,32)                1.09           calculate D2E/DX2 analytically  !
 ! R33   R(31,33)                1.0901         calculate D2E/DX2 analytically  !
 ! R34   R(31,34)                1.09           calculate D2E/DX2 analytically  !
 ! R35   R(35,36)                1.229          calculate D2E/DX2 analytically  !
 ! R36   R(35,37)                1.335          calculate D2E/DX2 analytically  !
 ! R37   R(37,38)                1.01           calculate D2E/DX2 analytically  !
 ! R38   R(37,39)                1.449          calculate D2E/DX2 analytically  !
 ! R39   R(39,40)                1.09           calculate D2E/DX2 analytically  !
 ! R40   R(39,41)                1.0901         calculate D2E/DX2 analytically  !
 ! R41   R(39,42)                1.09           calculate D2E/DX2 analytically  !
 ! A1    A(1,2,3)              109.5032         calculate D2E/DX2 analytically  !
 ! A2    A(1,2,4)              109.5021         calculate D2E/DX2 analytically  !
 ! A3    A(1,2,5)              111.1            calculate D2E/DX2 analytically  !
 ! A4    A(3,2,4)              109.4387         calculate D2E/DX2 analytically  !
 ! A5    A(3,2,5)              108.6357         calculate D2E/DX2 analytically  !
 ! A6    A(4,2,5)              108.6341         calculate D2E/DX2 analytically  !
 ! A7    A(2,5,6)              120.4994         calculate D2E/DX2 analytically  !
 ! A8    A(2,5,7)              116.5999         calculate D2E/DX2 analytically  !
 ! A9    A(6,5,7)              122.9007         calculate D2E/DX2 analytically  !
 ! A10   A(5,7,8)              119.9983         calculate D2E/DX2 analytically  !
 ! A11   A(5,7,9)              121.8976         calculate D2E/DX2 analytically  !
 ! A12   A(8,7,9)              118.1041         calculate D2E/DX2 analytically  !
 ! A13   A(7,9,10)             109.4973         calculate D2E/DX2 analytically  !
 ! A14   A(7,9,11)             111.1021         calculate D2E/DX2 analytically  !
 ! A15   A(7,9,15)             111.0961         calculate D2E/DX2 analytically  !
 ! A16   A(10,9,11)            108.6373         calculate D2E/DX2 analytically  !
 ! A17   A(10,9,15)            108.6363         calculate D2E/DX2 analytically  !
 ! A18   A(11,9,15)            107.7971         calculate D2E/DX2 analytically  !
 ! A19   A(9,11,12)            109.4995         calculate D2E/DX2 analytically  !
 ! A20   A(9,11,13)            109.5016         calculate D2E/DX2 analytically  !
 ! A21   A(9,11,14)            109.5009         calculate D2E/DX2 analytically  !
 ! A22   A(12,11,13)           109.4378         calculate D2E/DX2 analytically  !
 ! A23   A(12,11,14)           109.4443         calculate D2E/DX2 analytically  !
 ! A24   A(13,11,14)           109.4433         calculate D2E/DX2 analytically  !
 ! A25   A(9,15,16)            120.5033         calculate D2E/DX2 analytically  !
 ! A26   A(9,15,17)            116.6002         calculate D2E/DX2 analytically  !
 ! A27   A(16,15,17)           122.8965         calculate D2E/DX2 analytically  !
 ! A28   A(15,17,18)           120.0            calculate D2E/DX2 analytically  !
 ! A29   A(15,17,19)           121.9052         calculate D2E/DX2 analytically  !
 ! A30   A(18,17,19)           118.0948         calculate D2E/DX2 analytically  !
 ! A31   A(17,19,20)           109.4954         calculate D2E/DX2 analytically  !
 ! A32   A(17,19,21)           111.0974         calculate D2E/DX2 analytically  !
 ! A33   A(17,19,25)           111.1042         calculate D2E/DX2 analytically  !
 ! A34   A(20,19,21)           108.6349         calculate D2E/DX2 analytically  !
 ! A35   A(20,19,25)           108.6399         calculate D2E/DX2 analytically  !
 ! A36   A(21,19,25)           107.7944         calculate D2E/DX2 analytically  !
 ! A37   A(19,21,22)           109.4996         calculate D2E/DX2 analytically  !
 ! A38   A(19,21,23)           109.4977         calculate D2E/DX2 analytically  !
 ! A39   A(19,21,24)           109.4988         calculate D2E/DX2 analytically  !
 ! A40   A(22,21,23)           109.4452         calculate D2E/DX2 analytically  !
 ! A41   A(22,21,24)           109.4447         calculate D2E/DX2 analytically  !
 ! A42   A(23,21,24)           109.4412         calculate D2E/DX2 analytically  !
 ! A43   A(19,25,26)           120.4989         calculate D2E/DX2 analytically  !
 ! A44   A(19,25,27)           116.5987         calculate D2E/DX2 analytically  !
 ! A45   A(26,25,27)           122.9024         calculate D2E/DX2 analytically  !
 ! A46   A(25,27,28)           120.0043         calculate D2E/DX2 analytically  !
 ! A47   A(25,27,29)           121.8969         calculate D2E/DX2 analytically  !
 ! A48   A(28,27,29)           118.0988         calculate D2E/DX2 analytically  !
 ! A49   A(27,29,30)           109.5003         calculate D2E/DX2 analytically  !
 ! A50   A(27,29,31)           111.0991         calculate D2E/DX2 analytically  !
 ! A51   A(27,29,35)           111.095          calculate D2E/DX2 analytically  !
 ! A52   A(30,29,31)           108.6373         calculate D2E/DX2 analytically  !
 ! A53   A(30,29,35)           108.6385         calculate D2E/DX2 analytically  !
 ! A54   A(31,29,35)           107.796          calculate D2E/DX2 analytically  !
 ! A55   A(29,31,32)           109.5052         calculate D2E/DX2 analytically  !
 ! A56   A(29,31,33)           109.5023         calculate D2E/DX2 analytically  !
 ! A57   A(29,31,34)           109.5052         calculate D2E/DX2 analytically  !
 ! A58   A(32,31,33)           109.4394         calculate D2E/DX2 analytically  !
 ! A59   A(32,31,34)           109.4399         calculate D2E/DX2 analytically  !
 ! A60   A(33,31,34)           109.4352         calculate D2E/DX2 analytically  !
 ! A61   A(29,35,36)           120.5025         calculate D2E/DX2 analytically  !
 ! A62   A(29,35,37)           116.5971         calculate D2E/DX2 analytically  !
 ! A63   A(36,35,37)           122.9004         calculate D2E/DX2 analytically  !
 ! A64   A(35,37,38)           120.0014         calculate D2E/DX2 analytically  !
 ! A65   A(35,37,39)           121.9002         calculate D2E/DX2 analytically  !
 ! A66   A(38,37,39)           118.0985         calculate D2E/DX2 analytically  !
 ! A67   A(37,39,40)           109.5021         calculate D2E/DX2 analytically  !
 ! A68   A(37,39,41)           109.497          calculate D2E/DX2 analytically  !
 ! A69   A(37,39,42)           109.4985         calculate D2E/DX2 analytically  !
 ! A70   A(40,39,41)           109.4429         calculate D2E/DX2 analytically  !
 ! A71   A(40,39,42)           109.4444         calculate D2E/DX2 analytically  !
 ! A72   A(41,39,42)           109.4423         calculate D2E/DX2 analytically  !
 ! D1    D(1,2,5,6)             -0.0022         calculate D2E/DX2 analytically  !
 ! D2    D(1,2,5,7)           -179.9987         calculate D2E/DX2 analytically  !
 ! D3    D(3,2,5,6)            120.5139         calculate D2E/DX2 analytically  !
 ! D4    D(3,2,5,7)            -59.4827         calculate D2E/DX2 analytically  !
 ! D5    D(4,2,5,6)           -120.5158         calculate D2E/DX2 analytically  !
 ! D6    D(4,2,5,7)             59.4876         calculate D2E/DX2 analytically  !
 ! D7    D(2,5,7,8)             -0.0058         calculate D2E/DX2 analytically  !
 ! D8    D(2,5,7,9)           -179.9989         calculate D2E/DX2 analytically  !
 ! D9    D(6,5,7,8)            179.9977         calculate D2E/DX2 analytically  !
 ! D10   D(6,5,7,9)              0.0046         calculate D2E/DX2 analytically  !
 ! D11   D(5,7,9,10)           -60.0044         calculate D2E/DX2 analytically  !
 ! D12   D(5,7,9,11)            59.997          calculate D2E/DX2 analytically  !
 ! D13   D(5,7,9,15)           179.9991         calculate D2E/DX2 analytically  !
 ! D14   D(8,7,9,10)           120.0023         calculate D2E/DX2 analytically  !
 ! D15   D(8,7,9,11)          -119.9962         calculate D2E/DX2 analytically  !
 ! D16   D(8,7,9,15)             0.0059         calculate D2E/DX2 analytically  !
 ! D17   D(7,9,11,12)           60.0032         calculate D2E/DX2 analytically  !
 ! D18   D(7,9,11,13)          179.9981         calculate D2E/DX2 analytically  !
 ! D19   D(7,9,11,14)          -59.9993         calculate D2E/DX2 analytically  !
 ! D20   D(10,9,11,12)        -179.4858         calculate D2E/DX2 analytically  !
 ! D21   D(10,9,11,13)         -59.4909         calculate D2E/DX2 analytically  !
 ! D22   D(10,9,11,14)          60.5117         calculate D2E/DX2 analytically  !
 ! D23   D(15,9,11,12)         -61.9399         calculate D2E/DX2 analytically  !
 ! D24   D(15,9,11,13)          58.055          calculate D2E/DX2 analytically  !
 ! D25   D(15,9,11,14)         178.0576         calculate D2E/DX2 analytically  !
 ! D26   D(7,9,15,16)           -0.0028         calculate D2E/DX2 analytically  !
 ! D27   D(7,9,15,17)          179.9973         calculate D2E/DX2 analytically  !
 ! D28   D(10,9,15,16)        -120.5094         calculate D2E/DX2 analytically  !
 ! D29   D(10,9,15,17)          59.4906         calculate D2E/DX2 analytically  !
 ! D30   D(11,9,15,16)         121.944          calculate D2E/DX2 analytically  !
 ! D31   D(11,9,15,17)         -58.056          calculate D2E/DX2 analytically  !
 ! D32   D(9,15,17,18)          -0.0005         calculate D2E/DX2 analytically  !
 ! D33   D(9,15,17,19)         179.9968         calculate D2E/DX2 analytically  !
 ! D34   D(16,15,17,18)        179.9995         calculate D2E/DX2 analytically  !
 ! D35   D(16,15,17,19)         -0.0032         calculate D2E/DX2 analytically  !
 ! D36   D(15,17,19,20)        -29.9927         calculate D2E/DX2 analytically  !
 ! D37   D(15,17,19,21)         90.0016         calculate D2E/DX2 analytically  !
 ! D38   D(15,17,19,25)       -149.9974         frozen, calculate D2E/DX2 analyt!
 ! D39   D(18,17,19,20)        150.0046         calculate D2E/DX2 analytically  !
 ! D40   D(18,17,19,21)        -90.0011         calculate D2E/DX2 analytically  !
 ! D41   D(18,17,19,25)         29.9999         calculate D2E/DX2 analytically  !
 ! D42   D(17,19,21,22)         60.0039         calculate D2E/DX2 analytically  !
 ! D43   D(17,19,21,23)       -179.9943         calculate D2E/DX2 analytically  !
 ! D44   D(17,19,21,24)        -59.998          calculate D2E/DX2 analytically  !
 ! D45   D(20,19,21,22)       -179.4919         calculate D2E/DX2 analytically  !
 ! D46   D(20,19,21,23)        -59.4901         calculate D2E/DX2 analytically  !
 ! D47   D(20,19,21,24)         60.5062         calculate D2E/DX2 analytically  !
 ! D48   D(25,19,21,22)        -61.9445         calculate D2E/DX2 analytically  !
 ! D49   D(25,19,21,23)         58.0573         calculate D2E/DX2 analytically  !
 ! D50   D(25,19,21,24)        178.0536         calculate D2E/DX2 analytically  !
 ! D51   D(17,19,25,26)        180.0            calculate D2E/DX2 analytically  !
 ! D52   D(17,19,25,27)          0.0            frozen, calculate D2E/DX2 analyt!
 ! D53   D(20,19,25,26)         59.4883         calculate D2E/DX2 analytically  !
 ! D54   D(20,19,25,27)       -120.5117         calculate D2E/DX2 analytically  !
 ! D55   D(21,19,25,26)        -58.0558         calculate D2E/DX2 analytically  !
 ! D56   D(21,19,25,27)        121.9442         calculate D2E/DX2 analytically  !
 ! D57   D(19,25,27,28)          0.0            calculate D2E/DX2 analytically  !
 ! D58   D(19,25,27,29)        180.0            calculate D2E/DX2 analytically  !
 ! D59   D(26,25,27,28)        180.0            calculate D2E/DX2 analytically  !
 ! D60   D(26,25,27,29)          0.0            calculate D2E/DX2 analytically  !
 ! D61   D(25,27,29,30)        -59.9996         calculate D2E/DX2 analytically  !
 ! D62   D(25,27,29,31)         60.002          calculate D2E/DX2 analytically  !
 ! D63   D(25,27,29,35)        180.0            calculate D2E/DX2 analytically  !
 ! D64   D(28,27,29,30)        120.0004         calculate D2E/DX2 analytically  !
 ! D65   D(28,27,29,31)       -119.998          calculate D2E/DX2 analytically  !
 ! D66   D(28,27,29,35)          0.0            calculate D2E/DX2 analytically  !
 ! D67   D(27,29,31,32)         59.9983         calculate D2E/DX2 analytically  !
 ! D68   D(27,29,31,33)        179.9992         calculate D2E/DX2 analytically  !
 ! D69   D(27,29,31,34)        -60.005          calculate D2E/DX2 analytically  !
 ! D70   D(30,29,31,32)       -179.4887         calculate D2E/DX2 analytically  !
 ! D71   D(30,29,31,33)        -59.4878         calculate D2E/DX2 analytically  !
 ! D72   D(30,29,31,34)         60.5079         calculate D2E/DX2 analytically  !
 ! D73   D(35,29,31,32)        -61.9409         calculate D2E/DX2 analytically  !
 ! D74   D(35,29,31,33)         58.0601         calculate D2E/DX2 analytically  !
 ! D75   D(35,29,31,34)        178.0558         calculate D2E/DX2 analytically  !
 ! D76   D(27,29,35,36)          0.0            calculate D2E/DX2 analytically  !
 ! D77   D(27,29,35,37)        180.0            calculate D2E/DX2 analytically  !
 ! D78   D(30,29,35,36)       -120.5111         calculate D2E/DX2 analytically  !
 ! D79   D(30,29,35,37)         59.4889         calculate D2E/DX2 analytically  !
 ! D80   D(31,29,35,36)        121.9417         calculate D2E/DX2 analytically  !
 ! D81   D(31,29,35,37)        -58.0583         calculate D2E/DX2 analytically  !
 ! D82   D(29,35,37,38)          0.0            calculate D2E/DX2 analytically  !
 ! D83   D(29,35,37,39)        180.0            calculate D2E/DX2 analytically  !
 ! D84   D(36,35,37,38)        180.0            calculate D2E/DX2 analytically  !
 ! D85   D(36,35,37,39)          0.0            calculate D2E/DX2 analytically  !
 ! D86   D(35,37,39,40)          0.0            calculate D2E/DX2 analytically  !
 ! D87   D(35,37,39,41)        120.0            calculate D2E/DX2 analytically  !
 ! D88   D(35,37,39,42)       -120.0028         calculate D2E/DX2 analytically  !
 ! D89   D(38,37,39,40)        180.0            calculate D2E/DX2 analytically  !
 ! D90   D(38,37,39,41)        -60.0            calculate D2E/DX2 analytically  !
 ! D91   D(38,37,39,42)         59.9972         calculate D2E/DX2 analytically  !
 --------------------------------------------------------------------------------
 Trust Radius=3.00D-01 FncErr=1.00D-07 GrdErr=1.00D-07
 Number of steps in this run= 252 maximum allowed number of steps= 252.
 GradGradGradGradGradGradGradGradGradGradGradGradGradGradGradGradGradGrad

                          Input orientation:                          
 ---------------------------------------------------------------------
 Center     Atomic      Atomic             Coordinates (Angstroms)
 Number     Number       Type             X           Y           Z
 ---------------------------------------------------------------------
      1          1           0        2.515300    1.000000   -1.923000
      2          6           0        2.515300    2.090000   -1.923000
      3          1           0        1.625500    2.453900   -1.409300
      4          1           0        2.515300    2.453900   -2.950500
      5          6           0        3.751500    2.640800   -1.209300
      6          8           0        4.585600    1.877400   -0.727700
      7          7           0        3.862300    3.969700   -1.145300
      8          1           0        3.150200    4.556200   -1.556500
      9          6           0        4.986300    4.613900   -0.496400
     10          1           0        5.021400    4.315500    0.551400
     11          6           0        6.302100    4.220800   -1.159400
     12          1           0        6.285700    4.521400   -2.207100
     13          1           0        7.128300    4.718900   -0.652000
     14          1           0        6.434200    3.140900   -1.093800
     15          6           0        4.864500    6.129400   -0.566700
     16          8           0        3.901500    6.652700   -1.122700
     17          7           0        5.846000    6.834900    0.000000
     18          1           0        6.617600    6.359200    0.445500
     19          6           0        5.846100    8.283900    0.000000
     20          1           0        5.332300    8.647700   -0.889800
     21          6           0        5.134700    8.832900    1.232200
     22          1           0        5.643100    8.484600    2.131200
     23          1           0        5.149900    9.922400    1.205800
     24          1           0        4.101900    8.484600    1.241400
     25          6           0        7.266000    8.831800    0.000000
     26          8           0        7.466700   10.044300    0.000000
     27          7           0        8.253400    7.933300    0.000000
     28          1           0        8.038300    6.946500    0.000000
     29          6           0        9.647700    8.327900    0.000000
     30          1           0        9.857900    8.921300   -0.889800
     31          6           0        9.982200    9.161800    1.232100
     32          1           0        9.785500    8.577800    2.131200
     33          1           0       11.034800    9.443900    1.205800
     34          1           0        9.365900   10.060800    1.241400
     35          6           0       10.561500    7.110700    0.000000
     36          8           0       10.089200    5.976100    0.000000
     37          7           0       11.875000    7.349400    0.000000
     38          1           0       12.215500    8.300300    0.000000
     39          6           0       12.848300    6.276000    0.000000
     40          1           0       12.331600    5.316300    0.000000
     41          1           0       13.473300    6.351600   -0.889900
     42          1           0       13.473300    6.351600    0.889800
 ---------------------------------------------------------------------
                    Distance matrix (angstroms):
                    1          2          3          4          5
     1  H    0.000000
     2  C    1.090000   0.000000
     3  H    1.780297   1.089979   0.000000
     4  H    1.780332   1.090036   1.779618   0.000000
     5  C    2.174806   1.530013   2.143550   2.143572   0.000000
     6  O    2.546510   2.400017   3.091783   3.091817   1.229000
     7  N    3.352364   2.439774   2.714889   2.714923   1.335046
     8  H    3.630975   2.572851   2.601162   2.601153   2.037368
     9  C    4.604487   3.809344   4.098044   4.098054   2.434354
    10  H    4.836914   4.166058   4.340741   4.691417   2.741775
    11  C    5.029562   4.411717   5.005494   4.546408   3.000742
    12  H    5.166903   4.495368   5.160281   4.363842   3.309748
    13  H    6.060151   5.459517   5.998711   5.629662   4.003981
    14  H    4.541894   4.141225   4.867762   4.390567   2.731359
    15  C    5.802502   4.865701   4.970955   4.970970   3.717800
    16  O    5.874951   4.835314   4.784583   4.784592   4.015637
    17  N    6.988387   6.107828   6.244350   6.244371   4.841468
    18  H    7.152600   6.376890   6.603992   6.604018   4.977890
    19  C    8.236951   7.290854   7.334064   7.334070   6.139571
    20  H    8.215248   7.211548   7.236947   7.109510   6.219635
    21  C    8.841429   7.891973   7.744911   8.065226   6.798255
    22  H    9.068567   8.192105   8.065085   8.483876   6.991930
    23  H    9.815280   8.836119   8.662484   8.943961   7.798072
    24  H    8.279491   7.309011   7.037621   7.513898   6.346551
    25  C    9.359710   8.468704   8.630120   8.482465   7.220983
    26  O   10.488739   9.564789   9.680905   9.530791   8.371196
    27  N    9.202954   8.412364   8.714299   8.464932   7.052664
    28  H    8.340403   7.601779   7.955727   7.706649   6.195007
    29  C   10.405151   9.668529  10.042196   9.699508   8.280742
    30  H   10.850266  10.082060  10.481868   9.999376   8.765551
    31  C   11.503227  10.757305  11.036637  10.874036   9.343741
    32  H   11.256793  10.553857  10.799208  10.778758   9.100333
    33  H   12.396399  11.681229  12.009737  11.777810  10.254820
    34  H   11.791618  10.976238  11.171613  11.061992   9.622049
    35  C   10.284936   9.677122  10.174675   9.753593   8.235200
    36  O    9.264095   8.727180   9.275033   8.858629   7.263131
    37  N   11.472436  10.907025  11.445711  10.967012   9.467026
    38  H   12.291712  11.677313  12.178449  11.703834  10.253372
    39  C   11.760314  11.313329  11.939255  11.405472   9.870606
    40  H   10.894408  10.510313  11.171394  10.642299   9.068562
    41  H   12.238655  11.802809  12.483277  11.811685  10.410833
    42  H   12.515160  12.089286  12.682598  12.248173  10.615538
                    6          7          8          9         10
     6  O    0.000000
     7  N    2.252836   0.000000
     8  H    3.150119   1.010027   0.000000
     9  C    2.775336   1.448945   2.120944   0.000000
    10  H    2.787535   2.083718   2.828881   1.090027   0.000000
    11  C    2.936709   2.452728   3.194473   1.524935   2.139158
    12  H    3.474147   2.702713   3.202476   2.150230   3.041409
    13  H    3.813814   3.386946   4.082875   2.150209   2.459661
    14  H    2.268873   2.702634   3.605804   2.150123   2.466247
    15  C    4.264178   2.450201   2.528535   1.522011   2.136586
    16  O    4.840197   2.683382   2.268909   2.392854   3.085335
    17  N    5.166717   3.668262   3.857785   2.432763   2.707653
    18  H    5.058849   3.978949   4.391090   2.567954   2.595338
    19  C    6.569753   4.884618   4.856575   3.801916   4.090522
    20  H    6.813281   4.910180   4.684701   4.067680   4.576207
    21  C    7.247186   5.560775   5.477705   4.561802   4.569817
    22  H    7.276449   5.855854   5.936835   4.724192   4.501519
    23  H    8.293303   6.528417   6.358082   5.577134   5.646422
    24  H    6.911325   5.112540   4.915924   4.334101   4.324694
    25  C    7.488509   6.044576   6.135410   4.820179   5.073385
    26  O    8.690716   7.155709   7.153608   5.990663   6.253214
    27  N    7.117319   6.025247   6.314281   4.683884   4.882453
    28  H    6.176282   5.254715   5.659483   3.873260   4.040778
    29  C    8.231850   7.333244   7.672413   5.980707   6.148662
    30  H    8.799997   7.780157   8.030680   6.514672   6.832436
    31  C    9.275052   8.370371   8.698509   6.973530   6.968466
    32  H    8.950287   8.188671   8.590670   6.756412   6.584802
    33  H   10.128303   9.324124   9.679196   7.925323   7.930303
    34  H    9.679703   8.549120   8.761495   7.202053   7.235969
    35  C    7.976738   7.487114   7.992217   6.128889   6.229759
    36  O    6.900616   6.641659   7.251795   5.304865   5.361365
    37  N    9.143724   8.771399   9.292298   7.428564   7.515346
    38  H    9.999928   9.478489   9.930793   8.130024   8.242436
    39  C    9.388793   9.347670   9.971637   8.051089   8.087519
    40  H    8.506239   8.651826   9.343369   7.395486   7.398964
    41  H    9.951683   9.905049  10.499248   8.672002   8.812359
    42  H   10.080971  10.108729  10.759844   8.773273   8.700278
                   11         12         13         14         15
    11  C    0.000000
    12  H    1.090094   0.000000
    13  H    1.090030   1.779696   0.000000
    14  H    1.089926   1.779682   1.779620   0.000000
    15  C    2.461857   2.701182   2.668628   3.416566   0.000000
    16  O    3.417362   3.376799   3.791224   4.329913   1.228962
    17  N    2.895817   3.227524   2.558682   3.897180   1.334999
    18  H    2.692211   3.244064   2.038604   3.572189   2.037331
    19  C    4.249815   4.384170   3.844264   5.290814   2.434452
    20  H    4.539894   4.435155   4.326388   5.619666   2.581679
    21  C    5.324851   5.634059   4.944658   6.284731   3.258521
    22  H    5.426078   5.911069   4.912486   6.291390   3.664949
    23  H    6.279329   6.489124   5.868722   7.275048   4.196434
    24  H    5.365138   5.689296   5.188888   6.280757   3.065575
    25  C    4.851251   4.940833   4.166535   5.854454   3.659415
    26  O    6.050922   6.063701   5.375826   7.065365   4.734874
    27  N    4.351372   4.514886   3.467466   5.241468   3.880702
    28  H    3.433371   3.718065   2.493072   4.272251   3.325930
    29  C    5.422686   5.537488   4.449423   6.199028   5.294672
    30  H    5.900093   5.818506   5.016715   6.721336   5.730021
    31  C    6.608774   6.857516   5.606598   7.365416   6.214659
    32  H    6.476540   6.893753   5.449589   7.154839   6.122873
    33  H    7.434608   7.644138   6.406074   8.135201   7.224975
    34  H    7.018284   7.215590   6.093251   7.869755   6.244016
    35  C    5.276194   5.464269   4.234699   5.830121   5.808606
    36  O    4.332137   4.631852   3.282162   4.753292   5.257579
    37  N    6.495349   6.641472   5.465876   6.964925   7.138393
    38  H    7.277007   7.369797   6.255488   7.825550   7.685776
    39  C    6.958505   7.142663   5.963897   7.222599   8.005230
    40  H    6.236922   6.485065   5.277909   6.380289   7.532587
    41  H    7.485923   7.533010   6.556015   7.739451   8.617730
    42  H    7.756651   8.037538   6.730667   7.987001   8.733968
                   16         17         18         19         20
    16  O    0.000000
    17  N    2.252717   0.000000
    18  H    3.150015   1.010014   0.000000
    19  C    2.775381   1.449000   2.120885   0.000000
    20  H    2.466061   2.083717   2.944869   1.089993   0.000000
    21  C    3.437966   2.452808   2.989495   1.525060   2.139212
    22  H    4.120303   2.702719   2.882457   2.150233   3.041322
    23  H    4.203731   3.386911   3.927925   2.150193   2.459608
    24  H    2.997497   2.702678   3.388145   2.150253   2.466272
    25  C    4.162787   2.450308   2.594734   1.521943   2.136547
    26  O    5.047183   3.595402   3.807808   2.392771   2.701462
    27  N    4.673267   2.646140   2.313461   2.432697   3.136070
    28  H    4.296497   2.195139   1.600556   2.567952   3.317870
    29  C    6.089792   4.084357   3.640845   3.801855   4.417770
    30  H    6.378047   4.608704   4.341305   4.158433   4.533863
    31  C    6.986815   4.903130   4.449027   4.404101   5.136957
    32  H    6.993950   4.806181   4.218929   4.488570   5.381665
    33  H    8.006040   5.931651   5.441056   5.451803   6.127314
    34  H    6.860305   4.933275   4.678510   4.133696   4.775855
    35  C    6.769477   4.723559   4.039501   4.859156   5.522558
    36  O    6.325020   4.329236   3.520972   4.830097   5.527865
    37  N    8.082237   6.050913   5.368354   6.100895   6.729357
    38  H    8.549716   6.535895   5.941618   6.369421   6.949163
    39  C    9.024832   7.024569   6.247161   7.284399   7.931391
    40  H    8.608891   6.661017   5.825453   7.132206   7.802575
    41  H    9.579364   7.694232   6.984552   7.918326   8.458602
    42  H    9.785713   7.694220   6.870086   7.918315   8.643780
                   21         22         23         24         25
    21  C    0.000000
    22  H    1.089947   0.000000
    23  H    1.089926   1.779573   0.000000
    24  H    1.089988   1.779618   1.779562   0.000000
    25  C    2.461861   2.701179   2.668565   3.416599   0.000000
    26  O    2.902418   3.209392   2.614646   3.910961   1.228998
    27  N    3.471871   3.414617   3.878426   4.368061   1.335013
    28  H    3.675284   3.555945   4.318887   4.404778   2.037352
    29  C    4.705370   4.539096   4.922051   5.685202   2.434422
    30  H    5.178737   5.204007   5.249667   6.153394   2.741842
    31  C    4.858645   4.482719   4.891863   5.919173   3.000785
    32  H    4.743756   4.143448   4.914581   5.753585   3.309745
    33  H    5.931711   5.554012   5.904321   6.999045   4.004057
    34  H    4.405778   4.139492   4.218421   5.494916   2.731500
    35  C    5.825328   5.533559   6.216512   6.719755   3.717863
    36  O    5.850358   5.531943   6.436142   6.609191   4.015654
    37  N    7.010758   6.683358   7.300771   7.953039   4.841528
    38  H    7.206921   6.911760   7.349004   8.210088   4.977956
    39  C    8.219226   7.831656   8.603229   9.105960   6.139559
    40  H    8.104330   7.701699   8.616666   8.905457   6.165958
    41  H    8.955021   8.659605   9.296320   9.844555   6.743433
    42  H    8.706683   8.209921   9.062530   9.617507   6.743420
                   26         27         28         29         30
    26  O    0.000000
    27  N    2.252824   0.000000
    28  H    3.150094   1.009971   0.000000
    29  C    2.775390   1.449062   2.120951   0.000000
    30  H    2.787599   2.083821   2.828873   1.089978   0.000000
    31  C    2.936770   2.452760   3.194428   1.524910   2.139100
    32  H    3.474114   2.702725   3.202477   2.150221   3.041328
    33  H    3.813892   3.387042   4.082888   2.150222   2.459623
    34  H    2.268988   2.702774   3.605892   2.150216   2.466280
    35  C    4.264246   2.450305   2.528537   1.522040   2.136602
    36  O    4.840223   2.683429   2.268891   2.392882   3.085360
    37  N    5.166778   3.668368   3.857797   2.432761   2.707638
    38  H    5.058917   3.979061   4.391102   2.567948   2.595316
    39  C    6.569757   4.884644   4.856508   3.801859   4.090458
    40  H    6.783895   4.845658   4.592382   4.033987   4.461722
    41  H    7.106842   5.526396   5.539409   4.396919   4.435592
    42  H    7.106829   5.526380   5.539393   4.396899   4.779273
                   31         32         33         34         35
    31  C    0.000000
    32  H    1.090013   0.000000
    33  H    1.090064   1.779675   0.000000
    34  H    1.090006   1.779634   1.779624   0.000000
    35  C    2.461843   2.701217   2.668668   3.416668   0.000000
    36  O    3.417339   3.376846   3.791273   4.330013   1.228977
    37  N    2.895782   3.227536   2.558675   3.897223   1.335013
    38  H    2.692189   3.244059   2.038585   3.572206   2.037367
    39  C    4.249758   4.384181   3.844259   5.290831   2.434374
    40  H    4.671790   4.654248   4.491406   5.731207   2.520541
    41  H    4.958617   5.261452   4.461004   5.930543   3.137951
    42  H    4.494683   4.482958   3.950754   5.545496   3.137922
                   36         37         38         39         40
    36  O    0.000000
    37  N    2.252784   0.000000
    38  H    3.150088   1.010025   0.000000
    39  C    2.775351   1.448965   2.120902   0.000000
    40  H    2.337455   2.083742   2.986258   1.089955   0.000000
    41  H    3.519241   2.083768   2.484233   1.090074   1.779676
    42  H    3.519215   2.083725   2.484197   1.089993   1.779626
                   41         42
    41  H    0.000000
    42  H    1.779700   0.000000
 Stoichiometry    C12H22N4O4
 Framework group  C1[X(C12H22N4O4)]
 Deg. of freedom   120
 Full point group                 C1      NOp   1
 Largest Abelian subgroup         C1      NOp   1
 Largest concise Abelian subgroup C1      NOp   1
                         Standard orientation:                         
 ---------------------------------------------------------------------
 Center     Atomic      Atomic             Coordinates (Angstroms)
 Number     Number       Type             X           Y           Z
 ---------------------------------------------------------------------
      1          1           0       -6.898022   -1.987640   -0.094014
      2          6           0       -6.302155   -1.111193   -0.348737
      3          1           0       -6.739747   -0.226635    0.114001
      4          1           0       -6.286240   -0.984049   -1.431216
      5          6           0       -4.862486   -1.260851    0.147138
      6          8           0       -4.511580   -2.274485    0.747014
      7          7           0       -4.033966   -0.245414   -0.107402
      8          1           0       -4.369219    0.567495   -0.604331
      9          6           0       -2.646581   -0.266194    0.309935
     10          1           0       -2.594355   -0.357489    1.394876
     11          6           0       -1.902998   -1.442072   -0.314423
     12          1           0       -1.938703   -1.359694   -1.400813
     13          1           0       -0.864340   -1.432684    0.016133
     14          1           0       -2.373576   -2.375434   -0.005669
     15          6           0       -1.930285    1.010774   -0.105745
     16          8           0       -2.531162    1.893137   -0.714621
     17          7           0       -0.640621    1.107599    0.225336
     18          1           0       -0.190006    0.355254    0.726385
     19          6           0        0.151580    2.272653   -0.113288
     20          1           0       -0.228417    2.715937   -1.033716
     21          6           0        0.089120    3.319650    0.993827
     22          1           0        0.474810    2.893401    1.919861
     23          1           0        0.692447    4.182744    0.712754
     24          1           0       -0.944669    3.632139    1.141153
     25          6           0        1.612842    1.900603   -0.319693
     26          8           0        2.439885    2.760690   -0.614120
     27          7           0        1.929540    0.613051   -0.164216
     28          1           0        1.214098   -0.057314    0.078263
     29          6           0        3.286052    0.132386   -0.333382
     30          1           0        3.623937    0.345944   -1.347423
     31          6           0        4.235061    0.809883    0.649334
     32          1           0        3.915017    0.597656    1.669461
     33          1           0        5.245814    0.430079    0.499786
     34          1           0        4.223922    1.886955    0.482287
     35          6           0        3.368309   -1.369305   -0.099366
     36          8           0        2.361632   -2.011317    0.191847
     37          7           0        4.573487   -1.929084   -0.227640
     38          1           0        5.371904   -1.359352   -0.468650
     39          6           0        4.783036   -3.349200   -0.030513
     40          1           0        3.835643   -3.825169    0.222278
     41          1           0        5.177223   -3.789400   -0.946538
     42          1           0        5.494221   -3.502811    0.781094
 ---------------------------------------------------------------------
 Rotational constants (GHZ):      0.4784286      0.1517959      0.1190213
 Standard basis: 6-31G(d) (6D, 7F)
 There are   344 symmetry adapted basis functions of A   symmetry.
 Integral buffers will be    131072 words long.
 Raffenetti 1 integral format.
 Two-electron integral symmetry is turned on.
   344 basis functions,   648 primitive gaussians,   344 cartesian basis functions
    77 alpha electrons       77 beta electrons
       nuclear repulsion energy      1625.0560936071 Hartrees.
 NAtoms=   42 NActive=   42 NUniq=   42 SFac= 7.50D-01 NAtFMM=   80 NAOKFM=F Big=F
 One-electron integrals computed using PRISM.
 NBasis=   344 RedAO= T  NBF=   344
 NBsUse=   344 1.00D-06 NBFU=   344
 Harris functional with IExCor=  205 diagonalized for initial guess.
 ExpMin= 1.61D-01 ExpMax= 5.48D+03 ExpMxC= 8.25D+02 IAcc=1 IRadAn=         1 AccDes= 0.00D+00
 HarFok:  IExCor=  205 AccDes= 0.00D+00 IRadAn=         1 IDoV= 1
 ScaDFX=  1.000000  1.000000  1.000000  1.000000
 FoFCou: FMM=F IPFlag=           0 FMFlag=      100000 FMFlg1=           0
         NFxFlg=           0 DoJE=T BraDBF=F KetDBF=T FulRan=T
         Omega=  0.000000  0.000000  1.000000  0.000000  0.000000 ICntrl=     500 IOpCl=  0
         NMat0=    1 NMatS0=    1 NMatT0=    0 NMatD0=    1 NMtDS0=    0 NMtDT0=    0
         I1Cent=           4 NGrid=           0.
 Petite list used in FoFCou.
 Initial guess orbital symmetries:
       Occupied  (A) (A) (A) (A) (A) (A) (A) (A) (A) (A) (A) (A)
                 (A) (A) (A) (A) (A) (A) (A) (A) (A) (A) (A) (A)
                 (A) (A) (A) (A) (A) (A) (A) (A) (A) (A) (A) (A)
                 (A) (A) (A) (A) (A) (A) (A) (A) (A) (A) (A) (A)
                 (A) (A) (A) (A) (A) (A) (A) (A) (A) (A) (A) (A)
                 (A) (A) (A) (A) (A) (A) (A) (A) (A) (A) (A) (A)
                 (A) (A) (A) (A) (A)
       Virtual   (A) (A) (A) (A) (A) (A) (A) (A) (A) (A) (A) (A)
                 (A) (A) (A) (A) (A) (A) (A) (A) (A) (A) (A) (A)
                 (A) (A) (A) (A) (A) (A) (A) (A) (A) (A) (A) (A)
                 (A) (A) (A) (A) (A) (A) (A) (A) (A) (A) (A) (A)
                 (A) (A) (A) (A) (A) (A) (A) (A) (A) (A) (A) (A)
                 (A) (A) (A) (A) (A) (A) (A) (A) (A) (A) (A) (A)
                 (A) (A) (A) (A) (A) (A) (A) (A) (A) (A) (A) (A)
                 (A) (A) (A) (A) (A) (A) (A) (A) (A) (A) (A) (A)
                 (A) (A) (A) (A) (A) (A) (A) (A) (A) (A) (A) (A)
                 (A) (A) (A) (A) (A) (A) (A) (A) (A) (A) (A) (A)
                 (A) (A) (A) (A) (A) (A) (A) (A) (A) (A) (A) (A)
                 (A) (A) (A) (A) (A) (A) (A) (A) (A) (A) (A) (A)
                 (A) (A) (A) (A) (A) (A) (A) (A) (A) (A) (A) (A)
                 (A) (A) (A) (A) (A) (A) (A) (A) (A) (A) (A) (A)
                 (A) (A) (A) (A) (A) (A) (A) (A) (A) (A) (A) (A)
                 (A) (A) (A) (A) (A) (A) (A) (A) (A) (A) (A) (A)
                 (A) (A) (A) (A) (A) (A) (A) (A) (A) (A) (A) (A)
                 (A) (A) (A) (A) (A) (A) (A) (A) (A) (A) (A) (A)
                 (A) (A) (A) (A) (A) (A) (A) (A) (A) (A) (A) (A)
                 (A) (A) (A) (A) (A) (A) (A) (A) (A) (A) (A) (A)
                 (A) (A) (A) (A) (A) (A) (A) (A) (A) (A) (A) (A)
                 (A) (A) (A) (A) (A) (A) (A) (A) (A) (A) (A) (A)
                 (A) (A) (A)
 The electronic state of the initial guess is 1-A.
 Requested convergence on RMS density matrix=1.00D-08 within 128 cycles.
 Requested convergence on MAX density matrix=1.00D-06.
 Requested convergence on             energy=1.00D-06.
 No special actions if energy rises.
 Integral accuracy reduced to 1.0D-05 until final iterations.
 Initial convergence to 1.0D-05 achieved.  Increase integral accuracy.
 SCF Done:  E(RHF) =  -984.535124400     A.U. after   15 cycles
             Convg  =    0.3353D-08             -V/T =  2.0019
 Range of M.O.s used for correlation:     1   344
 NBasis=   344 NAE=    77 NBE=    77 NFC=     0 NFV=     0
 NROrb=    344 NOA=    77 NOB=    77 NVA=   267 NVB=   267
 Symmetrizing basis deriv contribution to polar:
 IMax=3 JMax=2 DiffMx= 0.00D+00
 G2DrvN: will do    43 centers at a time, making    1 passes doing MaxLOS=2.
 Calling FoFCou, ICntrl=  3107 FMM=F I1Cent=   0 AccDes= 0.00D+00.
 FoFDir/FoFCou used for L=0 through L=2.
 End of G2Drv Frequency-dependent properties file   721 does not exist.
 End of G2Drv Frequency-dependent properties file   722 does not exist.
          IDoAtm=111111111111111111111111111111111111111111
          Differentiating once with respect to nuclear coordinates.
          There are   129 degrees of freedom in the 1st order CPHF.  IDoFFX=5.
    123 vectors produced by pass  0 Test12= 2.06D-10 1.00D-07 XBig12= 9.70D-02 5.61D-02.
 AX will form   123 AO Fock derivatives at one time.
    123 vectors produced by pass  1 Test12= 2.06D-10 1.00D-07 XBig12= 1.06D-02 4.34D-02.
    123 vectors produced by pass  2 Test12= 2.06D-10 1.00D-07 XBig12= 1.18D-04 1.90D-03.
    123 vectors produced by pass  3 Test12= 2.06D-10 1.00D-07 XBig12= 1.50D-06 2.10D-04.
    123 vectors produced by pass  4 Test12= 2.06D-10 1.00D-07 XBig12= 8.13D-09 8.86D-06.
     31 vectors produced by pass  5 Test12= 2.06D-10 1.00D-07 XBig12= 3.88D-11 7.89D-07.
 Inverted reduced A of dimension   646 with in-core refinement.
 End of Minotr Frequency-dependent properties file   721 does not exist.
 End of Minotr Frequency-dependent properties file   722 does not exist.

 **********************************************************************

            Population analysis using the SCF density.

 **********************************************************************

 Orbital symmetries:
       Occupied  (A) (A) (A) (A) (A) (A) (A) (A) (A) (A) (A) (A)
                 (A) (A) (A) (A) (A) (A) (A) (A) (A) (A) (A) (A)
                 (A) (A) (A) (A) (A) (A) (A) (A) (A) (A) (A) (A)
                 (A) (A) (A) (A) (A) (A) (A) (A) (A) (A) (A) (A)
                 (A) (A) (A) (A) (A) (A) (A) (A) (A) (A) (A) (A)
                 (A) (A) (A) (A) (A) (A) (A) (A) (A) (A) (A) (A)
                 (A) (A) (A) (A) (A)
       Virtual   (A) (A) (A) (A) (A) (A) (A) (A) (A) (A) (A) (A)
                 (A) (A) (A) (A) (A) (A) (A) (A) (A) (A) (A) (A)
                 (A) (A) (A) (A) (A) (A) (A) (A) (A) (A) (A) (A)
                 (A) (A) (A) (A) (A) (A) (A) (A) (A) (A) (A) (A)
                 (A) (A) (A) (A) (A) (A) (A) (A) (A) (A) (A) (A)
                 (A) (A) (A) (A) (A) (A) (A) (A) (A) (A) (A) (A)
                 (A) (A) (A) (A) (A) (A) (A) (A) (A) (A) (A) (A)
                 (A) (A) (A) (A) (A) (A) (A) (A) (A) (A) (A) (A)
                 (A) (A) (A) (A) (A) (A) (A) (A) (A) (A) (A) (A)
                 (A) (A) (A) (A) (A) (A) (A) (A) (A) (A) (A) (A)
                 (A) (A) (A) (A) (A) (A) (A) (A) (A) (A) (A) (A)
                 (A) (A) (A) (A) (A) (A) (A) (A) (A) (A) (A) (A)
                 (A) (A) (A) (A) (A) (A) (A) (A) (A) (A) (A) (A)
                 (A) (A) (A) (A) (A) (A) (A) (A) (A) (A) (A) (A)
                 (A) (A) (A) (A) (A) (A) (A) (A) (A) (A) (A) (A)
                 (A) (A) (A) (A) (A) (A) (A) (A) (A) (A) (A) (A)
                 (A) (A) (A) (A) (A) (A) (A) (A) (A) (A) (A) (A)
                 (A) (A) (A) (A) (A) (A) (A) (A) (A) (A) (A) (A)
                 (A) (A) (A) (A) (A) (A) (A) (A) (A) (A) (A) (A)
                 (A) (A) (A) (A) (A) (A) (A) (A) (A) (A) (A) (A)
                 (A) (A) (A) (A) (A) (A) (A) (A) (A) (A) (A) (A)
                 (A) (A) (A) (A) (A) (A) (A) (A) (A) (A) (A) (A)
                 (A) (A) (A)
 The electronic state is 1-A.
 Alpha  occ. eigenvalues --  -20.54254 -20.53961 -20.52932 -20.51272 -15.61188
 Alpha  occ. eigenvalues --  -15.61186 -15.60644 -15.58681 -11.37059 -11.36696
 Alpha  occ. eigenvalues --  -11.36137 -11.34607 -11.29825 -11.29004 -11.28722
 Alpha  occ. eigenvalues --  -11.27431 -11.23282 -11.23233 -11.22472 -11.22005
 Alpha  occ. eigenvalues --   -1.40266  -1.39854  -1.38693  -1.36940  -1.27314
 Alpha  occ. eigenvalues --   -1.25528  -1.24472  -1.23580  -1.08511  -1.06220
 Alpha  occ. eigenvalues --   -1.03327  -0.98317  -0.97047  -0.92183  -0.89992
 Alpha  occ. eigenvalues --   -0.87402  -0.83277  -0.81579  -0.78845  -0.78143
 Alpha  occ. eigenvalues --   -0.77232  -0.72320  -0.69120  -0.68923  -0.67908
 Alpha  occ. eigenvalues --   -0.65972  -0.65534  -0.64224  -0.63877  -0.62639
 Alpha  occ. eigenvalues --   -0.61787  -0.61363  -0.60547  -0.60163  -0.58549
 Alpha  occ. eigenvalues --   -0.57845  -0.57328  -0.56567  -0.56038  -0.55730
 Alpha  occ. eigenvalues --   -0.55298  -0.54720  -0.54107  -0.53248  -0.52827
 Alpha  occ. eigenvalues --   -0.52387  -0.51970  -0.50108  -0.48955  -0.43771
 Alpha  occ. eigenvalues --   -0.43568  -0.43016  -0.41328  -0.40794  -0.40430
 Alpha  occ. eigenvalues --   -0.39609  -0.38426
 Alpha virt. eigenvalues --    0.17254   0.18011   0.18838   0.19252   0.20126
 Alpha virt. eigenvalues --    0.21142   0.23916   0.25403   0.26573   0.27570
 Alpha virt. eigenvalues --    0.27801   0.28838   0.29047   0.29406   0.30235
 Alpha virt. eigenvalues --    0.30457   0.30789   0.31271   0.31538   0.32572
 Alpha virt. eigenvalues --    0.32921   0.33184   0.33568   0.34512   0.35445
 Alpha virt. eigenvalues --    0.35598   0.36804   0.37828   0.38606   0.39731
 Alpha virt. eigenvalues --    0.40510   0.41321   0.42878   0.43776   0.44329
 Alpha virt. eigenvalues --    0.47321   0.49236   0.51474   0.52828   0.53336
 Alpha virt. eigenvalues --    0.56902   0.58364   0.60407   0.62002   0.65888
 Alpha virt. eigenvalues --    0.70092   0.70959   0.71892   0.72477   0.73093
 Alpha virt. eigenvalues --    0.73666   0.74475   0.75352   0.75791   0.76335
 Alpha virt. eigenvalues --    0.76583   0.77004   0.78624   0.79672   0.80289
 Alpha virt. eigenvalues --    0.82278   0.83163   0.84769   0.85826   0.87600
 Alpha virt. eigenvalues --    0.88173   0.90017   0.91008   0.91555   0.92718
 Alpha virt. eigenvalues --    0.92946   0.93871   0.94301   0.96927   0.97171
 Alpha virt. eigenvalues --    0.98443   0.99059   0.99336   0.99764   1.00713
 Alpha virt. eigenvalues --    1.02593   1.03865   1.04662   1.05598   1.06854
 Alpha virt. eigenvalues --    1.07678   1.08967   1.09581   1.10398   1.11791
 Alpha virt. eigenvalues --    1.12100   1.12849   1.13413   1.14271   1.14909
 Alpha virt. eigenvalues --    1.15291   1.15394   1.16032   1.16316   1.16777
 Alpha virt. eigenvalues --    1.17598   1.18208   1.19207   1.19365   1.19760
 Alpha virt. eigenvalues --    1.20566   1.21402   1.21535   1.22081   1.22906
 Alpha virt. eigenvalues --    1.23888   1.25008   1.25738   1.26769   1.27214
 Alpha virt. eigenvalues --    1.31605   1.32803   1.33521   1.35444   1.36511
 Alpha virt. eigenvalues --    1.38299   1.39757   1.40605   1.42466   1.44855
 Alpha virt. eigenvalues --    1.44884   1.47377   1.49396   1.50082   1.52401
 Alpha virt. eigenvalues --    1.53279   1.54881   1.56798   1.58716   1.59174
 Alpha virt. eigenvalues --    1.61278   1.61760   1.64344   1.66329   1.67556
 Alpha virt. eigenvalues --    1.68616   1.70795   1.72940   1.73668   1.73970
 Alpha virt. eigenvalues --    1.75507   1.76167   1.79033   1.79662   1.85699
 Alpha virt. eigenvalues --    1.91378   1.92187   1.96507   1.98583   1.98820
 Alpha virt. eigenvalues --    2.00701   2.02452   2.03214   2.03855   2.04376
 Alpha virt. eigenvalues --    2.05904   2.07640   2.08757   2.10306   2.11482
 Alpha virt. eigenvalues --    2.12745   2.12879   2.13656   2.14089   2.14365
 Alpha virt. eigenvalues --    2.14878   2.15502   2.17095   2.17510   2.18629
 Alpha virt. eigenvalues --    2.20525   2.21087   2.22568   2.24404   2.24737
 Alpha virt. eigenvalues --    2.26093   2.27528   2.29629   2.30007   2.32648
 Alpha virt. eigenvalues --    2.34488   2.35217   2.36012   2.36490   2.38472
 Alpha virt. eigenvalues --    2.39434   2.40512   2.44070   2.46013   2.47123
 Alpha virt. eigenvalues --    2.49378   2.50203   2.53034   2.54021   2.57427
 Alpha virt. eigenvalues --    2.57836   2.58250   2.60668   2.61291   2.62493
 Alpha virt. eigenvalues --    2.62652   2.63263   2.64377   2.65000   2.67334
 Alpha virt. eigenvalues --    2.68303   2.70473   2.73326   2.75039   2.77130
 Alpha virt. eigenvalues --    2.77211   2.77894   2.79378   2.81866   2.84313
 Alpha virt. eigenvalues --    2.86464   2.89262   2.90659   2.92973   2.94715
 Alpha virt. eigenvalues --    2.95775   2.99040   3.00317   3.03922   3.06087
 Alpha virt. eigenvalues --    3.07289   3.09094   3.11391   3.16542   3.18874
 Alpha virt. eigenvalues --    3.21951   3.26824   3.29738   3.32167   3.33724
 Alpha virt. eigenvalues --    3.36171   3.37882   3.42372   3.51727   3.53605
 Alpha virt. eigenvalues --    3.60854   3.62851   4.38848   4.43671   4.44006
 Alpha virt. eigenvalues --    4.47786   4.49016   4.51592   4.52062   4.60056
 Alpha virt. eigenvalues --    4.62951   4.63737   4.65369   4.70516   4.73436
 Alpha virt. eigenvalues --    4.81123   4.84758   4.86655   4.88262   5.02399
 Alpha virt. eigenvalues --    5.05940   5.15135
          Condensed to atoms (all electrons):
              1          2          3          4          5          6
     1  H    0.458417   0.385670  -0.018785  -0.018751  -0.030766   0.003526
     2  C    0.385670   5.245102   0.374632   0.374852   0.377999  -0.067267
     3  H   -0.018785   0.374632   0.510916  -0.023653  -0.034539   0.001266
     4  H   -0.018751   0.374852  -0.023653   0.511926  -0.035419   0.001179
     5  C   -0.030766   0.377999  -0.034539  -0.035419   4.187104   0.587494
     6  O    0.003526  -0.067267   0.001266   0.001179   0.587494   8.209624
     7  N    0.003857  -0.120052   0.003495   0.003714   0.246369  -0.107646
     8  H   -0.000018  -0.001203   0.000641   0.000482  -0.017324   0.002016
     9  C   -0.000076   0.004563  -0.000241  -0.000092  -0.030137   0.014463
    10  H    0.000002  -0.000008  -0.000004  -0.000002  -0.001715   0.002949
    11  C    0.000006  -0.000508   0.000008   0.000030  -0.003798  -0.015812
    12  H    0.000000  -0.000041   0.000000   0.000002   0.000015  -0.000024
    13  H    0.000000   0.000006   0.000000  -0.000001   0.000261   0.000265
    14  H    0.000001   0.000302  -0.000005  -0.000025   0.000487   0.011084
    15  C    0.000000   0.000011  -0.000011  -0.000006   0.004060   0.000543
    16  O    0.000000  -0.000040  -0.000001  -0.000001   0.000289  -0.000003
    17  N    0.000000   0.000000   0.000000   0.000000  -0.000086  -0.000002
    18  H    0.000000   0.000000   0.000000   0.000000   0.000002   0.000001
    19  C    0.000000   0.000000   0.000000   0.000000   0.000001   0.000000
    20  H    0.000000   0.000000   0.000000   0.000000   0.000000   0.000000
    21  C    0.000000   0.000000   0.000000   0.000000   0.000000   0.000000
    22  H    0.000000   0.000000   0.000000   0.000000   0.000000   0.000000
    23  H    0.000000   0.000000   0.000000   0.000000   0.000000   0.000000
    24  H    0.000000   0.000000   0.000000   0.000000   0.000000   0.000000
    25  C    0.000000   0.000000   0.000000   0.000000   0.000000   0.000000
    26  O    0.000000   0.000000   0.000000   0.000000   0.000000   0.000000
    27  N    0.000000   0.000000   0.000000   0.000000   0.000000   0.000000
    28  H    0.000000   0.000000   0.000000   0.000000   0.000000   0.000000
    29  C    0.000000   0.000000   0.000000   0.000000   0.000000   0.000000
    30  H    0.000000   0.000000   0.000000   0.000000   0.000000   0.000000
    31  C    0.000000   0.000000   0.000000   0.000000   0.000000   0.000000
    32  H    0.000000   0.000000   0.000000   0.000000   0.000000   0.000000
    33  H    0.000000   0.000000   0.000000   0.000000   0.000000   0.000000
    34  H    0.000000   0.000000   0.000000   0.000000   0.000000   0.000000
    35  C    0.000000   0.000000   0.000000   0.000000   0.000000   0.000000
    36  O    0.000000   0.000000   0.000000   0.000000   0.000000   0.000000
    37  N    0.000000   0.000000   0.000000   0.000000   0.000000   0.000000
    38  H    0.000000   0.000000   0.000000   0.000000   0.000000   0.000000
    39  C    0.000000   0.000000   0.000000   0.000000   0.000000   0.000000
    40  H    0.000000   0.000000   0.000000   0.000000   0.000000   0.000000
    41  H    0.000000   0.000000   0.000000   0.000000   0.000000   0.000000
    42  H    0.000000   0.000000   0.000000   0.000000   0.000000   0.000000
              7          8          9         10         11         12
     1  H    0.003857  -0.000018  -0.000076   0.000002   0.000006   0.000000
     2  C   -0.120052  -0.001203   0.004563  -0.000008  -0.000508  -0.000041
     3  H    0.003495   0.000641  -0.000241  -0.000004   0.000008   0.000000
     4  H    0.003714   0.000482  -0.000092  -0.000002   0.000030   0.000002
     5  C    0.246369  -0.017324  -0.030137  -0.001715  -0.003798   0.000015
     6  O   -0.107646   0.002016   0.014463   0.002949  -0.015812  -0.000024
     7  N    7.421232   0.311450   0.195833  -0.041474  -0.062931   0.001557
     8  H    0.311450   0.288021  -0.026573   0.002344   0.002996   0.000237
     9  C    0.195833  -0.026573   5.025184   0.406361   0.330595  -0.042619
    10  H   -0.041474   0.002344   0.406361   0.498686  -0.045502   0.004518
    11  C   -0.062931   0.002996   0.330595  -0.045502   5.219472   0.385422
    12  H    0.001557   0.000237  -0.042619   0.004518   0.385422   0.524700
    13  H    0.004837  -0.000072  -0.042269   0.000170   0.376828  -0.024119
    14  H   -0.005443  -0.000195  -0.026637  -0.003939   0.387386  -0.020006
    15  C   -0.037260  -0.005804   0.387550  -0.039839  -0.065157  -0.003066
    16  O   -0.006376   0.020150  -0.073895   0.000933   0.000054   0.000581
    17  N    0.002820   0.000737  -0.115351   0.002237   0.003798   0.000193
    18  H    0.000007  -0.000017   0.000541   0.000526   0.001788  -0.000103
    19  C   -0.000038  -0.000023   0.003788  -0.000295  -0.000039  -0.000045
    20  H   -0.000003  -0.000005   0.000412  -0.000010  -0.000063  -0.000001
    21  C    0.000001   0.000001  -0.000361   0.000055   0.000002   0.000001
    22  H    0.000000   0.000000  -0.000004  -0.000001   0.000000   0.000000
    23  H    0.000000   0.000000   0.000003   0.000000   0.000000   0.000000
    24  H    0.000000  -0.000001   0.000024  -0.000012  -0.000001   0.000000
    25  C    0.000000   0.000000   0.000052  -0.000004  -0.000026  -0.000001
    26  O    0.000000   0.000000   0.000000   0.000000   0.000000   0.000000
    27  N    0.000000   0.000000  -0.000056  -0.000001  -0.000137  -0.000004
    28  H    0.000001   0.000000  -0.000121  -0.000006  -0.000297   0.000050
    29  C    0.000000   0.000000   0.000000   0.000000   0.000009   0.000000
    30  H    0.000000   0.000000   0.000000   0.000000   0.000000   0.000000
    31  C    0.000000   0.000000   0.000000   0.000000   0.000000   0.000000
    32  H    0.000000   0.000000   0.000000   0.000000   0.000000   0.000000
    33  H    0.000000   0.000000   0.000000   0.000000   0.000000   0.000000
    34  H    0.000000   0.000000   0.000000   0.000000   0.000000   0.000000
    35  C    0.000000   0.000000   0.000000   0.000000   0.000000  -0.000001
    36  O    0.000000   0.000000   0.000004   0.000000  -0.000332  -0.000001
    37  N    0.000000   0.000000   0.000000   0.000000   0.000000   0.000000
    38  H    0.000000   0.000000   0.000000   0.000000   0.000000   0.000000
    39  C    0.000000   0.000000   0.000000   0.000000   0.000000   0.000000
    40  H    0.000000   0.000000   0.000000   0.000000   0.000000   0.000000
    41  H    0.000000   0.000000   0.000000   0.000000   0.000000   0.000000
    42  H    0.000000   0.000000   0.000000   0.000000   0.000000   0.000000
             13         14         15         16         17         18
     1  H    0.000000   0.000001   0.000000   0.000000   0.000000   0.000000
     2  C    0.000006   0.000302   0.000011  -0.000040   0.000000   0.000000
     3  H    0.000000  -0.000005  -0.000011  -0.000001   0.000000   0.000000
     4  H   -0.000001  -0.000025  -0.000006  -0.000001   0.000000   0.000000
     5  C    0.000261   0.000487   0.004060   0.000289  -0.000086   0.000002
     6  O    0.000265   0.011084   0.000543  -0.000003  -0.000002   0.000001
     7  N    0.004837  -0.005443  -0.037260  -0.006376   0.002820   0.000007
     8  H   -0.000072  -0.000195  -0.005804   0.020150   0.000737  -0.000017
     9  C   -0.042269  -0.026637   0.387550  -0.073895  -0.115351   0.000541
    10  H    0.000170  -0.003939  -0.039839   0.000933   0.002237   0.000526
    11  C    0.376828   0.387386  -0.065157   0.000054   0.003798   0.001788
    12  H   -0.024119  -0.020006  -0.003066   0.000581   0.000193  -0.000103
    13  H    0.554788  -0.018638  -0.007455   0.000026  -0.000494   0.001914
    14  H   -0.018638   0.420641   0.004088  -0.000060   0.000096  -0.000176
    15  C   -0.007455   0.004088   4.148337   0.588005   0.258116  -0.016214
    16  O    0.000026  -0.000060   0.588005   8.210702  -0.104147   0.002226
    17  N   -0.000494   0.000096   0.258116  -0.104147   7.530066   0.302982
    18  H    0.001914  -0.000176  -0.016214   0.002226   0.302982   0.323463
    19  C    0.000333   0.000004  -0.020835   0.006702   0.121711  -0.020396
    20  H   -0.000018   0.000000  -0.000540   0.007124  -0.036258   0.003208
    21  C    0.000002   0.000000  -0.003173  -0.001966  -0.073197  -0.000226
    22  H   -0.000003   0.000000   0.000247  -0.000010  -0.000455   0.001564
    23  H    0.000000   0.000000  -0.000005  -0.000015   0.004714  -0.000036
    24  H    0.000000   0.000000   0.001991   0.002414  -0.004186  -0.000194
    25  C   -0.000018   0.000000   0.002176   0.000524  -0.041067  -0.007386
    26  O    0.000000   0.000000  -0.000042   0.000000   0.002261  -0.000062
    27  N    0.000142   0.000000   0.000433  -0.000005  -0.013722   0.009767
    28  H    0.001671   0.000015   0.000095  -0.000017   0.009583   0.002496
    29  C   -0.000061   0.000000   0.000008   0.000000   0.000441  -0.000063
    30  H   -0.000003   0.000000   0.000001   0.000000  -0.000025   0.000043
    31  C    0.000002   0.000000   0.000000   0.000000   0.000002  -0.000074
    32  H    0.000000   0.000000   0.000000   0.000000  -0.000009   0.000033
    33  H    0.000000   0.000000   0.000000   0.000000   0.000000   0.000001
    34  H    0.000000   0.000000   0.000000   0.000000  -0.000008  -0.000003
    35  C    0.000055   0.000000  -0.000001   0.000000  -0.000061  -0.000024
    36  O    0.001921   0.000001   0.000000   0.000000  -0.000068  -0.000360
    37  N    0.000003   0.000000   0.000000   0.000000   0.000000  -0.000002
    38  H    0.000000   0.000000   0.000000   0.000000   0.000000   0.000000
    39  C    0.000000   0.000000   0.000000   0.000000   0.000000   0.000000
    40  H    0.000000   0.000000   0.000000   0.000000   0.000000   0.000000
    41  H    0.000000   0.000000   0.000000   0.000000   0.000000   0.000000
    42  H    0.000000   0.000000   0.000000   0.000000   0.000000   0.000000
             19         20         21         22         23         24
     1  H    0.000000   0.000000   0.000000   0.000000   0.000000   0.000000
     2  C    0.000000   0.000000   0.000000   0.000000   0.000000   0.000000
     3  H    0.000000   0.000000   0.000000   0.000000   0.000000   0.000000
     4  H    0.000000   0.000000   0.000000   0.000000   0.000000   0.000000
     5  C    0.000001   0.000000   0.000000   0.000000   0.000000   0.000000
     6  O    0.000000   0.000000   0.000000   0.000000   0.000000   0.000000
     7  N   -0.000038  -0.000003   0.000001   0.000000   0.000000   0.000000
     8  H   -0.000023  -0.000005   0.000001   0.000000   0.000000  -0.000001
     9  C    0.003788   0.000412  -0.000361  -0.000004   0.000003   0.000024
    10  H   -0.000295  -0.000010   0.000055  -0.000001   0.000000  -0.000012
    11  C   -0.000039  -0.000063   0.000002   0.000000   0.000000  -0.000001
    12  H   -0.000045  -0.000001   0.000001   0.000000   0.000000   0.000000
    13  H    0.000333  -0.000018   0.000002  -0.000003   0.000000   0.000000
    14  H    0.000004   0.000000   0.000000   0.000000   0.000000   0.000000
    15  C   -0.020835  -0.000540  -0.003173   0.000247  -0.000005   0.001991
    16  O    0.006702   0.007124  -0.001966  -0.000010  -0.000015   0.002414
    17  N    0.121711  -0.036258  -0.073197  -0.000455   0.004714  -0.004186
    18  H   -0.020396   0.003208  -0.000226   0.001564  -0.000036  -0.000194
    19  C    5.088835   0.403969   0.347776  -0.039649  -0.036972  -0.035525
    20  H    0.403969   0.425759  -0.034652   0.003801  -0.000190  -0.003398
    21  C    0.347776  -0.034652   5.141194   0.386639   0.387224   0.391507
    22  H   -0.039649   0.003801   0.386639   0.543263  -0.021030  -0.024814
    23  H   -0.036972  -0.000190   0.387224  -0.021030   0.479327  -0.020960
    24  H   -0.035525  -0.003398   0.391507  -0.024814  -0.020960   0.493623
    25  C    0.388569  -0.030945  -0.059610  -0.006551  -0.003275   0.005635
    26  O   -0.070682   0.000726   0.000715   0.000106   0.005353   0.000096
    27  N   -0.105913   0.000901   0.000490   0.000900   0.000356  -0.000078
    28  H   -0.004344  -0.000294   0.000736  -0.000148  -0.000035  -0.000003
    29  C    0.004371  -0.000113  -0.000141  -0.000082  -0.000011   0.000003
    30  H   -0.000009   0.000020  -0.000014   0.000002   0.000000   0.000000
    31  C   -0.000659  -0.000004   0.000068   0.000016   0.000007   0.000000
    32  H   -0.000004   0.000001  -0.000013   0.000030  -0.000001   0.000000
    33  H    0.000008   0.000000  -0.000001   0.000000   0.000000   0.000000
    34  H    0.000233  -0.000001  -0.000009   0.000003   0.000006   0.000000
    35  C    0.000083  -0.000001  -0.000002  -0.000001   0.000000   0.000000
    36  O   -0.000025   0.000000   0.000000   0.000000   0.000000   0.000000
    37  N    0.000000   0.000000   0.000000   0.000000   0.000000   0.000000
    38  H    0.000000   0.000000   0.000000   0.000000   0.000000   0.000000
    39  C    0.000000   0.000000   0.000000   0.000000   0.000000   0.000000
    40  H    0.000000   0.000000   0.000000   0.000000   0.000000   0.000000
    41  H    0.000000   0.000000   0.000000   0.000000   0.000000   0.000000
    42  H    0.000000   0.000000   0.000000   0.000000   0.000000   0.000000
             25         26         27         28         29         30
     1  H    0.000000   0.000000   0.000000   0.000000   0.000000   0.000000
     2  C    0.000000   0.000000   0.000000   0.000000   0.000000   0.000000
     3  H    0.000000   0.000000   0.000000   0.000000   0.000000   0.000000
     4  H    0.000000   0.000000   0.000000   0.000000   0.000000   0.000000
     5  C    0.000000   0.000000   0.000000   0.000000   0.000000   0.000000
     6  O    0.000000   0.000000   0.000000   0.000000   0.000000   0.000000
     7  N    0.000000   0.000000   0.000000   0.000001   0.000000   0.000000
     8  H    0.000000   0.000000   0.000000   0.000000   0.000000   0.000000
     9  C    0.000052   0.000000  -0.000056  -0.000121   0.000000   0.000000
    10  H   -0.000004   0.000000  -0.000001  -0.000006   0.000000   0.000000
    11  C   -0.000026   0.000000  -0.000137  -0.000297   0.000009   0.000000
    12  H   -0.000001   0.000000  -0.000004   0.000050   0.000000   0.000000
    13  H   -0.000018   0.000000   0.000142   0.001671  -0.000061  -0.000003
    14  H    0.000000   0.000000   0.000000   0.000015   0.000000   0.000000
    15  C    0.002176  -0.000042   0.000433   0.000095   0.000008   0.000001
    16  O    0.000524   0.000000  -0.000005  -0.000017   0.000000   0.000000
    17  N   -0.041067   0.002261  -0.013722   0.009583   0.000441  -0.000025
    18  H   -0.007386  -0.000062   0.009767   0.002496  -0.000063   0.000043
    19  C    0.388569  -0.070682  -0.105913  -0.004344   0.004371  -0.000009
    20  H   -0.030945   0.000726   0.000901  -0.000294  -0.000113   0.000020
    21  C   -0.059610   0.000715   0.000490   0.000736  -0.000141  -0.000014
    22  H   -0.006551   0.000106   0.000900  -0.000148  -0.000082   0.000002
    23  H   -0.003275   0.005353   0.000356  -0.000035  -0.000011   0.000000
    24  H    0.005635   0.000096  -0.000078  -0.000003   0.000003   0.000000
    25  C    4.148427   0.560183   0.286262  -0.016382  -0.032361  -0.001207
    26  O    0.560183   8.245735  -0.101304   0.002120   0.013324   0.002795
    27  N    0.286262  -0.101304   7.451049   0.289360   0.188446  -0.040455
    28  H   -0.016382   0.002120   0.289360   0.288289  -0.027422   0.002037
    29  C   -0.032361   0.013324   0.188446  -0.027422   5.042398   0.404884
    30  H   -0.001207   0.002795  -0.040455   0.002037   0.404884   0.489555
    31  C   -0.004264  -0.014932  -0.063092   0.003553   0.335275  -0.044120
    32  H   -0.000046  -0.000014   0.001578   0.000184  -0.042894   0.004430
    33  H    0.000299   0.000248   0.004895  -0.000089  -0.041868   0.000137
    34  H    0.000701   0.009952  -0.005290  -0.000219  -0.027097  -0.003923
    35  C    0.003436   0.000423  -0.035405  -0.005988   0.378993  -0.036645
    36  O    0.000379  -0.000003  -0.007386   0.024950  -0.077673   0.000970
    37  N   -0.000083  -0.000001   0.002717   0.000807  -0.115699   0.002162
    38  H    0.000001   0.000001   0.000027  -0.000025   0.001168   0.000451
    39  C    0.000001   0.000000  -0.000050  -0.000011   0.003609  -0.000208
    40  H    0.000000   0.000000  -0.000004  -0.000011   0.000575  -0.000016
    41  H    0.000000   0.000000   0.000000   0.000000  -0.000112   0.000009
    42  H    0.000000   0.000000   0.000001   0.000000  -0.000005  -0.000001
             31         32         33         34         35         36
     1  H    0.000000   0.000000   0.000000   0.000000   0.000000   0.000000
     2  C    0.000000   0.000000   0.000000   0.000000   0.000000   0.000000
     3  H    0.000000   0.000000   0.000000   0.000000   0.000000   0.000000
     4  H    0.000000   0.000000   0.000000   0.000000   0.000000   0.000000
     5  C    0.000000   0.000000   0.000000   0.000000   0.000000   0.000000
     6  O    0.000000   0.000000   0.000000   0.000000   0.000000   0.000000
     7  N    0.000000   0.000000   0.000000   0.000000   0.000000   0.000000
     8  H    0.000000   0.000000   0.000000   0.000000   0.000000   0.000000
     9  C    0.000000   0.000000   0.000000   0.000000   0.000000   0.000004
    10  H    0.000000   0.000000   0.000000   0.000000   0.000000   0.000000
    11  C    0.000000   0.000000   0.000000   0.000000   0.000000  -0.000332
    12  H    0.000000   0.000000   0.000000   0.000000  -0.000001  -0.000001
    13  H    0.000002   0.000000   0.000000   0.000000   0.000055   0.001921
    14  H    0.000000   0.000000   0.000000   0.000000   0.000000   0.000001
    15  C    0.000000   0.000000   0.000000   0.000000  -0.000001   0.000000
    16  O    0.000000   0.000000   0.000000   0.000000   0.000000   0.000000
    17  N    0.000002  -0.000009   0.000000  -0.000008  -0.000061  -0.000068
    18  H   -0.000074   0.000033   0.000001  -0.000003  -0.000024  -0.000360
    19  C   -0.000659  -0.000004   0.000008   0.000233   0.000083  -0.000025
    20  H   -0.000004   0.000001   0.000000  -0.000001  -0.000001   0.000000
    21  C    0.000068  -0.000013  -0.000001  -0.000009  -0.000002   0.000000
    22  H    0.000016   0.000030   0.000000   0.000003  -0.000001   0.000000
    23  H    0.000007  -0.000001   0.000000   0.000006   0.000000   0.000000
    24  H    0.000000   0.000000   0.000000   0.000000   0.000000   0.000000
    25  C   -0.004264  -0.000046   0.000299   0.000701   0.003436   0.000379
    26  O   -0.014932  -0.000014   0.000248   0.009952   0.000423  -0.000003
    27  N   -0.063092   0.001578   0.004895  -0.005290  -0.035405  -0.007386
    28  H    0.003553   0.000184  -0.000089  -0.000219  -0.005988   0.024950
    29  C    0.335275  -0.042894  -0.041868  -0.027097   0.378993  -0.077673
    30  H   -0.044120   0.004430   0.000137  -0.003923  -0.036645   0.000970
    31  C    5.204497   0.385774   0.379944   0.387925  -0.062992   0.000028
    32  H    0.385774   0.524107  -0.023634  -0.020507  -0.002867   0.000625
    33  H    0.379944  -0.023634   0.560149  -0.019878  -0.006972   0.000023
    34  H    0.387925  -0.020507  -0.019878   0.425340   0.003891  -0.000063
    35  C   -0.062992  -0.002867  -0.006972   0.003891   4.139665   0.588098
    36  O    0.000028   0.000625   0.000023  -0.000063   0.588098   8.220463
    37  N    0.002229   0.000185   0.000482   0.000095   0.294045  -0.098240
    38  H    0.000008  -0.000013   0.002646  -0.000079  -0.020983   0.002341
    39  C   -0.000078  -0.000041   0.000159   0.000003  -0.025672  -0.004765
    40  H   -0.000048  -0.000001  -0.000008   0.000000  -0.002030   0.009495
    41  H   -0.000003   0.000001   0.000002   0.000000   0.000792   0.000364
    42  H    0.000010   0.000002  -0.000002  -0.000001   0.000916   0.000373
             37         38         39         40         41         42
     1  H    0.000000   0.000000   0.000000   0.000000   0.000000   0.000000
     2  C    0.000000   0.000000   0.000000   0.000000   0.000000   0.000000
     3  H    0.000000   0.000000   0.000000   0.000000   0.000000   0.000000
     4  H    0.000000   0.000000   0.000000   0.000000   0.000000   0.000000
     5  C    0.000000   0.000000   0.000000   0.000000   0.000000   0.000000
     6  O    0.000000   0.000000   0.000000   0.000000   0.000000   0.000000
     7  N    0.000000   0.000000   0.000000   0.000000   0.000000   0.000000
     8  H    0.000000   0.000000   0.000000   0.000000   0.000000   0.000000
     9  C    0.000000   0.000000   0.000000   0.000000   0.000000   0.000000
    10  H    0.000000   0.000000   0.000000   0.000000   0.000000   0.000000
    11  C    0.000000   0.000000   0.000000   0.000000   0.000000   0.000000
    12  H    0.000000   0.000000   0.000000   0.000000   0.000000   0.000000
    13  H    0.000003   0.000000   0.000000   0.000000   0.000000   0.000000
    14  H    0.000000   0.000000   0.000000   0.000000   0.000000   0.000000
    15  C    0.000000   0.000000   0.000000   0.000000   0.000000   0.000000
    16  O    0.000000   0.000000   0.000000   0.000000   0.000000   0.000000
    17  N    0.000000   0.000000   0.000000   0.000000   0.000000   0.000000
    18  H   -0.000002   0.000000   0.000000   0.000000   0.000000   0.000000
    19  C    0.000000   0.000000   0.000000   0.000000   0.000000   0.000000
    20  H    0.000000   0.000000   0.000000   0.000000   0.000000   0.000000
    21  C    0.000000   0.000000   0.000000   0.000000   0.000000   0.000000
    22  H    0.000000   0.000000   0.000000   0.000000   0.000000   0.000000
    23  H    0.000000   0.000000   0.000000   0.000000   0.000000   0.000000
    24  H    0.000000   0.000000   0.000000   0.000000   0.000000   0.000000
    25  C   -0.000083   0.000001   0.000001   0.000000   0.000000   0.000000
    26  O   -0.000001   0.000001   0.000000   0.000000   0.000000   0.000000
    27  N    0.002717   0.000027  -0.000050  -0.000004   0.000000   0.000001
    28  H    0.000807  -0.000025  -0.000011  -0.000011   0.000000   0.000000
    29  C   -0.115699   0.001168   0.003609   0.000575  -0.000112  -0.000005
    30  H    0.002162   0.000451  -0.000208  -0.000016   0.000009  -0.000001
    31  C    0.002229   0.000008  -0.000078  -0.000048  -0.000003   0.000010
    32  H    0.000185  -0.000013  -0.000041  -0.000001   0.000001   0.000002
    33  H    0.000482   0.002646   0.000159  -0.000008   0.000002  -0.000002
    34  H    0.000095  -0.000079   0.000003   0.000000   0.000000  -0.000001
    35  C    0.294045  -0.020983  -0.025672  -0.002030   0.000792   0.000916
    36  O   -0.098240   0.002341  -0.004765   0.009495   0.000364   0.000373
    37  N    7.326552   0.322565   0.183433  -0.031613  -0.046700  -0.047759
[...]
    28  H    0.000769   0.000000  -0.000285  -0.000028   0.011019  -0.000933
    29  C   -0.000008   0.000000   0.000011   0.000000   0.000025  -0.000146
    30  H    0.000000   0.000000   0.000001   0.000000  -0.000025   0.000008
    31  C    0.000000   0.000000   0.000000   0.000000  -0.000002  -0.000012
    32  H    0.000000   0.000000   0.000000   0.000000  -0.000005   0.000015
    33  H    0.000000   0.000000   0.000000   0.000000   0.000000   0.000000
    34  H    0.000000   0.000000   0.000000   0.000000  -0.000006  -0.000001
    35  C    0.000007   0.000000   0.000000   0.000000  -0.000054   0.000003
    36  O    0.000601   0.000000  -0.000002   0.000000  -0.000083  -0.000009
    37  N    0.000000   0.000000   0.000000   0.000000   0.000000   0.000000
    38  H    0.000000   0.000000   0.000000   0.000000   0.000000   0.000000
    39  C    0.000000   0.000000   0.000000   0.000000   0.000000   0.000000
    40  H    0.000000   0.000000   0.000000   0.000000   0.000000   0.000000
    41  H    0.000000   0.000000   0.000000   0.000000   0.000000   0.000000
    42  H    0.000000   0.000000   0.000000   0.000000   0.000000   0.000000
             19         20         21         22         23         24
     1  H    0.000000   0.000000   0.000000   0.000000   0.000000   0.000000
     2  C    0.000000   0.000000   0.000000   0.000000   0.000000   0.000000
     3  H    0.000000   0.000000   0.000000   0.000000   0.000000   0.000000
     4  H    0.000000   0.000000   0.000000   0.000000   0.000000   0.000000
     5  C    0.000002   0.000000   0.000000   0.000000   0.000000   0.000000
     6  O    0.000000   0.000000   0.000000   0.000000   0.000000   0.000000
     7  N   -0.000062  -0.000004   0.000007   0.000000   0.000000   0.000000
     8  H   -0.000027  -0.000009   0.000003   0.000000   0.000000  -0.000002
     9  C    0.003924   0.000412  -0.000305  -0.000013   0.000004   0.000007
    10  H   -0.000276  -0.000018   0.000051  -0.000004   0.000000  -0.000011
    11  C   -0.000223  -0.000025  -0.000002   0.000000   0.000000   0.000000
    12  H   -0.000014  -0.000002   0.000000   0.000000   0.000000   0.000000
    13  H    0.000020  -0.000004   0.000002   0.000000   0.000000   0.000000
    14  H    0.000004   0.000000   0.000000   0.000000   0.000000   0.000000
    15  C   -0.021489  -0.001961  -0.003282   0.000113   0.000005   0.002182
    16  O    0.005053   0.008107  -0.001264   0.000001  -0.000028   0.001889
    17  N    0.138489  -0.037444  -0.067365  -0.001210   0.004369  -0.003682
    18  H   -0.022688   0.003370   0.000076   0.002467  -0.000051  -0.000248
    19  C    5.089983   0.404981   0.348082  -0.037934  -0.034493  -0.036553
    20  H    0.404981   0.431933  -0.031521   0.003618  -0.000572  -0.003706
    21  C    0.348082  -0.031521   5.130255   0.387045   0.388426   0.392725
    22  H   -0.037934   0.003618   0.387045   0.542573  -0.021826  -0.027165
    23  H   -0.034493  -0.000572   0.388426  -0.021826   0.472343  -0.021856
    24  H   -0.036553  -0.003706   0.392725  -0.027165  -0.021856   0.503696
    25  C    0.390871  -0.034232  -0.054659  -0.005651  -0.002591   0.005124
    26  O   -0.076470   0.000967   0.000900   0.000297   0.005418   0.000105
    27  N   -0.105305   0.001117   0.001112   0.000537   0.000297  -0.000072
    28  H   -0.004069  -0.000193   0.000484  -0.000050  -0.000022  -0.000004
    29  C    0.004672  -0.000134  -0.000130  -0.000044  -0.000009   0.000002
    30  H    0.000244   0.000015  -0.000022   0.000000   0.000000   0.000000
    31  C   -0.000354  -0.000002   0.000031   0.000007   0.000002   0.000000
    32  H    0.000002   0.000000  -0.000003   0.000002   0.000000   0.000000
    33  H    0.000004   0.000000   0.000000   0.000000   0.000000   0.000000
    34  H    0.000075   0.000000  -0.000001   0.000005  -0.000001   0.000000
    35  C    0.000074   0.000001  -0.000001   0.000000   0.000000   0.000000
    36  O   -0.000023   0.000000   0.000000   0.000000   0.000000   0.000000
    37  N    0.000001   0.000000   0.000000   0.000000   0.000000   0.000000
    38  H    0.000000   0.000000   0.000000   0.000000   0.000000   0.000000
    39  C    0.000000   0.000000   0.000000   0.000000   0.000000   0.000000
    40  H    0.000000   0.000000   0.000000   0.000000   0.000000   0.000000
    41  H    0.000000   0.000000   0.000000   0.000000   0.000000   0.000000
    42  H    0.000000   0.000000   0.000000   0.000000   0.000000   0.000000
             25         26         27         28         29         30
     1  H    0.000000   0.000000   0.000000   0.000000   0.000000   0.000000
     2  C    0.000000   0.000000   0.000000   0.000000   0.000000   0.000000
     3  H    0.000000   0.000000   0.000000   0.000000   0.000000   0.000000
     4  H    0.000000   0.000000   0.000000   0.000000   0.000000   0.000000
     5  C    0.000000   0.000000   0.000000   0.000000   0.000000   0.000000
     6  O    0.000000   0.000000   0.000000   0.000000   0.000000   0.000000
     7  N    0.000000   0.000000   0.000000   0.000001   0.000000   0.000000
     8  H    0.000000   0.000000   0.000000   0.000000   0.000000   0.000000
     9  C   -0.000016   0.000000  -0.000033  -0.000002   0.000000   0.000000
    10  H   -0.000004   0.000000  -0.000002  -0.000006   0.000000   0.000000
    11  C    0.000007   0.000000  -0.000014   0.000011   0.000001   0.000000
    12  H   -0.000001   0.000000   0.000001  -0.000004   0.000000   0.000000
    13  H   -0.000010   0.000000  -0.000038   0.000769  -0.000008   0.000000
    14  H    0.000000   0.000000   0.000000   0.000000   0.000000   0.000000
    15  C    0.002106  -0.000043  -0.000018  -0.000285   0.000011   0.000001
    16  O    0.000319   0.000000   0.000001  -0.000028   0.000000   0.000000
    17  N   -0.040039   0.002309  -0.008726   0.011019   0.000025  -0.000025
    18  H   -0.004152  -0.000038   0.004580  -0.000933  -0.000146   0.000008
    19  C    0.390871  -0.076470  -0.105305  -0.004069   0.004672   0.000244
    20  H   -0.034232   0.000967   0.001117  -0.000193  -0.000134   0.000015
    21  C   -0.054659   0.000900   0.001112   0.000484  -0.000130  -0.000022
    22  H   -0.005651   0.000297   0.000537  -0.000050  -0.000044   0.000000
    23  H   -0.002591   0.005418   0.000297  -0.000022  -0.000009   0.000000
    24  H    0.005124   0.000105  -0.000072  -0.000004   0.000002   0.000000
    25  C    4.123802   0.579195   0.295855  -0.013522  -0.028764   0.000057
    26  O    0.579195   8.201571  -0.103130   0.001881   0.009057   0.006570
    27  N    0.295855  -0.103130   7.426233   0.297675   0.195488  -0.044714
    28  H   -0.013522   0.001881   0.297675   0.273946  -0.031367   0.002128
    29  C   -0.028764   0.009057   0.195488  -0.031367   5.048600   0.410924
    30  H    0.000057   0.006570  -0.044714   0.002128   0.410924   0.484925
    31  C   -0.002356  -0.003894  -0.063642   0.003186   0.336400  -0.041550
    32  H    0.000288  -0.000011   0.000635   0.000194  -0.038321   0.004022
    33  H    0.000035   0.000014   0.004543  -0.000070  -0.037534   0.000156
    34  H    0.001980   0.004594  -0.005605  -0.000158  -0.029519  -0.003641
    35  C    0.002930   0.000458  -0.039803  -0.006997   0.381720  -0.041828
    36  O    0.000438  -0.000005  -0.012179   0.026709  -0.073935   0.001527
    37  N   -0.000076  -0.000001   0.002599   0.001134  -0.117857   0.003192
    38  H   -0.000005   0.000000   0.000033  -0.000036   0.000479   0.001081
    39  C    0.000001   0.000000  -0.000073  -0.000037   0.004249  -0.000125
    40  H    0.000000   0.000000  -0.000002  -0.000004   0.000154  -0.000002
    41  H    0.000000   0.000000   0.000004   0.000001  -0.000163   0.000000
    42  H    0.000000   0.000000   0.000000   0.000000   0.000008  -0.000009
             31         32         33         34         35         36
     1  H    0.000000   0.000000   0.000000   0.000000   0.000000   0.000000
     2  C    0.000000   0.000000   0.000000   0.000000   0.000000   0.000000
     3  H    0.000000   0.000000   0.000000   0.000000   0.000000   0.000000
     4  H    0.000000   0.000000   0.000000   0.000000   0.000000   0.000000
     5  C    0.000000   0.000000   0.000000   0.000000   0.000000   0.000000
     6  O    0.000000   0.000000   0.000000   0.000000   0.000000   0.000000
     7  N    0.000000   0.000000   0.000000   0.000000   0.000000   0.000000
     8  H    0.000000   0.000000   0.000000   0.000000   0.000000   0.000000
     9  C    0.000000   0.000000   0.000000   0.000000   0.000000   0.000001
    10  H    0.000000   0.000000   0.000000   0.000000   0.000000   0.000000
    11  C    0.000000   0.000000   0.000000   0.000000   0.000000  -0.000083
    12  H    0.000000   0.000000   0.000000   0.000000   0.000000   0.000000
    13  H    0.000000   0.000000   0.000000   0.000000   0.000007   0.000601
    14  H    0.000000   0.000000   0.000000   0.000000   0.000000   0.000000
    15  C    0.000000   0.000000   0.000000   0.000000   0.000000  -0.000002
    16  O    0.000000   0.000000   0.000000   0.000000   0.000000   0.000000
    17  N   -0.000002  -0.000005   0.000000  -0.000006  -0.000054  -0.000083
    18  H   -0.000012   0.000015   0.000000  -0.000001   0.000003  -0.000009
    19  C   -0.000354   0.000002   0.000004   0.000075   0.000074  -0.000023
    20  H   -0.000002   0.000000   0.000000   0.000000   0.000001   0.000000
    21  C    0.000031  -0.000003   0.000000  -0.000001  -0.000001   0.000000
    22  H    0.000007   0.000002   0.000000   0.000005   0.000000   0.000000
    23  H    0.000002   0.000000   0.000000  -0.000001   0.000000   0.000000
    24  H    0.000000   0.000000   0.000000   0.000000   0.000000   0.000000
    25  C   -0.002356   0.000288   0.000035   0.001980   0.002930   0.000438
    26  O   -0.003894  -0.000011   0.000014   0.004594   0.000458  -0.000005
    27  N   -0.063642   0.000635   0.004543  -0.005605  -0.039803  -0.012179
    28  H    0.003186   0.000194  -0.000070  -0.000158  -0.006997   0.026709
    29  C    0.336400  -0.038321  -0.037534  -0.029519   0.381720  -0.073935
    30  H   -0.041550   0.004022   0.000156  -0.003641  -0.041828   0.001527
    31  C    5.140667   0.388363   0.382424   0.391853  -0.052197  -0.000651
    32  H    0.388363   0.517702  -0.024739  -0.023334  -0.003953   0.001119
    33  H    0.382424  -0.024739   0.540643  -0.023004  -0.003585   0.000015
    34  H    0.391853  -0.023334  -0.023004   0.471300   0.004098  -0.000071
    35  C   -0.052197  -0.003953  -0.003585   0.004098   4.156215   0.596400
    36  O   -0.000651   0.001119   0.000015  -0.000071   0.596400   8.182099
    37  N    0.002806   0.000396   0.002086  -0.000033   0.285320  -0.104361
    38  H    0.000366   0.000005   0.000827  -0.000045  -0.022544   0.002524
    39  C   -0.000234  -0.000015   0.000010   0.000003  -0.028582   0.008362
    40  H   -0.000011   0.000003  -0.000009   0.000000  -0.003106   0.003008
    41  H   -0.000003   0.000000   0.000003   0.000000  -0.003740   0.001252
    42  H    0.000001  -0.000001  -0.000007   0.000000   0.004522   0.000359
             37         38         39         40         41         42
     1  H    0.000000   0.000000   0.000000   0.000000   0.000000   0.000000
     2  C    0.000000   0.000000   0.000000   0.000000   0.000000   0.000000
     3  H    0.000000   0.000000   0.000000   0.000000   0.000000   0.000000
     4  H    0.000000   0.000000   0.000000   0.000000   0.000000   0.000000
     5  C    0.000000   0.000000   0.000000   0.000000   0.000000   0.000000
     6  O    0.000000   0.000000   0.000000   0.000000   0.000000   0.000000
     7  N    0.000000   0.000000   0.000000   0.000000   0.000000   0.000000
     8  H    0.000000   0.000000   0.000000   0.000000   0.000000   0.000000
     9  C    0.000000   0.000000   0.000000   0.000000   0.000000   0.000000
    10  H    0.000000   0.000000   0.000000   0.000000   0.000000   0.000000
    11  C    0.000000   0.000000   0.000000   0.000000   0.000000   0.000000
    12  H    0.000000   0.000000   0.000000   0.000000   0.000000   0.000000
    13  H    0.000000   0.000000   0.000000   0.000000   0.000000   0.000000
    14  H    0.000000   0.000000   0.000000   0.000000   0.000000   0.000000
    15  C    0.000000   0.000000   0.000000   0.000000   0.000000   0.000000
    16  O    0.000000   0.000000   0.000000   0.000000   0.000000   0.000000
    17  N    0.000000   0.000000   0.000000   0.000000   0.000000   0.000000
    18  H    0.000000   0.000000   0.000000   0.000000   0.000000   0.000000
    19  C    0.000001   0.000000   0.000000   0.000000   0.000000   0.000000
    20  H    0.000000   0.000000   0.000000   0.000000   0.000000   0.000000
    21  C    0.000000   0.000000   0.000000   0.000000   0.000000   0.000000
    22  H    0.000000   0.000000   0.000000   0.000000   0.000000   0.000000
    23  H    0.000000   0.000000   0.000000   0.000000   0.000000   0.000000
    24  H    0.000000   0.000000   0.000000   0.000000   0.000000   0.000000
    25  C   -0.000076  -0.000005   0.000001   0.000000   0.000000   0.000000
    26  O   -0.000001   0.000000   0.000000   0.000000   0.000000   0.000000
    27  N    0.002599   0.000033  -0.000073  -0.000002   0.000004   0.000000
    28  H    0.001134  -0.000036  -0.000037  -0.000004   0.000001   0.000000
    29  C   -0.117857   0.000479   0.004249   0.000154  -0.000163   0.000008
    30  H    0.003192   0.001081  -0.000125  -0.000002   0.000000  -0.000009
    31  C    0.002806   0.000366  -0.000234  -0.000011  -0.000003   0.000001
    32  H    0.000396   0.000005  -0.000015   0.000003   0.000000  -0.000001
    33  H    0.002086   0.000827   0.000010  -0.000009   0.000003  -0.000007
    34  H   -0.000033  -0.000045   0.000003   0.000000   0.000000   0.000000
    35  C    0.285320  -0.022544  -0.028582  -0.003106  -0.003740   0.004522
    36  O   -0.104361   0.002524   0.008362   0.003008   0.001252   0.000359
    37  N    7.323668   0.328611   0.194088  -0.040588  -0.045471  -0.036968
    38  H    0.328611   0.320081  -0.022084   0.002501   0.001336  -0.004557
    39  C    0.194088  -0.022084   4.909115   0.404325   0.406427   0.397465
    40  H   -0.040588   0.002501   0.404325   0.488079  -0.032757  -0.024919
    41  H   -0.045471   0.001336   0.406427  -0.032757   0.517402  -0.030539
    42  H   -0.036968  -0.004557   0.397465  -0.024919  -0.030539   0.521188
 Mulliken atomic charges:
              1
     1  H    0.208581
     2  C   -0.576383
     3  H    0.173665
     4  H    0.203068
     5  C    0.755113
     6  O   -0.620858
     7  N   -0.822570
     8  H    0.417476
     9  C   -0.033006
    10  H    0.214492
    11  C   -0.489709
    12  H    0.175851
    13  H    0.179448
    14  H    0.210101
    15  C    0.784794
    16  O   -0.617978
    17  N   -0.842473
    18  H    0.388232
    19  C   -0.046503
    20  H    0.255306
    21  C   -0.490645
    22  H    0.157232
    23  H    0.210588
    24  H    0.187567
    25  C    0.783070
    26  O   -0.629745
    27  N   -0.847352
    28  H    0.438647
    29  C   -0.033861
    30  H    0.217065
    31  C   -0.481199
    32  H    0.177636
    33  H    0.158188
    34  H    0.211510
    35  C    0.774644
    36  O   -0.633012
    37  N   -0.798545
    38  H    0.391426
    39  C   -0.272894
    40  H    0.203329
    41  H    0.186248
    42  H    0.173457
 Sum of Mulliken atomic charges =   0.00000
 Mulliken charges with hydrogens summed into heavy atoms:
              1
     2  C    0.008931
     5  C    0.755113
     6  O   -0.620858
     7  N   -0.405094
     9  C    0.181486
    11  C    0.075691
    15  C    0.784794
    16  O   -0.617978
    17  N   -0.454241
    19  C    0.208804
    21  C    0.064741
    25  C    0.783070
    26  O   -0.629745
    27  N   -0.408705
    29  C    0.183203
    31  C    0.066135
    35  C    0.774644
    36  O   -0.633012
    37  N   -0.407119
    39  C    0.290140
 Sum of Mulliken charges with hydrogens summed into heavy atoms =   0.00000
 Electronic spatial extent (au):  <R**2>=           9001.9163
 Charge=              0.0000 electrons
 Dipole moment (field-independent basis, Debye):
    X=              3.8673    Y=             -0.8176    Z=             -0.4750  Tot=              3.9812
 Quadrupole moment (field-independent basis, Debye-Ang):
   XX=            -92.6371   YY=           -133.9192   ZZ=           -125.0511
   XY=            -18.2106   XZ=              7.2620   YZ=             12.0908
 Traceless Quadrupole moment (field-independent basis, Debye-Ang):
   XX=             24.5653   YY=            -16.7167   ZZ=             -7.8486
   XY=            -18.2106   XZ=              7.2620   YZ=             12.0908
 Octapole moment (field-independent basis, Debye-Ang**2):
  XXX=            130.9097  YYY=            -29.8618  ZZZ=             -3.9995  XYY=              4.9339
  XXY=            -36.8037  XXZ=            -75.2991  XZZ=             28.1321  YZZ=              3.1416
  YYZ=             -4.4620  XYZ=            -18.5541
 Hexadecapole moment (field-independent basis, Debye-Ang**3):
 XXXX=          -7323.2378 YYYY=          -2344.9962 ZZZZ=           -494.9842 XXXY=           -449.5555
 XXXZ=            167.2367 YYYX=           -196.7208 YYYZ=             37.6757 ZZZX=             10.3624
 ZZZY=              5.9311 XXYY=          -1938.8253 XXZZ=          -1674.2600 YYZZ=           -483.5094
 XXYZ=            195.1303 YYXZ=             37.4158 ZZXY=            -33.7865
 N-N= 1.615177516748D+03 E-N=-5.538044133922D+03  KE= 9.830956305167D+02
 1\1\GINC-NODE006\FOpt\RHF\6-31G(d)\C12H22N4O4\MANAGER\26-Dec-2016\0\\#
  HF/6-31G* Opt=(ModRedundant, maxcycles=1000, calcfc) geom=nocrowd\\Ph
 i Psi fixed scan\\0,1\H,1.4643913093,1.9461133884,-0.7837775825\C,2.14
 09860458,2.3536003936,-1.5226998254\H,1.6501834582,3.1530166812,-2.064
 5117562\H,2.3884235254,1.5612382426,-2.2211701599\C,3.409676599,2.7965
 734768,-0.8270221221\O,3.9115988518,2.1433810345,0.0502227514\N,3.9484
 097488,3.9515307018,-1.2696017317\H,3.5033089646,4.4902339885,-1.97792
 07126\C,5.16334525,4.4942970708,-0.7138568716\H,5.155610055,4.31055505
 65,0.3534240769\C,6.419749854,3.8513209582,-1.3183682189\H,6.455423009
 5,4.029397012,-2.387724429\H,7.3251420465,4.2478875044,-0.8721381872\H
 ,6.3880352788,2.7843607496,-1.1415380335\C,5.1579729823,5.9969183086,-
 0.976836845\O,4.49540621,6.4814101602,-1.8531975146\N,6.0060525871,6.7
 218858991,-0.1987942766\H,6.2739964326,6.2946564044,0.6621019836\C,5.9
 797489578,8.1769018027,-0.2129243743\H,5.7323570565,8.4695104753,-1.22
 28311068\C,4.9294657971,8.7518880789,0.740396897\H,5.1310604349,8.4524
 055115,1.7652485718\H,4.9342214952,9.8317730702,0.6937742965\H,3.94738
 63282,8.389234491,0.461493144\C,7.3482374878,8.7898149417,0.0833470284
 \O,7.4656887226,9.9862729037,0.1399520344\N,8.3686462505,7.9416840839,
 0.311765172\H,8.2886263822,6.9845275274,0.0495205454\C,9.7169587562,8.
 4210386332,0.5100332589\H,9.8783674339,9.2857269112,-0.1234136985\C,9.
 9636747411,8.822333547,1.9696296857\H,9.8342172337,7.9666027917,2.6231
 533839\H,10.965388853,9.2143706626,2.1099285579\H,9.2547392343,9.58958
 75637,2.2509961353\C,10.6625627281,7.2997710847,0.0825549053\O,10.2743
 429022,6.1691291015,-0.0661907493\N,11.9476239895,7.6549281641,-0.0847
 642114\H,12.1921140505,8.6169297864,-0.0430077923\C,12.9549922094,6.69
 75812934,-0.4954161592\H,12.912746952,5.8217458187,0.1358849168\H,12.8
 131661405,6.3873059719,-1.524017218\H,13.9286536543,7.1575587525,-0.39
 61037686\\Version=EM64L-G09RevA.02\State=1-A\HF=-984.5639593\RMSD=6.16
 7e-09\RMSF=5.982e-04\Dipole=1.4513972,0.5887799,0.011493\Quadrupole=21
 .3168221,-19.8310889,-1.4857332,8.0940634,2.6183354,7.5493126\PG=C01 [
 X(C12H22N4O4)]\\@


 LOGIC IS A SYSTEMATIC METHOD OF COMING TO THE
 WRONG CONCLUSION WITH CONFIDENCE.
 Job cpu time:  0 days  2 hours 49 minutes  0.6 seconds.
 File lengths (MBytes):  RWF=    553 Int=      0 D2E=      0 Chk=     11 Scr=      1
 Normal termination of Gaussian 09 at Mon Dec 26 20:49:37 2016.
