 Entering Gaussian System, Link 0=g09
 Initial command:
 /home/steboss/Software/g09/l1.exe /home/steboss/projects/phi_psi_scan/alanine/MP2/150/5290/Gau-16768.inp -scrdir=/home/steboss/projects/phi_psi_scan/alanine/MP2/150/5290/
 Entering Link 1 = /home/steboss/Software/g09/l1.exe PID=     16770.
  
 Copyright (c) 1988,1990,1992,1993,1995,1998,2003,2009, Gaussian, Inc.
                  All Rights Reserved.
  
 This is part of the Gaussian(R) 09 program.  It is based on
 the Gaussian(R) 03 system (copyright 2003, Gaussian, Inc.),
 the Gaussian(R) 98 system (copyright 1998, Gaussian, Inc.),
 the Gaussian(R) 94 system (copyright 1995, Gaussian, Inc.),
 the Gaussian 92(TM) system (copyright 1992, Gaussian, Inc.),
 the Gaussian 90(TM) system (copyright 1990, Gaussian, Inc.),
 the Gaussian 88(TM) system (copyright 1988, Gaussian, Inc.),
 the Gaussian 86(TM) system (copyright 1986, Carnegie Mellon
 University), and the Gaussian 82(TM) system (copyright 1983,
 Carnegie Mellon University). Gaussian is a federally registered
 trademark of Gaussian, Inc.
  
 This software contains proprietary and confidential information,
 including trade secrets, belonging to Gaussian, Inc.
  
 This software is provided under written license and may be
 used, copied, transmitted, or stored only in accord with that
 written license.
  
 The following legend is applicable only to US Government
 contracts under FAR:
  
                    RESTRICTED RIGHTS LEGEND
  
 Use, reproduction and disclosure by the US Government is
 subject to restrictions as set forth in subparagraphs (a)
 and (c) of the Commercial Computer Software - Restricted
 Rights clause in FAR 52.227-19.
  
 Gaussian, Inc.
 340 Quinnipiac St., Bldg. 40, Wallingford CT 06492
  
  
 ---------------------------------------------------------------
 Warning -- This program may not be used in any manner that
 competes with the business of Gaussian, Inc. or will provide
 assistance to any competitor of Gaussian, Inc.  The licensee
 of this program is prohibited from giving any competitor of
 Gaussian, Inc. access to this program.  By using this program,
 the user acknowledges that Gaussian, Inc. is engaged in the
 business of creating and licensing software in the field of
 computational chemistry and represents and warrants to the
 licensee that it is not a competitor of Gaussian, Inc. and that
 it will not use this program in any manner prohibited above.
 ---------------------------------------------------------------
  

 Cite this work as:
 Gaussian 09, Revision A.02,
 M. J. Frisch, G. W. Trucks, H. B. Schlegel, G. E. Scuseria, 
 M. A. Robb, J. R. Cheeseman, G. Scalmani, V. Barone, B. Mennucci, 
 G. A. Petersson, H. Nakatsuji, M. Caricato, X. Li, H. P. Hratchian, 
 A. F. Izmaylov, J. Bloino, G. Zheng, J. L. Sonnenberg, M. Hada, 
 M. Ehara, K. Toyota, R. Fukuda, J. Hasegawa, M. Ishida, T. Nakajima, 
 Y. Honda, O. Kitao, H. Nakai, T. Vreven, J. A. Montgomery, Jr., 
 J. E. Peralta, F. Ogliaro, M. Bearpark, J. J. Heyd, E. Brothers, 
 K. N. Kudin, V. N. Staroverov, R. Kobayashi, J. Normand, 
 K. Raghavachari, A. Rendell, J. C. Burant, S. S. Iyengar, J. Tomasi, 
 M. Cossi, N. Rega, J. M. Millam, M. Klene, J. E. Knox, J. B. Cross, 
 V. Bakken, C. Adamo, J. Jaramillo, R. Gomperts, R. E. Stratmann, 
 O. Yazyev, A. J. Austin, R. Cammi, C. Pomelli, J. W. Ochterski, 
 R. L. Martin, K. Morokuma, V. G. Zakrzewski, G. A. Voth, 
 P. Salvador, J. J. Dannenberg, S. Dapprich, A. D. Daniels, 
 O. Farkas, J. B. Foresman, J. V. Ortiz, J. Cioslowski, 
 and D. J. Fox, Gaussian, Inc., Wallingford CT, 2009.
 
 ******************************************
 Gaussian 09:  EM64L-G09RevA.02 11-Jun-2009
                12-Feb-2017 
 ******************************************
 %chk=structure_285.chk
 %NProcShared=8
 Will use up to    8 processors via shared memory.
 -------------------
 #SP MP2/aug-cc-pVDZ
 -------------------
 1/38=1/1;
 2/12=2,17=6,18=5,40=1/2;
 3/5=16,7=10,11=9,16=1,25=1,30=1/1,2,3;
 4//1;
 5/5=2,38=5/2;
 8/10=1/1;
 9/16=-3/6;
 6/7=2,8=2,9=2,10=2/1;
 99/5=1,9=1/99;
 -------------------------------
 Single Point calculation at MP2
 -------------------------------
 Symbolic Z-matrix:
 Charge =  0 Multiplicity = 1
 H                     3.779    -1.3451    0.8233 
 C                     2.9926   -1.5152    0.0797 
 H                     2.4012   -2.3834    0.3875 
 H                     3.4845   -1.7351   -0.8712 
 C                     2.1819   -0.2317   -0.0821 
 O                     2.6524    0.7467   -0.6457 
 N                     0.9194   -0.2947    0.4547 
 H                     0.7079   -1.1234    0.995 
 C                    -0.0784    0.7783    0.5973 
 H                    -0.0297    1.1775    1.6179 
 C                     0.0741    1.9408   -0.3911 
 H                     0.095     1.6061   -1.4326 
 H                    -0.7771    2.6182   -0.2604 
 H                     1.0004    2.4854   -0.2144 
 C                    -1.4725    0.1118    0.518 
 O                    -2.1516   -0.0555    1.5247 
 N                    -1.8649   -0.2725   -0.7293 
 H                    -1.2107   -0.1612   -1.4905 
 C                    -3.1163   -0.9644   -0.9817 
 H                    -3.6939   -0.9429   -0.0568 
 H                    -3.6832   -0.4646   -1.775 
 H                    -2.9488   -2.0093   -1.2724 
 
                          Input orientation:                          
 ---------------------------------------------------------------------
 Center     Atomic      Atomic             Coordinates (Angstroms)
 Number     Number       Type             X           Y           Z
 ---------------------------------------------------------------------
      1          1           0        3.779000   -1.345100    0.823300
      2          6           0        2.992600   -1.515200    0.079700
      3          1           0        2.401200   -2.383400    0.387500
      4          1           0        3.484500   -1.735100   -0.871200
      5          6           0        2.181900   -0.231700   -0.082100
      6          8           0        2.652400    0.746700   -0.645700
      7          7           0        0.919400   -0.294700    0.454700
      8          1           0        0.707900   -1.123400    0.995000
      9          6           0       -0.078400    0.778300    0.597300
     10          1           0       -0.029700    1.177500    1.617900
     11          6           0        0.074100    1.940800   -0.391100
     12          1           0        0.095000    1.606100   -1.432600
     13          1           0       -0.777100    2.618200   -0.260400
     14          1           0        1.000400    2.485400   -0.214400
     15          6           0       -1.472500    0.111800    0.518000
     16          8           0       -2.151600   -0.055500    1.524700
     17          7           0       -1.864900   -0.272500   -0.729300
     18          1           0       -1.210700   -0.161200   -1.490500
     19          6           0       -3.116300   -0.964400   -0.981700
     20          1           0       -3.693900   -0.942900   -0.056800
     21          1           0       -3.683200   -0.464600   -1.775000
     22          1           0       -2.948800   -2.009300   -1.272400
 ---------------------------------------------------------------------
                    Distance matrix (angstroms):
                    1          2          3          4          5
     1  H    0.000000
     2  C    1.095582   0.000000
     3  H    1.779416   1.094653   0.000000
     4  H    1.763565   1.092947   1.782739   0.000000
     5  C    2.147123   1.526691   2.213240   2.140013   0.000000
     6  O    2.793352   2.399611   3.305772   2.627275   1.223226
     7  N    3.068635   2.434831   2.561819   3.226841   1.373328
     8  H    3.083875   2.492215   2.196343   3.400939   2.031736
     9  C    4.409018   3.867699   4.023528   4.600862   2.567224
    10  H    4.636927   4.330241   4.483656   5.198890   3.125223
    11  C    5.098842   4.547882   4.971953   5.037218   3.042706
    12  H    5.231684   4.519475   4.954537   4.792442   3.091361
    13  H    6.135161   5.604579   5.961323   6.122543   4.112104
    14  H    4.844602   4.478857   5.101935   4.941129   2.965818
    15  C    5.458390   4.772458   4.609621   5.469256   3.719241
    16  O    6.109586   5.539092   5.238352   6.350356   4.625157
    17  N    5.951020   5.078788   4.889044   5.547559   4.098429
    18  H    5.626046   4.686851   4.637982   4.990551   3.674003
    19  C    7.137795   6.224838   5.859273   6.646559   5.423749
    20  H    7.535289   6.712335   6.278749   7.267754   5.918739
    21  H    7.950527   7.007851   6.736329   7.335322   6.108973
    22  H    7.077882   6.113309   5.614064   6.451627   5.558845
                    6          7          8          9         10
     6  O    0.000000
     7  N    2.301887   0.000000
     8  H    3.157570   1.011632   0.000000
     9  C    3.000553   1.472165   2.095924   0.000000
    10  H    3.535977   2.102664   2.495235   1.096976   0.000000
    11  C    2.852775   2.535226   3.422323   1.533492   2.151623
    12  H    2.810351   2.802602   3.703925   2.199049   3.082985
    13  H    3.925868   3.445935   4.216732   2.146873   2.482385
    14  H    2.436843   2.860631   3.817282   2.176432   2.475688
    15  C    4.332678   2.427022   2.550959   1.547264   2.104084
    16  O    5.332221   3.260852   3.098021   2.419391   2.455898
    17  N    4.631604   3.025669   3.211937   2.460819   3.313579
    18  H    4.057279   2.887724   3.283986   2.554148   3.584554
    19  C    6.026496   4.335737   4.307799   3.841755   4.568671
    20  H    6.593715   4.686612   4.529316   4.057366   4.552700
    21  H    6.548465   5.117065   5.233419   4.490790   5.249412
    22  H    6.273893   4.570087   4.392878   4.416524   5.199103
                   11         12         13         14         15
    11  C    0.000000
    12  H    1.094159   0.000000
    13  H    1.095671   1.777346   0.000000
    14  H    1.088965   1.754118   1.783047   0.000000
    15  C    2.561967   2.914589   2.715056   3.505085   0.000000
    16  O    3.550950   4.068630   3.496356   4.406330   1.225810
    17  N    2.961891   2.804457   3.123991   4.010122   1.362873
    18  H    2.697739   2.198080   3.070215   3.677212   2.043805
    19  C    4.355186   4.138022   4.339027   5.425596   2.471717
    20  H    4.756607   4.769276   4.607668   5.815026   2.525352
    21  H    4.671020   4.322017   4.499232   5.751007   3.236863
    22  H    5.051525   4.728795   5.210967   6.076008   3.143892
                   16         17         18         19         20
    16  O    0.000000
    17  N    2.282499   0.000000
    18  H    3.160363   1.009847   0.000000
    19  C    2.835275   1.452045   2.129629   0.000000
    20  H    2.380611   2.060809   2.972008   1.090653   0.000000
    21  H    3.660762   2.106325   2.507239   1.095674   1.783563
    22  H    3.503802   2.118082   2.546376   1.097442   1.780468
                   21         22
    21  H    0.000000
    22  H    1.782708   0.000000
 Stoichiometry    C6H12N2O2
 Framework group  C1[X(C6H12N2O2)]
 Deg. of freedom    60
 Full point group                 C1      NOp   1
 Largest Abelian subgroup         C1      NOp   1
 Largest concise Abelian subgroup C1      NOp   1
                         Standard orientation:                         
 ---------------------------------------------------------------------
 Center     Atomic      Atomic             Coordinates (Angstroms)
 Number     Number       Type             X           Y           Z
 ---------------------------------------------------------------------
      1          1           0        3.778997   -1.345063    0.823290
      2          6           0        2.992598   -1.515168    0.079690
      3          1           0        2.401203   -2.383372    0.387490
      4          1           0        3.484499   -1.735065   -0.871210
      5          6           0        2.181890   -0.231673   -0.082110
      6          8           0        2.652384    0.746730   -0.645710
      7          7           0        0.919390   -0.294681    0.454690
      8          1           0        0.707896   -1.123383    0.994990
      9          6           0       -0.078416    0.778312    0.597290
     10          1           0       -0.029719    1.177513    1.617890
     11          6           0        0.074076    1.940813   -0.391110
     12          1           0        0.094978    1.606113   -1.432610
     13          1           0       -0.777128    2.618208   -0.260410
     14          1           0        1.000373    2.485419   -0.214410
     15          6           0       -1.472512    0.111804    0.517990
     16          8           0       -2.151611   -0.055501    1.524690
     17          7           0       -1.864910   -0.272499   -0.729310
     18          1           0       -1.210711   -0.161195   -1.490510
     19          6           0       -3.116305   -0.964407   -0.981710
     20          1           0       -3.693906   -0.942910   -0.056810
     21          1           0       -3.683209   -0.464610   -1.775010
     22          1           0       -2.948799   -2.009306   -1.272410
 ---------------------------------------------------------------------
 Rotational constants (GHZ):      2.2304975      0.7055076      0.6611940
 Standard basis: Aug-CC-pVDZ (5D, 7F)
 There are   338 symmetry adapted basis functions of A   symmetry.
 Integral buffers will be    131072 words long.
 Raffenetti 1 integral format.
 Two-electron integral symmetry is turned on.
   338 basis functions,   562 primitive gaussians,   358 cartesian basis functions
    39 alpha electrons       39 beta electrons
       nuclear repulsion energy       550.8011282699 Hartrees.
 NAtoms=   22 NActive=   22 NUniq=   22 SFac= 7.50D-01 NAtFMM=   80 NAOKFM=F Big=F
 One-electron integrals computed using PRISM.
 NBasis=   338 RedAO= T  NBF=   338
 NBsUse=   338 1.00D-06 NBFU=   338
 Harris functional with IExCor=  205 diagonalized for initial guess.
 ExpMin= 2.97D-02 ExpMax= 1.17D+04 ExpMxC= 4.01D+02 IAcc=3 IRadAn=         0 AccDes= 0.00D+00
 HarFok:  IExCor=  205 AccDes= 0.00D+00 IRadAn=         0 IDoV= 1
 ScaDFX=  1.000000  1.000000  1.000000  1.000000
 FoFCou: FMM=F IPFlag=           0 FMFlag=      100000 FMFlg1=           0
         NFxFlg=           0 DoJE=T BraDBF=F KetDBF=T FulRan=T
         Omega=  0.000000  0.000000  1.000000  0.000000  0.000000 ICntrl=     500 IOpCl=  0
         NMat0=    1 NMatS0=    1 NMatT0=    0 NMatD0=    1 NMtDS0=    0 NMtDT0=    0
         I1Cent=           4 NGrid=           0.
 Petite list used in FoFCou.
 Initial guess orbital symmetries:
       Occupied  (A) (A) (A) (A) (A) (A) (A) (A) (A) (A) (A) (A)
                 (A) (A) (A) (A) (A) (A) (A) (A) (A) (A) (A) (A)
                 (A) (A) (A) (A) (A) (A) (A) (A) (A) (A) (A) (A)
                 (A) (A) (A)
       Virtual   (A) (A) (A) (A) (A) (A) (A) (A) (A) (A) (A) (A)
                 (A) (A) (A) (A) (A) (A) (A) (A) (A) (A) (A) (A)
                 (A) (A) (A) (A) (A) (A) (A) (A) (A) (A) (A) (A)
                 (A) (A) (A) (A) (A) (A) (A) (A) (A) (A) (A) (A)
                 (A) (A) (A) (A) (A) (A) (A) (A) (A) (A) (A) (A)
                 (A) (A) (A) (A) (A) (A) (A) (A) (A) (A) (A) (A)
                 (A) (A) (A) (A) (A) (A) (A) (A) (A) (A) (A) (A)
                 (A) (A) (A) (A) (A) (A) (A) (A) (A) (A) (A) (A)
                 (A) (A) (A) (A) (A) (A) (A) (A) (A) (A) (A) (A)
                 (A) (A) (A) (A) (A) (A) (A) (A) (A) (A) (A) (A)
                 (A) (A) (A) (A) (A) (A) (A) (A) (A) (A) (A) (A)
                 (A) (A) (A) (A) (A) (A) (A) (A) (A) (A) (A) (A)
                 (A) (A) (A) (A) (A) (A) (A) (A) (A) (A) (A) (A)
                 (A) (A) (A) (A) (A) (A) (A) (A) (A) (A) (A) (A)
                 (A) (A) (A) (A) (A) (A) (A) (A) (A) (A) (A) (A)
                 (A) (A) (A) (A) (A) (A) (A) (A) (A) (A) (A) (A)
                 (A) (A) (A) (A) (A) (A) (A) (A) (A) (A) (A) (A)
                 (A) (A) (A) (A) (A) (A) (A) (A) (A) (A) (A) (A)
                 (A) (A) (A) (A) (A) (A) (A) (A) (A) (A) (A) (A)
                 (A) (A) (A) (A) (A) (A) (A) (A) (A) (A) (A) (A)
                 (A) (A) (A) (A) (A) (A) (A) (A) (A) (A) (A) (A)
                 (A) (A) (A) (A) (A) (A) (A) (A) (A) (A) (A) (A)
                 (A) (A) (A) (A) (A) (A) (A) (A) (A) (A) (A) (A)
                 (A) (A) (A) (A) (A) (A) (A) (A) (A) (A) (A) (A)
                 (A) (A) (A) (A) (A) (A) (A) (A) (A) (A) (A)
 The electronic state of the initial guess is 1-A.
 Requested convergence on RMS density matrix=1.00D-08 within 128 cycles.
 Requested convergence on MAX density matrix=1.00D-06.
 Requested convergence on             energy=1.00D-06.
 No special actions if energy rises.
 Initial convergence to 1.0D-05 achieved.  Increase integral accuracy.
 SCF Done:  E(RHF) =  -492.914638643     A.U. after   14 cycles
             Convg  =    0.6833D-08             -V/T =  2.0017
 ExpMin= 2.97D-02 ExpMax= 1.17D+04 ExpMxC= 4.01D+02 IAcc=3 IRadAn=         5 AccDes= 0.00D+00
 HarFok:  IExCor=  205 AccDes= 0.00D+00 IRadAn=         5 IDoV=-2
 ScaDFX=  1.000000  1.000000  1.000000  1.000000
 Range of M.O.s used for correlation:    11   338
 NBasis=   338 NAE=    39 NBE=    39 NFC=    10 NFV=     0
 NROrb=    328 NOA=    29 NOB=    29 NVA=   299 NVB=   299

 **** Warning!!: The largest alpha MO coefficient is  0.63867332D+02

 Disk-based method using OVN memory for 29 occupieds at a time.
 Estimated scratch disk usage=  1379455779 words.
 Actual    scratch disk usage=  1366423735 words.
 JobTyp=1 Pass  1:  I=   1 to  29 NPSUse=  8 ParTrn=T ParDer=T DoDerP=F.
 Spin components of T(2) and E(2):
     alpha-alpha T2 =       0.6787667533D-01 E2=     -0.2055819878D+00
     alpha-beta  T2 =       0.3768400406D+00 E2=     -0.1190210127D+01
     beta-beta   T2 =       0.6787667533D-01 E2=     -0.2055819878D+00
 ANorm=    0.1229875356D+01
 E2 =    -0.1601374103D+01 EUMP2 =    -0.49451601274579D+03

 **********************************************************************

            Population analysis using the SCF density.

 **********************************************************************

 Orbital symmetries:
       Occupied  (A) (A) (A) (A) (A) (A) (A) (A) (A) (A) (A) (A)
                 (A) (A) (A) (A) (A) (A) (A) (A) (A) (A) (A) (A)
                 (A) (A) (A) (A) (A) (A) (A) (A) (A) (A) (A) (A)
                 (A) (A) (A)
       Virtual   (A) (A) (A) (A) (A) (A) (A) (A) (A) (A) (A) (A)
                 (A) (A) (A) (A) (A) (A) (A) (A) (A) (A) (A) (A)
                 (A) (A) (A) (A) (A) (A) (A) (A) (A) (A) (A) (A)
                 (A) (A) (A) (A) (A) (A) (A) (A) (A) (A) (A) (A)
                 (A) (A) (A) (A) (A) (A) (A) (A) (A) (A) (A) (A)
                 (A) (A) (A) (A) (A) (A) (A) (A) (A) (A) (A) (A)
                 (A) (A) (A) (A) (A) (A) (A) (A) (A) (A) (A) (A)
                 (A) (A) (A) (A) (A) (A) (A) (A) (A) (A) (A) (A)
                 (A) (A) (A) (A) (A) (A) (A) (A) (A) (A) (A) (A)
                 (A) (A) (A) (A) (A) (A) (A) (A) (A) (A) (A) (A)
                 (A) (A) (A) (A) (A) (A) (A) (A) (A) (A) (A) (A)
                 (A) (A) (A) (A) (A) (A) (A) (A) (A) (A) (A) (A)
                 (A) (A) (A) (A) (A) (A) (A) (A) (A) (A) (A) (A)
                 (A) (A) (A) (A) (A) (A) (A) (A) (A) (A) (A) (A)
                 (A) (A) (A) (A) (A) (A) (A) (A) (A) (A) (A) (A)
                 (A) (A) (A) (A) (A) (A) (A) (A) (A) (A) (A) (A)
                 (A) (A) (A) (A) (A) (A) (A) (A) (A) (A) (A) (A)
                 (A) (A) (A) (A) (A) (A) (A) (A) (A) (A) (A) (A)
                 (A) (A) (A) (A) (A) (A) (A) (A) (A) (A) (A) (A)
                 (A) (A) (A) (A) (A) (A) (A) (A) (A) (A) (A) (A)
                 (A) (A) (A) (A) (A) (A) (A) (A) (A) (A) (A) (A)
                 (A) (A) (A) (A) (A) (A) (A) (A) (A) (A) (A) (A)
                 (A) (A) (A) (A) (A) (A) (A) (A) (A) (A) (A) (A)
                 (A) (A) (A) (A) (A) (A) (A) (A) (A) (A) (A) (A)
                 (A) (A) (A) (A) (A) (A) (A) (A) (A) (A) (A)
 The electronic state is 1-A.
 Alpha  occ. eigenvalues --  -20.53878 -20.53390 -15.60710 -15.60004 -11.37146
 Alpha  occ. eigenvalues --  -11.36445 -11.29907 -11.27299 -11.25205 -11.23577
 Alpha  occ. eigenvalues --   -1.39259  -1.38697  -1.25019  -1.23266  -1.06063
 Alpha  occ. eigenvalues --   -0.99511  -0.95902  -0.89377  -0.79839  -0.77886
 Alpha  occ. eigenvalues --   -0.72871  -0.69141  -0.67038  -0.64513  -0.62532
 Alpha  occ. eigenvalues --   -0.62060  -0.59622  -0.59152  -0.57027  -0.56116
 Alpha  occ. eigenvalues --   -0.55413  -0.54084  -0.53667  -0.52103  -0.51083
 Alpha  occ. eigenvalues --   -0.44067  -0.42124  -0.40197  -0.39134
 Alpha virt. eigenvalues --    0.02723   0.03693   0.04323   0.04732   0.05549
 Alpha virt. eigenvalues --    0.05970   0.06187   0.06808   0.07202   0.07772
 Alpha virt. eigenvalues --    0.08765   0.09289   0.11264   0.11961   0.12632
 Alpha virt. eigenvalues --    0.13503   0.13896   0.14228   0.14742   0.15148
 Alpha virt. eigenvalues --    0.15366   0.16133   0.16360   0.16951   0.17107
 Alpha virt. eigenvalues --    0.17546   0.17795   0.17901   0.18615   0.18900
 Alpha virt. eigenvalues --    0.19168   0.19540   0.20074   0.20955   0.22170
 Alpha virt. eigenvalues --    0.22877   0.23591   0.24731   0.25095   0.25898
 Alpha virt. eigenvalues --    0.27117   0.28110   0.28283   0.29936   0.30728
 Alpha virt. eigenvalues --    0.31284   0.31824   0.32576   0.33278   0.33499
 Alpha virt. eigenvalues --    0.34040   0.35015   0.35238   0.35670   0.36283
 Alpha virt. eigenvalues --    0.36689   0.37713   0.37776   0.39061   0.39582
 Alpha virt. eigenvalues --    0.40916   0.41100   0.41783   0.42334   0.42613
 Alpha virt. eigenvalues --    0.43304   0.43622   0.43973   0.44918   0.45494
 Alpha virt. eigenvalues --    0.45746   0.46468   0.47200   0.47545   0.48373
 Alpha virt. eigenvalues --    0.49329   0.50217   0.50960   0.51482   0.52334
 Alpha virt. eigenvalues --    0.52530   0.52783   0.54038   0.54913   0.55551
 Alpha virt. eigenvalues --    0.55870   0.56507   0.57945   0.58297   0.59289
 Alpha virt. eigenvalues --    0.59520   0.60511   0.61041   0.61731   0.62222
 Alpha virt. eigenvalues --    0.62830   0.63131   0.63781   0.64382   0.65294
 Alpha virt. eigenvalues --    0.65502   0.67007   0.67785   0.68327   0.68554
 Alpha virt. eigenvalues --    0.69212   0.70034   0.70376   0.70906   0.71675
 Alpha virt. eigenvalues --    0.72154   0.72861   0.73266   0.73646   0.74405
 Alpha virt. eigenvalues --    0.75702   0.76355   0.77142   0.77866   0.79240
 Alpha virt. eigenvalues --    0.80597   0.80705   0.81702   0.82290   0.83425
 Alpha virt. eigenvalues --    0.83665   0.85006   0.85652   0.87028   0.87732
 Alpha virt. eigenvalues --    0.88708   0.90403   0.91289   0.91910   0.93965
 Alpha virt. eigenvalues --    0.94876   0.95570   0.96115   0.97778   0.98526
 Alpha virt. eigenvalues --    0.99492   1.00392   1.01030   1.02926   1.04222
 Alpha virt. eigenvalues --    1.04777   1.07095   1.08531   1.09532   1.11685
 Alpha virt. eigenvalues --    1.12385   1.12738   1.14134   1.14743   1.15683
 Alpha virt. eigenvalues --    1.16702   1.17346   1.18994   1.19334   1.21458
 Alpha virt. eigenvalues --    1.22952   1.23445   1.25244   1.27228   1.28992
 Alpha virt. eigenvalues --    1.30312   1.31778   1.34267   1.35027   1.37420
 Alpha virt. eigenvalues --    1.39912   1.41483   1.42939   1.45691   1.47167
 Alpha virt. eigenvalues --    1.48434   1.50413   1.50872   1.52447   1.53629
 Alpha virt. eigenvalues --    1.55899   1.57427   1.57586   1.59952   1.64490
 Alpha virt. eigenvalues --    1.67677   1.68301   1.70715   1.71066   1.72144
 Alpha virt. eigenvalues --    1.72944   1.73960   1.75322   1.77774   1.80087
 Alpha virt. eigenvalues --    1.81805   1.83861   1.85334   1.87268   1.88531
 Alpha virt. eigenvalues --    1.88799   1.90015   1.92024   1.92551   1.93613
 Alpha virt. eigenvalues --    1.94130   1.95758   1.97675   1.99577   2.00219
 Alpha virt. eigenvalues --    2.02583   2.03272   2.03890   2.05920   2.08087
 Alpha virt. eigenvalues --    2.10948   2.12783   2.13296   2.15393   2.16523
 Alpha virt. eigenvalues --    2.17647   2.18987   2.19305   2.21139   2.22508
 Alpha virt. eigenvalues --    2.24860   2.25802   2.26902   2.29394   2.30670
 Alpha virt. eigenvalues --    2.31501   2.32393   2.33155   2.35509   2.37006
 Alpha virt. eigenvalues --    2.38037   2.39360   2.40491   2.43142   2.44699
 Alpha virt. eigenvalues --    2.45312   2.46754   2.48315   2.49706   2.51805
 Alpha virt. eigenvalues --    2.52065   2.55792   2.57855   2.58666   2.60449
 Alpha virt. eigenvalues --    2.63038   2.64656   2.65897   2.67079   2.69336
 Alpha virt. eigenvalues --    2.70524   2.73537   2.74273   2.75880   2.77202
 Alpha virt. eigenvalues --    2.81163   2.82663   2.84944   2.86850   2.88460
 Alpha virt. eigenvalues --    2.89544   2.92428   2.93404   2.96040   2.97027
 Alpha virt. eigenvalues --    2.97655   3.00159   3.04364   3.05677   3.07140
 Alpha virt. eigenvalues --    3.11515   3.14669   3.19999   3.21487   3.25382
 Alpha virt. eigenvalues --    3.29189   3.34713   3.41629   3.44111   3.53604
 Alpha virt. eigenvalues --    3.62530   3.66271   3.76682   3.82559   3.83301
 Alpha virt. eigenvalues --    3.85693   3.86225   3.93122   3.98255   4.02475
 Alpha virt. eigenvalues --    4.06547   4.09217   4.19468   4.25887
          Condensed to atoms (all electrons):
              1          2          3          4          5          6
     1  H    0.723428   0.357463  -0.067221  -0.051692  -0.075399   0.011496
     2  C    0.357463   4.473221   0.335698   0.366050   0.244270  -0.029966
     3  H   -0.067221   0.335698   1.116325  -0.093688   0.131678  -0.012262
     4  H   -0.051692   0.366050  -0.093688   0.758435  -0.082350   0.026303
     5  C   -0.075399   0.244270   0.131678  -0.082350   5.518070   0.164598
     6  O    0.011496  -0.029966  -0.012262   0.026303   0.164598   8.703638
     7  N    0.053190  -0.057238  -0.212506   0.047936   0.076817  -0.082879
     8  H   -0.005791  -0.051825   0.001039  -0.004063  -0.157183   0.001756
     9  C   -0.004556  -0.004284  -0.035378   0.013632  -0.328608   0.074102
    10  H   -0.003522   0.000396  -0.000208   0.001291  -0.022580   0.014001
    11  C    0.004636  -0.000582  -0.001151  -0.001536  -0.017556  -0.017015
    12  H   -0.001033  -0.001450   0.000534  -0.000116  -0.002307   0.023167
    13  H    0.000133  -0.003358  -0.001062   0.000252  -0.046131   0.004544
    14  H    0.001726   0.012319   0.001537  -0.001202   0.064933  -0.057697
    15  C    0.001784  -0.020774  -0.012984  -0.000507  -0.149102   0.008878
    16  O   -0.000038  -0.000696   0.001634  -0.000007   0.011888   0.000523
    17  N   -0.000266  -0.000017  -0.002884   0.000225   0.024901   0.001251
    18  H    0.000786   0.003153  -0.001396  -0.000013   0.002018  -0.001910
    19  C   -0.000226  -0.001359  -0.000490   0.000105  -0.001384  -0.000307
    20  H   -0.000026  -0.000087  -0.000056   0.000019  -0.001356  -0.000050
    21  H   -0.000001  -0.000220  -0.000023  -0.000067  -0.001141  -0.000070
    22  H   -0.000024   0.000347   0.000222   0.000142  -0.000107   0.000075
              7          8          9         10         11         12
     1  H    0.053190  -0.005791  -0.004556  -0.003522   0.004636  -0.001033
     2  C   -0.057238  -0.051825  -0.004284   0.000396  -0.000582  -0.001450
     3  H   -0.212506   0.001039  -0.035378  -0.000208  -0.001151   0.000534
     4  H    0.047936  -0.004063   0.013632   0.001291  -0.001536  -0.000116
     5  C    0.076817  -0.157183  -0.328608  -0.022580  -0.017556  -0.002307
     6  O   -0.082879   0.001756   0.074102   0.014001  -0.017015   0.023167
     7  N    7.870164   0.270420  -0.740054  -0.031876   0.094426  -0.026723
     8  H    0.270420   1.037580  -0.011599   0.012022  -0.037548  -0.005464
     9  C   -0.740054  -0.011599   8.113977  -0.250453  -0.238406  -0.098484
    10  H   -0.031876   0.012022  -0.250453   1.271584   0.017044   0.058708
    11  C    0.094426  -0.037548  -0.238406   0.017044   4.386645   0.361170
    12  H   -0.026723  -0.005464  -0.098484   0.058708   0.361170   1.020232
    13  H    0.131588   0.000438  -0.299175  -0.053068   0.394768  -0.120390
    14  H   -0.077923  -0.004457   0.097808  -0.015564   0.278660  -0.175559
    15  C    0.071716   0.056332  -0.357610   0.100716  -0.007533   0.022010
    16  O    0.000602   0.003817  -0.024515   0.046936   0.008255  -0.000147
    17  N    0.039959  -0.015444  -0.208899   0.057952   0.047211   0.000210
    18  H   -0.005570  -0.001047   0.053557  -0.007366  -0.023825  -0.002550
    19  C    0.007152  -0.000201  -0.117331   0.015424   0.008123   0.005971
    20  H   -0.002651  -0.000688   0.017305   0.005578  -0.011696   0.002835
    21  H    0.001174   0.000072  -0.052376  -0.002847   0.024367   0.000461
    22  H   -0.002239  -0.000791   0.032870   0.001025  -0.007235  -0.002735
             13         14         15         16         17         18
     1  H    0.000133   0.001726   0.001784  -0.000038  -0.000266   0.000786
     2  C   -0.003358   0.012319  -0.020774  -0.000696  -0.000017   0.003153
     3  H   -0.001062   0.001537  -0.012984   0.001634  -0.002884  -0.001396
     4  H    0.000252  -0.001202  -0.000507  -0.000007   0.000225  -0.000013
     5  C   -0.046131   0.064933  -0.149102   0.011888   0.024901   0.002018
     6  O    0.004544  -0.057697   0.008878   0.000523   0.001251  -0.001910
     7  N    0.131588  -0.077923   0.071716   0.000602   0.039959  -0.005570
     8  H    0.000438  -0.004457   0.056332   0.003817  -0.015444  -0.001047
     9  C   -0.299175   0.097808  -0.357610  -0.024515  -0.208899   0.053557
    10  H   -0.053068  -0.015564   0.100716   0.046936   0.057952  -0.007366
    11  C    0.394768   0.278660  -0.007533   0.008255   0.047211  -0.023825
    12  H   -0.120390  -0.175559   0.022010  -0.000147   0.000210  -0.002550
    13  H    1.268283  -0.239890   0.038376  -0.004497   0.009032  -0.000202
    14  H   -0.239890   1.086204   0.010798  -0.003348   0.005677   0.001246
    15  C    0.038376   0.010798   5.267804   0.220878   0.193263  -0.123828
    16  O   -0.004497  -0.003348   0.220878   8.702353  -0.112377   0.010313
    17  N    0.009032   0.005677   0.193263  -0.112377   7.139531   0.269361
    18  H   -0.000202   0.001246  -0.123828   0.010313   0.269361   1.021022
    19  C    0.003315   0.002516  -0.036195  -0.020042   0.246680  -0.135973
    20  H   -0.001573  -0.000132   0.003961  -0.015172  -0.053578  -0.006649
    21  H    0.001388   0.001220   0.006015   0.007789  -0.085918   0.001975
    22  H   -0.000319  -0.000020  -0.044508   0.007773   0.046111   0.006003
             19         20         21         22
     1  H   -0.000226  -0.000026  -0.000001  -0.000024
     2  C   -0.001359  -0.000087  -0.000220   0.000347
     3  H   -0.000490  -0.000056  -0.000023   0.000222
     4  H    0.000105   0.000019  -0.000067   0.000142
     5  C   -0.001384  -0.001356  -0.001141  -0.000107
     6  O   -0.000307  -0.000050  -0.000070   0.000075
     7  N    0.007152  -0.002651   0.001174  -0.002239
     8  H   -0.000201  -0.000688   0.000072  -0.000791
     9  C   -0.117331   0.017305  -0.052376   0.032870
    10  H    0.015424   0.005578  -0.002847   0.001025
    11  C    0.008123  -0.011696   0.024367  -0.007235
    12  H    0.005971   0.002835   0.000461  -0.002735
    13  H    0.003315  -0.001573   0.001388  -0.000319
    14  H    0.002516  -0.000132   0.001220  -0.000020
    15  C   -0.036195   0.003961   0.006015  -0.044508
    16  O   -0.020042  -0.015172   0.007789   0.007773
    17  N    0.246680  -0.053578  -0.085918   0.046111
    18  H   -0.135973  -0.006649   0.001975   0.006003
    19  C    4.150949   0.472406   0.385868   0.292421
    20  H    0.472406   0.996313  -0.141810  -0.115607
    21  H    0.385868  -0.141810   1.108485  -0.149649
    22  H    0.292421  -0.115607  -0.149649   1.025343
 Mulliken atomic charges:
              1
     1  H    0.055150
     2  C    0.378939
     3  H   -0.147359
     4  H    0.020851
     5  C    0.646031
     6  O   -0.832177
     7  N   -0.425487
     8  H   -0.087374
     9  C    0.368478
    10  H   -0.215193
    11  C    0.738779
    12  H   -0.058340
    13  H   -0.082453
    14  H    0.011149
    15  C    0.750511
    16  O   -0.841923
    17  N   -0.601979
    18  H   -0.059104
    19  C    0.722577
    20  H   -0.147286
    21  H   -0.104692
    22  H   -0.089098
 Sum of Mulliken atomic charges =   0.00000
 Mulliken charges with hydrogens summed into heavy atoms:
              1
     2  C    0.307580
     5  C    0.646031
     6  O   -0.832177
     7  N   -0.512862
     9  C    0.153285
    11  C    0.609135
    15  C    0.750511
    16  O   -0.841923
    17  N   -0.661083
    19  C    0.381501
 Sum of Mulliken charges with hydrogens summed into heavy atoms =   0.00000
 Electronic spatial extent (au):  <R**2>=           1878.8628
 Charge=              0.0000 electrons
 Dipole moment (field-independent basis, Debye):
    X=             -0.2077    Y=             -2.5461    Z=             -1.6544  Tot=              3.0435
 Quadrupole moment (field-independent basis, Debye-Ang):
   XX=            -68.9094   YY=            -57.9151   ZZ=            -63.9482
   XY=             -6.6436   XZ=             13.3179   YZ=              1.6811
 Traceless Quadrupole moment (field-independent basis, Debye-Ang):
   XX=             -5.3185   YY=              5.6758   ZZ=             -0.3573
   XY=             -6.6436   XZ=             13.3179   YZ=              1.6811
 Octapole moment (field-independent basis, Debye-Ang**2):
  XXX=            -14.3531  YYY=             -1.7354  ZZZ=            -11.9351  XYY=             -0.9224
  XXY=            -28.0744  XXZ=             -7.8321  XZZ=              8.1746  YZZ=             -2.3575
  YYZ=              3.3854  XYZ=              1.2171
 Hexadecapole moment (field-independent basis, Debye-Ang**3):
 XXXX=          -1704.5312 YYYY=           -457.7989 ZZZZ=           -300.2903 XXXY=            -45.1964
 XXXZ=             80.0925 YYYX=              2.3716 YYYZ=             -0.6948 ZZZX=             23.1808
 ZZZY=              1.4622 XXYY=           -355.4628 XXZZ=           -354.1689 YYZZ=           -125.6801
 XXYZ=             16.6050 YYXZ=              0.6384 ZZXY=             -2.6568
 N-N= 5.508011282699D+02 E-N=-2.256612470976D+03  KE= 4.920674193973D+02
 1\1\GINC-NODE002\SP\RMP2-FC\Aug-CC-pVDZ\C6H12N2O2\STEBOSS\12-Feb-2017\
 0\\#SP MP2/aug-cc-pVDZ\\Single Point calculation at MP2\\0,1\H,0,3.779
 ,-1.3451,0.8233\C,0,2.9926,-1.5152,0.0797\H,0,2.4012,-2.3834,0.3875\H,
 0,3.4845,-1.7351,-0.8712\C,0,2.1819,-0.2317,-0.0821\O,0,2.6524,0.7467,
 -0.6457\N,0,0.9194,-0.2947,0.4547\H,0,0.7079,-1.1234,0.995\C,0,-0.0784
 ,0.7783,0.5973\H,0,-0.0297,1.1775,1.6179\C,0,0.0741,1.9408,-0.3911\H,0
 ,0.095,1.6061,-1.4326\H,0,-0.7771,2.6182,-0.2604\H,0,1.0004,2.4854,-0.
 2144\C,0,-1.4725,0.1118,0.518\O,0,-2.1516,-0.0555,1.5247\N,0,-1.8649,-
 0.2725,-0.7293\H,0,-1.2107,-0.1612,-1.4905\C,0,-3.1163,-0.9644,-0.9817
 \H,0,-3.6939,-0.9429,-0.0568\H,0,-3.6832,-0.4646,-1.775\H,0,-2.9488,-2
 .0093,-1.2724\\Version=EM64L-G09RevA.02\State=1-A\HF=-492.9146386\MP2=
 -494.5160127\RMSD=6.833e-09\PG=C01 [X(C6H12N2O2)]\\@


                                                                                    A
                                                                                  AA
                                                                                 AAA
                                                                                AAAA
                                                                               AAAAA
                                                                              AAAAAA   KKKKKKKK
                                                                             AAAAAAA   KKKKKKKK
                                                                            AAAAAAAA   KKKKKKKK
                                       ZZZZZZZZZZZZZZZZZZZZ                AAAA  AAA   KKKKKKKK
                                       ZZZZZZZZZZZZZZZZZZZ                AAAA   AAA   KKKKKKKK          K
                                       ZZZZZZZZZZZZZZZZZZ                AAAA    AAA   KKKKKKKK         KKK
                                       ZZZZZZZZZZZZZZZZZ                AAAA     AAA   KKKKKKKK        KKKKK
                                       ZZZZZZZZZZZZZZZZ                AAAA      AAA   KKKKKKKK       KKKKKKK
                                                ZZZZZZ                AAAA       AAA   KKKKKKKK      KKKKKKK
                                               ZZZZZZ                AAAA        AAA   KKKKKKKK     KKKKKKK
                                              ZZZZZZ                AAAA         AAA   KKKKKKKK    KKKKKKK
                                             ZZZZZZ                AAAA          AAA   KKKKKKKK   KKKKKKK
                                            ZZZZZZ                AAAAAAAAAAAAAAAAAA   KKKKKKKK  KKKKKKK
                                           ZZZZZZ                AAAAAAAAAAAAAAAAAAA   KKKKKKKK KKKKKKK
                                          ZZZZZZ                AAAAAAAAAAAAAAAAAAAA   KKKKKKKKKKKKKKK
                                         ZZZZZZ                AAAAAAAAAAAAAAAAAAAAA   KKKKKKKKKKKKKK
                                        ZZZZZZ                AAAAAA        AAAAAAAA   KKKKKKKKKKKKK
                                       ZZZZZZ                AAAAAA         AAAAAAAA   KKKKKKKKKKKK
                                      ZZZZZZ                AAAAAA          AAAAAAAA   KKKKKKKKKKK
                                     ZZZZZZ                AAAAAA           AAAAAAAA   KKKKKKKKKKKK
                                    ZZZZZZ                AAAAAA            AAAAAAAA   KKKKKKKKKKKKK
                                   ZZZZZZ                AAAAAA             AAAAAAAA   KKKKKKKKKKKKKK
                                  ZZZZZZ                AAAAAA              AAAAAAAA   KKKKKKKKKKKKKKK
                                 ZZZZZZ                AAAAAA               AAAAAAAA   KKKKK KKKKKKKKKK
                                ZZZZZZ                AAAAAA                AAAAAAAA   KKKKK  KKKKKKKKKK
                               ZZZZZZ                AAAAAA                            KKKKK   KKKKKKKKKK
                              ZZZZZZ                AAAAAA                             KKKKK    KKKKKKKKKK
                             ZZZZZZ                                                    KKKKK     KKKKKKKKKK
                            ZZZZZZ                                                     KKKKK      KKKKKKKKKK
                           ZZZZZZ                                                      KKKKK       KKKKKKKKKK
                          ZZZZZZ                                                       KKKKK        KKKKKKKKKK
                         ZZZZZZZZZZZZZZZZZZZZZZZZZZZZZZZZZZZZZZZZ                      KKKKK         KKKKKKKKKK
                        ZZZZZZZZZZZZZZZZZZZZZZZZZZZZZZZZZZZZZZZZZ                      KKKKK          KKKKKKKKKK
                       ZZZZZZZZZZZZZZZZZZZZZZZZZZZZZZZZZZZZZZZZZZ                      KKKKK           KKKKKKKKKK
                       ZZZZZZZZZZZZZZZZZZZZZZZZZZZZZZZZZZZZZZZZZZ                      KKKKK            KKKKKKKKKK
                       ZZZZZZZZZZZZZZZZZZZZZZZZZZZZZZZZZZZZZZZZZZ                      KKKKK             KKKKKKKKKK
                       ZZZZZZZZZZZZZZZZZZZZZZZZZZZZZZZZZZZZZZZZZZ                      KKKKK              KKKKKKKKKK
                       ZZZZZZZZZZZZZZZZZZZZZZZZZZZZZZZZZZZZZZZZZZ                      KKKKK               KKKKKKKKKK
                       ZZZZZZZZZZZZZZZZZZZZZZZZZZZZZZZZZZZZZZZZZZ                      KKKKK                KKKKKKKKKK
                       ZZZZZZZZZZZZZZZZZZZZZZZZZZZZZZZZZZZZZZZZZZ                      KKKKK
                                                                                       KKKKK
                                                                                          (J.P.)
 Job cpu time:  0 days 13 hours 11 minutes 31.6 seconds.
 File lengths (MBytes):  RWF=  10541 Int=      0 D2E=      0 Chk=      7 Scr=      2
 Normal termination of Gaussian 09 at Sun Feb 12 22:14:19 2017.
