 Entering Gaussian System, Link 0=g09
 Initial command:
 /home/steboss/Software/g09/l1.exe /home/steboss/projects/phi_psi_scan/alanine/MP2/150/5291/Gau-16879.inp -scrdir=/home/steboss/projects/phi_psi_scan/alanine/MP2/150/5291/
 Entering Link 1 = /home/steboss/Software/g09/l1.exe PID=     16881.
  
 Copyright (c) 1988,1990,1992,1993,1995,1998,2003,2009, Gaussian, Inc.
                  All Rights Reserved.
  
 This is part of the Gaussian(R) 09 program.  It is based on
 the Gaussian(R) 03 system (copyright 2003, Gaussian, Inc.),
 the Gaussian(R) 98 system (copyright 1998, Gaussian, Inc.),
 the Gaussian(R) 94 system (copyright 1995, Gaussian, Inc.),
 the Gaussian 92(TM) system (copyright 1992, Gaussian, Inc.),
 the Gaussian 90(TM) system (copyright 1990, Gaussian, Inc.),
 the Gaussian 88(TM) system (copyright 1988, Gaussian, Inc.),
 the Gaussian 86(TM) system (copyright 1986, Carnegie Mellon
 University), and the Gaussian 82(TM) system (copyright 1983,
 Carnegie Mellon University). Gaussian is a federally registered
 trademark of Gaussian, Inc.
  
 This software contains proprietary and confidential information,
 including trade secrets, belonging to Gaussian, Inc.
  
 This software is provided under written license and may be
 used, copied, transmitted, or stored only in accord with that
 written license.
  
 The following legend is applicable only to US Government
 contracts under FAR:
  
                    RESTRICTED RIGHTS LEGEND
  
 Use, reproduction and disclosure by the US Government is
 subject to restrictions as set forth in subparagraphs (a)
 and (c) of the Commercial Computer Software - Restricted
 Rights clause in FAR 52.227-19.
  
 Gaussian, Inc.
 340 Quinnipiac St., Bldg. 40, Wallingford CT 06492
  
  
 ---------------------------------------------------------------
 Warning -- This program may not be used in any manner that
 competes with the business of Gaussian, Inc. or will provide
 assistance to any competitor of Gaussian, Inc.  The licensee
 of this program is prohibited from giving any competitor of
 Gaussian, Inc. access to this program.  By using this program,
 the user acknowledges that Gaussian, Inc. is engaged in the
 business of creating and licensing software in the field of
 computational chemistry and represents and warrants to the
 licensee that it is not a competitor of Gaussian, Inc. and that
 it will not use this program in any manner prohibited above.
 ---------------------------------------------------------------
  

 Cite this work as:
 Gaussian 09, Revision A.02,
 M. J. Frisch, G. W. Trucks, H. B. Schlegel, G. E. Scuseria, 
 M. A. Robb, J. R. Cheeseman, G. Scalmani, V. Barone, B. Mennucci, 
 G. A. Petersson, H. Nakatsuji, M. Caricato, X. Li, H. P. Hratchian, 
 A. F. Izmaylov, J. Bloino, G. Zheng, J. L. Sonnenberg, M. Hada, 
 M. Ehara, K. Toyota, R. Fukuda, J. Hasegawa, M. Ishida, T. Nakajima, 
 Y. Honda, O. Kitao, H. Nakai, T. Vreven, J. A. Montgomery, Jr., 
 J. E. Peralta, F. Ogliaro, M. Bearpark, J. J. Heyd, E. Brothers, 
 K. N. Kudin, V. N. Staroverov, R. Kobayashi, J. Normand, 
 K. Raghavachari, A. Rendell, J. C. Burant, S. S. Iyengar, J. Tomasi, 
 M. Cossi, N. Rega, J. M. Millam, M. Klene, J. E. Knox, J. B. Cross, 
 V. Bakken, C. Adamo, J. Jaramillo, R. Gomperts, R. E. Stratmann, 
 O. Yazyev, A. J. Austin, R. Cammi, C. Pomelli, J. W. Ochterski, 
 R. L. Martin, K. Morokuma, V. G. Zakrzewski, G. A. Voth, 
 P. Salvador, J. J. Dannenberg, S. Dapprich, A. D. Daniels, 
 O. Farkas, J. B. Foresman, J. V. Ortiz, J. Cioslowski, 
 and D. J. Fox, Gaussian, Inc., Wallingford CT, 2009.
 
 ******************************************
 Gaussian 09:  EM64L-G09RevA.02 11-Jun-2009
                12-Feb-2017 
 ******************************************
 %chk=structure_300.chk
 %NProcShared=8
 Will use up to    8 processors via shared memory.
 -------------------
 #SP MP2/aug-cc-pVDZ
 -------------------
 1/38=1/1;
 2/12=2,17=6,18=5,40=1/2;
 3/5=16,7=10,11=9,16=1,25=1,30=1/1,2,3;
 4//1;
 5/5=2,38=5/2;
 8/10=1/1;
 9/16=-3/6;
 6/7=2,8=2,9=2,10=2/1;
 99/5=1,9=1/99;
 -------------------------------
 Single Point calculation at MP2
 -------------------------------
 Symbolic Z-matrix:
 Charge =  0 Multiplicity = 1
 H                     3.542    -1.7892   -0.5655 
 C                     2.9917   -1.4741    0.3244 
 H                     3.7294   -1.2136    1.0917 
 H                     2.3886   -2.3113    0.6904 
 C                     2.1812   -0.2283   -0.0252 
 O                     2.6585    0.667    -0.7071 
 N                     0.9085   -0.2229    0.4963 
 H                     0.6945   -0.9737    1.1395 
 C                    -0.0891    0.8589    0.4795 
 H                    -0.0438    1.4072    1.4284 
 C                     0.0589    1.8608   -0.6742 
 H                     0.0489    1.3658   -1.6495 
 H                    -0.7861    2.5565   -0.6291 
 H                     0.9918    2.4168   -0.5958 
 C                    -1.499     0.2264    0.4661 
 O                    -2.3216    0.4823    1.3368 
 N                    -1.7532   -0.5773   -0.6063 
 H                    -0.9886   -0.7791   -1.2353 
 C                    -3.0248   -1.2488   -0.8047 
 H                    -3.7042   -0.8953   -0.0279 
 H                    -3.4445   -1.0084   -1.7881 
 H                    -2.9233   -2.3382   -0.7216 
 
                          Input orientation:                          
 ---------------------------------------------------------------------
 Center     Atomic      Atomic             Coordinates (Angstroms)
 Number     Number       Type             X           Y           Z
 ---------------------------------------------------------------------
      1          1           0        3.542000   -1.789200   -0.565500
      2          6           0        2.991700   -1.474100    0.324400
      3          1           0        3.729400   -1.213600    1.091700
      4          1           0        2.388600   -2.311300    0.690400
      5          6           0        2.181200   -0.228300   -0.025200
      6          8           0        2.658500    0.667000   -0.707100
      7          7           0        0.908500   -0.222900    0.496300
      8          1           0        0.694500   -0.973700    1.139500
      9          6           0       -0.089100    0.858900    0.479500
     10          1           0       -0.043800    1.407200    1.428400
     11          6           0        0.058900    1.860800   -0.674200
     12          1           0        0.048900    1.365800   -1.649500
     13          1           0       -0.786100    2.556500   -0.629100
     14          1           0        0.991800    2.416800   -0.595800
     15          6           0       -1.499000    0.226400    0.466100
     16          8           0       -2.321600    0.482300    1.336800
     17          7           0       -1.753200   -0.577300   -0.606300
     18          1           0       -0.988600   -0.779100   -1.235300
     19          6           0       -3.024800   -1.248800   -0.804700
     20          1           0       -3.704200   -0.895300   -0.027900
     21          1           0       -3.444500   -1.008400   -1.788100
     22          1           0       -2.923300   -2.338200   -0.721600
 ---------------------------------------------------------------------
                    Distance matrix (angstroms):
                    1          2          3          4          5
     1  H    0.000000
     2  C    1.092721   0.000000
     3  H    1.764298   1.095815   0.000000
     4  H    1.783313   1.094801   1.778688   0.000000
     5  C    2.140119   1.526810   2.148303   2.212236   0.000000
     6  O    2.614104   2.399859   2.814101   3.300928   1.222442
     7  N    3.242844   2.436139   3.048518   2.567058   1.375411
     8  H    3.417649   2.488356   3.044742   2.204731   2.030375
     9  C    4.614038   3.867593   4.387595   4.029100   2.567292
    10  H    5.201016   4.328391   4.606408   4.504271   3.120647
    11  C    5.046415   4.551931   5.103225   4.969512   3.047900
    12  H    4.830200   4.541078   5.264367   4.946756   3.118687
    13  H    6.133645   5.605950   6.128992   5.959470   4.113961
    14  H    4.918829   4.470511   4.849940   5.095124   2.955810
    15  C    5.526167   4.803974   5.459042   4.647974   3.740588
    16  O    6.569647   5.751835   6.288939   5.514347   4.757647
    17  N    5.432266   4.917777   5.774685   4.673617   3.992365
    18  H    4.689912   4.331106   5.278565   4.178688   3.437347
    19  C    6.593338   6.125675   7.015468   5.715692   5.362040
    20  H    7.320894   6.730097   7.524176   6.296286   5.923076
    21  H    7.135516   6.790008   7.733059   6.470361   5.946837
    22  H    6.490445   6.068609   6.986501   5.496431   5.567097
                    6          7          8          9         10
     6  O    0.000000
     7  N    2.302736   0.000000
     8  H    3.155808   1.011535   0.000000
     9  C    2.999025   1.471659   2.099536   0.000000
    10  H    3.522880   2.105448   2.509429   1.096857   0.000000
    11  C    2.860797   2.536473   3.424600   1.535165   2.153422
    12  H    2.861198   2.804877   3.697104   2.192859   3.079574
    13  H    3.929575   3.444308   4.216922   2.143980   2.470872
    14  H    2.419107   2.857908   3.820359   2.179832   2.487799
    15  C    4.342273   2.449253   2.589430   1.545333   2.106636
    16  O    5.386375   3.411348   3.354955   2.420919   2.460123
    17  N    4.584925   2.902753   3.032521   2.451706   3.316669
    18  H    3.958729   2.628076   2.917254   2.536274   3.573213
    19  C    5.998309   4.268011   4.205804   3.835349   4.574651
    20  H    6.586808   4.690832   4.551651   4.050138   4.562986
    21  H    6.420447   4.978363   5.069849   4.459543   5.267424
    22  H    6.339395   4.543178   4.291157   4.438105   5.190572
                   11         12         13         14         15
    11  C    0.000000
    12  H    1.093771   0.000000
    13  H    1.095471   1.776572   0.000000
    14  H    1.088846   1.761802   1.783691   0.000000
    15  C    2.529545   2.858319   2.671527   3.482753   0.000000
    16  O    3.407516   3.913800   3.244199   4.296028   1.224857
    17  N    3.038527   2.848064   3.279711   4.061991   1.364036
    18  H    2.895024   2.418380   3.396279   3.813754   2.041152
    19  C    4.381307   4.122797   4.418475   5.441814   2.473704
    20  H    4.709003   4.672036   4.559789   5.774507   2.522926
    21  H    4.663356   4.226095   4.595529   5.730125   3.223526
    22  H    5.150472   4.838862   5.341748   6.160670   3.164875
                   16         17         18         19         20
    16  O    0.000000
    17  N    2.285053   0.000000
    18  H    3.159702   1.010434   0.000000
    19  C    2.842045   1.451634   2.133576   0.000000
    20  H    2.381548   2.059629   2.974189   1.090855   0.000000
    21  H    3.639793   2.107841   2.527768   1.095909   1.782846
    22  H    3.543201   2.117356   2.537271   1.097269   1.781287
                   21         22
    21  H    0.000000
    22  H    1.782537   0.000000
 Stoichiometry    C6H12N2O2
 Framework group  C1[X(C6H12N2O2)]
 Deg. of freedom    60
 Full point group                 C1      NOp   1
 Largest Abelian subgroup         C1      NOp   1
 Largest concise Abelian subgroup C1      NOp   1
                         Standard orientation:                         
 ---------------------------------------------------------------------
 Center     Atomic      Atomic             Coordinates (Angstroms)
 Number     Number       Type             X           Y           Z
 ---------------------------------------------------------------------
      1          1           0        3.541988   -1.789213   -0.565503
      2          6           0        2.991689   -1.474111    0.324397
      3          1           0        3.729390   -1.213614    1.091697
      4          1           0        2.388585   -2.311308    0.690397
      5          6           0        2.181194   -0.228308   -0.025203
      6          8           0        2.658498    0.666990   -0.707103
      7          7           0        0.908494   -0.222902    0.496297
      8          1           0        0.694491   -0.973702    1.139497
      9          6           0       -0.089102    0.858902    0.479497
     10          1           0       -0.043799    1.407201    1.428397
     11          6           0        0.058902    1.860801   -0.674203
     12          1           0        0.048900    1.365801   -1.649503
     13          1           0       -0.786095    2.556504   -0.629103
     14          1           0        0.991805    2.416797   -0.595803
     15          6           0       -1.499004    0.226407    0.466097
     16          8           0       -2.321603    0.482311    1.336797
     17          7           0       -1.753207   -0.577292   -0.606303
     18          1           0       -0.988608   -0.779095   -1.235303
     19          6           0       -3.024810   -1.248786   -0.804703
     20          1           0       -3.704209   -0.895284   -0.027903
     21          1           0       -3.444509   -1.008385   -1.788103
     22          1           0       -2.923315   -2.338187   -0.721603
 ---------------------------------------------------------------------
 Rotational constants (GHZ):      2.2294671      0.7176225      0.6534228
 Standard basis: Aug-CC-pVDZ (5D, 7F)
 There are   338 symmetry adapted basis functions of A   symmetry.
 Integral buffers will be    131072 words long.
 Raffenetti 1 integral format.
 Two-electron integral symmetry is turned on.
   338 basis functions,   562 primitive gaussians,   358 cartesian basis functions
    39 alpha electrons       39 beta electrons
       nuclear repulsion energy       551.1953010607 Hartrees.
 NAtoms=   22 NActive=   22 NUniq=   22 SFac= 7.50D-01 NAtFMM=   80 NAOKFM=F Big=F
 One-electron integrals computed using PRISM.
 NBasis=   338 RedAO= T  NBF=   338
 NBsUse=   338 1.00D-06 NBFU=   338
 Harris functional with IExCor=  205 diagonalized for initial guess.
 ExpMin= 2.97D-02 ExpMax= 1.17D+04 ExpMxC= 4.01D+02 IAcc=3 IRadAn=         0 AccDes= 0.00D+00
 HarFok:  IExCor=  205 AccDes= 0.00D+00 IRadAn=         0 IDoV= 1
 ScaDFX=  1.000000  1.000000  1.000000  1.000000
 FoFCou: FMM=F IPFlag=           0 FMFlag=      100000 FMFlg1=           0
         NFxFlg=           0 DoJE=T BraDBF=F KetDBF=T FulRan=T
         Omega=  0.000000  0.000000  1.000000  0.000000  0.000000 ICntrl=     500 IOpCl=  0
         NMat0=    1 NMatS0=    1 NMatT0=    0 NMatD0=    1 NMtDS0=    0 NMtDT0=    0
         I1Cent=           4 NGrid=           0.
 Petite list used in FoFCou.
 Initial guess orbital symmetries:
       Occupied  (A) (A) (A) (A) (A) (A) (A) (A) (A) (A) (A) (A)
                 (A) (A) (A) (A) (A) (A) (A) (A) (A) (A) (A) (A)
                 (A) (A) (A) (A) (A) (A) (A) (A) (A) (A) (A) (A)
                 (A) (A) (A)
       Virtual   (A) (A) (A) (A) (A) (A) (A) (A) (A) (A) (A) (A)
                 (A) (A) (A) (A) (A) (A) (A) (A) (A) (A) (A) (A)
                 (A) (A) (A) (A) (A) (A) (A) (A) (A) (A) (A) (A)
                 (A) (A) (A) (A) (A) (A) (A) (A) (A) (A) (A) (A)
                 (A) (A) (A) (A) (A) (A) (A) (A) (A) (A) (A) (A)
                 (A) (A) (A) (A) (A) (A) (A) (A) (A) (A) (A) (A)
                 (A) (A) (A) (A) (A) (A) (A) (A) (A) (A) (A) (A)
                 (A) (A) (A) (A) (A) (A) (A) (A) (A) (A) (A) (A)
                 (A) (A) (A) (A) (A) (A) (A) (A) (A) (A) (A) (A)
                 (A) (A) (A) (A) (A) (A) (A) (A) (A) (A) (A) (A)
                 (A) (A) (A) (A) (A) (A) (A) (A) (A) (A) (A) (A)
                 (A) (A) (A) (A) (A) (A) (A) (A) (A) (A) (A) (A)
                 (A) (A) (A) (A) (A) (A) (A) (A) (A) (A) (A) (A)
                 (A) (A) (A) (A) (A) (A) (A) (A) (A) (A) (A) (A)
                 (A) (A) (A) (A) (A) (A) (A) (A) (A) (A) (A) (A)
                 (A) (A) (A) (A) (A) (A) (A) (A) (A) (A) (A) (A)
                 (A) (A) (A) (A) (A) (A) (A) (A) (A) (A) (A) (A)
                 (A) (A) (A) (A) (A) (A) (A) (A) (A) (A) (A) (A)
                 (A) (A) (A) (A) (A) (A) (A) (A) (A) (A) (A) (A)
                 (A) (A) (A) (A) (A) (A) (A) (A) (A) (A) (A) (A)
                 (A) (A) (A) (A) (A) (A) (A) (A) (A) (A) (A) (A)
                 (A) (A) (A) (A) (A) (A) (A) (A) (A) (A) (A) (A)
                 (A) (A) (A) (A) (A) (A) (A) (A) (A) (A) (A) (A)
                 (A) (A) (A) (A) (A) (A) (A) (A) (A) (A) (A) (A)
                 (A) (A) (A) (A) (A) (A) (A) (A) (A) (A) (A)
 The electronic state of the initial guess is 1-A.
 Requested convergence on RMS density matrix=1.00D-08 within 128 cycles.
 Requested convergence on MAX density matrix=1.00D-06.
 Requested convergence on             energy=1.00D-06.
 No special actions if energy rises.
 Initial convergence to 1.0D-05 achieved.  Increase integral accuracy.
 SCF Done:  E(RHF) =  -492.915325657     A.U. after   14 cycles
             Convg  =    0.6665D-08             -V/T =  2.0017
 ExpMin= 2.97D-02 ExpMax= 1.17D+04 ExpMxC= 4.01D+02 IAcc=3 IRadAn=         5 AccDes= 0.00D+00
 HarFok:  IExCor=  205 AccDes= 0.00D+00 IRadAn=         5 IDoV=-2
 ScaDFX=  1.000000  1.000000  1.000000  1.000000
 Range of M.O.s used for correlation:    11   338
 NBasis=   338 NAE=    39 NBE=    39 NFC=    10 NFV=     0
 NROrb=    328 NOA=    29 NOB=    29 NVA=   299 NVB=   299

 **** Warning!!: The largest alpha MO coefficient is  0.74191178D+02

 Disk-based method using OVN memory for 29 occupieds at a time.
 Estimated scratch disk usage=  1379618617 words.
 Actual    scratch disk usage=  1366501774 words.
 JobTyp=1 Pass  1:  I=   1 to  29 NPSUse=  8 ParTrn=T ParDer=T DoDerP=F.
 Spin components of T(2) and E(2):
     alpha-alpha T2 =       0.6791166519D-01 E2=     -0.2056569091D+00
     alpha-beta  T2 =       0.3768660972D+00 E2=     -0.1190271696D+01
     beta-beta   T2 =       0.6791166519D-01 E2=     -0.2056569091D+00
 ANorm=    0.1229914398D+01
 E2 =    -0.1601585514D+01 EUMP2 =    -0.49451691117162D+03

 **********************************************************************

            Population analysis using the SCF density.

 **********************************************************************

 Orbital symmetries:
       Occupied  (A) (A) (A) (A) (A) (A) (A) (A) (A) (A) (A) (A)
                 (A) (A) (A) (A) (A) (A) (A) (A) (A) (A) (A) (A)
                 (A) (A) (A) (A) (A) (A) (A) (A) (A) (A) (A) (A)
                 (A) (A) (A)
       Virtual   (A) (A) (A) (A) (A) (A) (A) (A) (A) (A) (A) (A)
                 (A) (A) (A) (A) (A) (A) (A) (A) (A) (A) (A) (A)
                 (A) (A) (A) (A) (A) (A) (A) (A) (A) (A) (A) (A)
                 (A) (A) (A) (A) (A) (A) (A) (A) (A) (A) (A) (A)
                 (A) (A) (A) (A) (A) (A) (A) (A) (A) (A) (A) (A)
                 (A) (A) (A) (A) (A) (A) (A) (A) (A) (A) (A) (A)
                 (A) (A) (A) (A) (A) (A) (A) (A) (A) (A) (A) (A)
                 (A) (A) (A) (A) (A) (A) (A) (A) (A) (A) (A) (A)
                 (A) (A) (A) (A) (A) (A) (A) (A) (A) (A) (A) (A)
                 (A) (A) (A) (A) (A) (A) (A) (A) (A) (A) (A) (A)
                 (A) (A) (A) (A) (A) (A) (A) (A) (A) (A) (A) (A)
                 (A) (A) (A) (A) (A) (A) (A) (A) (A) (A) (A) (A)
                 (A) (A) (A) (A) (A) (A) (A) (A) (A) (A) (A) (A)
                 (A) (A) (A) (A) (A) (A) (A) (A) (A) (A) (A) (A)
                 (A) (A) (A) (A) (A) (A) (A) (A) (A) (A) (A) (A)
                 (A) (A) (A) (A) (A) (A) (A) (A) (A) (A) (A) (A)
                 (A) (A) (A) (A) (A) (A) (A) (A) (A) (A) (A) (A)
                 (A) (A) (A) (A) (A) (A) (A) (A) (A) (A) (A) (A)
                 (A) (A) (A) (A) (A) (A) (A) (A) (A) (A) (A) (A)
                 (A) (A) (A) (A) (A) (A) (A) (A) (A) (A) (A) (A)
                 (A) (A) (A) (A) (A) (A) (A) (A) (A) (A) (A) (A)
                 (A) (A) (A) (A) (A) (A) (A) (A) (A) (A) (A) (A)
                 (A) (A) (A) (A) (A) (A) (A) (A) (A) (A) (A) (A)
                 (A) (A) (A) (A) (A) (A) (A) (A) (A) (A) (A) (A)
                 (A) (A) (A) (A) (A) (A) (A) (A) (A) (A) (A)
 The electronic state is 1-A.
 Alpha  occ. eigenvalues --  -20.53770 -20.53619 -15.60879 -15.59937 -11.37334
 Alpha  occ. eigenvalues --  -11.36375 -11.29849 -11.27294 -11.25419 -11.23358
 Alpha  occ. eigenvalues --   -1.39289  -1.38802  -1.25284  -1.23100  -1.06086
 Alpha  occ. eigenvalues --   -0.99633  -0.95977  -0.89080  -0.79815  -0.77978
 Alpha  occ. eigenvalues --   -0.73010  -0.69147  -0.67263  -0.64076  -0.62776
 Alpha  occ. eigenvalues --   -0.62112  -0.59771  -0.59343  -0.57137  -0.56256
 Alpha  occ. eigenvalues --   -0.55200  -0.53999  -0.53636  -0.51991  -0.51024
 Alpha  occ. eigenvalues --   -0.44149  -0.42101  -0.40344  -0.39183
 Alpha virt. eigenvalues --    0.02538   0.03711   0.04386   0.04553   0.05524
 Alpha virt. eigenvalues --    0.06044   0.06097   0.06795   0.07204   0.07925
 Alpha virt. eigenvalues --    0.08534   0.09013   0.11185   0.11825   0.12700
 Alpha virt. eigenvalues --    0.13685   0.13918   0.14622   0.14790   0.15263
 Alpha virt. eigenvalues --    0.15322   0.16016   0.16253   0.16717   0.16907
 Alpha virt. eigenvalues --    0.17505   0.17618   0.17984   0.18531   0.19006
 Alpha virt. eigenvalues --    0.19096   0.19754   0.20203   0.20853   0.22456
 Alpha virt. eigenvalues --    0.22703   0.23349   0.24741   0.25191   0.25795
 Alpha virt. eigenvalues --    0.26955   0.28031   0.28284   0.29865   0.30544
 Alpha virt. eigenvalues --    0.31140   0.31980   0.32337   0.32632   0.33838
 Alpha virt. eigenvalues --    0.33916   0.35025   0.35093   0.35943   0.36393
 Alpha virt. eigenvalues --    0.36610   0.37474   0.38535   0.39001   0.39653
 Alpha virt. eigenvalues --    0.40825   0.41175   0.41532   0.42081   0.42893
 Alpha virt. eigenvalues --    0.43075   0.43687   0.43963   0.44441   0.45303
 Alpha virt. eigenvalues --    0.46210   0.46566   0.47299   0.48206   0.48326
 Alpha virt. eigenvalues --    0.49715   0.49951   0.50846   0.51345   0.51674
 Alpha virt. eigenvalues --    0.52329   0.53373   0.53727   0.54793   0.55356
 Alpha virt. eigenvalues --    0.56589   0.57050   0.57375   0.58789   0.59023
 Alpha virt. eigenvalues --    0.59864   0.60475   0.60985   0.61724   0.61956
 Alpha virt. eigenvalues --    0.62341   0.63375   0.64168   0.64720   0.65234
 Alpha virt. eigenvalues --    0.65559   0.65681   0.66615   0.67750   0.68121
 Alpha virt. eigenvalues --    0.69055   0.69901   0.70395   0.71063   0.71922
 Alpha virt. eigenvalues --    0.72094   0.72387   0.73823   0.74410   0.74604
 Alpha virt. eigenvalues --    0.74738   0.76371   0.77425   0.77642   0.79416
 Alpha virt. eigenvalues --    0.80576   0.81455   0.81562   0.82651   0.83892
 Alpha virt. eigenvalues --    0.84331   0.85078   0.85171   0.86580   0.87110
 Alpha virt. eigenvalues --    0.88679   0.89267   0.91256   0.91289   0.94166
 Alpha virt. eigenvalues --    0.94724   0.95992   0.96137   0.97254   0.98406
 Alpha virt. eigenvalues --    0.99717   1.00077   1.01557   1.01648   1.03730
 Alpha virt. eigenvalues --    1.04912   1.07212   1.07310   1.09427   1.11199
 Alpha virt. eigenvalues --    1.12835   1.13099   1.14035   1.14657   1.15407
 Alpha virt. eigenvalues --    1.17152   1.18383   1.19061   1.20033   1.21776
 Alpha virt. eigenvalues --    1.22767   1.23754   1.24736   1.26933   1.28379
 Alpha virt. eigenvalues --    1.30611   1.32566   1.34776   1.35616   1.38493
 Alpha virt. eigenvalues --    1.40119   1.41533   1.43508   1.45875   1.46973
 Alpha virt. eigenvalues --    1.47877   1.50302   1.50422   1.52318   1.52719
 Alpha virt. eigenvalues --    1.55316   1.58032   1.59906   1.60811   1.63170
 Alpha virt. eigenvalues --    1.67378   1.69000   1.70434   1.71461   1.72554
 Alpha virt. eigenvalues --    1.73339   1.74450   1.75078   1.76497   1.81265
 Alpha virt. eigenvalues --    1.82564   1.83580   1.85443   1.87487   1.88484
 Alpha virt. eigenvalues --    1.88538   1.89747   1.90143   1.92396   1.93135
 Alpha virt. eigenvalues --    1.93883   1.96256   1.97139   1.98370   2.01153
 Alpha virt. eigenvalues --    2.01577   2.02898   2.04708   2.05881   2.07922
 Alpha virt. eigenvalues --    2.11052   2.11470   2.13823   2.14975   2.16043
 Alpha virt. eigenvalues --    2.16895   2.18560   2.19486   2.20863   2.21830
 Alpha virt. eigenvalues --    2.23869   2.26227   2.27286   2.29068   2.30259
 Alpha virt. eigenvalues --    2.31295   2.33586   2.34069   2.35214   2.36397
 Alpha virt. eigenvalues --    2.36945   2.38068   2.41377   2.43244   2.45564
 Alpha virt. eigenvalues --    2.46113   2.46968   2.48548   2.50421   2.51343
 Alpha virt. eigenvalues --    2.53248   2.54781   2.57445   2.57874   2.61213
 Alpha virt. eigenvalues --    2.62665   2.64034   2.65047   2.66545   2.68868
 Alpha virt. eigenvalues --    2.70215   2.74070   2.75134   2.76532   2.78959
 Alpha virt. eigenvalues --    2.80625   2.81580   2.84792   2.86026   2.88866
 Alpha virt. eigenvalues --    2.89783   2.92241   2.93860   2.96072   2.97834
 Alpha virt. eigenvalues --    2.98146   3.01583   3.03690   3.05544   3.06907
 Alpha virt. eigenvalues --    3.10968   3.14252   3.19545   3.20863   3.27630
 Alpha virt. eigenvalues --    3.28697   3.29493   3.41680   3.43491   3.55673
 Alpha virt. eigenvalues --    3.61970   3.66318   3.77756   3.81828   3.83209
 Alpha virt. eigenvalues --    3.84694   3.87974   3.91470   3.98917   4.01141
 Alpha virt. eigenvalues --    4.05994   4.09691   4.19564   4.25859
          Condensed to atoms (all electrons):
              1          2          3          4          5          6
     1  H    0.765364   0.365198  -0.053293  -0.094219  -0.086954   0.027944
     2  C    0.365198   4.486737   0.349940   0.356074   0.232358  -0.024453
     3  H   -0.053293   0.349940   0.730530  -0.073150  -0.046386   0.006481
     4  H   -0.094219   0.356074  -0.073150   1.098580   0.099070  -0.007682
     5  C   -0.086954   0.232358  -0.046386   0.099070   5.432667   0.167839
     6  O    0.027944  -0.024453   0.006481  -0.007682   0.167839   8.702726
     7  N    0.051174  -0.067613   0.041875  -0.200804   0.093740  -0.073204
     8  H   -0.004899  -0.059078  -0.006090   0.009612  -0.130843  -0.000505
     9  C    0.012437   0.009973  -0.009645  -0.024249  -0.335484   0.070054
    10  H    0.001284   0.001026  -0.003869   0.000223  -0.022218   0.012870
    11  C   -0.001127  -0.002399   0.004778  -0.002727  -0.021565  -0.013328
    12  H   -0.000172  -0.001149  -0.000525   0.000434  -0.011976   0.016828
    13  H    0.000338  -0.003121   0.000077  -0.001163  -0.041253   0.006034
    14  H   -0.001395   0.012322   0.001646   0.001532   0.066393  -0.060076
    15  C    0.002230  -0.017309   0.002018  -0.010614  -0.085092   0.000113
    16  O   -0.000006  -0.000936  -0.000053  -0.000144   0.004646   0.000837
    17  N   -0.000223  -0.000385  -0.000436  -0.002329   0.008637   0.001183
    18  H    0.000564   0.002984   0.000666  -0.003028   0.001905  -0.002543
    19  C    0.000039  -0.001227  -0.000174  -0.000080  -0.000255  -0.000393
    20  H    0.000044  -0.000033  -0.000014   0.000034  -0.001028  -0.000079
    21  H   -0.000073  -0.000213  -0.000002   0.000102  -0.000778  -0.000110
    22  H    0.000079   0.000110  -0.000008   0.000007   0.001179   0.000060
              7          8          9         10         11         12
     1  H    0.051174  -0.004899   0.012437   0.001284  -0.001127  -0.000172
     2  C   -0.067613  -0.059078   0.009973   0.001026  -0.002399  -0.001149
     3  H    0.041875  -0.006090  -0.009645  -0.003869   0.004778  -0.000525
     4  H   -0.200804   0.009612  -0.024249   0.000223  -0.002727   0.000434
     5  C    0.093740  -0.130843  -0.335484  -0.022218  -0.021565  -0.011976
     6  O   -0.073204  -0.000505   0.070054   0.012870  -0.013328   0.016828
     7  N    8.036625   0.249238  -0.894285  -0.094553   0.123258  -0.066328
     8  H    0.249238   1.053080  -0.005721   0.009097  -0.039019  -0.005521
     9  C   -0.894285  -0.005721   8.213926  -0.251398  -0.166125  -0.013530
    10  H   -0.094553   0.009097  -0.251398   1.344367   0.012016   0.069987
    11  C    0.123258  -0.039019  -0.166125   0.012016   4.337530   0.298592
    12  H   -0.066328  -0.005521  -0.013530   0.069987   0.298592   1.082284
    13  H    0.140017   0.001350  -0.272062  -0.053531   0.422705  -0.167238
    14  H   -0.067290  -0.004695   0.059071  -0.017518   0.273850  -0.164132
    15  C    0.079237   0.026386  -0.330103   0.145197  -0.067144   0.048167
    16  O   -0.002170  -0.001390  -0.020491   0.039041   0.016868  -0.005718
    17  N    0.032302  -0.008115  -0.234564   0.046460   0.073714  -0.019462
    18  H   -0.002652  -0.001563   0.030387  -0.006996  -0.022135  -0.006331
    19  C   -0.003964  -0.001614  -0.089343   0.017223   0.002093   0.010990
    20  H   -0.000842  -0.000514   0.026274   0.006072  -0.012815   0.002326
    21  H   -0.001457  -0.000944  -0.028045  -0.001603   0.019185   0.001176
    22  H    0.003619   0.000646  -0.001176  -0.000550  -0.005131  -0.002262
             13         14         15         16         17         18
     1  H    0.000338  -0.001395   0.002230  -0.000006  -0.000223   0.000564
     2  C   -0.003121   0.012322  -0.017309  -0.000936  -0.000385   0.002984
     3  H    0.000077   0.001646   0.002018  -0.000053  -0.000436   0.000666
     4  H   -0.001163   0.001532  -0.010614  -0.000144  -0.002329  -0.003028
     5  C   -0.041253   0.066393  -0.085092   0.004646   0.008637   0.001905
     6  O    0.006034  -0.060076   0.000113   0.000837   0.001183  -0.002543
     7  N    0.140017  -0.067290   0.079237  -0.002170   0.032302  -0.002652
     8  H    0.001350  -0.004695   0.026386  -0.001390  -0.008115  -0.001563
     9  C   -0.272062   0.059071  -0.330103  -0.020491  -0.234564   0.030387
    10  H   -0.053531  -0.017518   0.145197   0.039041   0.046460  -0.006996
    11  C    0.422705   0.273850  -0.067144   0.016868   0.073714  -0.022135
    12  H   -0.167238  -0.164132   0.048167  -0.005718  -0.019462  -0.006331
    13  H    1.249161  -0.236513   0.009917   0.012050   0.008339   0.005086
    14  H   -0.236513   1.099937   0.015814  -0.003652   0.015128  -0.001256
    15  C    0.009917   0.015814   5.153839   0.233077   0.234704  -0.115209
    16  O    0.012050  -0.003652   0.233077   8.674167  -0.118686   0.007909
    17  N    0.008339   0.015128   0.234704  -0.118686   7.107128   0.268011
    18  H    0.005086  -0.001256  -0.115209   0.007909   0.268011   1.014085
    19  C   -0.003072   0.002967  -0.045043  -0.015506   0.260358  -0.126256
    20  H   -0.003030   0.000131  -0.008176  -0.010290  -0.037626  -0.007495
    21  H    0.000322   0.001173  -0.019435   0.007939  -0.061187   0.002065
    22  H    0.000357  -0.000227  -0.011414   0.004997   0.018061   0.006616
             19         20         21         22
     1  H    0.000039   0.000044  -0.000073   0.000079
     2  C   -0.001227  -0.000033  -0.000213   0.000110
     3  H   -0.000174  -0.000014  -0.000002  -0.000008
     4  H   -0.000080   0.000034   0.000102   0.000007
     5  C   -0.000255  -0.001028  -0.000778   0.001179
     6  O   -0.000393  -0.000079  -0.000110   0.000060
     7  N   -0.003964  -0.000842  -0.001457   0.003619
     8  H   -0.001614  -0.000514  -0.000944   0.000646
     9  C   -0.089343   0.026274  -0.028045  -0.001176
    10  H    0.017223   0.006072  -0.001603  -0.000550
    11  C    0.002093  -0.012815   0.019185  -0.005131
    12  H    0.010990   0.002326   0.001176  -0.002262
    13  H   -0.003072  -0.003030   0.000322   0.000357
    14  H    0.002967   0.000131   0.001173  -0.000227
    15  C   -0.045043  -0.008176  -0.019435  -0.011414
    16  O   -0.015506  -0.010290   0.007939   0.004997
    17  N    0.260358  -0.037626  -0.061187   0.018061
    18  H   -0.126256  -0.007495   0.002065   0.006616
    19  C    4.124489   0.465862   0.376606   0.302028
    20  H    0.465862   0.982461  -0.129825  -0.122097
    21  H    0.376606  -0.129825   1.079807  -0.146753
    22  H    0.302028  -0.122097  -0.146753   1.042346
 Mulliken atomic charges:
              1
     1  H    0.015668
     2  C    0.361195
     3  H    0.055634
     4  H   -0.145479
     5  C    0.675398
     6  O   -0.830596
     7  N   -0.375921
     8  H   -0.078899
     9  C    0.254100
    10  H   -0.252628
    11  C    0.768923
    12  H   -0.066440
    13  H   -0.074770
    14  H    0.006791
    15  C    0.758839
    16  O   -0.822489
    17  N   -0.591011
    18  H   -0.044812
    19  C    0.724275
    20  H   -0.149338
    21  H   -0.097950
    22  H   -0.090487
 Sum of Mulliken atomic charges =   0.00000
 Mulliken charges with hydrogens summed into heavy atoms:
              1
     2  C    0.287018
     5  C    0.675398
     6  O   -0.830596
     7  N   -0.454821
     9  C    0.001472
    11  C    0.634504
    15  C    0.758839
    16  O   -0.822489
    17  N   -0.635824
    19  C    0.386499
 Sum of Mulliken charges with hydrogens summed into heavy atoms =   0.00000
 Electronic spatial extent (au):  <R**2>=           1874.5833
 Charge=              0.0000 electrons
 Dipole moment (field-independent basis, Debye):
    X=              0.2930    Y=             -3.6549    Z=             -0.8421  Tot=              3.7621
 Quadrupole moment (field-independent basis, Debye-Ang):
   XX=            -70.9280   YY=            -57.6438   ZZ=            -63.4041
   XY=             -2.8942   XZ=             13.3501   YZ=              0.0238
 Traceless Quadrupole moment (field-independent basis, Debye-Ang):
   XX=             -6.9360   YY=              6.3482   ZZ=              0.5878
   XY=             -2.8942   XZ=             13.3501   YZ=              0.0238
 Octapole moment (field-independent basis, Debye-Ang**2):
  XXX=             -7.1455  YYY=             -0.7343  ZZZ=             -5.8584  XYY=             -0.2343
  XXY=            -33.3632  XXZ=             -4.5257  XZZ=              7.2393  YZZ=             -6.5271
  YYZ=              0.7683  XYZ=              4.7307
 Hexadecapole moment (field-independent basis, Debye-Ang**3):
 XXXX=          -1715.8772 YYYY=           -483.7573 ZZZZ=           -273.3450 XXXY=            -25.0821
 XXXZ=             87.3605 YYYX=              3.2973 YYYZ=             -0.5494 ZZZX=             16.6297
 ZZZY=              0.8082 XXYY=           -356.5543 XXZZ=           -350.6692 YYZZ=           -126.2464
 XXYZ=              6.2332 YYXZ=              2.8722 ZZXY=              4.3318
 N-N= 5.511953010607D+02 E-N=-2.257381550535D+03  KE= 4.920681802171D+02
 1\1\GINC-NODE002\SP\RMP2-FC\Aug-CC-pVDZ\C6H12N2O2\STEBOSS\12-Feb-2017\
 0\\#SP MP2/aug-cc-pVDZ\\Single Point calculation at MP2\\0,1\H,0,3.542
 ,-1.7892,-0.5655\C,0,2.9917,-1.4741,0.3244\H,0,3.7294,-1.2136,1.0917\H
 ,0,2.3886,-2.3113,0.6904\C,0,2.1812,-0.2283,-0.0252\O,0,2.6585,0.667,-
 0.7071\N,0,0.9085,-0.2229,0.4963\H,0,0.6945,-0.9737,1.1395\C,0,-0.0891
 ,0.8589,0.4795\H,0,-0.0438,1.4072,1.4284\C,0,0.0589,1.8608,-0.6742\H,0
 ,0.0489,1.3658,-1.6495\H,0,-0.7861,2.5565,-0.6291\H,0,0.9918,2.4168,-0
 .5958\C,0,-1.499,0.2264,0.4661\O,0,-2.3216,0.4823,1.3368\N,0,-1.7532,-
 0.5773,-0.6063\H,0,-0.9886,-0.7791,-1.2353\C,0,-3.0248,-1.2488,-0.8047
 \H,0,-3.7042,-0.8953,-0.0279\H,0,-3.4445,-1.0084,-1.7881\H,0,-2.9233,-
 2.3382,-0.7216\\Version=EM64L-G09RevA.02\State=1-A\HF=-492.9153257\MP2
 =-494.5169112\RMSD=6.665e-09\PG=C01 [X(C6H12N2O2)]\\@


 ONLY THE DAY DAWNS TO WHICH YOU ARE AWAKE.

                                 -- THOREAU
 Job cpu time:  0 days 13 hours 36 minutes 45.5 seconds.
 File lengths (MBytes):  RWF=  10542 Int=      0 D2E=      0 Chk=      7 Scr=      2
 Normal termination of Gaussian 09 at Sun Feb 12 22:36:22 2017.
