 Entering Gaussian System, Link 0=g09
 Initial command:
 /home/steboss/Software/g09/l1.exe /tmp/Gau-26451.inp -scrdir=/tmp/
 Entering Link 1 = /home/steboss/Software/g09/l1.exe PID=     26453.
  
 Copyright (c) 1988,1990,1992,1993,1995,1998,2003,2009, Gaussian, Inc.
                  All Rights Reserved.
  
 This is part of the Gaussian(R) 09 program.  It is based on
 the Gaussian(R) 03 system (copyright 2003, Gaussian, Inc.),
 the Gaussian(R) 98 system (copyright 1998, Gaussian, Inc.),
 the Gaussian(R) 94 system (copyright 1995, Gaussian, Inc.),
 the Gaussian 92(TM) system (copyright 1992, Gaussian, Inc.),
 the Gaussian 90(TM) system (copyright 1990, Gaussian, Inc.),
 the Gaussian 88(TM) system (copyright 1988, Gaussian, Inc.),
 the Gaussian 86(TM) system (copyright 1986, Carnegie Mellon
 University), and the Gaussian 82(TM) system (copyright 1983,
 Carnegie Mellon University). Gaussian is a federally registered
 trademark of Gaussian, Inc.
  
 This software contains proprietary and confidential information,
 including trade secrets, belonging to Gaussian, Inc.
  
 This software is provided under written license and may be
 used, copied, transmitted, or stored only in accord with that
 written license.
  
 The following legend is applicable only to US Government
 contracts under FAR:
  
                    RESTRICTED RIGHTS LEGEND
  
 Use, reproduction and disclosure by the US Government is
 subject to restrictions as set forth in subparagraphs (a)
 and (c) of the Commercial Computer Software - Restricted
 Rights clause in FAR 52.227-19.
  
 Gaussian, Inc.
 340 Quinnipiac St., Bldg. 40, Wallingford CT 06492
  
  
 ---------------------------------------------------------------
 Warning -- This program may not be used in any manner that
 competes with the business of Gaussian, Inc. or will provide
 assistance to any competitor of Gaussian, Inc.  The licensee
 of this program is prohibited from giving any competitor of
 Gaussian, Inc. access to this program.  By using this program,
 the user acknowledges that Gaussian, Inc. is engaged in the
 business of creating and licensing software in the field of
 computational chemistry and represents and warrants to the
 licensee that it is not a competitor of Gaussian, Inc. and that
 it will not use this program in any manner prohibited above.
 ---------------------------------------------------------------
  

 Cite this work as:
 Gaussian 09, Revision A.02,
 M. J. Frisch, G. W. Trucks, H. B. Schlegel, G. E. Scuseria, 
 M. A. Robb, J. R. Cheeseman, G. Scalmani, V. Barone, B. Mennucci, 
 G. A. Petersson, H. Nakatsuji, M. Caricato, X. Li, H. P. Hratchian, 
 A. F. Izmaylov, J. Bloino, G. Zheng, J. L. Sonnenberg, M. Hada, 
 M. Ehara, K. Toyota, R. Fukuda, J. Hasegawa, M. Ishida, T. Nakajima, 
 Y. Honda, O. Kitao, H. Nakai, T. Vreven, J. A. Montgomery, Jr., 
 J. E. Peralta, F. Ogliaro, M. Bearpark, J. J. Heyd, E. Brothers, 
 K. N. Kudin, V. N. Staroverov, R. Kobayashi, J. Normand, 
 K. Raghavachari, A. Rendell, J. C. Burant, S. S. Iyengar, J. Tomasi, 
 M. Cossi, N. Rega, J. M. Millam, M. Klene, J. E. Knox, J. B. Cross, 
 V. Bakken, C. Adamo, J. Jaramillo, R. Gomperts, R. E. Stratmann, 
 O. Yazyev, A. J. Austin, R. Cammi, C. Pomelli, J. W. Ochterski, 
 R. L. Martin, K. Morokuma, V. G. Zakrzewski, G. A. Voth, 
 P. Salvador, J. J. Dannenberg, S. Dapprich, A. D. Daniels, 
 O. Farkas, J. B. Foresman, J. V. Ortiz, J. Cioslowski, 
 and D. J. Fox, Gaussian, Inc., Wallingford CT, 2009.
 
 ******************************************
 Gaussian 09:  EM64L-G09RevA.02 11-Jun-2009
                10-Feb-2017 
 ******************************************
 %chk=structure_0.chk
 %NProcShared=8
 Will use up to    8 processors via shared memory.
 -------------------------------------------
 # HF/6-31G* Opt=(ModRedundant) geom=nocrowd
 -------------------------------------------
 1/18=120,19=15,38=1/1,3;
 2/9=110,12=1,17=6,18=5,40=1/2;
 3/5=1,6=6,7=1,11=9,16=1,25=1,30=1,71=1/1,2,3;
 4//1;
 5/5=2,38=5/2;
 6/7=2,8=2,9=2,10=2,28=1/1;
 7//1,2,3,16;
 1/18=20,19=15/3(2);
 2/9=110,12=1/2;
 99//99;
 2/9=110,12=1/2;
 3/5=1,6=6,7=1,11=9,16=1,25=1,30=1,71=1/1,2,3;
 4/5=5,16=3/1;
 5/5=2,38=5/2;
 7//1,2,3,16;
 1/18=20,19=15/3(-5);
 2/9=110,12=1/2;
 6/7=2,8=2,9=2,10=2,19=2,28=1/1;
 99/9=1/99;
 ------------------
 Phi Psi fixed scan
 ------------------
 Symbolic Z-matrix:
 Charge =  0 Multiplicity = 1
 H                     0.8983    3.2194    1.9013 
 C                     1.4447    3.2086    0.9582 
 H                     0.8591    3.7173    0.1925 
 H                     1.6234    2.1775    0.6531 
 C                     2.7931    3.9187    1.0948 
 O                     3.1338    4.4092    2.1689 
 N                     3.5554    3.9697    0. 
 H                     3.2318    3.5516   -0.8606 
 C                     4.8533    4.6139    0. 
 H                     5.4076    4.3155    0.8898 
 C                     5.6613    4.2208   -1.2322 
 H                     5.1233    4.5214   -2.1312 
 H                     6.6305    4.7189   -1.2058 
 H                     5.8085    3.1409   -1.2414 
 C                     4.7127    6.1294    0. 
 O                     5.7095    6.8483    0. 
 N                     3.4689    6.6144    0. 
 H                     2.6806    5.9829    0. 
 C                     3.2023    8.0386    0. 
 H                     4.1453    8.5853    0. 
 H                     2.6304    8.3018   -0.8898 
 H                     2.6304    8.3018    0.8898 
 
 The following ModRedundant input section has been read:
 D    5    7    9   15 F                                                       
 D    7    9   15   17 F                                                       

 GradGradGradGradGradGradGradGradGradGradGradGradGradGradGradGradGradGrad
 Berny optimization.
 Initialization pass.
                           ----------------------------
                           !    Initial Parameters    !
                           ! (Angstroms and Degrees)  !
 --------------------------                            --------------------------
 ! Name  Definition              Value          Derivative Info.                !
 --------------------------------------------------------------------------------
 ! R1    R(1,2)                  1.09           estimate D2E/DX2                !
 ! R2    R(2,3)                  1.09           estimate D2E/DX2                !
 ! R3    R(2,4)                  1.09           estimate D2E/DX2                !
 ! R4    R(2,5)                  1.5301         estimate D2E/DX2                !
 ! R5    R(5,6)                  1.229          estimate D2E/DX2                !
 ! R6    R(5,7)                  1.335          estimate D2E/DX2                !
 ! R7    R(7,8)                  1.01           estimate D2E/DX2                !
 ! R8    R(7,9)                  1.449          estimate D2E/DX2                !
 ! R9    R(9,10)                 1.09           estimate D2E/DX2                !
 ! R10   R(9,11)                 1.525          estimate D2E/DX2                !
 ! R11   R(9,15)                 1.522          estimate D2E/DX2                !
 ! R12   R(11,12)                1.09           estimate D2E/DX2                !
 ! R13   R(11,13)                1.09           estimate D2E/DX2                !
 ! R14   R(11,14)                1.0899         estimate D2E/DX2                !
 ! R15   R(15,16)                1.229          estimate D2E/DX2                !
 ! R16   R(15,17)                1.335          estimate D2E/DX2                !
 ! R17   R(17,18)                1.0101         estimate D2E/DX2                !
 ! R18   R(17,19)                1.4489         estimate D2E/DX2                !
 ! R19   R(19,20)                1.09           estimate D2E/DX2                !
 ! R20   R(19,21)                1.09           estimate D2E/DX2                !
 ! R21   R(19,22)                1.09           estimate D2E/DX2                !
 ! A1    A(1,2,3)              109.5044         estimate D2E/DX2                !
 ! A2    A(1,2,4)              109.4952         estimate D2E/DX2                !
 ! A3    A(1,2,5)              111.0955         estimate D2E/DX2                !
 ! A4    A(3,2,4)              109.4467         estimate D2E/DX2                !
 ! A5    A(3,2,5)              108.6385         estimate D2E/DX2                !
 ! A6    A(4,2,5)              108.6338         estimate D2E/DX2                !
 ! A7    A(2,5,6)              120.5019         estimate D2E/DX2                !
 ! A8    A(2,5,7)              116.5977         estimate D2E/DX2                !
 ! A9    A(6,5,7)              122.9003         estimate D2E/DX2                !
 ! A10   A(5,7,8)              119.9988         estimate D2E/DX2                !
 ! A11   A(5,7,9)              121.9007         estimate D2E/DX2                !
 ! A12   A(8,7,9)              118.1005         estimate D2E/DX2                !
 ! A13   A(7,9,10)             109.5            estimate D2E/DX2                !
 ! A14   A(7,9,11)             111.0992         estimate D2E/DX2                !
 ! A15   A(7,9,15)             111.0966         estimate D2E/DX2                !
 ! A16   A(10,9,11)            108.6382         estimate D2E/DX2                !
 ! A17   A(10,9,15)            108.6373         estimate D2E/DX2                !
 ! A18   A(11,9,15)            107.7947         estimate D2E/DX2                !
 ! A19   A(9,11,12)            109.5007         estimate D2E/DX2                !
 ! A20   A(9,11,13)            109.4959         estimate D2E/DX2                !
 ! A21   A(9,11,14)            109.4978         estimate D2E/DX2                !
 ! A22   A(12,11,13)           109.441          estimate D2E/DX2                !
 ! A23   A(12,11,14)           109.4482         estimate D2E/DX2                !
 ! A24   A(13,11,14)           109.4436         estimate D2E/DX2                !
 ! A25   A(9,15,16)            120.499          estimate D2E/DX2                !
 ! A26   A(9,15,17)            116.6029         estimate D2E/DX2                !
 ! A27   A(16,15,17)           122.8981         estimate D2E/DX2                !
 ! A28   A(15,17,18)           119.9996         estimate D2E/DX2                !
 ! A29   A(15,17,19)           121.9052         estimate D2E/DX2                !
 ! A30   A(18,17,19)           118.0953         estimate D2E/DX2                !
 ! A31   A(17,19,20)           109.5002         estimate D2E/DX2                !
 ! A32   A(17,19,21)           109.5048         estimate D2E/DX2                !
 ! A33   A(17,19,22)           109.5048         estimate D2E/DX2                !
 ! A34   A(20,19,21)           109.4392         estimate D2E/DX2                !
 ! A35   A(20,19,22)           109.4392         estimate D2E/DX2                !
 ! A36   A(21,19,22)           109.439          estimate D2E/DX2                !
 ! D1    D(1,2,5,6)             -0.0109         estimate D2E/DX2                !
 ! D2    D(1,2,5,7)           -179.9999         estimate D2E/DX2                !
 ! D3    D(3,2,5,6)            120.5056         estimate D2E/DX2                !
 ! D4    D(3,2,5,7)            -59.4834         estimate D2E/DX2                !
 ! D5    D(4,2,5,6)           -120.513          estimate D2E/DX2                !
 ! D6    D(4,2,5,7)             59.498          estimate D2E/DX2                !
 ! D7    D(2,5,7,8)             -0.0091         estimate D2E/DX2                !
 ! D8    D(2,5,7,9)            179.9996         estimate D2E/DX2                !
 ! D9    D(6,5,7,8)           -179.9978         estimate D2E/DX2                !
 ! D10   D(6,5,7,9)              0.0109         estimate D2E/DX2                !
 ! D11   D(5,7,9,10)            44.9938         estimate D2E/DX2                !
 ! D12   D(5,7,9,11)           164.9964         estimate D2E/DX2                !
 ! D13   D(5,7,9,15)           -75.006          Frozen                          !
 ! D14   D(8,7,9,10)          -134.9976         estimate D2E/DX2                !
 ! D15   D(8,7,9,11)           -14.9951         estimate D2E/DX2                !
 ! D16   D(8,7,9,15)           105.0025         estimate D2E/DX2                !
 ! D17   D(7,9,11,12)           60.0024         estimate D2E/DX2                !
 ! D18   D(7,9,11,13)          179.9986         estimate D2E/DX2                !
 ! D19   D(7,9,11,14)          -60.0038         estimate D2E/DX2                !
 ! D20   D(10,9,11,12)        -179.4843         estimate D2E/DX2                !
 ! D21   D(10,9,11,13)         -59.4881         estimate D2E/DX2                !
 ! D22   D(10,9,11,14)          60.5095         estimate D2E/DX2                !
 ! D23   D(15,9,11,12)         -61.938          estimate D2E/DX2                !
 ! D24   D(15,9,11,13)          58.0582         estimate D2E/DX2                !
 ! D25   D(15,9,11,14)         178.0558         estimate D2E/DX2                !
 ! D26   D(7,9,15,16)          180.0            estimate D2E/DX2                !
 ! D27   D(7,9,15,17)            0.0            Frozen                          !
 ! D28   D(10,9,15,16)          59.4889         estimate D2E/DX2                !
 ! D29   D(10,9,15,17)        -120.5111         estimate D2E/DX2                !
 ! D30   D(11,9,15,16)         -58.058          estimate D2E/DX2                !
 ! D31   D(11,9,15,17)         121.942          estimate D2E/DX2                !
 ! D32   D(9,15,17,18)           0.0            estimate D2E/DX2                !
 ! D33   D(9,15,17,19)         180.0            estimate D2E/DX2                !
 ! D34   D(16,15,17,18)        180.0            estimate D2E/DX2                !
 ! D35   D(16,15,17,19)          0.0            estimate D2E/DX2                !
 ! D36   D(15,17,19,20)          0.0            estimate D2E/DX2                !
 ! D37   D(15,17,19,21)        119.9991         estimate D2E/DX2                !
 ! D38   D(15,17,19,22)       -119.9991         estimate D2E/DX2                !
 ! D39   D(18,17,19,20)        180.0            estimate D2E/DX2                !
 ! D40   D(18,17,19,21)        -60.0009         estimate D2E/DX2                !
 ! D41   D(18,17,19,22)         60.0009         estimate D2E/DX2                !
 --------------------------------------------------------------------------------
 Trust Radius=3.00D-01 FncErr=1.00D-07 GrdErr=1.00D-07
 Number of steps in this run= 108 maximum allowed number of steps= 132.
 GradGradGradGradGradGradGradGradGradGradGradGradGradGradGradGradGradGrad

                          Input orientation:                          
 ---------------------------------------------------------------------
 Center     Atomic      Atomic             Coordinates (Angstroms)
 Number     Number       Type             X           Y           Z
 ---------------------------------------------------------------------
      1          1           0        0.898300    3.219400    1.901300
      2          6           0        1.444700    3.208600    0.958200
      3          1           0        0.859100    3.717300    0.192500
      4          1           0        1.623400    2.177500    0.653100
      5          6           0        2.793100    3.918700    1.094800
      6          8           0        3.133800    4.409200    2.168900
      7          7           0        3.555400    3.969700    0.000000
      8          1           0        3.231800    3.551600   -0.860600
      9          6           0        4.853300    4.613900    0.000000
     10          1           0        5.407600    4.315500    0.889800
     11          6           0        5.661300    4.220800   -1.232200
     12          1           0        5.123300    4.521400   -2.131200
     13          1           0        6.630500    4.718900   -1.205800
     14          1           0        5.808500    3.140900   -1.241400
     15          6           0        4.712700    6.129400    0.000000
     16          8           0        5.709500    6.848300    0.000000
     17          7           0        3.468900    6.614400    0.000000
     18          1           0        2.680600    5.982900    0.000000
     19          6           0        3.202300    8.038600    0.000000
     20          1           0        4.145300    8.585300    0.000000
     21          1           0        2.630400    8.301800   -0.889800
     22          1           0        2.630400    8.301800    0.889800
 ---------------------------------------------------------------------
                    Distance matrix (angstroms):
                    1          2          3          4          5
     1  H    0.000000
     2  C    1.090003   0.000000
     3  H    1.780292   1.089954   0.000000
     4  H    1.780261   1.090040   1.779688   0.000000
     5  C    2.174794   1.530060   2.143610   2.143612   0.000000
     6  O    2.546506   2.400061   3.091786   3.091835   1.228966
     7  N    3.352323   2.439769   2.714921   2.714985   1.335024
     8  H    3.630932   2.572821   2.601188   2.601228   2.037353
     9  C    4.604519   3.809405   4.098119   4.098151   2.434402
    10  H    4.749564   4.115153   4.640358   4.352843   2.652374
    11  C    5.788592   4.858201   5.034323   4.902455   3.705775
    12  H    5.983885   4.979953   4.922353   5.049306   4.024942
    13  H    6.690343   5.818627   6.022251   5.914835   4.545186
    14  H    5.830334   4.887287   5.185062   4.693861   3.892999
    15  C    5.160687   4.486540   4.550331   5.058441   3.125803
    16  O    6.319138   5.688065   5.776383   6.240122   4.276276
    17  N    4.663577   4.076151   3.904011   4.849587   2.986987
    18  H    3.798482   3.184704   2.913394   4.003159   2.339266
    19  C    5.669925   5.228404   4.919479   6.105076   4.282477
    20  H    6.553689   6.092642   5.876529   6.917111   4.980380
    21  H    6.051545   5.546321   5.032546   6.395439   4.814216
    22  H    5.463890   5.229842   4.964008   6.211049   4.390907
                    6          7          8          9         10
     6  O    0.000000
     7  N    2.252784   0.000000
     8  H    3.150072   1.010028   0.000000
     9  C    2.775376   1.448978   2.120938   0.000000
    10  H    2.610564   2.083739   2.895091   1.089970   0.000000
    11  C    4.241607   2.452791   2.547231   1.525027   2.139209
    12  H    4.739363   2.702720   2.476431   2.150225   3.041326
    13  H    4.869438   3.386959   3.610113   2.150214   2.459625
    14  H    4.515833   2.702673   2.636867   2.150165   2.466256
    15  C    3.186870   2.450234   3.094956   1.522008   2.136554
    16  O    4.157832   3.595342   4.212821   2.392827   2.701474
    17  N    3.111162   2.646114   3.190234   2.432810   3.136119
    18  H    2.717729   2.195051   2.637361   2.568032   3.317905
    19  C    4.228636   4.084192   4.568881   3.801890   4.417756
    20  H    4.813218   4.653144   5.187798   4.034016   4.540522
    21  H    4.976082   4.518236   4.788208   4.397003   5.174012
    22  H    4.128177   4.518236   5.098037   4.397003   4.858336
                   11         12         13         14         15
    11  C    0.000000
    12  H    1.089957   0.000000
    13  H    1.090023   1.779613   0.000000
    14  H    1.089925   1.779613   1.779617   0.000000
    15  C    2.461892   2.701161   2.668599   3.416575   0.000000
    16  O    2.902481   3.209378   2.614678   3.910970   1.228994
    17  N    3.471924   3.414631   3.878478   4.368066   1.335014
    18  H    3.675308   3.555950   4.318954   4.404747   2.037374
    19  C    4.705379   4.539047   4.922085   5.685140   2.434410
    20  H    4.781781   4.691885   4.751760   5.826560   2.520593
    21  H    5.094914   4.695428   5.379389   6.071147   3.137999
    22  H    5.508521   5.443566   5.764504   6.424735   3.137999
                   16         17         18         19         20
    16  O    0.000000
    17  N    2.252776   0.000000
    18  H    3.150104   1.010054   0.000000
    19  C    2.775404   1.448938   2.120866   0.000000
    20  H    2.337497   2.083738   2.986274   1.090014   0.000000
    21  H    3.519270   2.083781   2.484263   1.089994   1.779617
    22  H    3.519270   2.083781   2.484263   1.089994   1.779617
                   21         22
    21  H    0.000000
    22  H    1.779600   0.000000
 Stoichiometry    C6H12N2O2
 Framework group  C1[X(C6H12N2O2)]
 Deg. of freedom    60
 Full point group                 C1      NOp   1
 Largest Abelian subgroup         C1      NOp   1
 Largest concise Abelian subgroup C1      NOp   1
                         Standard orientation:                         
 ---------------------------------------------------------------------
 Center     Atomic      Atomic             Coordinates (Angstroms)
 Number     Number       Type             X           Y           Z
 ---------------------------------------------------------------------
      1          1           0        3.667113   -1.287259    0.073685
      2          6           0        3.076942   -0.579639   -0.508620
      3          1           0        2.783361   -1.040145   -1.451882
      4          1           0        3.671699    0.311495   -0.709444
      5          6           0        1.813016   -0.163835    0.246817
      6          8           0        1.574698   -0.620262    1.362718
      7          7           0        1.006910    0.704083   -0.368975
      8          1           0        1.245687    1.051388   -1.286865
      9          6           0       -0.219959    1.175304    0.241174
     10          1           0       -0.031593    1.436059    1.282596
     11          6           0       -0.754066    2.407789   -0.480920
     12          1           0       -0.956155    2.159939   -1.522906
     13          1           0       -1.675170    2.739529   -0.001684
     14          1           0       -0.013283    3.205945   -0.434840
     15          6           0       -1.300810    0.104699    0.195660
     16          8           0       -2.414674    0.322443    0.667171
     17          7           0       -0.969082   -1.055844   -0.374744
     18          1           0       -0.039991   -1.187543   -0.748447
     19          6           0       -1.908809   -2.153698   -0.479865
     20          1           0       -2.860419   -1.861912   -0.035535
     21          1           0       -2.060276   -2.403822   -1.529905
     22          1           0       -1.513838   -3.022514    0.046674
 ---------------------------------------------------------------------
 Rotational constants (GHZ):      1.7573313      1.0062819      0.7598008
 Standard basis: 6-31G(d) (6D, 7F)
 There are   174 symmetry adapted basis functions of A   symmetry.
 Integral buffers will be    131072 words long.
 Raffenetti 1 integral format.
 Two-electron integral symmetry is turned on.
   174 basis functions,   328 primitive gaussians,   174 cartesian basis functions
    39 alpha electrons       39 beta electrons
       nuclear repulsion energy       568.5660879743 Hartrees.
 NAtoms=   22 NActive=   22 NUniq=   22 SFac= 7.50D-01 NAtFMM=   80 NAOKFM=F Big=F
 One-electron integrals computed using PRISM.
 NBasis=   174 RedAO= T  NBF=   174
 NBsUse=   174 1.00D-06 NBFU=   174
 Harris functional with IExCor=  205 diagonalized for initial guess.
 ExpMin= 1.61D-01 ExpMax= 5.48D+03 ExpMxC= 8.25D+02 IAcc=1 IRadAn=         1 AccDes= 0.00D+00
 HarFok:  IExCor=  205 AccDes= 0.00D+00 IRadAn=         1 IDoV= 1
 ScaDFX=  1.000000  1.000000  1.000000  1.000000
 FoFCou: FMM=F IPFlag=           0 FMFlag=      100000 FMFlg1=           0
         NFxFlg=           0 DoJE=T BraDBF=F KetDBF=T FulRan=T
         Omega=  0.000000  0.000000  1.000000  0.000000  0.000000 ICntrl=     500 IOpCl=  0
         NMat0=    1 NMatS0=    1 NMatT0=    0 NMatD0=    1 NMtDS0=    0 NMtDT0=    0
         I1Cent=           4 NGrid=           0.
 Petite list used in FoFCou.
 Initial guess orbital symmetries:
       Occupied  (A) (A) (A) (A) (A) (A) (A) (A) (A) (A) (A) (A)
                 (A) (A) (A) (A) (A) (A) (A) (A) (A) (A) (A) (A)
                 (A) (A) (A) (A) (A) (A) (A) (A) (A) (A) (A) (A)
                 (A) (A) (A)
       Virtual   (A) (A) (A) (A) (A) (A) (A) (A) (A) (A) (A) (A)
                 (A) (A) (A) (A) (A) (A) (A) (A) (A) (A) (A) (A)
                 (A) (A) (A) (A) (A) (A) (A) (A) (A) (A) (A) (A)
                 (A) (A) (A) (A) (A) (A) (A) (A) (A) (A) (A) (A)
                 (A) (A) (A) (A) (A) (A) (A) (A) (A) (A) (A) (A)
                 (A) (A) (A) (A) (A) (A) (A) (A) (A) (A) (A) (A)
                 (A) (A) (A) (A) (A) (A) (A) (A) (A) (A) (A) (A)
                 (A) (A) (A) (A) (A) (A) (A) (A) (A) (A) (A) (A)
                 (A) (A) (A) (A) (A) (A) (A) (A) (A) (A) (A) (A)
                 (A) (A) (A) (A) (A) (A) (A) (A) (A) (A) (A) (A)
                 (A) (A) (A) (A) (A) (A) (A) (A) (A) (A) (A) (A)
                 (A) (A) (A)
 The electronic state of the initial guess is 1-A.
 Requested convergence on RMS density matrix=1.00D-08 within 128 cycles.
 Requested convergence on MAX density matrix=1.00D-06.
 Requested convergence on             energy=1.00D-06.
 No special actions if energy rises.
 Integral accuracy reduced to 1.0D-05 until final iterations.
 Initial convergence to 1.0D-05 achieved.  Increase integral accuracy.
 SCF Done:  E(RHF) =  -492.845312912     A.U. after   15 cycles
             Convg  =    0.5548D-08             -V/T =  2.0020

 **********************************************************************

            Population analysis using the SCF density.

 **********************************************************************

 Orbital symmetries:
       Occupied  (A) (A) (A) (A) (A) (A) (A) (A) (A) (A) (A) (A)
                 (A) (A) (A) (A) (A) (A) (A) (A) (A) (A) (A) (A)
                 (A) (A) (A) (A) (A) (A) (A) (A) (A) (A) (A) (A)
                 (A) (A) (A)
       Virtual   (A) (A) (A) (A) (A) (A) (A) (A) (A) (A) (A) (A)
                 (A) (A) (A) (A) (A) (A) (A) (A) (A) (A) (A) (A)
                 (A) (A) (A) (A) (A) (A) (A) (A) (A) (A) (A) (A)
                 (A) (A) (A) (A) (A) (A) (A) (A) (A) (A) (A) (A)
                 (A) (A) (A) (A) (A) (A) (A) (A) (A) (A) (A) (A)
                 (A) (A) (A) (A) (A) (A) (A) (A) (A) (A) (A) (A)
                 (A) (A) (A) (A) (A) (A) (A) (A) (A) (A) (A) (A)
                 (A) (A) (A) (A) (A) (A) (A) (A) (A) (A) (A) (A)
                 (A) (A) (A) (A) (A) (A) (A) (A) (A) (A) (A) (A)
                 (A) (A) (A) (A) (A) (A) (A) (A) (A) (A) (A) (A)
                 (A) (A) (A) (A) (A) (A) (A) (A) (A) (A) (A) (A)
                 (A) (A) (A)
 The electronic state is 1-A.
 Alpha  occ. eigenvalues --  -20.53023 -20.50813 -15.60765 -15.58423 -11.36187
 Alpha  occ. eigenvalues --  -11.33978 -11.28492 -11.25320 -11.24995 -11.23546
 Alpha  occ. eigenvalues --   -1.38862  -1.36553  -1.26055  -1.22162  -1.06624
 Alpha  occ. eigenvalues --   -1.00019  -0.95931  -0.87939  -0.81759  -0.78592
 Alpha  occ. eigenvalues --   -0.72975  -0.68829  -0.67486  -0.63077  -0.62078
 Alpha  occ. eigenvalues --   -0.61663  -0.59847  -0.58642  -0.57839  -0.55071
 Alpha  occ. eigenvalues --   -0.54850  -0.54681  -0.53582  -0.51919  -0.49174
 Alpha  occ. eigenvalues --   -0.43618  -0.42469  -0.39002  -0.37577
 Alpha virt. eigenvalues --    0.18487   0.19185   0.20083   0.23569   0.25897
 Alpha virt. eigenvalues --    0.27573   0.28706   0.29707   0.30140   0.30966
 Alpha virt. eigenvalues --    0.32418   0.32676   0.33150   0.34687   0.36944
 Alpha virt. eigenvalues --    0.38365   0.41150   0.41501   0.48293   0.50439
 Alpha virt. eigenvalues --    0.52197   0.57560   0.63633   0.72020   0.72378
 Alpha virt. eigenvalues --    0.73155   0.74933   0.75712   0.76598   0.78074
 Alpha virt. eigenvalues --    0.80012   0.81038   0.84256   0.88320   0.89115
 Alpha virt. eigenvalues --    0.92264   0.94157   0.96937   0.97899   1.00180
 Alpha virt. eigenvalues --    1.00562   1.01768   1.03788   1.06553   1.10316
 Alpha virt. eigenvalues --    1.10346   1.11768   1.12833   1.13669   1.15044
 Alpha virt. eigenvalues --    1.15553   1.16045   1.17436   1.18890   1.19935
 Alpha virt. eigenvalues --    1.20779   1.22408   1.23898   1.25681   1.28622
 Alpha virt. eigenvalues --    1.33022   1.34450   1.36222   1.38965   1.39927
 Alpha virt. eigenvalues --    1.44938   1.49907   1.53865   1.59219   1.61960
 Alpha virt. eigenvalues --    1.63022   1.64828   1.66996   1.72872   1.74209
 Alpha virt. eigenvalues --    1.79735   1.83757   1.88185   1.92803   1.96956
 Alpha virt. eigenvalues --    2.01998   2.05334   2.08578   2.10754   2.11534
 Alpha virt. eigenvalues --    2.13343   2.15420   2.16955   2.21494   2.22904
 Alpha virt. eigenvalues --    2.25334   2.28933   2.31300   2.32984   2.34031
 Alpha virt. eigenvalues --    2.40025   2.40502   2.42322   2.45111   2.46427
 Alpha virt. eigenvalues --    2.51719   2.52518   2.58665   2.61326   2.63427
 Alpha virt. eigenvalues --    2.64936   2.66140   2.67892   2.71031   2.73281
 Alpha virt. eigenvalues --    2.77779   2.82319   2.87308   2.95477   2.98028
 Alpha virt. eigenvalues --    3.03367   3.05053   3.07353   3.12128   3.22607
 Alpha virt. eigenvalues --    3.30349   3.35614   3.39890   3.54885   3.57500
 Alpha virt. eigenvalues --    4.39866   4.47213   4.49502   4.59016   4.61592
 Alpha virt. eigenvalues --    4.65205   4.69151   4.82929   4.86694   5.12739
          Condensed to atoms (all electrons):
              1          2          3          4          5          6
     1  H    0.446820   0.385662  -0.018837  -0.017554  -0.029829   0.003554
     2  C    0.385662   5.258686   0.373307   0.374878   0.376372  -0.070518
     3  H   -0.018837   0.373307   0.525644  -0.024312  -0.036534   0.001315
     4  H   -0.017554   0.374878  -0.024312   0.506050  -0.034757   0.001264
     5  C   -0.029829   0.376372  -0.036534  -0.034757   4.239638   0.599180
     6  O    0.003554  -0.070518   0.001315   0.001264   0.599180   8.172376
     7  N    0.003876  -0.126948   0.003504   0.003875   0.221610  -0.107174
     8  H   -0.000018  -0.000884   0.000566   0.000659  -0.019862   0.002334
     9  C   -0.000058   0.003954  -0.000128  -0.000210  -0.027321   0.008088
    10  H    0.000000   0.000142  -0.000005  -0.000014  -0.001253   0.004525
    11  C    0.000001  -0.000052  -0.000005  -0.000005   0.004075   0.000404
    12  H    0.000000  -0.000008  -0.000001   0.000001  -0.000174  -0.000007
    13  H    0.000000   0.000002   0.000000   0.000000  -0.000021   0.000001
    14  H    0.000000  -0.000008   0.000000   0.000000  -0.000211  -0.000002
    15  C   -0.000001  -0.000031  -0.000012   0.000002  -0.003581   0.001925
    16  O    0.000000   0.000000   0.000000   0.000000  -0.000041  -0.000020
    17  N    0.000004  -0.000290   0.000033   0.000005   0.004016  -0.003421
    18  H    0.000002  -0.000752   0.000781   0.000010  -0.000747  -0.001930
    19  C    0.000000  -0.000004  -0.000001   0.000000  -0.000137  -0.000024
    20  H    0.000000   0.000000   0.000000   0.000000  -0.000009   0.000000
    21  H    0.000000  -0.000001   0.000001   0.000000   0.000014  -0.000004
    22  H    0.000000   0.000002  -0.000002   0.000000  -0.000017   0.000102
              7          8          9         10         11         12
     1  H    0.003876  -0.000018  -0.000058   0.000000   0.000001   0.000000
     2  C   -0.126948  -0.000884   0.003954   0.000142  -0.000052  -0.000008
     3  H    0.003504   0.000566  -0.000128  -0.000005  -0.000005  -0.000001
     4  H    0.003875   0.000659  -0.000210  -0.000014  -0.000005   0.000001
     5  C    0.221610  -0.019862  -0.027321  -0.001253   0.004075  -0.000174
     6  O   -0.107174   0.002334   0.008088   0.004525   0.000404  -0.000007
     7  N    7.529560   0.321662   0.121210  -0.039162  -0.053385  -0.001896
     8  H    0.321662   0.320154  -0.021181   0.002207  -0.004065   0.002783
     9  C    0.121210  -0.021181   5.106306   0.405724   0.338978  -0.039099
    10  H   -0.039162   0.002207   0.405724   0.445074  -0.030773   0.003944
    11  C   -0.053385  -0.004065   0.338978  -0.030773   5.144325   0.384956
    12  H   -0.001896   0.002783  -0.039099   0.003944   0.384956   0.541229
    13  H    0.003650  -0.000003  -0.033695  -0.001269   0.392559  -0.018792
    14  H   -0.000967   0.000902  -0.042754  -0.004021   0.390078  -0.028278
    15  C   -0.056303   0.001587   0.380252  -0.036130  -0.054365  -0.006972
    16  O    0.002776  -0.000043  -0.075648   0.002291  -0.000055   0.000238
    17  N   -0.015239   0.000165  -0.105793   0.001082   0.000259   0.001076
    18  H    0.008135  -0.000055  -0.003093   0.000284   0.000002   0.000055
    19  C   -0.000123   0.000010   0.004234  -0.000087  -0.000149  -0.000053
    20  H   -0.000065   0.000001   0.000578  -0.000015  -0.000014  -0.000005
    21  H    0.000005  -0.000002  -0.000094  -0.000002   0.000021  -0.000005
    22  H   -0.000025   0.000001  -0.000055   0.000013  -0.000004   0.000001
             13         14         15         16         17         18
     1  H    0.000000   0.000000  -0.000001   0.000000   0.000004   0.000002
     2  C    0.000002  -0.000008  -0.000031   0.000000  -0.000290  -0.000752
     3  H    0.000000   0.000000  -0.000012   0.000000   0.000033   0.000781
     4  H    0.000000   0.000000   0.000002   0.000000   0.000005   0.000010
     5  C   -0.000021  -0.000211  -0.003581  -0.000041   0.004016  -0.000747
     6  O    0.000001  -0.000002   0.001925  -0.000020  -0.003421  -0.001930
     7  N    0.003650  -0.000967  -0.056303   0.002776  -0.015239   0.008135
     8  H   -0.000003   0.000902   0.001587  -0.000043   0.000165  -0.000055
     9  C   -0.033695  -0.042754   0.380252  -0.075648  -0.105793  -0.003093
    10  H   -0.001269  -0.004021  -0.036130   0.002291   0.001082   0.000284
    11  C    0.392559   0.390078  -0.054365  -0.000055   0.000259   0.000002
    12  H   -0.018792  -0.028278  -0.006972   0.000238   0.001076   0.000055
    13  H    0.445968  -0.020184  -0.003431   0.006550   0.000399  -0.000026
    14  H   -0.020184   0.524759   0.005881   0.000069  -0.000084  -0.000011
    15  C   -0.003431   0.005881   4.125720   0.574107   0.318873  -0.017308
    16  O    0.006550   0.000069   0.574107   8.234917  -0.094735   0.002443
    17  N    0.000399  -0.000084   0.318873  -0.094735   7.295236   0.318185
    18  H   -0.000026  -0.000011  -0.017308   0.002443   0.318185   0.319752
    19  C   -0.000003   0.000003  -0.027371  -0.005329   0.194421  -0.023528
    20  H   -0.000003   0.000000  -0.001975   0.010984  -0.032209   0.002278
    21  H    0.000000   0.000000   0.000776   0.000402  -0.048534  -0.001477
    22  H    0.000000   0.000000   0.001039   0.000364  -0.047681  -0.000448
             19         20         21         22
     1  H    0.000000   0.000000   0.000000   0.000000
     2  C   -0.000004   0.000000  -0.000001   0.000002
     3  H   -0.000001   0.000000   0.000001  -0.000002
     4  H    0.000000   0.000000   0.000000   0.000000
     5  C   -0.000137  -0.000009   0.000014  -0.000017
     6  O   -0.000024   0.000000  -0.000004   0.000102
     7  N   -0.000123  -0.000065   0.000005  -0.000025
     8  H    0.000010   0.000001  -0.000002   0.000001
     9  C    0.004234   0.000578  -0.000094  -0.000055
    10  H   -0.000087  -0.000015  -0.000002   0.000013
    11  C   -0.000149  -0.000014   0.000021  -0.000004
    12  H   -0.000053  -0.000005  -0.000005   0.000001
    13  H   -0.000003  -0.000003   0.000000   0.000000
    14  H    0.000003   0.000000   0.000000   0.000000
    15  C   -0.027371  -0.001975   0.000776   0.001039
    16  O   -0.005329   0.010984   0.000402   0.000364
    17  N    0.194421  -0.032209  -0.048534  -0.047681
    18  H   -0.023528   0.002278  -0.001477  -0.000448
    19  C    4.947176   0.396527   0.401655   0.402587
    20  H    0.396527   0.434123  -0.023320  -0.021779
    21  H    0.401655  -0.023320   0.547650  -0.037513
    22  H    0.402587  -0.021779  -0.037513   0.527046
 Mulliken atomic charges:
              1
     1  H    0.226378
     2  C   -0.573508
     3  H    0.174685
     4  H    0.190107
     5  C    0.709590
     6  O   -0.611969
     7  N   -0.818578
     8  H    0.393083
     9  C   -0.020194
    10  H    0.247446
    11  C   -0.512786
    12  H    0.161005
    13  H    0.228299
    14  H    0.174827
    15  C    0.797317
    16  O   -0.659271
    17  N   -0.785769
    18  H    0.397447
    19  C   -0.289805
    20  H    0.234903
    21  H    0.160426
    22  H    0.176368
 Sum of Mulliken atomic charges =   0.00000
 Mulliken charges with hydrogens summed into heavy atoms:
              1
     2  C    0.017661
     5  C    0.709590
     6  O   -0.611969
     7  N   -0.425495
     9  C    0.227252
    11  C    0.051345
    15  C    0.797317
    16  O   -0.659271
    17  N   -0.388322
    19  C    0.281892
 Sum of Mulliken charges with hydrogens summed into heavy atoms =   0.00000
 Electronic spatial extent (au):  <R**2>=           1638.7390
 Charge=              0.0000 electrons
 Dipole moment (field-independent basis, Debye):
    X=              3.4989    Y=              0.5576    Z=             -5.2385  Tot=              6.3242
 Quadrupole moment (field-independent basis, Debye-Ang):
   XX=            -65.5772   YY=            -54.7290   ZZ=            -63.6843
   XY=              4.4264   XZ=             -2.4667   YZ=              2.3246
 Traceless Quadrupole moment (field-independent basis, Debye-Ang):
   XX=             -4.2471   YY=              6.6012   ZZ=             -2.3541
   XY=              4.4264   XZ=             -2.4667   YZ=              2.3246
 Octapole moment (field-independent basis, Debye-Ang**2):
  XXX=             39.8160  YYY=             -3.9311  ZZZ=             -6.2033  XYY=             -6.2968
  XXY=             -9.9467  XXZ=            -17.1450  XZZ=             -2.6143  YZZ=              4.2612
  YYZ=             -1.6136  XYZ=              2.6460
 Hexadecapole moment (field-independent basis, Debye-Ang**3):
 XXXX=          -1209.7580 YYYY=           -684.6718 ZZZZ=           -218.7393 XXXY=             19.2742
 XXXZ=             14.8479 YYYX=              5.2899 YYYZ=              4.1359 ZZZX=            -11.1148
 ZZZY=              3.8482 XXYY=           -297.2824 XXZZ=           -254.9186 YYZZ=           -152.0893
 XXYZ=             -1.5946 YYXZ=             -3.7365 ZZXY=              8.8254
 N-N= 5.685660879743D+02 E-N=-2.292201267083D+03  KE= 4.918668209743D+02
 Calling FoFJK, ICntrl=      2127 FMM=F ISym2X=0 I1Cent= 0 IOpClX= 0 NMat=1 NMatS=1 NMatT=0.
 ***** Axes restored to original set *****
 -------------------------------------------------------------------
 Center     Atomic                   Forces (Hartrees/Bohr)
 Number     Number              X              Y              Z
 -------------------------------------------------------------------
      1        1           0.007286380    0.002049350   -0.005839857
      2        6           0.008358965    0.002674168   -0.003691046
      3        1          -0.001526358   -0.005175564    0.001201830
      4        1          -0.004458136    0.002965280   -0.000747456
      5        6          -0.009707534    0.003170611    0.066409922
      6        8          -0.008806968   -0.017260697   -0.043290599
      7        7           0.005498313   -0.011605973   -0.022857202
      8        1           0.003574046    0.004420438    0.013387085
      9        6           0.005063278    0.003365088   -0.000767156
     10        1          -0.006538578    0.005373978   -0.002850046
     11        6           0.000529886   -0.004837890    0.000043648
     12        1           0.004635287   -0.001905321   -0.000421226
     13        1          -0.007371427   -0.003009445   -0.001431308
     14        1           0.000628896    0.003597613   -0.002510845
     15        6           0.031818703    0.027140119    0.011337250
     16        8          -0.028681250   -0.027179498   -0.001604566
     17        7          -0.012752798    0.002119039   -0.007220992
     18        1           0.017841631    0.015291173    0.000355032
     19        6          -0.001154363    0.002025488    0.000778922
     20        1          -0.007879571   -0.006432594    0.000054177
     21        1           0.001630023    0.001956904    0.003930369
     22        1           0.002011575    0.001257732   -0.004265937
 -------------------------------------------------------------------
 Cartesian Forces:  Max     0.066409922 RMS     0.013775538

 GradGradGradGradGradGradGradGradGradGradGradGradGradGradGradGradGradGrad
 Berny optimization.
 Internal  Forces:  Max     0.047165939 RMS     0.009573188
 Search for a local minimum.
 Step number   1 out of a maximum of  108
 All quantities printed in internal units (Hartrees-Bohrs-Radians)
 Mixed Optimization -- RFO/linear search
 Second derivative matrix not updated -- first step.
     Eigenvalues ---    0.00368   0.00435   0.00999   0.01044   0.01269
     Eigenvalues ---    0.01422   0.01661   0.02551   0.02551   0.03503
     Eigenvalues ---    0.05232   0.05841   0.05844   0.05844   0.07165
     Eigenvalues ---    0.07463   0.07685   0.07685   0.15421   0.16000
     Eigenvalues ---    0.16000   0.16000   0.16000   0.16000   0.16000
     Eigenvalues ---    0.16000   0.16000   0.16000   0.16000   0.16000
     Eigenvalues ---    0.16180   0.22000   0.22000   0.25000   0.25000
     Eigenvalues ---    0.25000   0.25000   0.29418   0.29887   0.30174
     Eigenvalues ---    0.34808   0.34810   0.34811   0.34812   0.34813
     Eigenvalues ---    0.34813   0.34816   0.34818   0.34818   0.34821
     Eigenvalues ---    0.38379   0.38384   0.45963   0.45968   0.58335
     Eigenvalues ---    0.58337   0.91507   0.915191000.000001000.00000
     Eigenvalues --- 1000.000001000.000001000.000001000.000001000.00000
     Eigenvalues --- 1000.000001000.000001000.000001000.000001000.00000
     Eigenvalues --- 1000.000001000.000001000.000001000.000001000.00000
     Eigenvalues --- 1000.000001000.000001000.000001000.000001000.00000
     Eigenvalues --- 1000.000001000.000001000.000001000.000001000.00000
     Eigenvalues --- 1000.000001000.000001000.000001000.000001000.00000
     Eigenvalues --- 1000.000001000.000001000.000001000.000001000.00000
     Eigenvalues --- 1000.000001000.000001000.00000
 RFO step:  Lambda=-2.54048856D-02 EMin= 3.68308990D-03
 Linear search not attempted -- first point.
 Maximum step size (   0.300) exceeded in Quadratic search.
    -- Step size scaled by   0.842
 Iteration  1 RMS(Cart)=  0.21506259 RMS(Int)=  0.00563421
 Iteration  2 RMS(Cart)=  0.01039390 RMS(Int)=  0.00046984
 Iteration  3 RMS(Cart)=  0.00002898 RMS(Int)=  0.00046944
 Iteration  4 RMS(Cart)=  0.00000001 RMS(Int)=  0.00046944
 Iteration  1 RMS(Cart)=  0.00025894 RMS(Int)=  0.00012209
 Iteration  2 RMS(Cart)=  0.00017147 RMS(Int)=  0.00013497
 Iteration  3 RMS(Cart)=  0.00011715 RMS(Int)=  0.00015441
 Iteration  4 RMS(Cart)=  0.00008122 RMS(Int)=  0.00017042
 Iteration  5 RMS(Cart)=  0.00005660 RMS(Int)=  0.00018218
 Iteration  6 RMS(Cart)=  0.00003949 RMS(Int)=  0.00019052
 Iteration  7 RMS(Cart)=  0.00002752 RMS(Int)=  0.00019636
 Iteration  8 RMS(Cart)=  0.00001916 RMS(Int)=  0.00020043
 Iteration  9 RMS(Cart)=  0.00001332 RMS(Int)=  0.00020325
 Iteration 10 RMS(Cart)=  0.00000924 RMS(Int)=  0.00020520
 Iteration 11 RMS(Cart)=  0.00000641 RMS(Int)=  0.00020655
 Iteration 12 RMS(Cart)=  0.00000444 RMS(Int)=  0.00020749
 Iteration 13 RMS(Cart)=  0.00000308 RMS(Int)=  0.00020813
 Iteration 14 RMS(Cart)=  0.00000213 RMS(Int)=  0.00020858
 Iteration 15 RMS(Cart)=  0.00000148 RMS(Int)=  0.00020889
 Iteration 16 RMS(Cart)=  0.00000102 RMS(Int)=  0.00020910
 Iteration 17 RMS(Cart)=  0.00000071 RMS(Int)=  0.00020925
 Variable       Old X    -DE/DX   Delta X   Delta X   Delta X     New X
                                 (Linear)    (Quad)   (Total)
    R1        2.05981  -0.00869   0.00000  -0.01959  -0.01959   2.04022
    R2        2.05971  -0.00244   0.00000  -0.00550  -0.00550   2.05421
    R3        2.05988  -0.00333   0.00000  -0.00750  -0.00750   2.05237
    R4        2.89139  -0.00887   0.00000  -0.02338  -0.02338   2.86801
    R5        2.32241  -0.04717   0.00000  -0.04224  -0.04224   2.28017
    R6        2.52283   0.01701   0.00000   0.02354   0.02354   2.54637
    R7        1.90868  -0.01438   0.00000  -0.02498  -0.02498   1.88370
    R8        2.73817   0.00815   0.00000   0.01677   0.01677   2.75494
    R9        2.05975  -0.00712   0.00000  -0.01606  -0.01606   2.04368
   R10        2.88188   0.00424   0.00000   0.01102   0.01102   2.89290
   R11        2.87618   0.01585   0.00000   0.04081   0.04081   2.91699
   R12        2.05972  -0.00247   0.00000  -0.00556  -0.00556   2.05416
   R13        2.05984  -0.00796   0.00000  -0.01796  -0.01796   2.04188
   R14        2.05966  -0.00346   0.00000  -0.00780  -0.00780   2.05186
   R15        2.32246  -0.03916   0.00000  -0.03508  -0.03508   2.28739
   R16        2.52281   0.00617   0.00000   0.00854   0.00854   2.53136
   R17        1.90873  -0.02348   0.00000  -0.04079  -0.04079   1.86794
   R18        2.73810  -0.00018   0.00000  -0.00037  -0.00037   2.73773
   R19        2.05983  -0.01004   0.00000  -0.02265  -0.02265   2.03718
   R20        2.05979  -0.00359   0.00000  -0.00810  -0.00810   2.05169
   R21        2.05979  -0.00423   0.00000  -0.00955  -0.00955   2.05024
    A1        1.91121  -0.00005   0.00000  -0.00133  -0.00105   1.91017
    A2        1.91105   0.00045   0.00000   0.00028   0.00049   1.91155
    A3        1.93898  -0.00803   0.00000  -0.03789  -0.03764   1.90134
    A4        1.91021  -0.00519   0.00000  -0.02060  -0.02114   1.88907
    A5        1.89610   0.00710   0.00000   0.03313   0.03300   1.92910
    A6        1.89602   0.00576   0.00000   0.02670   0.02653   1.92254
    A7        2.10316   0.00859   0.00000   0.02626   0.02626   2.12942
    A8        2.03501  -0.00557   0.00000  -0.01705  -0.01705   2.01797
    A9        2.14502  -0.00301   0.00000  -0.00921  -0.00921   2.13580
   A10        2.09437  -0.00606   0.00000  -0.02274  -0.02282   2.07155
   A11        2.12757   0.00864   0.00000   0.02967   0.02958   2.15715
   A12        2.06124  -0.00258   0.00000  -0.00694  -0.00703   2.05421
   A13        1.91114  -0.00576   0.00000  -0.03543  -0.03458   1.87656
   A14        1.93905  -0.01259   0.00000  -0.04668  -0.04965   1.88940
   A15        1.93900   0.02544   0.00000   0.13381   0.13493   2.07393
   A16        1.89609   0.00734   0.00000   0.00446   0.00279   1.89888
   A17        1.89608  -0.00722   0.00000  -0.05615  -0.05553   1.84055
   A18        1.88137  -0.00741   0.00000  -0.00229  -0.00243   1.87894
   A19        1.91115   0.00560   0.00000   0.02561   0.02547   1.93662
   A20        1.91106  -0.00070   0.00000  -0.00471  -0.00468   1.90639
   A21        1.91110   0.00316   0.00000   0.01572   0.01557   1.92666
   A22        1.91011  -0.00307   0.00000  -0.01670  -0.01666   1.89344
   A23        1.91023  -0.00368   0.00000  -0.01366  -0.01396   1.89627
   A24        1.91015  -0.00131   0.00000  -0.00629  -0.00627   1.90388
   A25        2.10310  -0.01910   0.00000  -0.05841  -0.05843   2.04468
   A26        2.03511   0.02596   0.00000   0.07940   0.07939   2.11450
   A27        2.14498  -0.00686   0.00000  -0.02099  -0.02100   2.12398
   A28        2.09439  -0.00118   0.00000  -0.00321  -0.00323   2.09116
   A29        2.12765   0.00384   0.00000   0.01319   0.01317   2.14082
   A30        2.06115  -0.00266   0.00000  -0.00997  -0.00999   2.05116
   A31        1.91114  -0.00388   0.00000  -0.01927  -0.01919   1.89195
   A32        1.91122   0.00444   0.00000   0.02122   0.02114   1.93235
   A33        1.91122   0.00335   0.00000   0.01582   0.01572   1.92694
   A34        1.91007  -0.00066   0.00000  -0.00416  -0.00406   1.90601
   A35        1.91007  -0.00045   0.00000  -0.00418  -0.00412   1.90595
   A36        1.91007  -0.00280   0.00000  -0.00944  -0.00969   1.90039
    D1       -0.00019  -0.00006   0.00000   0.00002   0.00005  -0.00014
    D2       -3.14159  -0.00005   0.00000   0.00028   0.00031  -3.14128
    D3        2.10322  -0.00050   0.00000  -0.00365  -0.00399   2.09923
    D4       -1.03818  -0.00049   0.00000  -0.00339  -0.00372  -1.04190
    D5       -2.10335   0.00063   0.00000   0.00585   0.00616  -2.09719
    D6        1.03844   0.00064   0.00000   0.00612   0.00642   1.04486
    D7       -0.00016  -0.00224   0.00000  -0.01175  -0.01151  -0.01167
    D8        3.14159   0.00240   0.00000   0.01425   0.01401  -3.12759
    D9       -3.14155  -0.00223   0.00000  -0.01149  -0.01125   3.13038
   D10        0.00019   0.00241   0.00000   0.01451   0.01427   0.01446
   D11        0.78529  -0.00344   0.00000  -0.00836  -0.00838   0.77691
   D12        2.87973  -0.00600   0.00000  -0.05533  -0.05412   2.82561
   D13       -1.30910  -0.00678   0.00000   0.00000   0.00000  -1.30910
   D14       -2.35615   0.00111   0.00000   0.01716   0.01690  -2.33925
   D15       -0.26171  -0.00145   0.00000  -0.02980  -0.02883  -0.29054
   D16        1.83264  -0.00223   0.00000   0.02552   0.02529   1.85793
   D17        1.04724   0.01012   0.00000   0.07132   0.07079   1.11803
   D18        3.14157   0.00936   0.00000   0.06367   0.06304  -3.07857
   D19       -1.04726   0.00927   0.00000   0.06271   0.06200  -0.98526
   D20       -3.13259  -0.00005   0.00000   0.00146   0.00176  -3.13084
   D21       -1.03826  -0.00081   0.00000  -0.00619  -0.00599  -1.04426
   D22        1.05609  -0.00091   0.00000  -0.00715  -0.00703   1.04906
   D23       -1.08102  -0.00872   0.00000  -0.06390  -0.06339  -1.14441
   D24        1.01331  -0.00948   0.00000  -0.07155  -0.07114   0.94217
   D25        3.10766  -0.00957   0.00000  -0.07251  -0.07218   3.03548
   D26        3.14159   0.00265   0.00000   0.00992   0.00905  -3.13254
   D27        0.00000  -0.00034   0.00000   0.00000   0.00000   0.00000
   D28        1.03828  -0.00130   0.00000   0.00727   0.00793   1.04621
   D29       -2.10332  -0.00429   0.00000  -0.00265  -0.00112  -2.10444
   D30       -1.01330  -0.00205   0.00000   0.03344   0.03440  -0.97891
   D31        2.12829  -0.00504   0.00000   0.02352   0.02535   2.15364
   D32        0.00000   0.00143   0.00000   0.00434   0.00400   0.00400
   D33        3.14159   0.00089   0.00000  -0.00653  -0.00690   3.13469
   D34        3.14159  -0.00164   0.00000  -0.00584  -0.00547   3.13612
   D35        0.00000  -0.00218   0.00000  -0.01671  -0.01637  -0.01637
   D36        0.00000   0.00013   0.00000   0.00416   0.00416   0.00416
   D37        2.09438  -0.00035   0.00000   0.00025   0.00011   2.09449
   D38       -2.09438   0.00101   0.00000   0.01141   0.01152  -2.08286
   D39        3.14159  -0.00040   0.00000  -0.00652  -0.00650   3.13510
   D40       -1.04721  -0.00088   0.00000  -0.01042  -0.01055  -1.05776
   D41        1.04721   0.00048   0.00000   0.00073   0.00086   1.04807
         Item               Value     Threshold  Converged?
 Maximum Force            0.047166     0.000450     NO 
 RMS     Force            0.009607     0.000300     NO 
 Maximum Displacement     0.746338     0.001800     NO 
 RMS     Displacement     0.213234     0.001200     NO 
 Predicted change in Energy=-1.345370D-02
 GradGradGradGradGradGradGradGradGradGradGradGradGradGradGradGradGradGrad

                          Input orientation:                          
 ---------------------------------------------------------------------
 Center     Atomic      Atomic             Coordinates (Angstroms)
 Number     Number       Type             X           Y           Z
 ---------------------------------------------------------------------
      1          1           0        0.940047    2.890883    1.890242
      2          6           0        1.481783    2.915782    0.956689
      3          1           0        0.841848    3.322355    0.177687
      4          1           0        1.762706    1.905754    0.673014
      5          6           0        2.721326    3.774351    1.129223
      6          8           0        2.987527    4.309923    2.177180
      7          7           0        3.501055    3.898057    0.037239
      8          1           0        3.233930    3.423678   -0.797771
      9          6           0        4.739563    4.666730    0.013257
     10          1           0        5.289844    4.425572    0.912485
     11          6           0        5.557992    4.219629   -1.200744
     12          1           0        5.040435    4.455844   -2.126993
     13          1           0        6.508155    4.734121   -1.198382
     14          1           0        5.734014    3.148798   -1.164736
     15          6           0        4.658549    6.207876   -0.018589
     16          8           0        5.704995    6.815535   -0.047722
     17          7           0        3.477408    6.839722   -0.024378
     18          1           0        2.639567    6.315599   -0.004641
     19          6           0        3.363367    8.283813   -0.045558
     20          1           0        4.356291    8.703411   -0.059127
     21          1           0        2.824170    8.613572   -0.928332
     22          1           0        2.839627    8.634895    0.837355
 ---------------------------------------------------------------------
                    Distance matrix (angstroms):
                    1          2          3          4          5
     1  H    0.000000
     2  C    1.079638   0.000000
     3  H    1.768800   1.087043   0.000000
     4  H    1.768867   1.086069   1.760707   0.000000
     5  C    2.128995   1.517688   2.154567   2.149125   0.000000
     6  O    2.507625   2.387571   3.094706   3.089132   1.206612
     7  N    3.317647   2.426461   2.724435   2.719438   1.347483
     8  H    3.573679   2.531028   2.585313   2.575228   2.024609
     9  C    4.594891   3.816937   4.126326   4.113386   2.472853
    10  H    4.715083   4.096675   4.641303   4.341375   2.658637
    11  C    5.713595   4.792704   4.994716   4.823814   3.697796
    12  H    5.949828   4.954280   4.921837   5.008643   4.055323
    13  H    6.628797   5.763255   5.999474   5.832759   4.547415
    14  H    5.690477   4.757752   5.075974   4.549041   3.837949
    15  C    5.336041   4.677701   4.788733   5.231871   3.315471
    16  O    6.470187   5.835446   5.991937   6.337748   4.419986
    17  N    5.069250   4.510246   4.399873   5.269782   3.361392
    18  H    4.267039   3.717980   3.496362   4.546959   2.783931
    19  C    6.221213   5.775865   5.569916   6.614991   4.703996
    20  H    7.018278   6.541507   6.431419   7.312377   5.327374
    21  H    6.651575   6.149806   5.757592   6.977524   5.259484
    22  H    6.140899   5.879306   5.713963   6.816752   4.870736
                    6          7          8          9         10
     6  O    0.000000
     7  N    2.238904   0.000000
     8  H    3.113917   0.996812   0.000000
     9  C    2.807045   1.457852   2.114208   0.000000
    10  H    2.629352   2.060120   2.855793   1.081470   0.000000
    11  C    4.245682   2.422189   2.489416   1.530858   2.140106
    12  H    4.770915   2.713801   2.468939   2.171559   3.049844
    13  H    4.895834   3.356846   3.549409   2.144885   2.456674
    14  H    4.478817   2.644284   2.541780   2.163497   2.478363
    15  C    3.349021   2.584216   3.223108   1.543602   2.107615
    16  O    4.314268   3.657354   4.263030   2.356510   2.608883
    17  N    3.389207   2.942405   3.510951   2.513234   3.160816
    18  H    2.983983   2.566793   3.057046   2.670032   3.381907
    19  C    4.568766   4.388698   4.919705   3.870486   4.417599
    20  H    5.116377   4.881817   5.448015   4.055481   4.485025
    21  H    5.309640   4.860718   5.207682   4.486968   5.196874
    22  H    4.530164   4.849258   5.475938   4.476072   4.871099
                   11         12         13         14         15
    11  C    0.000000
    12  H    1.087014   0.000000
    13  H    1.080517   1.758965   0.000000
    14  H    1.085799   1.765038   1.764561   0.000000
    15  C    2.481857   2.767819   2.642898   3.439220   0.000000
    16  O    2.844257   3.214521   2.510253   3.833213   1.210432
    17  N    3.546485   3.542162   3.872630   4.473880   1.339536
    18  H    3.786946   3.705028   4.346500   4.577123   2.021902
    19  C    4.761137   4.668862   4.880472   5.765492   2.446986
    20  H    4.780343   4.773463   4.656574   5.828740   2.514100
    21  H    5.182155   4.861617   5.356753   6.195711   3.159106
    22  H    5.571169   5.576323   5.728731   6.517906   3.151434
                   16         17         18         19         20
    16  O    0.000000
    17  N    2.227840   0.000000
    18  H    3.106226   0.988470   0.000000
    19  C    2.763886   1.448742   2.097481   0.000000
    20  H    2.320174   2.060819   2.941387   1.078028   0.000000
    21  H    3.508213   2.095327   2.483539   1.085709   1.763798
    22  H    3.507672   2.090931   2.475503   1.084941   1.763134
                   21         22
    21  H    0.000000
    22  H    1.765884   0.000000
 Stoichiometry    C6H12N2O2
 Framework group  C1[X(C6H12N2O2)]
 Deg. of freedom    60
 Full point group                 C1      NOp   1
 Largest Abelian subgroup         C1      NOp   1
 Largest concise Abelian subgroup C1      NOp   1
                         Standard orientation:                         
 ---------------------------------------------------------------------
 Center     Atomic      Atomic             Coordinates (Angstroms)
 Number     Number       Type             X           Y           Z
 ---------------------------------------------------------------------
      1          1           0        3.735574   -1.456566    0.023651
      2          6           0        3.198020   -0.700876   -0.529149
      3          1           0        2.953621   -1.080962   -1.517818
      4          1           0        3.825965    0.177213   -0.648278
      5          6           0        1.934157   -0.340808    0.230046
      6          8           0        1.647745   -0.863057    1.279397
      7          7           0        1.156357    0.597348   -0.344932
      8          1           0        1.450701    0.999703   -1.208127
      9          6           0       -0.086088    1.085194    0.241302
     10          1           0        0.096713    1.260057    1.292769
     11          6           0       -0.440739    2.416618   -0.425825
     12          1           0       -0.642585    2.279204   -1.485058
     13          1           0       -1.325597    2.824225    0.041508
     14          1           0        0.376026    3.123717   -0.316902
     15          6           0       -1.339006    0.185297    0.185682
     16          8           0       -2.356400    0.624200    0.672938
     17          7           0       -1.298399   -1.024393   -0.388214
     18          1           0       -0.453498   -1.353542   -0.781757
     19          6           0       -2.451692   -1.898918   -0.451277
     20          1           0       -3.282485   -1.401162    0.022184
     21          1           0       -2.709080   -2.121353   -1.482314
     22          1           0       -2.249733   -2.829409    0.068815
 ---------------------------------------------------------------------
 Rotational constants (GHZ):      1.8306600      0.8996298      0.6995615
 Standard basis: 6-31G(d) (6D, 7F)
 There are   174 symmetry adapted basis functions of A   symmetry.
 Integral buffers will be    131072 words long.
 Raffenetti 1 integral format.
 Two-electron integral symmetry is turned on.
   174 basis functions,   328 primitive gaussians,   174 cartesian basis functions
    39 alpha electrons       39 beta electrons
       nuclear repulsion energy       560.2125234882 Hartrees.
 NAtoms=   22 NActive=   22 NUniq=   22 SFac= 7.50D-01 NAtFMM=   80 NAOKFM=F Big=F
 One-electron integrals computed using PRISM.
 NBasis=   174 RedAO= T  NBF=   174
 NBsUse=   174 1.00D-06 NBFU=   174
 Initial guess read from the read-write file.
 B after Tr=     0.000000    0.000000    0.000000
         Rot=    1.000000    0.000000    0.000000    0.000000 Ang=   0.00 deg.
 Initial guess orbital symmetries:
       Occupied  (A) (A) (A) (A) (A) (A) (A) (A) (A) (A) (A) (A)
                 (A) (A) (A) (A) (A) (A) (A) (A) (A) (A) (A) (A)
                 (A) (A) (A) (A) (A) (A) (A) (A) (A) (A) (A) (A)
                 (A) (A) (A)
       Virtual   (A) (A) (A) (A) (A) (A) (A) (A) (A) (A) (A) (A)
                 (A) (A) (A) (A) (A) (A) (A) (A) (A) (A) (A) (A)
                 (A) (A) (A) (A) (A) (A) (A) (A) (A) (A) (A) (A)
                 (A) (A) (A) (A) (A) (A) (A) (A) (A) (A) (A) (A)
                 (A) (A) (A) (A) (A) (A) (A) (A) (A) (A) (A) (A)
                 (A) (A) (A) (A) (A) (A) (A) (A) (A) (A) (A) (A)
                 (A) (A) (A) (A) (A) (A) (A) (A) (A) (A) (A) (A)
                 (A) (A) (A) (A) (A) (A) (A) (A) (A) (A) (A) (A)
                 (A) (A) (A) (A) (A) (A) (A) (A) (A) (A) (A) (A)
                 (A) (A) (A) (A) (A) (A) (A) (A) (A) (A) (A) (A)
                 (A) (A) (A) (A) (A) (A) (A) (A) (A) (A) (A) (A)
                 (A) (A) (A)
 Harris functional with IExCor=  205 diagonalized for initial guess.
 ExpMin= 1.61D-01 ExpMax= 5.48D+03 ExpMxC= 8.25D+02 IAcc=1 IRadAn=         1 AccDes= 0.00D+00
 HarFok:  IExCor=  205 AccDes= 0.00D+00 IRadAn=         1 IDoV= 1
 ScaDFX=  1.000000  1.000000  1.000000  1.000000
 FoFCou: FMM=F IPFlag=           0 FMFlag=      100000 FMFlg1=           0
         NFxFlg=           0 DoJE=T BraDBF=F KetDBF=T FulRan=T
         Omega=  0.000000  0.000000  1.000000  0.000000  0.000000 ICntrl=     500 IOpCl=  0
         NMat0=    1 NMatS0=    1 NMatT0=    0 NMatD0=    1 NMtDS0=    0 NMtDT0=    0
         I1Cent=           4 NGrid=           0.
 Petite list used in FoFCou.
 Requested convergence on RMS density matrix=1.00D-08 within 128 cycles.
 Requested convergence on MAX density matrix=1.00D-06.
 Requested convergence on             energy=1.00D-06.
 No special actions if energy rises.
 Integral accuracy reduced to 1.0D-05 until final iterations.
 Initial convergence to 1.0D-05 achieved.  Increase integral accuracy.
 SCF Done:  E(RHF) =  -492.852835733     A.U. after   14 cycles
             Convg  =    0.4448D-08             -V/T =  2.0016
 Calling FoFJK, ICntrl=      2127 FMM=F ISym2X=0 I1Cent= 0 IOpClX= 0 NMat=1 NMatS=1 NMatT=0.
 ***** Axes restored to original set *****
 -------------------------------------------------------------------
 Center     Atomic                   Forces (Hartrees/Bohr)
 Number     Number              X              Y              Z
 -------------------------------------------------------------------
      1        1           0.000348396    0.000052094   -0.000143986
      2        6           0.002838889    0.000618886   -0.001852272
      3        1           0.000287198   -0.001053000    0.000542521
      4        1          -0.001206692    0.000189083   -0.000096570
      5        6          -0.002907365    0.002116964    0.020613300
      6        8          -0.002145466   -0.003939559   -0.010890936
      7        7           0.001265779    0.012338569   -0.010104971
      8        1           0.000415714    0.001498004    0.001605440
      9        6          -0.000354183   -0.004462842   -0.003438552
     10        1          -0.000435292    0.003035641    0.000554566
     11        6           0.002527864   -0.000208196    0.001416222
     12        1           0.000270068   -0.000129820   -0.000100390
     13        1          -0.000726301   -0.000821989   -0.001372065
     14        1          -0.000301039    0.000743957    0.000192472
     15        6           0.011190553    0.007060880    0.003282114
     16        8          -0.004945333   -0.008908246    0.000907641
     17        7          -0.003610910   -0.002245815   -0.004053947
     18        1          -0.002209983   -0.004801797    0.002160735
     19        6           0.000139080   -0.000549959    0.000799487
     20        1          -0.001022326   -0.000217218    0.000007839
     21        1           0.000333490   -0.000295134    0.000516820
     22        1           0.000247859   -0.000020505   -0.000545467
 -------------------------------------------------------------------
 Cartesian Forces:  Max     0.020613300 RMS     0.004381284

 GradGradGradGradGradGradGradGradGradGradGradGradGradGradGradGradGradGrad
 Berny optimization.
 Using GEDIIS/GDIIS optimizer.
 Internal  Forces:  Max     0.017536304 RMS     0.003653636
 Search for a local minimum.
 Step number   2 out of a maximum of  108
 All quantities printed in internal units (Hartrees-Bohrs-Radians)
 Mixed Optimization -- RFO/linear search
 Update second derivatives using D2CorX and points    1    2
 DE= -7.52D-03 DEPred=-1.35D-02 R= 5.59D-01
 SS=  1.41D+00  RLast= 3.00D-01 DXNew= 5.0454D-01 8.9957D-01
 Trust test= 5.59D-01 RLast= 3.00D-01 DXMaxT set to 5.05D-01
 Use linear search instead of GDIIS.
     Eigenvalues ---    0.00368   0.00435   0.01012   0.01044   0.01246
     Eigenvalues ---    0.01415   0.01661   0.02548   0.02553   0.03028
     Eigenvalues ---    0.05638   0.05678   0.05795   0.06057   0.07180
     Eigenvalues ---    0.07290   0.07502   0.07737   0.15579   0.15992
     Eigenvalues ---    0.15997   0.16000   0.16000   0.16000   0.16000
     Eigenvalues ---    0.16000   0.16000   0.16000   0.16000   0.17125
     Eigenvalues ---    0.18449   0.21810   0.22068   0.24329   0.25000
     Eigenvalues ---    0.25000   0.28822   0.29345   0.29863   0.33830
     Eigenvalues ---    0.34796   0.34808   0.34811   0.34812   0.34813
     Eigenvalues ---    0.34815   0.34816   0.34818   0.34821   0.36565
     Eigenvalues ---    0.38381   0.40312   0.45749   0.49175   0.57277
     Eigenvalues ---    0.58363   0.84900   0.915171000.000001000.00000
     Eigenvalues --- 1000.000001000.000001000.000001000.000001000.00000
     Eigenvalues --- 1000.000001000.000001000.000001000.000001000.00000
     Eigenvalues --- 1000.000001000.000001000.000001000.000001000.00000
     Eigenvalues --- 1000.000001000.000001000.000001000.000001000.00000
     Eigenvalues --- 1000.000001000.000001000.000001000.000001000.00000
     Eigenvalues --- 1000.000001000.000001000.000001000.000001000.00000
     Eigenvalues --- 1000.000001000.000001000.000001000.000001000.00000
     Eigenvalues --- 1000.000001000.000001000.00000
 RFO step:  Lambda=-2.96403728D-03 EMin= 3.68310184D-03
 Quartic linear search produced a step of -0.19996.
 Iteration  1 RMS(Cart)=  0.07406456 RMS(Int)=  0.00088871
 Iteration  2 RMS(Cart)=  0.00178846 RMS(Int)=  0.00018306
 Iteration  3 RMS(Cart)=  0.00000070 RMS(Int)=  0.00018306
 Iteration  1 RMS(Cart)=  0.00010118 RMS(Int)=  0.00004613
 Iteration  2 RMS(Cart)=  0.00006555 RMS(Int)=  0.00005106
 Iteration  3 RMS(Cart)=  0.00004400 RMS(Int)=  0.00005833
 Iteration  4 RMS(Cart)=  0.00003012 RMS(Int)=  0.00006419
 Iteration  5 RMS(Cart)=  0.00002080 RMS(Int)=  0.00006842
 Iteration  6 RMS(Cart)=  0.00001442 RMS(Int)=  0.00007138
 Iteration  7 RMS(Cart)=  0.00000999 RMS(Int)=  0.00007342
 Iteration  8 RMS(Cart)=  0.00000692 RMS(Int)=  0.00007482
 Iteration  9 RMS(Cart)=  0.00000479 RMS(Int)=  0.00007579
 Iteration 10 RMS(Cart)=  0.00000331 RMS(Int)=  0.00007645
 Iteration 11 RMS(Cart)=  0.00000229 RMS(Int)=  0.00007691
 Iteration 12 RMS(Cart)=  0.00000158 RMS(Int)=  0.00007722
 Iteration 13 RMS(Cart)=  0.00000109 RMS(Int)=  0.00007743
 Iteration 14 RMS(Cart)=  0.00000075 RMS(Int)=  0.00007758
 Variable       Old X    -DE/DX   Delta X   Delta X   Delta X     New X
                                 (Linear)    (Quad)   (Total)
    R1        2.04022  -0.00030   0.00392  -0.00787  -0.00396   2.03626
    R2        2.05421  -0.00095   0.00110  -0.00419  -0.00309   2.05113
    R3        2.05237  -0.00046   0.00150  -0.00381  -0.00231   2.05007
    R4        2.86801  -0.00157   0.00468  -0.01271  -0.00804   2.85998
    R5        2.28017  -0.01168   0.00845  -0.02623  -0.01779   2.26238
    R6        2.54637   0.00842  -0.00471   0.02033   0.01562   2.56200
    R7        1.88370  -0.00217   0.00499  -0.01305  -0.00805   1.87565
    R8        2.75494  -0.00530  -0.00335  -0.00478  -0.00813   2.74681
    R9        2.04368  -0.00044   0.00321  -0.00689  -0.00368   2.04000
   R10        2.89290   0.00096  -0.00220   0.00655   0.00435   2.89725
   R11        2.91699  -0.01003  -0.00816  -0.01149  -0.01965   2.89733
   R12        2.05416  -0.00007   0.00111  -0.00220  -0.00109   2.05307
   R13        2.04188  -0.00103   0.00359  -0.00895  -0.00536   2.03653
   R14        2.05186  -0.00078   0.00156  -0.00463  -0.00307   2.04879
   R15        2.28739  -0.00877   0.00701  -0.02097  -0.01396   2.27343
   R16        2.53136   0.00157  -0.00171   0.00535   0.00364   2.53500
   R17        1.86794   0.00446   0.00816  -0.00746   0.00069   1.86863
   R18        2.73773  -0.00107   0.00007  -0.00234  -0.00227   2.73546
   R19        2.03718  -0.00103   0.00453  -0.01065  -0.00612   2.03105
   R20        2.05169  -0.00068   0.00162  -0.00451  -0.00289   2.04880
   R21        2.05024  -0.00057   0.00191  -0.00480  -0.00289   2.04735
    A1        1.91017  -0.00011   0.00021  -0.00116  -0.00099   1.90918
    A2        1.91155  -0.00043  -0.00010  -0.00192  -0.00204   1.90951
    A3        1.90134  -0.00070   0.00753  -0.01650  -0.00901   1.89234
    A4        1.88907  -0.00108   0.00423  -0.01233  -0.00806   1.88101
    A5        1.92910   0.00078  -0.00660   0.01517   0.00857   1.93767
    A6        1.92254   0.00152  -0.00530   0.01674   0.01145   1.93399
    A7        2.12942   0.00221  -0.00525   0.01641   0.01116   2.14058
    A8        2.01797  -0.00180   0.00341  -0.01182  -0.00842   2.00955
    A9        2.13580  -0.00041   0.00184  -0.00459  -0.00275   2.13305
   A10        2.07155   0.00073   0.00456  -0.00529  -0.00076   2.07079
   A11        2.15715  -0.00123  -0.00592   0.00603   0.00008   2.15723
   A12        2.05421   0.00048   0.00141  -0.00126   0.00012   2.05433
   A13        1.87656   0.00257   0.00691   0.00544   0.01137   1.88793
   A14        1.88940   0.00388   0.00993   0.00100   0.01178   1.90118
   A15        2.07393  -0.01044  -0.02698  -0.01514  -0.04251   2.03142
   A16        1.89888  -0.00187  -0.00056   0.01770   0.01739   1.91627
   A17        1.84055   0.00029   0.01110  -0.02762  -0.01699   1.82356
   A18        1.87894   0.00573   0.00049   0.02097   0.02162   1.90056
   A19        1.93662   0.00014  -0.00509   0.00864   0.00356   1.94018
   A20        1.90639   0.00203   0.00094   0.00969   0.01060   1.91698
   A21        1.92666  -0.00078  -0.00311   0.00088  -0.00221   1.92446
   A22        1.89344  -0.00100   0.00333  -0.00948  -0.00618   1.88726
   A23        1.89627   0.00001   0.00279  -0.00734  -0.00448   1.89178
   A24        1.90388  -0.00043   0.00125  -0.00282  -0.00157   1.90231
   A25        2.04468   0.00278   0.01168  -0.01215  -0.00049   2.04419
   A26        2.11450  -0.01754  -0.01587  -0.02693  -0.04283   2.07167
   A27        2.12398   0.01475   0.00420   0.03917   0.04335   2.16732
   A28        2.09116  -0.00412   0.00065  -0.01970  -0.01922   2.07194
   A29        2.14082   0.00277  -0.00263   0.01453   0.01172   2.15254
   A30        2.05116   0.00134   0.00200   0.00482   0.00663   2.05780
   A31        1.89195   0.00029   0.00384  -0.00487  -0.00105   1.89089
   A32        1.93235  -0.00026  -0.00423   0.00564   0.00143   1.93379
   A33        1.92694   0.00025  -0.00314   0.00666   0.00354   1.93047
   A34        1.90601  -0.00006   0.00081  -0.00178  -0.00098   1.90503
   A35        1.90595  -0.00016   0.00082  -0.00156  -0.00075   1.90521
   A36        1.90039  -0.00006   0.00194  -0.00423  -0.00225   1.89814
    D1       -0.00014   0.00001  -0.00001   0.00033   0.00030   0.00016
    D2       -3.14128   0.00006  -0.00006   0.00272   0.00265  -3.13863
    D3        2.09923  -0.00008   0.00080  -0.00222  -0.00139   2.09784
    D4       -1.04190  -0.00003   0.00074   0.00017   0.00095  -1.04095
    D5       -2.09719   0.00005  -0.00123   0.00277   0.00151  -2.09569
    D6        1.04486   0.00010  -0.00128   0.00516   0.00385   1.04871
    D7       -0.01167   0.00033   0.00230   0.01266   0.01491   0.00324
    D8       -3.12759   0.00147  -0.00280   0.03705   0.03431  -3.09328
    D9        3.13038   0.00038   0.00225   0.01506   0.01724  -3.13556
   D10        0.01446   0.00151  -0.00285   0.03944   0.03664   0.05110
   D11        0.77691  -0.00310   0.00168  -0.04242  -0.04093   0.73597
   D12        2.82561  -0.00188   0.01082  -0.01814  -0.00750   2.81811
   D13       -1.30910   0.00148   0.00000   0.00000   0.00000  -1.30910
   D14       -2.33925  -0.00198  -0.00338  -0.01821  -0.02169  -2.36094
   D15       -0.29054  -0.00076   0.00577   0.00607   0.01174  -0.27881
   D16        1.85793   0.00260  -0.00506   0.02421   0.01924   1.87717
   D17        1.11803  -0.00382  -0.01416  -0.01502  -0.02904   1.08899
   D18       -3.07857  -0.00367  -0.01261  -0.01522  -0.02766  -3.10623
   D19       -0.98526  -0.00341  -0.01240  -0.01205  -0.02427  -1.00953
   D20       -3.13084   0.00034  -0.00035   0.00152   0.00104  -3.12979
   D21       -1.04426   0.00049   0.00120   0.00132   0.00243  -1.04183
   D22        1.04906   0.00075   0.00141   0.00448   0.00581   1.05487
   D23       -1.14441   0.00268   0.01268  -0.01118   0.00141  -1.14300
   D24        0.94217   0.00282   0.01423  -0.01138   0.00279   0.94496
   D25        3.03548   0.00309   0.01443  -0.00821   0.00618   3.04166
   D26       -3.13254  -0.00200  -0.00181  -0.01096  -0.01231   3.13833
   D27        0.00000  -0.00207   0.00000   0.00000   0.00000   0.00000
   D28        1.04621   0.00115  -0.00159   0.01386   0.01185   1.05806
   D29       -2.10444   0.00107   0.00022   0.02482   0.02417  -2.08027
   D30       -0.97891   0.00050  -0.00688  -0.00264  -0.00965  -0.98856
   D31        2.15364   0.00043  -0.00507   0.00832   0.00266   2.15630
   D32        0.00400   0.00101  -0.00080   0.02619   0.02528   0.02928
   D33        3.13469   0.00009   0.00138  -0.01235  -0.01077   3.12393
   D34        3.13612   0.00086   0.00109   0.03736   0.03825  -3.10881
   D35       -0.01637  -0.00006   0.00327  -0.00117   0.00221  -0.01416
   D36        0.00416   0.00051  -0.00083   0.01814   0.01741   0.02157
   D37        2.09449   0.00046  -0.00002   0.01629   0.01640   2.11089
   D38       -2.08286   0.00038  -0.00230   0.01909   0.01687  -2.06599
   D39        3.13510  -0.00042   0.00130  -0.01971  -0.01852   3.11658
   D40       -1.05776  -0.00048   0.00211  -0.02156  -0.01952  -1.07729
   D41        1.04807  -0.00056  -0.00017  -0.01876  -0.01906   1.02902
         Item               Value     Threshold  Converged?
 Maximum Force            0.017534     0.000450     NO 
 RMS     Force            0.003673     0.000300     NO 
 Maximum Displacement     0.218301     0.001800     NO 
 RMS     Displacement     0.074866     0.001200     NO 
 Predicted change in Energy=-1.879949D-03
 GradGradGradGradGradGradGradGradGradGradGradGradGradGradGradGradGradGrad

                          Input orientation:                          
 ---------------------------------------------------------------------
 Center     Atomic      Atomic             Coordinates (Angstroms)
 Number     Number       Type             X           Y           Z
 ---------------------------------------------------------------------
      1          1           0        0.940032    3.003739    1.877609
      2          6           0        1.481525    3.006839    0.946010
      3          1           0        0.846793    3.406835    0.161644
      4          1           0        1.739878    1.988426    0.675855
      5          6           0        2.726678    3.849476    1.119339
      6          8           0        3.000427    4.392822    2.150419
      7          7           0        3.512402    3.949187    0.018997
      8          1           0        3.232014    3.480822   -0.809963
      9          6           0        4.778449    4.662931   -0.003373
     10          1           0        5.311157    4.432106    0.906743
     11          6           0        5.592625    4.193658   -1.214767
     12          1           0        5.081411    4.426064   -2.144816
     13          1           0        6.550059    4.688231   -1.225669
     14          1           0        5.749596    3.121872   -1.169295
     15          6           0        4.697488    6.193876   -0.022494
     16          8           0        5.737745    6.797989   -0.037612
     17          7           0        3.488493    6.775106   -0.017591
     18          1           0        2.685095    6.200079    0.023586
     19          6           0        3.295678    8.209741   -0.012934
     20          1           0        4.261435    8.680848   -0.036153
     21          1           0        2.725554    8.524356   -0.879777
     22          1           0        2.769665    8.520899    0.881643
 ---------------------------------------------------------------------
                    Distance matrix (angstroms):
                    1          2          3          4          5
     1  H    0.000000
     2  C    1.077544   0.000000
     3  H    1.765139   1.085409   0.000000
     4  H    1.764887   1.084848   1.753254   0.000000
     5  C    2.117155   1.513435   2.155709   2.152663   0.000000
     6  O    2.499841   2.382984   3.092820   3.089408   1.197200
     7  N    3.311404   2.423187   2.723961   2.723580   1.355749
     8  H    3.564244   2.524344   2.576582   2.580963   2.028171
     9  C    4.585244   3.809682   4.130730   4.104539   2.476279
    10  H    4.699951   4.086442   4.640786   4.333464   2.657853
    11  C    5.711858   4.793604   5.003650   4.825055   3.712165
    12  H    5.945917   4.952432   4.928547   5.006407   4.065948
    13  H    6.628744   5.764833   6.007816   5.834602   4.562983
    14  H    5.694689   4.764890   5.088230   4.557096   3.860737
    15  C    5.282597   4.630078   4.757032   5.188541   3.268652
    16  O    6.409560   5.784094   5.954917   6.294750   4.370217
    17  N    4.930481   4.376790   4.284385   5.143037   3.229905
    18  H    4.086469   3.535001   3.346733   4.365422   2.593789
    19  C    6.018777   5.592934   5.394017   6.449783   4.540673
    20  H    6.850093   6.394289   6.286026   7.187053   5.199308
    21  H    6.424054   5.943408   5.550073   6.790429   5.084385
    22  H    5.897336   5.662889   5.510852   6.616345   4.677665
                    6          7          8          9         10
     6  O    0.000000
     7  N    2.236490   0.000000
     8  H    3.106322   0.992551   0.000000
     9  C    2.805912   1.453550   2.106996   0.000000
    10  H    2.624451   2.063207   2.859170   1.079523   0.000000
    11  C    4.252485   2.430899   2.498896   1.533158   2.153344
    12  H    4.772907   2.715012   2.468924   2.175700   3.060202
    13  H    4.907659   3.364928   3.555287   2.152498   2.479448
    14  H    4.493745   2.664869   2.568304   2.162721   2.493767
    15  C    3.293229   2.538657   3.182512   1.533203   2.084204
    16  O    4.250320   3.615388   4.228334   2.340918   2.582865
    17  N    3.257876   2.826257   3.397932   2.474970   3.109043
    18  H    2.808742   2.398119   2.896253   2.597245   3.286623
    19  C    4.397288   4.266182   4.796038   3.844289   4.379325
    20  H    4.975782   4.790899   5.357123   4.051178   4.476917
    21  H    5.131006   4.728541   5.069380   4.460165   5.159797
    22  H    4.324820   4.711302   5.336448   4.438737   4.814358
                   11         12         13         14         15
    11  C    0.000000
    12  H    1.086436   0.000000
    13  H    1.077683   1.752281   0.000000
    14  H    1.084173   1.760406   1.759942   0.000000
    15  C    2.494726   2.788692   2.673315   3.443732   0.000000
[...]
    12  H    5.884328   4.953630   4.736281   5.289996   4.056070
    13  H    6.630940   5.752847   5.835853   5.972558   4.561024
    14  H    5.731446   4.728249   4.768686   4.718295   3.858126
    15  C    5.225660   4.673196   4.875904   5.294630   3.272268
    16  O    6.381351   5.827721   6.056090   6.382057   4.388203
    17  N    4.813225   4.463199   4.573423   5.301146   3.237672
    18  H    3.875362   3.616445   3.748218   4.530986   2.528334
    19  C    5.880934   5.704581   5.816393   6.602339   4.533851
    20  H    6.793489   6.511629   6.538386   7.374163   5.311782
    21  H    5.817780   5.773208   5.784805   6.762952   4.819379
    22  H    6.138790   6.060890   6.346124   6.908507   4.810889
                    6          7          8          9         10
     6  O    0.000000
     7  N    2.238325   0.000000
     8  H    3.108827   0.994173   0.000000
     9  C    2.811816   1.453344   2.105336   0.000000
    10  H    2.654917   2.063646   2.840378   1.083009   0.000000
    11  C    4.260122   2.430583   2.489626   1.528334   2.141684
    12  H    4.764487   2.704836   2.462873   2.168694   3.050681
    13  H    4.917046   3.365602   3.548768   2.149053   2.474617
    14  H    4.515649   2.672524   2.550246   2.158503   2.469771
    15  C    3.263452   2.541026   3.213520   1.533967   2.086387
    16  O    4.252215   3.625229   4.252004   2.355044   2.615584
    17  N    3.196934   2.833792   3.455609   2.481028   3.115541
    18  H    2.549309   2.441415   3.073124   2.610537   3.216347
    19  C    4.275496   4.275006   4.886135   3.823388   4.324180
    20  H    5.152991   4.819980   5.333495   4.156866   4.719467
    21  H    4.623745   4.705846   5.223245   4.546963   5.126973
    22  H    4.282194   4.739725   5.491587   4.192954   4.437381
                   11         12         13         14         15
    11  C    0.000000
    12  H    1.086741   0.000000
    13  H    1.079433   1.754927   0.000000
    14  H    1.084901   1.763581   1.762245   0.000000
    15  C    2.499377   2.804904   2.666713   3.445803   0.000000
    16  O    2.865024   3.243867   2.545835   3.848872   1.202557
    17  N    3.554102   3.574770   3.898742   4.464847   1.346838
    18  H    3.847350   3.871305   4.403677   4.601066   2.006144
    19  C    4.793399   4.762150   4.927363   5.776756   2.420450
    20  H    4.827618   4.696994   4.786491   5.883376   2.668108
    21  H    5.533583   5.370228   5.794902   6.481769   3.296141
    22  H    5.300304   5.460094   5.337444   6.242096   2.804990
                   16         17         18         19         20
    16  O    0.000000
    17  N    2.240875   0.000000
    18  H    3.085013   0.991999   0.000000
    19  C    2.740061   1.448658   2.095689   0.000000
    20  H    2.609634   2.076672   2.924878   1.079655   0.000000
    21  H    3.775470   2.066654   2.324345   1.082182   1.760236
    22  H    2.926415   2.110178   2.638343   1.084820   1.756058
                   21         22
    21  H    0.000000
    22  H    1.765537   0.000000
 Stoichiometry    C6H12N2O2
 Framework group  C1[X(C6H12N2O2)]
 Deg. of freedom    60
 Full point group                 C1      NOp   1
 Largest Abelian subgroup         C1      NOp   1
 Largest concise Abelian subgroup C1      NOp   1
                         Standard orientation:                         
 ---------------------------------------------------------------------
 Center     Atomic      Atomic             Coordinates (Angstroms)
 Number     Number       Type             X           Y           Z
 ---------------------------------------------------------------------
      1          1           0        3.546310   -1.603036   -0.246079
      2          6           0        3.221203   -0.593314   -0.450903
      3          1           0        3.189565   -0.429521   -1.522228
      4          1           0        3.945227    0.093406   -0.023607
      5          6           0        1.878988   -0.365313    0.210537
      6          8           0        1.522794   -0.992432    1.171092
      7          7           0        1.111059    0.603980   -0.342857
      8          1           0        1.453603    1.078450   -1.146551
      9          6           0       -0.115686    1.101764    0.256741
     10          1           0        0.052846    1.213344    1.320722
     11          6           0       -0.447936    2.468723   -0.340618
     12          1           0       -0.611018    2.394640   -1.412496
     13          1           0       -1.348097    2.856348    0.111745
     14          1           0        0.365435    3.163972   -0.161542
     15          6           0       -1.345389    0.190047    0.158477
     16          8           0       -2.385844    0.586301    0.612987
     17          7           0       -1.223637   -0.997458   -0.465207
     18          1           0       -0.309180   -1.369799   -0.561085
     19          6           0       -2.321605   -1.942171   -0.440879
     20          1           0       -3.224718   -1.456064   -0.778136
     21          1           0       -2.089379   -2.759300   -1.111319
     22          1           0       -2.495612   -2.337465    0.554259
 ---------------------------------------------------------------------
 Rotational constants (GHZ):      1.8292984      0.9411232      0.7089803

 **********************************************************************

            Population analysis using the SCF density.

 **********************************************************************

 Orbital symmetries:
       Occupied  (A) (A) (A) (A) (A) (A) (A) (A) (A) (A) (A) (A)
                 (A) (A) (A) (A) (A) (A) (A) (A) (A) (A) (A) (A)
                 (A) (A) (A) (A) (A) (A) (A) (A) (A) (A) (A) (A)
                 (A) (A) (A)
       Virtual   (A) (A) (A) (A) (A) (A) (A) (A) (A) (A) (A) (A)
                 (A) (A) (A) (A) (A) (A) (A) (A) (A) (A) (A) (A)
                 (A) (A) (A) (A) (A) (A) (A) (A) (A) (A) (A) (A)
                 (A) (A) (A) (A) (A) (A) (A) (A) (A) (A) (A) (A)
                 (A) (A) (A) (A) (A) (A) (A) (A) (A) (A) (A) (A)
                 (A) (A) (A) (A) (A) (A) (A) (A) (A) (A) (A) (A)
                 (A) (A) (A) (A) (A) (A) (A) (A) (A) (A) (A) (A)
                 (A) (A) (A) (A) (A) (A) (A) (A) (A) (A) (A) (A)
                 (A) (A) (A) (A) (A) (A) (A) (A) (A) (A) (A) (A)
                 (A) (A) (A) (A) (A) (A) (A) (A) (A) (A) (A) (A)
                 (A) (A) (A) (A) (A) (A) (A) (A) (A) (A) (A) (A)
                 (A) (A) (A)
 The electronic state is 1-A.
 Alpha  occ. eigenvalues --  -20.53575 -20.51540 -15.59861 -15.57638 -11.36094
 Alpha  occ. eigenvalues --  -11.33803 -11.28254 -11.24914 -11.24471 -11.22995
 Alpha  occ. eigenvalues --   -1.40554  -1.38498  -1.25277  -1.22215  -1.06110
 Alpha  occ. eigenvalues --   -1.00146  -0.95525  -0.87953  -0.81181  -0.78140
 Alpha  occ. eigenvalues --   -0.72445  -0.68967  -0.67664  -0.63344  -0.62357
 Alpha  occ. eigenvalues --   -0.62206  -0.59386  -0.59270  -0.58398  -0.55294
 Alpha  occ. eigenvalues --   -0.54800  -0.54454  -0.53718  -0.52322  -0.49311
 Alpha  occ. eigenvalues --   -0.43946  -0.43079  -0.39399  -0.37749
 Alpha virt. eigenvalues --    0.18793   0.19953   0.20917   0.25249   0.25790
 Alpha virt. eigenvalues --    0.27788   0.29320   0.29527   0.30110   0.31092
 Alpha virt. eigenvalues --    0.32615   0.32880   0.34194   0.35000   0.37740
 Alpha virt. eigenvalues --    0.38944   0.41716   0.42720   0.48042   0.49846
 Alpha virt. eigenvalues --    0.53528   0.58352   0.65038   0.71753   0.73317
 Alpha virt. eigenvalues --    0.73755   0.74573   0.75334   0.76842   0.77854
 Alpha virt. eigenvalues --    0.80849   0.81806   0.83969   0.88016   0.90634
 Alpha virt. eigenvalues --    0.92707   0.94205   0.97066   0.98248   1.00579
 Alpha virt. eigenvalues --    1.01278   1.02635   1.04283   1.07134   1.08739
 Alpha virt. eigenvalues --    1.10045   1.12561   1.13211   1.14636   1.16109
 Alpha virt. eigenvalues --    1.17194   1.18088   1.18707   1.19551   1.20125
 Alpha virt. eigenvalues --    1.21655   1.22480   1.23485   1.25520   1.25991
 Alpha virt. eigenvalues --    1.31080   1.33818   1.37097   1.38692   1.41190
 Alpha virt. eigenvalues --    1.42904   1.48327   1.53388   1.57071   1.60037
 Alpha virt. eigenvalues --    1.62290   1.64665   1.68901   1.70168   1.74038
 Alpha virt. eigenvalues --    1.80057   1.85903   1.87529   1.92187   1.97128
 Alpha virt. eigenvalues --    1.99894   2.04942   2.08915   2.09353   2.13088
 Alpha virt. eigenvalues --    2.13983   2.15227   2.18463   2.20822   2.21813
 Alpha virt. eigenvalues --    2.25831   2.27958   2.30839   2.33506   2.36851
 Alpha virt. eigenvalues --    2.38511   2.39477   2.41705   2.45475   2.46954
 Alpha virt. eigenvalues --    2.52178   2.54976   2.57153   2.61972   2.63430
 Alpha virt. eigenvalues --    2.65500   2.67791   2.70715   2.71948   2.75198
 Alpha virt. eigenvalues --    2.79888   2.84539   2.89566   2.95002   2.97804
 Alpha virt. eigenvalues --    3.02488   3.04974   3.07711   3.12425   3.23459
 Alpha virt. eigenvalues --    3.33570   3.37707   3.41160   3.55163   3.57852
 Alpha virt. eigenvalues --    4.37387   4.45118   4.50473   4.55369   4.61792
 Alpha virt. eigenvalues --    4.65225   4.72849   4.82390   4.88357   5.10434
          Condensed to atoms (all electrons):
              1          2          3          4          5          6
     1  H    0.463238   0.383840  -0.021712  -0.017260  -0.031531   0.002954
     2  C    0.383840   5.264543   0.375096   0.377032   0.373721  -0.072121
     3  H   -0.021712   0.375096   0.524410  -0.023899  -0.036626   0.002177
     4  H   -0.017260   0.377032  -0.023899   0.484017  -0.026625   0.000209
     5  C   -0.031531   0.373721  -0.036626  -0.026625   4.165922   0.604425
     6  O    0.002954  -0.072121   0.002177   0.000209   0.604425   8.159297
     7  N    0.004092  -0.121032   0.004833   0.000460   0.258759  -0.110222
     8  H   -0.000009  -0.000143   0.000910   0.000131  -0.018415   0.002511
     9  C   -0.000069   0.004041   0.000130  -0.000230  -0.025766   0.007820
    10  H   -0.000009   0.000062   0.000001   0.000015  -0.000005   0.003819
    11  C    0.000001  -0.000074  -0.000021   0.000005   0.003605   0.000362
    12  H    0.000000  -0.000014   0.000001   0.000001  -0.000083  -0.000006
    13  H    0.000000   0.000002   0.000000   0.000000  -0.000026   0.000002
    14  H    0.000000  -0.000005  -0.000002   0.000000  -0.000249  -0.000002
    15  C    0.000006  -0.000052  -0.000022   0.000000  -0.003616   0.001911
    16  O    0.000000   0.000000   0.000000   0.000000   0.000003   0.000003
    17  N    0.000002  -0.000049   0.000024  -0.000001   0.002397  -0.004428
    18  H    0.000015   0.000054  -0.000057   0.000005   0.005771   0.005324
    19  C    0.000000  -0.000001   0.000000   0.000000  -0.000093  -0.000023
    20  H    0.000000   0.000000   0.000000   0.000000   0.000001  -0.000001
    21  H    0.000000   0.000000   0.000000   0.000000   0.000006  -0.000006
    22  H    0.000000   0.000000   0.000000   0.000000  -0.000014   0.000046
              7          8          9         10         11         12
     1  H    0.004092  -0.000009  -0.000069  -0.000009   0.000001   0.000000
     2  C   -0.121032  -0.000143   0.004041   0.000062  -0.000074  -0.000014
     3  H    0.004833   0.000910   0.000130   0.000001  -0.000021   0.000001
     4  H    0.000460   0.000131  -0.000230   0.000015   0.000005   0.000001
     5  C    0.258759  -0.018415  -0.025766  -0.000005   0.003605  -0.000083
     6  O   -0.110222   0.002511   0.007820   0.003819   0.000362  -0.000006
     7  N    7.477467   0.324536   0.132435  -0.046499  -0.056018  -0.002180
     8  H    0.324536   0.321003  -0.022651   0.002310  -0.004216   0.002480
     9  C    0.132435  -0.022651   5.058702   0.411943   0.344708  -0.036869
    10  H   -0.046499   0.002310   0.411943   0.469607  -0.030949   0.003924
    11  C   -0.056018  -0.004216   0.344708  -0.030949   5.141244   0.385563
    12  H   -0.002180   0.002480  -0.036869   0.003924   0.385563   0.536084
    13  H    0.003762   0.000034  -0.033352  -0.001193   0.393596  -0.019993
    14  H   -0.001113   0.000914  -0.041245  -0.004318   0.391021  -0.029727
    15  C   -0.048153   0.001236   0.388006  -0.045574  -0.048450  -0.006465
    16  O    0.002582  -0.000039  -0.077659   0.002643  -0.001785   0.000461
    17  N    0.003397   0.000041  -0.104784   0.001810   0.000863   0.000771
    18  H   -0.002480  -0.000098  -0.001309  -0.000117   0.000126  -0.000017
    19  C   -0.000118   0.000006   0.004418  -0.000116  -0.000143  -0.000027
    20  H   -0.000020   0.000000   0.000053  -0.000015   0.000026  -0.000005
    21  H   -0.000006   0.000000   0.000032   0.000000   0.000002   0.000000
    22  H   -0.000009   0.000000  -0.000163   0.000039  -0.000010   0.000001
             13         14         15         16         17         18
     1  H    0.000000   0.000000   0.000006   0.000000   0.000002   0.000015
     2  C    0.000002  -0.000005  -0.000052   0.000000  -0.000049   0.000054
     3  H    0.000000  -0.000002  -0.000022   0.000000   0.000024  -0.000057
     4  H    0.000000   0.000000   0.000000   0.000000  -0.000001   0.000005
     5  C   -0.000026  -0.000249  -0.003616   0.000003   0.002397   0.005771
     6  O    0.000002  -0.000002   0.001911   0.000003  -0.004428   0.005324
     7  N    0.003762  -0.001113  -0.048153   0.002582   0.003397  -0.002480
     8  H    0.000034   0.000914   0.001236  -0.000039   0.000041  -0.000098
     9  C   -0.033352  -0.041245   0.388006  -0.077659  -0.104784  -0.001309
    10  H   -0.001193  -0.004318  -0.045574   0.002643   0.001810  -0.000117
    11  C    0.393596   0.391021  -0.048450  -0.001785   0.000863   0.000126
    12  H   -0.019993  -0.029727  -0.006465   0.000461   0.000771  -0.000017
    13  H    0.446777  -0.020815  -0.003761   0.007199   0.000376  -0.000015
    14  H   -0.020815   0.527539   0.005446   0.000071  -0.000078  -0.000001
    15  C   -0.003761   0.005446   4.150741   0.578929   0.311972  -0.015966
    16  O    0.007199   0.000071   0.578929   8.197848  -0.100255   0.002487
    17  N    0.000376  -0.000078   0.311972  -0.100255   7.270951   0.317929
    18  H   -0.000015  -0.000001  -0.015966   0.002487   0.317929   0.311064
    19  C   -0.000008   0.000002  -0.033862   0.006072   0.211916  -0.024140
    20  H   -0.000001   0.000000  -0.003882   0.003880  -0.038032   0.002689
    21  H    0.000000   0.000000   0.004457   0.000388  -0.039008  -0.004160
    22  H    0.000000   0.000000  -0.002757   0.001629  -0.048063   0.001067
             19         20         21         22
     1  H    0.000000   0.000000   0.000000   0.000000
     2  C   -0.000001   0.000000   0.000000   0.000000
     3  H    0.000000   0.000000   0.000000   0.000000
     4  H    0.000000   0.000000   0.000000   0.000000
     5  C   -0.000093   0.000001   0.000006  -0.000014
     6  O   -0.000023  -0.000001  -0.000006   0.000046
     7  N   -0.000118  -0.000020  -0.000006  -0.000009
     8  H    0.000006   0.000000   0.000000   0.000000
     9  C    0.004418   0.000053   0.000032  -0.000163
    10  H   -0.000116  -0.000015   0.000000   0.000039
    11  C   -0.000143   0.000026   0.000002  -0.000010
    12  H   -0.000027  -0.000005   0.000000   0.000001
    13  H   -0.000008  -0.000001   0.000000   0.000000
    14  H    0.000002   0.000000   0.000000   0.000000
    15  C   -0.033862  -0.003882   0.004457  -0.002757
    16  O    0.006072   0.003880   0.000388   0.001629
    17  N    0.211916  -0.038032  -0.039008  -0.048063
    18  H   -0.024140   0.002689  -0.004160   0.001067
    19  C    4.908753   0.402854   0.398071   0.405343
    20  H    0.402854   0.489344  -0.025218  -0.032104
    21  H    0.398071  -0.025218   0.532797  -0.032558
    22  H    0.405343  -0.032104  -0.032558   0.526625
 Mulliken atomic charges:
              1
     1  H    0.216443
     2  C   -0.584901
     3  H    0.174757
     4  H    0.206138
     5  C    0.728440
     6  O   -0.604050
     7  N   -0.824472
     8  H    0.389458
     9  C   -0.008192
    10  H    0.232622
    11  C   -0.519456
    12  H    0.166102
    13  H    0.227416
    14  H    0.172562
    15  C    0.769855
    16  O   -0.624457
    17  N   -0.787752
    18  H    0.401828
    19  C   -0.278904
    20  H    0.200431
    21  H    0.165203
    22  H    0.180930
 Sum of Mulliken atomic charges =   0.00000
 Mulliken charges with hydrogens summed into heavy atoms:
              1
     2  C    0.012436
     5  C    0.728440
     6  O   -0.604050
     7  N   -0.435014
     9  C    0.224430
    11  C    0.046624
    15  C    0.769855
    16  O   -0.624457
    17  N   -0.385924
    19  C    0.267659
 Sum of Mulliken charges with hydrogens summed into heavy atoms =   0.00000
 Electronic spatial extent (au):  <R**2>=           1710.8926
 Charge=              0.0000 electrons
 Dipole moment (field-independent basis, Debye):
    X=              3.7227    Y=              0.5323    Z=             -3.9591  Tot=              5.4605
 Quadrupole moment (field-independent basis, Debye-Ang):
   XX=            -62.3515   YY=            -56.2192   ZZ=            -63.1899
   XY=              6.9156   XZ=             -1.8338   YZ=              2.2526
 Traceless Quadrupole moment (field-independent basis, Debye-Ang):
   XX=             -1.7646   YY=              4.3676   ZZ=             -2.6030
   XY=              6.9156   XZ=             -1.8338   YZ=              2.2526
 Octapole moment (field-independent basis, Debye-Ang**2):
  XXX=             40.6192  YYY=             -4.0826  ZZZ=             -1.4442  XYY=             -6.0303
  XXY=            -12.5853  XXZ=            -16.2030  XZZ=             -0.6439  YZZ=              4.8234
  YYZ=             -5.3038  XYZ=              4.9354
 Hexadecapole moment (field-independent basis, Debye-Ang**3):
 XXXX=          -1311.0550 YYYY=           -678.0636 ZZZZ=           -187.5577 XXXY=             29.4378
 XXXZ=             20.8291 YYYX=              4.2072 YYYZ=              9.1833 ZZZX=            -11.5665
 ZZZY=             -0.5367 XXYY=           -323.4714 XXZZ=           -263.2405 YYZZ=           -147.7492
 XXYZ=              1.4215 YYXZ=             -4.3664 ZZXY=             10.1273
 N-N= 5.637688634351D+02 E-N=-2.282842569660D+03  KE= 4.921297558848D+02
 1\1\GINC-RODAN\FOpt\RHF\6-31G(d)\C6H12N2O2\STEBOSS\10-Feb-2017\0\\# HF
 /6-31G* Opt=(ModRedundant) geom=nocrowd\\Phi Psi fixed scan\\0,1\H,0.6
 831709287,3.233527665,1.5428561783\C,1.4768572452,2.9287106917,0.87627
 12518\H,1.1048291583,2.8892386277,-0.141374215\H,1.7982553795,1.931220
 9148,1.1592810608\C,2.6422421953,3.8820826253,1.0311576724\O,2.8294669
 024,4.5073160589,2.0395472621\N,3.470074208,3.9727721261,-0.0374663626
 \H,3.2545563086,3.4418267257,-0.8498885197\C,4.7401615367,4.6789139223
 ,-0.0162036279\H,5.2356050641,4.4489563618,0.9189771157\C,5.6081450967
 ,4.186173651,-1.1736216218\H,5.1330318822,4.3904458386,-2.1294178087\H
 ,6.5619745264,4.6912251,-1.156060577\H,5.772579809,3.1170435291,-1.090
 3593263\C,4.6728093841,6.2111128284,-0.0459462641\O,5.705944703,6.8262
 611845,-0.0651380992\N,3.4652904471,6.8060874587,-0.0892473425\H,2.683
 3045163,6.2712078909,0.2047997435\C,3.3644492519,8.2458539656,0.035303
 871\H,4.0176744914,8.7178127591,-0.6831714414\H,2.3433731524,8.5398282
 704,-0.1698817204\H,3.6404038128,8.5882818043,1.0269827711\\Version=EM
 64L-G09RevA.02\State=1-A\HF=-492.8560671\RMSD=6.611e-09\RMSF=7.599e-04
 \Dipole=-1.3379577,-1.280146,-1.0891886\Quadrupole=-1.103838,4.9866436
 ,-3.8828056,-3.3428409,1.6115248,2.1800732\PG=C01 [X(C6H12N2O2)]\\@


 The best way to pay for a lovely moment is to enjoy it.
 -- Richard Bach
 Job cpu time:  0 days  0 hours 20 minutes 47.1 seconds.
 File lengths (MBytes):  RWF=     25 Int=      0 D2E=      0 Chk=      3 Scr=      1
 Normal termination of Gaussian 09 at Fri Feb 10 16:44:04 2017.
