 Entering Gaussian System, Link 0=g09
 Initial command:
 /home/steboss/Software/g09/l1.exe /home/steboss/projects/phi_psi_scan/alanine/MP2/90/5715/Gau-16438.inp -scrdir=/home/steboss/projects/phi_psi_scan/alanine/MP2/90/5715/
 Entering Link 1 = /home/steboss/Software/g09/l1.exe PID=     16440.
  
 Copyright (c) 1988,1990,1992,1993,1995,1998,2003,2009, Gaussian, Inc.
                  All Rights Reserved.
  
 This is part of the Gaussian(R) 09 program.  It is based on
 the Gaussian(R) 03 system (copyright 2003, Gaussian, Inc.),
 the Gaussian(R) 98 system (copyright 1998, Gaussian, Inc.),
 the Gaussian(R) 94 system (copyright 1995, Gaussian, Inc.),
 the Gaussian 92(TM) system (copyright 1992, Gaussian, Inc.),
 the Gaussian 90(TM) system (copyright 1990, Gaussian, Inc.),
 the Gaussian 88(TM) system (copyright 1988, Gaussian, Inc.),
 the Gaussian 86(TM) system (copyright 1986, Carnegie Mellon
 University), and the Gaussian 82(TM) system (copyright 1983,
 Carnegie Mellon University). Gaussian is a federally registered
 trademark of Gaussian, Inc.
  
 This software contains proprietary and confidential information,
 including trade secrets, belonging to Gaussian, Inc.
  
 This software is provided under written license and may be
 used, copied, transmitted, or stored only in accord with that
 written license.
  
 The following legend is applicable only to US Government
 contracts under FAR:
  
                    RESTRICTED RIGHTS LEGEND
  
 Use, reproduction and disclosure by the US Government is
 subject to restrictions as set forth in subparagraphs (a)
 and (c) of the Commercial Computer Software - Restricted
 Rights clause in FAR 52.227-19.
  
 Gaussian, Inc.
 340 Quinnipiac St., Bldg. 40, Wallingford CT 06492
  
  
 ---------------------------------------------------------------
 Warning -- This program may not be used in any manner that
 competes with the business of Gaussian, Inc. or will provide
 assistance to any competitor of Gaussian, Inc.  The licensee
 of this program is prohibited from giving any competitor of
 Gaussian, Inc. access to this program.  By using this program,
 the user acknowledges that Gaussian, Inc. is engaged in the
 business of creating and licensing software in the field of
 computational chemistry and represents and warrants to the
 licensee that it is not a competitor of Gaussian, Inc. and that
 it will not use this program in any manner prohibited above.
 ---------------------------------------------------------------
  

 Cite this work as:
 Gaussian 09, Revision A.02,
 M. J. Frisch, G. W. Trucks, H. B. Schlegel, G. E. Scuseria, 
 M. A. Robb, J. R. Cheeseman, G. Scalmani, V. Barone, B. Mennucci, 
 G. A. Petersson, H. Nakatsuji, M. Caricato, X. Li, H. P. Hratchian, 
 A. F. Izmaylov, J. Bloino, G. Zheng, J. L. Sonnenberg, M. Hada, 
 M. Ehara, K. Toyota, R. Fukuda, J. Hasegawa, M. Ishida, T. Nakajima, 
 Y. Honda, O. Kitao, H. Nakai, T. Vreven, J. A. Montgomery, Jr., 
 J. E. Peralta, F. Ogliaro, M. Bearpark, J. J. Heyd, E. Brothers, 
 K. N. Kudin, V. N. Staroverov, R. Kobayashi, J. Normand, 
 K. Raghavachari, A. Rendell, J. C. Burant, S. S. Iyengar, J. Tomasi, 
 M. Cossi, N. Rega, J. M. Millam, M. Klene, J. E. Knox, J. B. Cross, 
 V. Bakken, C. Adamo, J. Jaramillo, R. Gomperts, R. E. Stratmann, 
 O. Yazyev, A. J. Austin, R. Cammi, C. Pomelli, J. W. Ochterski, 
 R. L. Martin, K. Morokuma, V. G. Zakrzewski, G. A. Voth, 
 P. Salvador, J. J. Dannenberg, S. Dapprich, A. D. Daniels, 
 O. Farkas, J. B. Foresman, J. V. Ortiz, J. Cioslowski, 
 and D. J. Fox, Gaussian, Inc., Wallingford CT, 2009.
 
 ******************************************
 Gaussian 09:  EM64L-G09RevA.02 11-Jun-2009
                14-Feb-2017 
 ******************************************
 %chk=structure_195.chk
 %NProcShared=8
 Will use up to    8 processors via shared memory.
 -------------------
 #SP MP2/aug-cc-pVDZ
 -------------------
 1/38=1/1;
 2/12=2,17=6,18=5,40=1/2;
 3/5=16,7=10,11=9,16=1,25=1,30=1/1,2,3;
 4//1;
 5/5=2,38=5/2;
 8/10=1/1;
 9/16=-3/6;
 6/7=2,8=2,9=2,10=2/1;
 99/5=1,9=1/99;
 -------------------------------
 Single Point calculation at MP2
 -------------------------------
 Symbolic Z-matrix:
 Charge =  0 Multiplicity = 1
 H                    -4.0484   -0.7931    0.6718 
 C                    -3.1657   -1.1275    0.1237 
 H                    -3.4376   -1.3442   -0.9145 
 H                    -2.8061   -2.0555    0.5846 
 C                    -2.085    -0.0592    0.2393 
 O                    -2.045     0.7214    1.1805 
 N                    -1.1909   -0.057    -0.8088 
 H                    -1.1598   -0.9214   -1.3353 
 C                     0.0973    0.6331   -0.8056 
 H                     0.3587    0.7541   -1.8678 
 C                     0.0664    2.0401   -0.1943 
 H                    -0.0132    2.0191    0.8919 
 H                     0.9636    2.5954   -0.4958 
 H                    -0.797     2.5895   -0.578 
 C                     1.1814   -0.3343   -0.2583 
 O                     0.9929   -1.5462   -0.2704 
 N                     2.3644    0.2333    0.1086 
 H                     2.4052    1.2359    0.2142 
 C                     3.4805   -0.5548    0.6064 
 H                     3.3112   -1.591     0.3119 
 H                     4.42     -0.1994    0.1705 
 H                     3.556    -0.5084    1.7002 
 
                          Input orientation:                          
 ---------------------------------------------------------------------
 Center     Atomic      Atomic             Coordinates (Angstroms)
 Number     Number       Type             X           Y           Z
 ---------------------------------------------------------------------
      1          1           0       -4.048400   -0.793100    0.671800
      2          6           0       -3.165700   -1.127500    0.123700
      3          1           0       -3.437600   -1.344200   -0.914500
      4          1           0       -2.806100   -2.055500    0.584600
      5          6           0       -2.085000   -0.059200    0.239300
      6          8           0       -2.045000    0.721400    1.180500
      7          7           0       -1.190900   -0.057000   -0.808800
      8          1           0       -1.159800   -0.921400   -1.335300
      9          6           0        0.097300    0.633100   -0.805600
     10          1           0        0.358700    0.754100   -1.867800
     11          6           0        0.066400    2.040100   -0.194300
     12          1           0       -0.013200    2.019100    0.891900
     13          1           0        0.963600    2.595400   -0.495800
     14          1           0       -0.797000    2.589500   -0.578000
     15          6           0        1.181400   -0.334300   -0.258300
     16          8           0        0.992900   -1.546200   -0.270400
     17          7           0        2.364400    0.233300    0.108600
     18          1           0        2.405200    1.235900    0.214200
     19          6           0        3.480500   -0.554800    0.606400
     20          1           0        3.311200   -1.591000    0.311900
     21          1           0        4.420000   -0.199400    0.170500
     22          1           0        3.556000   -0.508400    1.700200
 ---------------------------------------------------------------------
                    Distance matrix (angstroms):
                    1          2          3          4          5
     1  H    0.000000
     2  C    1.091511   0.000000
     3  H    1.786935   1.094873   0.000000
     4  H    1.773293   1.096779   1.775399   0.000000
     5  C    2.140235   1.523988   2.193629   2.150449   0.000000
     6  O    2.562440   2.406497   3.255006   2.940331   1.223435
     7  N    3.301413   2.432152   2.591470   2.923087   1.377655
     8  H    3.519790   2.488934   2.354614   2.771733   2.019591
     9  C    4.626401   3.822366   4.051801   4.194158   2.516650
    10  H    5.316571   4.464066   4.441119   4.891224   3.327611
    11  C    5.070378   4.536660   4.924448   5.062794   3.037037
    12  H    4.923388   4.519898   5.128487   4.949453   3.006256
    13  H    6.161604   5.594183   5.921682   6.083484   4.108678
    14  H    4.855470   4.463094   4.749736   5.192701   3.056556
    15  C    5.331641   4.435354   4.773432   4.424157   3.315517
    16  O    5.183590   4.198164   4.481629   3.927189   3.456072
    17  N    6.518796   5.695087   6.099053   5.674438   4.460919
    18  H    6.780501   6.052171   6.486077   6.174800   4.673308
    19  C    7.532954   6.688270   7.127159   6.463274   5.599569
    20  H    7.411470   6.496190   6.863765   6.140968   5.609871
    21  H    8.503974   7.642408   8.014342   7.472155   6.506874
    22  H    7.678904   6.931803   7.513033   6.641867   5.844390
                    6          7          8          9         10
     6  O    0.000000
     7  N    2.300589   0.000000
     8  H    3.132351   1.012599   0.000000
     9  C    2.922643   1.461406   2.068176   0.000000
    10  H    3.882135   2.044658   2.323080   1.100563   0.000000
    11  C    2.843775   2.521159   3.402342   1.534370   2.130689
    12  H    2.428071   2.930793   3.862855   2.194245   3.058509
    13  H    3.920910   3.431481   4.193026   2.167273   2.374589
    14  H    2.853003   2.685589   3.609923   2.163117   2.523474
    15  C    3.687046   2.451072   2.643073   1.552634   2.109962
    16  O    4.059059   2.697512   2.481633   2.416172   2.871459
    17  N    4.563992   3.683213   3.979719   2.476963   2.863603
    18  H    4.582873   3.956015   4.445685   2.594179   2.958888
    19  C    5.699950   4.906381   5.043509   3.853686   4.192913
    20  H    5.898350   4.886515   4.811598   4.065044   4.355209
    21  H    6.607889   5.697500   5.824336   4.509053   4.643058
    22  H    5.757925   5.388126   5.623486   4.420934   4.954519
                   11         12         13         14         15
    11  C    0.000000
    12  H    1.089315   0.000000
    13  H    1.097373   1.792197   0.000000
    14  H    1.092944   1.760768   1.762528   0.000000
    15  C    2.623947   2.878979   2.947369   3.544698   0.000000
    16  O    3.704827   3.882595   4.147832   4.516899   1.226532
    17  N    2.938891   3.075000   2.811949   4.002193   1.362452
    18  H    2.506710   2.630844   2.104887   3.565655   2.046087
    19  C    4.362420   4.348840   4.180118   5.439341   2.466209
    20  H    4.895902   4.941746   4.867191   5.928390   2.537808
    21  H    4.909407   5.009533   4.494615   5.962827   3.269648
    22  H    4.718187   4.447560   4.601796   5.808252   3.082979
                   16         17         18         19         20
    16  O    0.000000
    17  N    2.278437   0.000000
    18  H    3.157453   1.008971   0.000000
    19  C    2.817766   1.454161   2.125252   0.000000
    20  H    2.390731   2.065389   2.970142   1.090460   0.000000
    21  H    3.708541   2.101559   2.474149   1.094979   1.784932
    22  H    3.395552   2.122079   2.564200   1.097384   1.777449
                   21         22
    21  H    0.000000
    22  H    1.783805   0.000000
 Stoichiometry    C6H12N2O2
 Framework group  C1[X(C6H12N2O2)]
 Deg. of freedom    60
 Full point group                 C1      NOp   1
 Largest Abelian subgroup         C1      NOp   1
 Largest concise Abelian subgroup C1      NOp   1
                         Standard orientation:                         
 ---------------------------------------------------------------------
 Center     Atomic      Atomic             Coordinates (Angstroms)
 Number     Number       Type             X           Y           Z
 ---------------------------------------------------------------------
      1          1           0       -4.048397   -0.793108    0.671796
      2          6           0       -3.165698   -1.127510    0.123696
      3          1           0       -3.437598   -1.344209   -0.914504
      4          1           0       -2.806099   -2.055510    0.584596
      5          6           0       -2.084996   -0.059211    0.239296
      6          8           0       -2.044995    0.721389    1.180496
      7          7           0       -1.190896   -0.057012   -0.808804
      8          1           0       -1.159797   -0.921412   -1.335304
      9          6           0        0.097305    0.633086   -0.805604
     10          1           0        0.358705    0.754085   -1.867804
     11          6           0        0.066407    2.040086   -0.194304
     12          1           0       -0.013193    2.019086    0.891896
     13          1           0        0.963607    2.595385   -0.495804
     14          1           0       -0.796993    2.589487   -0.578004
     15          6           0        1.181403   -0.334316   -0.258304
     16          8           0        0.992902   -1.546215   -0.270404
     17          7           0        2.364404    0.233283    0.108596
     18          1           0        2.405206    1.235883    0.214196
     19          6           0        3.480503   -0.554819    0.606396
     20          1           0        3.311202   -1.591019    0.311896
     21          1           0        4.420004   -0.199420    0.170496
     22          1           0        3.556003   -0.508419    1.700196
 ---------------------------------------------------------------------
 Rotational constants (GHZ):      2.3973335      0.7623814      0.6676005
 Standard basis: Aug-CC-pVDZ (5D, 7F)
 There are   338 symmetry adapted basis functions of A   symmetry.
 Integral buffers will be    131072 words long.
 Raffenetti 1 integral format.
 Two-electron integral symmetry is turned on.
   338 basis functions,   562 primitive gaussians,   358 cartesian basis functions
    39 alpha electrons       39 beta electrons
       nuclear repulsion energy       556.1108854736 Hartrees.
 NAtoms=   22 NActive=   22 NUniq=   22 SFac= 7.50D-01 NAtFMM=   80 NAOKFM=F Big=F
 One-electron integrals computed using PRISM.
 NBasis=   338 RedAO= T  NBF=   338
 NBsUse=   338 1.00D-06 NBFU=   338
 Harris functional with IExCor=  205 diagonalized for initial guess.
 ExpMin= 2.97D-02 ExpMax= 1.17D+04 ExpMxC= 4.01D+02 IAcc=3 IRadAn=         0 AccDes= 0.00D+00
 HarFok:  IExCor=  205 AccDes= 0.00D+00 IRadAn=         0 IDoV= 1
 ScaDFX=  1.000000  1.000000  1.000000  1.000000
 FoFCou: FMM=F IPFlag=           0 FMFlag=      100000 FMFlg1=           0
         NFxFlg=           0 DoJE=T BraDBF=F KetDBF=T FulRan=T
         Omega=  0.000000  0.000000  1.000000  0.000000  0.000000 ICntrl=     500 IOpCl=  0
         NMat0=    1 NMatS0=    1 NMatT0=    0 NMatD0=    1 NMtDS0=    0 NMtDT0=    0
         I1Cent=           4 NGrid=           0.
 Petite list used in FoFCou.
 Initial guess orbital symmetries:
       Occupied  (A) (A) (A) (A) (A) (A) (A) (A) (A) (A) (A) (A)
                 (A) (A) (A) (A) (A) (A) (A) (A) (A) (A) (A) (A)
                 (A) (A) (A) (A) (A) (A) (A) (A) (A) (A) (A) (A)
                 (A) (A) (A)
       Virtual   (A) (A) (A) (A) (A) (A) (A) (A) (A) (A) (A) (A)
                 (A) (A) (A) (A) (A) (A) (A) (A) (A) (A) (A) (A)
                 (A) (A) (A) (A) (A) (A) (A) (A) (A) (A) (A) (A)
                 (A) (A) (A) (A) (A) (A) (A) (A) (A) (A) (A) (A)
                 (A) (A) (A) (A) (A) (A) (A) (A) (A) (A) (A) (A)
                 (A) (A) (A) (A) (A) (A) (A) (A) (A) (A) (A) (A)
                 (A) (A) (A) (A) (A) (A) (A) (A) (A) (A) (A) (A)
                 (A) (A) (A) (A) (A) (A) (A) (A) (A) (A) (A) (A)
                 (A) (A) (A) (A) (A) (A) (A) (A) (A) (A) (A) (A)
                 (A) (A) (A) (A) (A) (A) (A) (A) (A) (A) (A) (A)
                 (A) (A) (A) (A) (A) (A) (A) (A) (A) (A) (A) (A)
                 (A) (A) (A) (A) (A) (A) (A) (A) (A) (A) (A) (A)
                 (A) (A) (A) (A) (A) (A) (A) (A) (A) (A) (A) (A)
                 (A) (A) (A) (A) (A) (A) (A) (A) (A) (A) (A) (A)
                 (A) (A) (A) (A) (A) (A) (A) (A) (A) (A) (A) (A)
                 (A) (A) (A) (A) (A) (A) (A) (A) (A) (A) (A) (A)
                 (A) (A) (A) (A) (A) (A) (A) (A) (A) (A) (A) (A)
                 (A) (A) (A) (A) (A) (A) (A) (A) (A) (A) (A) (A)
                 (A) (A) (A) (A) (A) (A) (A) (A) (A) (A) (A) (A)
                 (A) (A) (A) (A) (A) (A) (A) (A) (A) (A) (A) (A)
                 (A) (A) (A) (A) (A) (A) (A) (A) (A) (A) (A) (A)
                 (A) (A) (A) (A) (A) (A) (A) (A) (A) (A) (A) (A)
                 (A) (A) (A) (A) (A) (A) (A) (A) (A) (A) (A) (A)
                 (A) (A) (A) (A) (A) (A) (A) (A) (A) (A) (A) (A)
                 (A) (A) (A) (A) (A) (A) (A) (A) (A) (A) (A)
 The electronic state of the initial guess is 1-A.
 Requested convergence on RMS density matrix=1.00D-08 within 128 cycles.
 Requested convergence on MAX density matrix=1.00D-06.
 Requested convergence on             energy=1.00D-06.
 No special actions if energy rises.
 Initial convergence to 1.0D-05 achieved.  Increase integral accuracy.
 SCF Done:  E(RHF) =  -492.918641467     A.U. after   14 cycles
             Convg  =    0.5503D-08             -V/T =  2.0017
 ExpMin= 2.97D-02 ExpMax= 1.17D+04 ExpMxC= 4.01D+02 IAcc=3 IRadAn=         5 AccDes= 0.00D+00
 HarFok:  IExCor=  205 AccDes= 0.00D+00 IRadAn=         5 IDoV=-2
 ScaDFX=  1.000000  1.000000  1.000000  1.000000
 Range of M.O.s used for correlation:    11   338
 NBasis=   338 NAE=    39 NBE=    39 NFC=    10 NFV=     0
 NROrb=    328 NOA=    29 NOB=    29 NVA=   299 NVB=   299

 **** Warning!!: The largest alpha MO coefficient is  0.65672779D+02

 Disk-based method using OVN memory for 29 occupieds at a time.
 Estimated scratch disk usage=  1381277859 words.
 Actual    scratch disk usage=  1368454148 words.
 JobTyp=1 Pass  1:  I=   1 to  29 NPSUse=  8 ParTrn=T ParDer=T DoDerP=F.
 Spin components of T(2) and E(2):
     alpha-alpha T2 =       0.6777462114D-01 E2=     -0.2055245585D+00
     alpha-beta  T2 =       0.3760137140D+00 E2=     -0.1189307139D+01
     beta-beta   T2 =       0.6777462114D-01 E2=     -0.2055245585D+00
 ANorm=    0.1229456366D+01
 E2 =    -0.1600356256D+01 EUMP2 =    -0.49451899772335D+03

 **********************************************************************

            Population analysis using the SCF density.

 **********************************************************************

 Orbital symmetries:
       Occupied  (A) (A) (A) (A) (A) (A) (A) (A) (A) (A) (A) (A)
                 (A) (A) (A) (A) (A) (A) (A) (A) (A) (A) (A) (A)
                 (A) (A) (A) (A) (A) (A) (A) (A) (A) (A) (A) (A)
                 (A) (A) (A)
       Virtual   (A) (A) (A) (A) (A) (A) (A) (A) (A) (A) (A) (A)
                 (A) (A) (A) (A) (A) (A) (A) (A) (A) (A) (A) (A)
                 (A) (A) (A) (A) (A) (A) (A) (A) (A) (A) (A) (A)
                 (A) (A) (A) (A) (A) (A) (A) (A) (A) (A) (A) (A)
                 (A) (A) (A) (A) (A) (A) (A) (A) (A) (A) (A) (A)
                 (A) (A) (A) (A) (A) (A) (A) (A) (A) (A) (A) (A)
                 (A) (A) (A) (A) (A) (A) (A) (A) (A) (A) (A) (A)
                 (A) (A) (A) (A) (A) (A) (A) (A) (A) (A) (A) (A)
                 (A) (A) (A) (A) (A) (A) (A) (A) (A) (A) (A) (A)
                 (A) (A) (A) (A) (A) (A) (A) (A) (A) (A) (A) (A)
                 (A) (A) (A) (A) (A) (A) (A) (A) (A) (A) (A) (A)
                 (A) (A) (A) (A) (A) (A) (A) (A) (A) (A) (A) (A)
                 (A) (A) (A) (A) (A) (A) (A) (A) (A) (A) (A) (A)
                 (A) (A) (A) (A) (A) (A) (A) (A) (A) (A) (A) (A)
                 (A) (A) (A) (A) (A) (A) (A) (A) (A) (A) (A) (A)
                 (A) (A) (A) (A) (A) (A) (A) (A) (A) (A) (A) (A)
                 (A) (A) (A) (A) (A) (A) (A) (A) (A) (A) (A) (A)
                 (A) (A) (A) (A) (A) (A) (A) (A) (A) (A) (A) (A)
                 (A) (A) (A) (A) (A) (A) (A) (A) (A) (A) (A) (A)
                 (A) (A) (A) (A) (A) (A) (A) (A) (A) (A) (A) (A)
                 (A) (A) (A) (A) (A) (A) (A) (A) (A) (A) (A) (A)
                 (A) (A) (A) (A) (A) (A) (A) (A) (A) (A) (A) (A)
                 (A) (A) (A) (A) (A) (A) (A) (A) (A) (A) (A) (A)
                 (A) (A) (A) (A) (A) (A) (A) (A) (A) (A) (A) (A)
                 (A) (A) (A) (A) (A) (A) (A) (A) (A) (A) (A)
 The electronic state is 1-A.
 Alpha  occ. eigenvalues --  -20.53539 -20.52815 -15.60084 -15.58915 -11.36363
 Alpha  occ. eigenvalues --  -11.35922 -11.29887 -11.27165 -11.23965 -11.23793
 Alpha  occ. eigenvalues --   -1.39155  -1.37923  -1.23815  -1.23318  -1.05533
 Alpha  occ. eigenvalues --   -0.98752  -0.95632  -0.89006  -0.80160  -0.76152
 Alpha  occ. eigenvalues --   -0.72289  -0.69565  -0.65735  -0.64116  -0.62046
 Alpha  occ. eigenvalues --   -0.61755  -0.59589  -0.58607  -0.56300  -0.55766
 Alpha  occ. eigenvalues --   -0.55162  -0.54287  -0.52987  -0.51097  -0.50409
 Alpha  occ. eigenvalues --   -0.43384  -0.41882  -0.40022  -0.39110
 Alpha virt. eigenvalues --    0.02810   0.03887   0.04343   0.04741   0.05683
 Alpha virt. eigenvalues --    0.05984   0.06301   0.06817   0.07596   0.07930
 Alpha virt. eigenvalues --    0.09259   0.09427   0.11033   0.11547   0.13085
 Alpha virt. eigenvalues --    0.13587   0.14066   0.14434   0.15085   0.15249
 Alpha virt. eigenvalues --    0.15522   0.16233   0.16495   0.17263   0.17611
 Alpha virt. eigenvalues --    0.17702   0.17905   0.18299   0.18779   0.19149
 Alpha virt. eigenvalues --    0.19622   0.20337   0.21050   0.21809   0.22208
 Alpha virt. eigenvalues --    0.22993   0.24297   0.25045   0.25340   0.26619
 Alpha virt. eigenvalues --    0.26949   0.28384   0.29296   0.29904   0.30865
 Alpha virt. eigenvalues --    0.31108   0.31161   0.32580   0.33962   0.34065
 Alpha virt. eigenvalues --    0.34594   0.35133   0.35509   0.36181   0.36523
 Alpha virt. eigenvalues --    0.36788   0.37327   0.38146   0.39468   0.40503
 Alpha virt. eigenvalues --    0.41062   0.41805   0.42419   0.43206   0.43705
 Alpha virt. eigenvalues --    0.43845   0.44294   0.44852   0.45001   0.45598
 Alpha virt. eigenvalues --    0.46823   0.47410   0.47535   0.48069   0.48865
 Alpha virt. eigenvalues --    0.50002   0.50440   0.51103   0.51784   0.52619
 Alpha virt. eigenvalues --    0.53358   0.54142   0.54995   0.55521   0.56084
 Alpha virt. eigenvalues --    0.56677   0.57466   0.58121   0.58862   0.59618
 Alpha virt. eigenvalues --    0.60106   0.60727   0.61165   0.62311   0.62478
 Alpha virt. eigenvalues --    0.62874   0.62884   0.63647   0.64458   0.65683
 Alpha virt. eigenvalues --    0.66089   0.66644   0.67286   0.67567   0.68211
 Alpha virt. eigenvalues --    0.68511   0.68841   0.69412   0.71089   0.71774
 Alpha virt. eigenvalues --    0.72163   0.72750   0.73556   0.74073   0.75527
 Alpha virt. eigenvalues --    0.76825   0.77045   0.77857   0.78075   0.78869
 Alpha virt. eigenvalues --    0.80050   0.81236   0.81641   0.82760   0.84043
 Alpha virt. eigenvalues --    0.84074   0.85216   0.86697   0.87293   0.87637
 Alpha virt. eigenvalues --    0.89194   0.90115   0.91604   0.93102   0.93742
 Alpha virt. eigenvalues --    0.94503   0.95404   0.97105   0.98453   0.99780
 Alpha virt. eigenvalues --    0.99838   1.01126   1.02463   1.02969   1.04618
 Alpha virt. eigenvalues --    1.05821   1.06964   1.09300   1.10044   1.11629
 Alpha virt. eigenvalues --    1.11916   1.13656   1.14445   1.15555   1.16127
 Alpha virt. eigenvalues --    1.16927   1.18198   1.18597   1.20384   1.21719
 Alpha virt. eigenvalues --    1.23285   1.25945   1.27295   1.28985   1.29511
 Alpha virt. eigenvalues --    1.31798   1.33426   1.34302   1.37399   1.38594
 Alpha virt. eigenvalues --    1.40229   1.41275   1.44634   1.46152   1.47920
 Alpha virt. eigenvalues --    1.49508   1.51095   1.53018   1.54155   1.55460
 Alpha virt. eigenvalues --    1.56634   1.58197   1.60129   1.62410   1.63565
 Alpha virt. eigenvalues --    1.65051   1.66302   1.69771   1.70298   1.72505
 Alpha virt. eigenvalues --    1.73966   1.75039   1.77157   1.79346   1.80689
 Alpha virt. eigenvalues --    1.82669   1.83957   1.85586   1.86641   1.88236
 Alpha virt. eigenvalues --    1.89676   1.90145   1.90997   1.92805   1.94559
 Alpha virt. eigenvalues --    1.95647   1.97118   1.98852   2.00147   2.01494
 Alpha virt. eigenvalues --    2.02099   2.03580   2.04411   2.06053   2.07226
 Alpha virt. eigenvalues --    2.08877   2.10516   2.12079   2.14685   2.17278
 Alpha virt. eigenvalues --    2.18928   2.19064   2.20331   2.21652   2.23217
 Alpha virt. eigenvalues --    2.25440   2.27261   2.28196   2.28226   2.30201
 Alpha virt. eigenvalues --    2.31397   2.34098   2.34643   2.35342   2.37200
 Alpha virt. eigenvalues --    2.37830   2.40094   2.41456   2.43155   2.44543
 Alpha virt. eigenvalues --    2.47357   2.47794   2.49183   2.50569   2.51094
 Alpha virt. eigenvalues --    2.53767   2.54738   2.57274   2.58846   2.59129
 Alpha virt. eigenvalues --    2.62066   2.63246   2.65972   2.66674   2.70435
 Alpha virt. eigenvalues --    2.72124   2.72478   2.74169   2.77136   2.79710
 Alpha virt. eigenvalues --    2.83265   2.84093   2.85774   2.87212   2.88374
 Alpha virt. eigenvalues --    2.90977   2.92859   2.94016   2.95234   2.97956
 Alpha virt. eigenvalues --    2.99914   3.01524   3.03862   3.07290   3.09825
 Alpha virt. eigenvalues --    3.11251   3.13219   3.17245   3.21084   3.22555
 Alpha virt. eigenvalues --    3.28971   3.31833   3.44088   3.45129   3.51899
 Alpha virt. eigenvalues --    3.62720   3.65749   3.72353   3.82610   3.84991
 Alpha virt. eigenvalues --    3.86381   3.87527   3.95433   3.97406   4.01897
 Alpha virt. eigenvalues --    4.05183   4.07062   4.21566   4.22347
          Condensed to atoms (all electrons):
              1          2          3          4          5          6
     1  H    0.831999   0.365956  -0.104856  -0.069821  -0.019298   0.023259
     2  C    0.365956   4.496407   0.375216   0.314727   0.253288  -0.050232
     3  H   -0.104856   0.375216   0.954220  -0.069516  -0.010313  -0.000163
     4  H   -0.069821   0.314727  -0.069516   0.741798  -0.019465   0.012109
     5  C   -0.019298   0.253288  -0.010313  -0.019465   5.105640   0.203710
     6  O    0.023259  -0.050232  -0.000163   0.012109   0.203710   8.696155
     7  N    0.027974  -0.044801  -0.102984   0.007088   0.166111  -0.145727
     8  H   -0.006407  -0.037547   0.017051  -0.000809  -0.104952   0.008127
     9  C   -0.013928   0.026335  -0.012583   0.017731  -0.277154   0.149855
    10  H   -0.001294   0.006627   0.003184   0.000830   0.028474  -0.000015
    11  C    0.006059  -0.001489  -0.005555   0.002384   0.019411  -0.069296
    12  H    0.000738   0.008936   0.000929   0.000731   0.058750  -0.067400
    13  H    0.000300  -0.003137  -0.000846   0.000371  -0.040089   0.000342
    14  H   -0.000370   0.001572  -0.000271   0.000110   0.024648   0.024601
    15  C   -0.001096  -0.044271  -0.008334  -0.004755  -0.075166   0.022056
    16  O   -0.001098   0.008451   0.001470   0.002451   0.015656   0.002139
    17  N    0.000335   0.002009   0.000579  -0.000807   0.019000  -0.001377
    18  H   -0.000119  -0.000549  -0.000267   0.000062  -0.007184   0.002967
    19  C   -0.000080  -0.001197   0.000245  -0.000829  -0.003043   0.002488
    20  H   -0.000037  -0.000467   0.000021  -0.000195  -0.002984  -0.000098
    21  H    0.000014   0.000053  -0.000004   0.000044   0.002022  -0.000033
    22  H   -0.000001   0.000093   0.000021  -0.000077  -0.000598   0.000302
              7          8          9         10         11         12
     1  H    0.027974  -0.006407  -0.013928  -0.001294   0.006059   0.000738
     2  C   -0.044801  -0.037547   0.026335   0.006627  -0.001489   0.008936
     3  H   -0.102984   0.017051  -0.012583   0.003184  -0.005555   0.000929
     4  H    0.007088  -0.000809   0.017731   0.000830   0.002384   0.000731
     5  C    0.166111  -0.104952  -0.277154   0.028474   0.019411   0.058750
     6  O   -0.145727   0.008127   0.149855  -0.000015  -0.069296  -0.067400
     7  N    7.450403   0.386544  -0.056240  -0.222890  -0.060816  -0.080378
     8  H    0.386544   0.865053  -0.197807   0.033508  -0.002062   0.000313
     9  C   -0.056240  -0.197807   6.594979   0.217563   0.328991  -0.011482
    10  H   -0.222890   0.033508   0.217563   1.230852  -0.050709   0.077725
    11  C   -0.060816  -0.002062   0.328991  -0.050709   4.324000   0.374290
    12  H   -0.080378   0.000313  -0.011482   0.077725   0.374290   1.111861
    13  H    0.077179   0.001849  -0.009516  -0.107391   0.324912  -0.233776
    14  H   -0.010877  -0.001169  -0.030277  -0.030515   0.211034  -0.180840
    15  C    0.128771   0.062350  -0.524721  -0.112549  -0.141308  -0.123212
    16  O   -0.014442  -0.013118  -0.049759   0.002070   0.008176  -0.000344
    17  N    0.013740   0.005789  -0.097236   0.012986   0.028085   0.025730
    18  H   -0.004642   0.000386   0.007166  -0.004343  -0.032033  -0.007712
    19  C    0.002155   0.002501  -0.028846  -0.002017  -0.020413  -0.004453
    20  H    0.001960  -0.000185  -0.007958   0.000344  -0.000238  -0.000122
    21  H    0.002397   0.000745  -0.009481  -0.002754  -0.005848  -0.001115
    22  H   -0.001557  -0.000670   0.009869   0.000797   0.010956   0.000164
             13         14         15         16         17         18
     1  H    0.000300  -0.000370  -0.001096  -0.001098   0.000335  -0.000119
     2  C   -0.003137   0.001572  -0.044271   0.008451   0.002009  -0.000549
     3  H   -0.000846  -0.000271  -0.008334   0.001470   0.000579  -0.000267
     4  H    0.000371   0.000110  -0.004755   0.002451  -0.000807   0.000062
     5  C   -0.040089   0.024648  -0.075166   0.015656   0.019000  -0.007184
     6  O    0.000342   0.024601   0.022056   0.002139  -0.001377   0.002967
     7  N    0.077179  -0.010877   0.128771  -0.014442   0.013740  -0.004642
     8  H    0.001849  -0.001169   0.062350  -0.013118   0.005789   0.000386
     9  C   -0.009516  -0.030277  -0.524721  -0.049759  -0.097236   0.007166
    10  H   -0.107391  -0.030515  -0.112549   0.002070   0.012986  -0.004343
    11  C    0.324912   0.211034  -0.141308   0.008176   0.028085  -0.032033
    12  H   -0.233776  -0.180840  -0.123212  -0.000344   0.025730  -0.007712
    13  H    1.321635  -0.251368   0.023079   0.000529  -0.034526   0.021026
    14  H   -0.251368   1.233227   0.087855   0.000375   0.004293   0.001229
    15  C    0.023079   0.087855   5.457231   0.286180   0.146388  -0.011530
    16  O    0.000529   0.000375   0.286180   8.732275  -0.163032   0.004375
    17  N   -0.034526   0.004293   0.146388  -0.163032   7.136006   0.242559
    18  H    0.021026   0.001229  -0.011530   0.004375   0.242559   1.024624
    19  C   -0.017486   0.007067  -0.078307  -0.000948   0.265589  -0.133930
    20  H    0.002317   0.000052   0.015382  -0.001832  -0.049330   0.002491
    21  H   -0.002272   0.000544   0.019404   0.010281  -0.124618   0.011195
    22  H   -0.002391   0.001162  -0.045417   0.005333   0.069248  -0.009647
             19         20         21         22
     1  H   -0.000080  -0.000037   0.000014  -0.000001
     2  C   -0.001197  -0.000467   0.000053   0.000093
     3  H    0.000245   0.000021  -0.000004   0.000021
     4  H   -0.000829  -0.000195   0.000044  -0.000077
     5  C   -0.003043  -0.002984   0.002022  -0.000598
     6  O    0.002488  -0.000098  -0.000033   0.000302
     7  N    0.002155   0.001960   0.002397  -0.001557
     8  H    0.002501  -0.000185   0.000745  -0.000670
     9  C   -0.028846  -0.007958  -0.009481   0.009869
    10  H   -0.002017   0.000344  -0.002754   0.000797
    11  C   -0.020413  -0.000238  -0.005848   0.010956
    12  H   -0.004453  -0.000122  -0.001115   0.000164
    13  H   -0.017486   0.002317  -0.002272  -0.002391
    14  H    0.007067   0.000052   0.000544   0.001162
    15  C   -0.078307   0.015382   0.019404  -0.045417
    16  O   -0.000948  -0.001832   0.010281   0.005333
    17  N    0.265589  -0.049330  -0.124618   0.069248
    18  H   -0.133930   0.002491   0.011195  -0.009647
    19  C    4.139252   0.476587   0.365578   0.302407
    20  H    0.476587   0.965807  -0.154307  -0.102442
    21  H    0.365578  -0.154307   1.187793  -0.154299
    22  H    0.302407  -0.102442  -0.154299   0.992581
 Mulliken atomic charges:
              1
     1  H   -0.038228
     2  C    0.324019
     3  H   -0.037242
     4  H    0.065837
     5  C    0.663537
     6  O   -0.813768
     7  N   -0.518970
     8  H   -0.019492
     9  C   -0.025503
    10  H   -0.080483
    11  C    0.751467
    12  H    0.050667
    13  H   -0.070742
    14  H   -0.092083
    15  C    0.921969
    16  O   -0.835188
    17  N   -0.501409
    18  H   -0.106123
    19  C    0.727680
    20  H   -0.144766
    21  H   -0.145341
    22  H   -0.075837
 Sum of Mulliken atomic charges =   0.00000
 Mulliken charges with hydrogens summed into heavy atoms:
              1
     2  C    0.314386
     5  C    0.663537
     6  O   -0.813768
     7  N   -0.538463
     9  C   -0.105986
    11  C    0.639310
    15  C    0.921969
    16  O   -0.835188
    17  N   -0.607533
    19  C    0.361736
 Sum of Mulliken charges with hydrogens summed into heavy atoms =   0.00000
 Electronic spatial extent (au):  <R**2>=           1818.2296
 Charge=              0.0000 electrons
 Dipole moment (field-independent basis, Debye):
    X=              2.1009    Y=              1.1395    Z=             -2.1608  Tot=              3.2220
 Quadrupole moment (field-independent basis, Debye-Ang):
   XX=            -52.6839   YY=            -63.2482   ZZ=            -63.0480
   XY=              9.8401   XZ=              6.6650   YZ=             -2.3263
 Traceless Quadrupole moment (field-independent basis, Debye-Ang):
   XX=              6.9761   YY=             -3.5881   ZZ=             -3.3880
   XY=              9.8401   XZ=              6.6650   YZ=             -2.3263
 Octapole moment (field-independent basis, Debye-Ang**2):
  XXX=             19.6971  YYY=              8.3737  ZZZ=             -5.8843  XYY=             -1.5518
  XXY=            -12.5341  XXZ=             -1.3400  XZZ=              8.0505  YZZ=             -5.5765
  YYZ=             -0.2326  XYZ=              2.5132
 Hexadecapole moment (field-independent basis, Debye-Ang**3):
 XXXX=          -1547.2455 YYYY=           -493.2624 ZZZZ=           -215.9846 XXXY=             27.2762
 XXXZ=             26.8670 YYYX=             12.2531 YYYZ=             -1.5862 ZZZX=             10.6496
 ZZZY=              4.4265 XXYY=           -352.3263 XXZZ=           -334.2354 YYZZ=           -116.9300
 XXYZ=            -10.2399 YYXZ=              5.9592 ZZXY=              9.0979
 N-N= 5.561108854736D+02 E-N=-2.267610380603D+03  KE= 4.920714208040D+02
 1\1\GINC-NODE012\SP\RMP2-FC\Aug-CC-pVDZ\C6H12N2O2\MANAGER\14-Feb-2017\
 0\\#SP MP2/aug-cc-pVDZ\\Single Point calculation at MP2\\0,1\H,0,-4.04
 84,-0.7931,0.6718\C,0,-3.1657,-1.1275,0.1237\H,0,-3.4376,-1.3442,-0.91
 45\H,0,-2.8061,-2.0555,0.5846\C,0,-2.085,-0.0592,0.2393\O,0,-2.045,0.7
 214,1.1805\N,0,-1.1909,-0.057,-0.8088\H,0,-1.1598,-0.9214,-1.3353\C,0,
 0.0973,0.6331,-0.8056\H,0,0.3587,0.7541,-1.8678\C,0,0.0664,2.0401,-0.1
 943\H,0,-0.0132,2.0191,0.8919\H,0,0.9636,2.5954,-0.4958\H,0,-0.797,2.5
 895,-0.578\C,0,1.1814,-0.3343,-0.2583\O,0,0.9929,-1.5462,-0.2704\N,0,2
 .3644,0.2333,0.1086\H,0,2.4052,1.2359,0.2142\C,0,3.4805,-0.5548,0.6064
 \H,0,3.3112,-1.591,0.3119\H,0,4.42,-0.1994,0.1705\H,0,3.556,-0.5084,1.
 7002\\Version=EM64L-G09RevA.02\State=1-A\HF=-492.9186415\MP2=-494.5189
 977\RMSD=5.503e-09\PG=C01 [X(C6H12N2O2)]\\@


 THE WISE MAN HAS THE POWER TO REASON AWAY
 WHAT A FOOL BELIEVES.
                     - DOOBIE BROTHERS
 Job cpu time:  0 days  9 hours 38 minutes 52.1 seconds.
 File lengths (MBytes):  RWF=  10557 Int=      0 D2E=      0 Chk=      7 Scr=      2
 Normal termination of Gaussian 09 at Tue Feb 14 04:56:51 2017.
