 Entering Gaussian System, Link 0=g09
 Initial command:
 /home/steboss/Software/g09/l1.exe /home/steboss/projects/phi_psi_scan/alanine/MP2/90/5718/Gau-8860.inp -scrdir=/home/steboss/projects/phi_psi_scan/alanine/MP2/90/5718/
 Entering Link 1 = /home/steboss/Software/g09/l1.exe PID=      8863.
  
 Copyright (c) 1988,1990,1992,1993,1995,1998,2003,2009, Gaussian, Inc.
                  All Rights Reserved.
  
 This is part of the Gaussian(R) 09 program.  It is based on
 the Gaussian(R) 03 system (copyright 2003, Gaussian, Inc.),
 the Gaussian(R) 98 system (copyright 1998, Gaussian, Inc.),
 the Gaussian(R) 94 system (copyright 1995, Gaussian, Inc.),
 the Gaussian 92(TM) system (copyright 1992, Gaussian, Inc.),
 the Gaussian 90(TM) system (copyright 1990, Gaussian, Inc.),
 the Gaussian 88(TM) system (copyright 1988, Gaussian, Inc.),
 the Gaussian 86(TM) system (copyright 1986, Carnegie Mellon
 University), and the Gaussian 82(TM) system (copyright 1983,
 Carnegie Mellon University). Gaussian is a federally registered
 trademark of Gaussian, Inc.
  
 This software contains proprietary and confidential information,
 including trade secrets, belonging to Gaussian, Inc.
  
 This software is provided under written license and may be
 used, copied, transmitted, or stored only in accord with that
 written license.
  
 The following legend is applicable only to US Government
 contracts under FAR:
  
                    RESTRICTED RIGHTS LEGEND
  
 Use, reproduction and disclosure by the US Government is
 subject to restrictions as set forth in subparagraphs (a)
 and (c) of the Commercial Computer Software - Restricted
 Rights clause in FAR 52.227-19.
  
 Gaussian, Inc.
 340 Quinnipiac St., Bldg. 40, Wallingford CT 06492
  
  
 ---------------------------------------------------------------
 Warning -- This program may not be used in any manner that
 competes with the business of Gaussian, Inc. or will provide
 assistance to any competitor of Gaussian, Inc.  The licensee
 of this program is prohibited from giving any competitor of
 Gaussian, Inc. access to this program.  By using this program,
 the user acknowledges that Gaussian, Inc. is engaged in the
 business of creating and licensing software in the field of
 computational chemistry and represents and warrants to the
 licensee that it is not a competitor of Gaussian, Inc. and that
 it will not use this program in any manner prohibited above.
 ---------------------------------------------------------------
  

 Cite this work as:
 Gaussian 09, Revision A.02,
 M. J. Frisch, G. W. Trucks, H. B. Schlegel, G. E. Scuseria, 
 M. A. Robb, J. R. Cheeseman, G. Scalmani, V. Barone, B. Mennucci, 
 G. A. Petersson, H. Nakatsuji, M. Caricato, X. Li, H. P. Hratchian, 
 A. F. Izmaylov, J. Bloino, G. Zheng, J. L. Sonnenberg, M. Hada, 
 M. Ehara, K. Toyota, R. Fukuda, J. Hasegawa, M. Ishida, T. Nakajima, 
 Y. Honda, O. Kitao, H. Nakai, T. Vreven, J. A. Montgomery, Jr., 
 J. E. Peralta, F. Ogliaro, M. Bearpark, J. J. Heyd, E. Brothers, 
 K. N. Kudin, V. N. Staroverov, R. Kobayashi, J. Normand, 
 K. Raghavachari, A. Rendell, J. C. Burant, S. S. Iyengar, J. Tomasi, 
 M. Cossi, N. Rega, J. M. Millam, M. Klene, J. E. Knox, J. B. Cross, 
 V. Bakken, C. Adamo, J. Jaramillo, R. Gomperts, R. E. Stratmann, 
 O. Yazyev, A. J. Austin, R. Cammi, C. Pomelli, J. W. Ochterski, 
 R. L. Martin, K. Morokuma, V. G. Zakrzewski, G. A. Voth, 
 P. Salvador, J. J. Dannenberg, S. Dapprich, A. D. Daniels, 
 O. Farkas, J. B. Foresman, J. V. Ortiz, J. Cioslowski, 
 and D. J. Fox, Gaussian, Inc., Wallingford CT, 2009.
 
 ******************************************
 Gaussian 09:  EM64L-G09RevA.02 11-Jun-2009
                14-Feb-2017 
 ******************************************
 %chk=structure_240.chk
 %NProcShared=8
 Will use up to    8 processors via shared memory.
 -------------------
 #SP MP2/aug-cc-pVDZ
 -------------------
 1/38=1/1;
 2/12=2,17=6,18=5,40=1/2;
 3/5=16,7=10,11=9,16=1,25=1,30=1/1,2,3;
 4//1;
 5/5=2,38=5/2;
 8/10=1/1;
 9/16=-3/6;
 6/7=2,8=2,9=2,10=2/1;
 99/5=1,9=1/99;
 -------------------------------
 Single Point calculation at MP2
 -------------------------------
 Symbolic Z-matrix:
 Charge =  0 Multiplicity = 1
 H                    -4.0119   -0.6631    0.5918 
 C                    -3.098    -1.1556    0.2486 
 H                    -3.2621   -1.5556   -0.7566 
 H                    -2.8979   -1.9877    0.9323 
 C                    -1.949    -0.158     0.3379 
 O                    -1.7612    0.508     1.3498 
 N                    -1.1768   -0.0753   -0.7915 
 H                    -1.2712   -0.8212   -1.4673 
 C                     0.0652    0.6973   -0.9287 
 H                     0.2012    0.8183   -2.0101 
 C                     0.0055    2.0985   -0.3164 
 H                    -0.1336    2.0763    0.7646 
 H                     0.9195    2.6461   -0.5721 
 H                    -0.8442    2.6447   -0.7374 
 C                     1.2435   -0.2234   -0.5272 
 O                     1.4322   -1.2584   -1.1599 
 N                     2.016     0.1765    0.5175 
 H                     1.7142    0.9755    1.0556 
 C                     3.1008   -0.6386    1.0383 
 H                     3.3253   -1.403     0.2934 
 H                     3.9908   -0.0249    1.2126 
 H                     2.8198   -1.1318    1.9773 
 
                          Input orientation:                          
 ---------------------------------------------------------------------
 Center     Atomic      Atomic             Coordinates (Angstroms)
 Number     Number       Type             X           Y           Z
 ---------------------------------------------------------------------
      1          1           0       -4.011900   -0.663100    0.591800
      2          6           0       -3.098000   -1.155600    0.248600
      3          1           0       -3.262100   -1.555600   -0.756600
      4          1           0       -2.897900   -1.987700    0.932300
      5          6           0       -1.949000   -0.158000    0.337900
      6          8           0       -1.761200    0.508000    1.349800
      7          7           0       -1.176800   -0.075300   -0.791500
      8          1           0       -1.271200   -0.821200   -1.467300
      9          6           0        0.065200    0.697300   -0.928700
     10          1           0        0.201200    0.818300   -2.010100
     11          6           0        0.005500    2.098500   -0.316400
     12          1           0       -0.133600    2.076300    0.764600
     13          1           0        0.919500    2.646100   -0.572100
     14          1           0       -0.844200    2.644700   -0.737400
     15          6           0        1.243500   -0.223400   -0.527200
     16          8           0        1.432200   -1.258400   -1.159900
     17          7           0        2.016000    0.176500    0.517500
     18          1           0        1.714200    0.975500    1.055600
     19          6           0        3.100800   -0.638600    1.038300
     20          1           0        3.325300   -1.403000    0.293400
     21          1           0        3.990800   -0.024900    1.212600
     22          1           0        2.819800   -1.131800    1.977300
 ---------------------------------------------------------------------
                    Distance matrix (angstroms):
                    1          2          3          4          5
     1  H    0.000000
     2  C    1.093415   0.000000
     3  H    1.782397   1.094238   0.000000
     4  H    1.763945   1.095389   1.780937   0.000000
     5  C    2.138959   1.524264   2.208042   2.145116   0.000000
     6  O    2.647960   2.401508   3.308786   2.773970   1.225874
     7  N    3.208866   2.437184   2.557534   3.096925   1.370648
     8  H    3.431665   2.528504   2.237883   3.124893   2.039116
     9  C    4.559096   3.850339   4.021953   4.410500   2.528402
    10  H    5.168621   4.459005   4.381907   5.112316   3.330109
    11  C    4.958908   4.532119   4.921731   5.165851   3.056137
    12  H    4.751356   4.415779   5.029141   4.917883   2.910300
    13  H    6.051791   5.591670   5.930776   6.189335   4.113316
    14  H    4.768924   4.527040   4.846558   5.335233   3.198747
    15  C    5.391171   4.507714   4.704021   4.732239   3.308282
    16  O    5.749875   4.745224   4.720957   4.864046   3.858341
    17  N    6.086545   5.291483   5.699284   5.385372   3.983136
    18  H    5.973972   5.324482   5.869761   5.483359   3.901147
    19  C    7.126743   6.270250   6.674508   6.149448   5.120744
    20  H    7.380447   6.428219   6.672303   6.283175   5.419432
    21  H    8.052074   7.242849   7.669769   7.168357   6.005334
    22  H    6.986517   6.165170   6.681566   5.875090   5.135891
                    6          7          8          9         10
     6  O    0.000000
     7  N    2.294979   0.000000
     8  H    3.153240   1.010932   0.000000
     9  C    2.926283   1.469115   2.093298   0.000000
    10  H    3.903361   2.045089   2.269483   1.096614   0.000000
    11  C    2.902954   2.519714   3.388094   1.530306   2.132095
    12  H    2.334760   2.852910   3.830276   2.192813   3.064901
    13  H    3.930817   3.442184   4.197942   2.157502   2.434061
    14  H    3.124545   2.740794   3.567569   2.157770   2.459342
    15  C    3.617499   2.439188   2.750431   1.548316   2.090579
    16  O    4.429059   2.888308   2.755723   2.397270   2.559469
    17  N    3.881991   3.459892   3.967432   2.483616   3.177132
    18  H    3.519022   3.588013   4.301833   2.595003   3.422338
    19  C    5.005074   4.686506   5.042396   3.855980   4.452301
    20  H    5.535376   4.817541   4.956447   4.066084   4.472168
    21  H    5.778262   5.542837   5.958574   4.529578   5.045577
    22  H    4.905941   4.975466   5.357054   4.402075   5.153573
                   11         12         13         14         15
    11  C    0.000000
    12  H    1.090139   0.000000
    13  H    1.095739   1.794564   0.000000
    14  H    1.094333   1.756142   1.771430   0.000000
    15  C    2.639754   2.975529   2.888083   3.553684   0.000000
    16  O    3.743761   4.156399   3.981644   4.538138   1.227657
    17  N    2.903719   2.879423   2.913497   3.980896   1.359439
    18  H    2.462350   2.170439   2.464114   3.542102   2.040631
    19  C    4.348311   4.231659   4.259191   5.431040   2.464294
    20  H    4.863479   4.928646   4.788755   5.901792   2.529571
    21  H    4.767524   4.650422   4.444354   5.857174   3.257908
    22  H    4.859648   4.526049   4.937926   5.920848   3.095550
                   16         17         18         19         20
    16  O    0.000000
    17  N    2.283294   0.000000
    18  H    3.158841   1.009473   0.000000
    19  C    2.828509   1.453414   2.127975   0.000000
    20  H    2.390987   2.063809   2.972180   1.090680   0.000000
    21  H    3.700907   2.103226   2.491657   1.095038   1.785211
    22  H    3.432708   2.118669   2.551979   1.097237   1.778932
                   21         22
    21  H    0.000000
    22  H    1.783602   0.000000
 Stoichiometry    C6H12N2O2
 Framework group  C1[X(C6H12N2O2)]
 Deg. of freedom    60
 Full point group                 C1      NOp   1
 Largest Abelian subgroup         C1      NOp   1
 Largest concise Abelian subgroup C1      NOp   1
                         Standard orientation:                         
 ---------------------------------------------------------------------
 Center     Atomic      Atomic             Coordinates (Angstroms)
 Number     Number       Type             X           Y           Z
 ---------------------------------------------------------------------
      1          1           0       -4.011904   -0.663100    0.591796
      2          6           0       -3.098004   -1.155600    0.248596
      3          1           0       -3.262104   -1.555600   -0.756604
      4          1           0       -2.897904   -1.987700    0.932296
      5          6           0       -1.949004   -0.158000    0.337896
      6          8           0       -1.761204    0.508000    1.349796
      7          7           0       -1.176804   -0.075300   -0.791504
      8          1           0       -1.271204   -0.821200   -1.467304
      9          6           0        0.065196    0.697300   -0.928704
     10          1           0        0.201196    0.818300   -2.010104
     11          6           0        0.005496    2.098500   -0.316404
     12          1           0       -0.133604    2.076300    0.764596
     13          1           0        0.919496    2.646100   -0.572104
     14          1           0       -0.844204    2.644700   -0.737404
     15          6           0        1.243496   -0.223400   -0.527204
     16          8           0        1.432196   -1.258400   -1.159904
     17          7           0        2.015996    0.176500    0.517496
     18          1           0        1.714196    0.975500    1.055596
     19          6           0        3.100796   -0.638600    1.038296
     20          1           0        3.325296   -1.403000    0.293396
     21          1           0        3.990796   -0.024900    1.212596
     22          1           0        2.819796   -1.131800    1.977296
 ---------------------------------------------------------------------
 Rotational constants (GHZ):      2.0207861      0.7908182      0.7512967
 Standard basis: Aug-CC-pVDZ (5D, 7F)
 There are   338 symmetry adapted basis functions of A   symmetry.
 Integral buffers will be    131072 words long.
 Raffenetti 1 integral format.
 Two-electron integral symmetry is turned on.
   338 basis functions,   562 primitive gaussians,   358 cartesian basis functions
    39 alpha electrons       39 beta electrons
       nuclear repulsion energy       557.6633975303 Hartrees.
 NAtoms=   22 NActive=   22 NUniq=   22 SFac= 7.50D-01 NAtFMM=   80 NAOKFM=F Big=F
 One-electron integrals computed using PRISM.
 NBasis=   338 RedAO= T  NBF=   338
 NBsUse=   338 1.00D-06 NBFU=   338
 Harris functional with IExCor=  205 diagonalized for initial guess.
 ExpMin= 2.97D-02 ExpMax= 1.17D+04 ExpMxC= 4.01D+02 IAcc=3 IRadAn=         0 AccDes= 0.00D+00
 HarFok:  IExCor=  205 AccDes= 0.00D+00 IRadAn=         0 IDoV= 1
 ScaDFX=  1.000000  1.000000  1.000000  1.000000
 FoFCou: FMM=F IPFlag=           0 FMFlag=      100000 FMFlg1=           0
         NFxFlg=           0 DoJE=T BraDBF=F KetDBF=T FulRan=T
         Omega=  0.000000  0.000000  1.000000  0.000000  0.000000 ICntrl=     500 IOpCl=  0
         NMat0=    1 NMatS0=    1 NMatT0=    0 NMatD0=    1 NMtDS0=    0 NMtDT0=    0
         I1Cent=           4 NGrid=           0.
 Petite list used in FoFCou.
 Initial guess orbital symmetries:
       Occupied  (A) (A) (A) (A) (A) (A) (A) (A) (A) (A) (A) (A)
                 (A) (A) (A) (A) (A) (A) (A) (A) (A) (A) (A) (A)
                 (A) (A) (A) (A) (A) (A) (A) (A) (A) (A) (A) (A)
                 (A) (A) (A)
       Virtual   (A) (A) (A) (A) (A) (A) (A) (A) (A) (A) (A) (A)
                 (A) (A) (A) (A) (A) (A) (A) (A) (A) (A) (A) (A)
                 (A) (A) (A) (A) (A) (A) (A) (A) (A) (A) (A) (A)
                 (A) (A) (A) (A) (A) (A) (A) (A) (A) (A) (A) (A)
                 (A) (A) (A) (A) (A) (A) (A) (A) (A) (A) (A) (A)
                 (A) (A) (A) (A) (A) (A) (A) (A) (A) (A) (A) (A)
                 (A) (A) (A) (A) (A) (A) (A) (A) (A) (A) (A) (A)
                 (A) (A) (A) (A) (A) (A) (A) (A) (A) (A) (A) (A)
                 (A) (A) (A) (A) (A) (A) (A) (A) (A) (A) (A) (A)
                 (A) (A) (A) (A) (A) (A) (A) (A) (A) (A) (A) (A)
                 (A) (A) (A) (A) (A) (A) (A) (A) (A) (A) (A) (A)
                 (A) (A) (A) (A) (A) (A) (A) (A) (A) (A) (A) (A)
                 (A) (A) (A) (A) (A) (A) (A) (A) (A) (A) (A) (A)
                 (A) (A) (A) (A) (A) (A) (A) (A) (A) (A) (A) (A)
                 (A) (A) (A) (A) (A) (A) (A) (A) (A) (A) (A) (A)
                 (A) (A) (A) (A) (A) (A) (A) (A) (A) (A) (A) (A)
                 (A) (A) (A) (A) (A) (A) (A) (A) (A) (A) (A) (A)
                 (A) (A) (A) (A) (A) (A) (A) (A) (A) (A) (A) (A)
                 (A) (A) (A) (A) (A) (A) (A) (A) (A) (A) (A) (A)
                 (A) (A) (A) (A) (A) (A) (A) (A) (A) (A) (A) (A)
                 (A) (A) (A) (A) (A) (A) (A) (A) (A) (A) (A) (A)
                 (A) (A) (A) (A) (A) (A) (A) (A) (A) (A) (A) (A)
                 (A) (A) (A) (A) (A) (A) (A) (A) (A) (A) (A) (A)
                 (A) (A) (A) (A) (A) (A) (A) (A) (A) (A) (A) (A)
                 (A) (A) (A) (A) (A) (A) (A) (A) (A) (A) (A)
 The electronic state of the initial guess is 1-A.
 Requested convergence on RMS density matrix=1.00D-08 within 128 cycles.
 Requested convergence on MAX density matrix=1.00D-06.
 Requested convergence on             energy=1.00D-06.
 No special actions if energy rises.
 Initial convergence to 1.0D-05 achieved.  Increase integral accuracy.
 SCF Done:  E(RHF) =  -492.919090379     A.U. after   14 cycles
             Convg  =    0.5805D-08             -V/T =  2.0017
 ExpMin= 2.97D-02 ExpMax= 1.17D+04 ExpMxC= 4.01D+02 IAcc=3 IRadAn=         5 AccDes= 0.00D+00
 HarFok:  IExCor=  205 AccDes= 0.00D+00 IRadAn=         5 IDoV=-2
 ScaDFX=  1.000000  1.000000  1.000000  1.000000
 Range of M.O.s used for correlation:    11   338
 NBasis=   338 NAE=    39 NBE=    39 NFC=    10 NFV=     0
 NROrb=    328 NOA=    29 NOB=    29 NVA=   299 NVB=   299

 **** Warning!!: The largest alpha MO coefficient is  0.88017352D+02

 Disk-based method using OVN memory for 29 occupieds at a time.
 Estimated scratch disk usage=  1384811814 words.
 Actual    scratch disk usage=  1371850943 words.
 JobTyp=1 Pass  1:  I=   1 to  29 NPSUse=  8 ParTrn=T ParDer=T DoDerP=F.
 Spin components of T(2) and E(2):
     alpha-alpha T2 =       0.6786522518D-01 E2=     -0.2056944515D+00
     alpha-beta  T2 =       0.3763390806D+00 E2=     -0.1189925701D+01
     beta-beta   T2 =       0.6786522518D-01 E2=     -0.2056944515D+00
 ANorm=    0.1229662365D+01
 E2 =    -0.1601314604D+01 EUMP2 =    -0.49452040498363D+03

 **********************************************************************

            Population analysis using the SCF density.

 **********************************************************************

 Orbital symmetries:
       Occupied  (A) (A) (A) (A) (A) (A) (A) (A) (A) (A) (A) (A)
                 (A) (A) (A) (A) (A) (A) (A) (A) (A) (A) (A) (A)
                 (A) (A) (A) (A) (A) (A) (A) (A) (A) (A) (A) (A)
                 (A) (A) (A)
       Virtual   (A) (A) (A) (A) (A) (A) (A) (A) (A) (A) (A) (A)
                 (A) (A) (A) (A) (A) (A) (A) (A) (A) (A) (A) (A)
                 (A) (A) (A) (A) (A) (A) (A) (A) (A) (A) (A) (A)
                 (A) (A) (A) (A) (A) (A) (A) (A) (A) (A) (A) (A)
                 (A) (A) (A) (A) (A) (A) (A) (A) (A) (A) (A) (A)
                 (A) (A) (A) (A) (A) (A) (A) (A) (A) (A) (A) (A)
                 (A) (A) (A) (A) (A) (A) (A) (A) (A) (A) (A) (A)
                 (A) (A) (A) (A) (A) (A) (A) (A) (A) (A) (A) (A)
                 (A) (A) (A) (A) (A) (A) (A) (A) (A) (A) (A) (A)
                 (A) (A) (A) (A) (A) (A) (A) (A) (A) (A) (A) (A)
                 (A) (A) (A) (A) (A) (A) (A) (A) (A) (A) (A) (A)
                 (A) (A) (A) (A) (A) (A) (A) (A) (A) (A) (A) (A)
                 (A) (A) (A) (A) (A) (A) (A) (A) (A) (A) (A) (A)
                 (A) (A) (A) (A) (A) (A) (A) (A) (A) (A) (A) (A)
                 (A) (A) (A) (A) (A) (A) (A) (A) (A) (A) (A) (A)
                 (A) (A) (A) (A) (A) (A) (A) (A) (A) (A) (A) (A)
                 (A) (A) (A) (A) (A) (A) (A) (A) (A) (A) (A) (A)
                 (A) (A) (A) (A) (A) (A) (A) (A) (A) (A) (A) (A)
                 (A) (A) (A) (A) (A) (A) (A) (A) (A) (A) (A) (A)
                 (A) (A) (A) (A) (A) (A) (A) (A) (A) (A) (A) (A)
                 (A) (A) (A) (A) (A) (A) (A) (A) (A) (A) (A) (A)
                 (A) (A) (A) (A) (A) (A) (A) (A) (A) (A) (A) (A)
                 (A) (A) (A) (A) (A) (A) (A) (A) (A) (A) (A) (A)
                 (A) (A) (A) (A) (A) (A) (A) (A) (A) (A) (A) (A)
                 (A) (A) (A) (A) (A) (A) (A) (A) (A) (A) (A)
 The electronic state is 1-A.
 Alpha  occ. eigenvalues --  -20.53107 -20.53019 -15.59957 -15.59858 -11.36602
 Alpha  occ. eigenvalues --  -11.36054 -11.29782 -11.26869 -11.24655 -11.23625
 Alpha  occ. eigenvalues --   -1.38860  -1.38123  -1.24051  -1.23371  -1.05732
 Alpha  occ. eigenvalues --   -0.99195  -0.95522  -0.89310  -0.80182  -0.76945
 Alpha  occ. eigenvalues --   -0.72153  -0.69949  -0.65480  -0.64699  -0.61765
 Alpha  occ. eigenvalues --   -0.61749  -0.59596  -0.58832  -0.56593  -0.55611
 Alpha  occ. eigenvalues --   -0.55142  -0.54656  -0.52780  -0.51430  -0.50821
 Alpha  occ. eigenvalues --   -0.43723  -0.42112  -0.39767  -0.38814
 Alpha virt. eigenvalues --    0.03162   0.03730   0.04201   0.04970   0.05673
 Alpha virt. eigenvalues --    0.05906   0.06293   0.07079   0.07593   0.07737
 Alpha virt. eigenvalues --    0.09095   0.09702   0.11027   0.11359   0.13412
 Alpha virt. eigenvalues --    0.13541   0.13784   0.14168   0.14837   0.15326
 Alpha virt. eigenvalues --    0.15445   0.16195   0.16426   0.16807   0.17190
 Alpha virt. eigenvalues --    0.17704   0.18001   0.18135   0.18540   0.19074
 Alpha virt. eigenvalues --    0.19291   0.20416   0.20921   0.21386   0.22638
 Alpha virt. eigenvalues --    0.23193   0.23575   0.25265   0.25709   0.26624
 Alpha virt. eigenvalues --    0.27192   0.28136   0.29128   0.29920   0.30211
 Alpha virt. eigenvalues --    0.31604   0.31876   0.32626   0.32833   0.33420
 Alpha virt. eigenvalues --    0.33862   0.34769   0.35764   0.36497   0.37055
 Alpha virt. eigenvalues --    0.37340   0.37952   0.39407   0.39762   0.39857
 Alpha virt. eigenvalues --    0.40707   0.41217   0.41846   0.42221   0.42706
 Alpha virt. eigenvalues --    0.43562   0.43722   0.44292   0.44781   0.45128
 Alpha virt. eigenvalues --    0.46218   0.47013   0.47692   0.48506   0.49459
 Alpha virt. eigenvalues --    0.50075   0.50105   0.51091   0.51752   0.52357
 Alpha virt. eigenvalues --    0.53449   0.53787   0.54477   0.55561   0.55820
 Alpha virt. eigenvalues --    0.56517   0.57868   0.58258   0.58480   0.59296
 Alpha virt. eigenvalues --    0.60195   0.61016   0.61326   0.61842   0.62282
 Alpha virt. eigenvalues --    0.62632   0.63253   0.63846   0.64733   0.65302
 Alpha virt. eigenvalues --    0.65862   0.66580   0.66949   0.67986   0.68336
 Alpha virt. eigenvalues --    0.69486   0.70201   0.70499   0.71010   0.71135
 Alpha virt. eigenvalues --    0.71831   0.72200   0.73743   0.75194   0.75281
 Alpha virt. eigenvalues --    0.75659   0.76403   0.77274   0.79429   0.80027
 Alpha virt. eigenvalues --    0.80482   0.81572   0.82058   0.83450   0.83904
 Alpha virt. eigenvalues --    0.84779   0.85882   0.86729   0.87255   0.88496
 Alpha virt. eigenvalues --    0.89063   0.89643   0.91300   0.92371   0.93310
 Alpha virt. eigenvalues --    0.94161   0.94605   0.95340   0.97565   0.97674
 Alpha virt. eigenvalues --    0.98173   1.00377   1.00957   1.03106   1.04627
 Alpha virt. eigenvalues --    1.06522   1.07184   1.08573   1.10021   1.11251
 Alpha virt. eigenvalues --    1.12284   1.13028   1.13793   1.15297   1.16822
 Alpha virt. eigenvalues --    1.17293   1.18129   1.19263   1.21455   1.22038
 Alpha virt. eigenvalues --    1.22375   1.24171   1.26051   1.28417   1.29523
 Alpha virt. eigenvalues --    1.32754   1.33428   1.35911   1.36565   1.39106
 Alpha virt. eigenvalues --    1.39691   1.41919   1.44557   1.46222   1.47297
 Alpha virt. eigenvalues --    1.49310   1.51436   1.51825   1.53993   1.55197
 Alpha virt. eigenvalues --    1.56542   1.56996   1.58333   1.61259   1.62517
 Alpha virt. eigenvalues --    1.68260   1.68816   1.69463   1.71693   1.72555
 Alpha virt. eigenvalues --    1.74311   1.75416   1.78183   1.79868   1.80484
 Alpha virt. eigenvalues --    1.80944   1.83257   1.85469   1.85940   1.87707
 Alpha virt. eigenvalues --    1.88984   1.89904   1.90972   1.93255   1.94697
 Alpha virt. eigenvalues --    1.96504   1.97014   1.99528   1.99914   2.01367
 Alpha virt. eigenvalues --    2.02728   2.03698   2.04991   2.06280   2.08099
 Alpha virt. eigenvalues --    2.08785   2.11953   2.14806   2.15540   2.17532
 Alpha virt. eigenvalues --    2.17924   2.19755   2.20885   2.22431   2.23895
 Alpha virt. eigenvalues --    2.25295   2.27281   2.27700   2.28506   2.31025
 Alpha virt. eigenvalues --    2.31119   2.32436   2.34341   2.36486   2.37102
 Alpha virt. eigenvalues --    2.38321   2.40182   2.42568   2.43707   2.45225
 Alpha virt. eigenvalues --    2.46194   2.47117   2.49092   2.49730   2.50721
 Alpha virt. eigenvalues --    2.52974   2.55901   2.56799   2.59329   2.60515
 Alpha virt. eigenvalues --    2.62839   2.63227   2.66433   2.67534   2.69316
 Alpha virt. eigenvalues --    2.71719   2.72539   2.74028   2.78305   2.80491
 Alpha virt. eigenvalues --    2.81288   2.83193   2.85428   2.87353   2.89010
 Alpha virt. eigenvalues --    2.89976   2.90815   2.94104   2.96184   2.98693
 Alpha virt. eigenvalues --    3.00716   3.01068   3.06336   3.07669   3.08308
 Alpha virt. eigenvalues --    3.10598   3.13221   3.16971   3.19724   3.23513
 Alpha virt. eigenvalues --    3.26706   3.37144   3.44587   3.46335   3.54205
 Alpha virt. eigenvalues --    3.61052   3.66287   3.79141   3.83891   3.84673
 Alpha virt. eigenvalues --    3.85406   3.86764   3.91764   3.97422   4.02620
 Alpha virt. eigenvalues --    4.07171   4.11706   4.20771   4.24477
          Condensed to atoms (all electrons):
              1          2          3          4          5          6
     1  H    0.747472   0.382103  -0.093255  -0.049391  -0.068526   0.023453
     2  C    0.382103   4.564358   0.337032   0.317963   0.168729  -0.053382
     3  H   -0.093255   0.337032   1.083911  -0.067791   0.090363  -0.010331
     4  H   -0.049391   0.317963  -0.067791   0.736759  -0.053601   0.015760
     5  C   -0.068526   0.168729   0.090363  -0.053601   5.454353   0.166848
     6  O    0.023453  -0.053382  -0.010331   0.015760   0.166848   8.731220
     7  N    0.045527  -0.078975  -0.201915   0.047707   0.053865  -0.089218
     8  H   -0.004333  -0.058385   0.004112  -0.001056  -0.114764   0.002172
     9  C   -0.007865   0.058436  -0.001705   0.002510  -0.298687   0.080359
    10  H   -0.001359   0.005179   0.004686  -0.000460   0.018693   0.002602
    11  C    0.003933  -0.026458  -0.012387   0.003775  -0.036766  -0.022651
    12  H    0.000422  -0.000782   0.001429  -0.000242   0.039213  -0.066377
    13  H    0.000174  -0.002155  -0.001486   0.000317  -0.041674   0.005237
    14  H   -0.000489  -0.000927  -0.000489   0.000242   0.017651   0.023395
    15  C   -0.001426  -0.032663  -0.002283  -0.004850  -0.040885   0.023561
    16  O    0.000306   0.009719   0.000845   0.000523   0.016274  -0.002535
    17  N    0.000452  -0.001536  -0.000420   0.000501   0.039665   0.000223
    18  H   -0.000217  -0.001327  -0.000165   0.000425  -0.011839  -0.004379
    19  C   -0.000141  -0.001162   0.000404  -0.000131   0.003093   0.000808
    20  H   -0.000055  -0.000096   0.000034  -0.000006  -0.004969   0.000210
    21  H    0.000011  -0.000211  -0.000045  -0.000058   0.000178   0.000156
    22  H   -0.000070   0.000333   0.000228   0.000033   0.003903   0.000055
              7          8          9         10         11         12
     1  H    0.045527  -0.004333  -0.007865  -0.001359   0.003933   0.000422
     2  C   -0.078975  -0.058385   0.058436   0.005179  -0.026458  -0.000782
     3  H   -0.201915   0.004112  -0.001705   0.004686  -0.012387   0.001429
     4  H    0.047707  -0.001056   0.002510  -0.000460   0.003775  -0.000242
     5  C    0.053865  -0.114764  -0.298687   0.018693  -0.036766   0.039213
     6  O   -0.089218   0.002172   0.080359   0.002602  -0.022651  -0.066377
     7  N    7.611891   0.363090  -0.318355  -0.086397  -0.027426  -0.050747
     8  H    0.363090   0.926888  -0.134567   0.022356  -0.003681  -0.004131
     9  C   -0.318355  -0.134567   7.452958  -0.149243   0.169304   0.022466
    10  H   -0.086397   0.022356  -0.149243   1.372814  -0.000846   0.070979
    11  C   -0.027426  -0.003681   0.169304  -0.000846   4.365755   0.359999
    12  H   -0.050747  -0.004131   0.022466   0.070979   0.359999   1.006991
    13  H    0.102226  -0.000441  -0.144578  -0.091691   0.293455  -0.244006
    14  H   -0.047201   0.004806   0.027869  -0.041733   0.206954  -0.218456
    15  C    0.045125   0.072423  -0.447357  -0.076535  -0.111390  -0.107151
    16  O    0.012850  -0.001242  -0.025958   0.035843   0.013152   0.005101
    17  N    0.080942  -0.006859  -0.223111   0.050991   0.024666   0.014442
    18  H   -0.023405  -0.000226   0.110595  -0.003791   0.012958   0.026159
    19  C    0.014068   0.001096  -0.072053   0.001765  -0.009265  -0.002593
    20  H   -0.002662  -0.000063  -0.001276   0.004463  -0.005837   0.001943
    21  H    0.004850   0.000918  -0.054081  -0.005370   0.011920  -0.001205
    22  H   -0.007760  -0.001168   0.058116   0.001906  -0.005927  -0.003046
             13         14         15         16         17         18
     1  H    0.000174  -0.000489  -0.001426   0.000306   0.000452  -0.000217
     2  C   -0.002155  -0.000927  -0.032663   0.009719  -0.001536  -0.001327
     3  H   -0.001486  -0.000489  -0.002283   0.000845  -0.000420  -0.000165
     4  H    0.000317   0.000242  -0.004850   0.000523   0.000501   0.000425
     5  C   -0.041674   0.017651  -0.040885   0.016274   0.039665  -0.011839
     6  O    0.005237   0.023395   0.023561  -0.002535   0.000223  -0.004379
     7  N    0.102226  -0.047201   0.045125   0.012850   0.080942  -0.023405
     8  H   -0.000441   0.004806   0.072423  -0.001242  -0.006859  -0.000226
     9  C   -0.144578   0.027869  -0.447357  -0.025958  -0.223111   0.110595
    10  H   -0.091691  -0.041733  -0.076535   0.035843   0.050991  -0.003791
    11  C    0.293455   0.206954  -0.111390   0.013152   0.024666   0.012958
    12  H   -0.244006  -0.218456  -0.107151   0.005101   0.014442   0.026159
    13  H    1.346344  -0.212344   0.029606  -0.001631   0.023709  -0.007486
    14  H   -0.212344   1.280922   0.096495  -0.003781  -0.023384   0.000070
    15  C    0.029606   0.096495   5.462078   0.135307   0.162926  -0.133070
    16  O   -0.001631  -0.003781   0.135307   8.821236  -0.139337   0.019017
    17  N    0.023709  -0.023384   0.162926  -0.139337   7.156209   0.263269
    18  H   -0.007486   0.000070  -0.133070   0.019017   0.263269   0.970343
    19  C    0.009574   0.001466  -0.062608   0.001611   0.245828  -0.128759
    20  H   -0.000104  -0.000028   0.026408  -0.014285  -0.070932   0.000467
    21  H    0.002245   0.000958   0.024498   0.007020  -0.112370   0.003146
    22  H   -0.002412   0.001011  -0.068266   0.009325   0.073432   0.000310
             19         20         21         22
     1  H   -0.000141  -0.000055   0.000011  -0.000070
     2  C   -0.001162  -0.000096  -0.000211   0.000333
     3  H    0.000404   0.000034  -0.000045   0.000228
     4  H   -0.000131  -0.000006  -0.000058   0.000033
     5  C    0.003093  -0.004969   0.000178   0.003903
     6  O    0.000808   0.000210   0.000156   0.000055
     7  N    0.014068  -0.002662   0.004850  -0.007760
     8  H    0.001096  -0.000063   0.000918  -0.001168
     9  C   -0.072053  -0.001276  -0.054081   0.058116
    10  H    0.001765   0.004463  -0.005370   0.001906
    11  C   -0.009265  -0.005837   0.011920  -0.005927
    12  H   -0.002593   0.001943  -0.001205  -0.003046
    13  H    0.009574  -0.000104   0.002245  -0.002412
    14  H    0.001466  -0.000028   0.000958   0.001011
    15  C   -0.062608   0.026408   0.024498  -0.068266
    16  O    0.001611  -0.014285   0.007020   0.009325
    17  N    0.245828  -0.070932  -0.112370   0.073432
    18  H   -0.128759   0.000467   0.003146   0.000310
    19  C    4.111643   0.473892   0.397467   0.272205
    20  H    0.473892   0.991218  -0.158258  -0.102026
    21  H    0.397467  -0.158258   1.172678  -0.161132
    22  H    0.272205  -0.102026  -0.161132   1.006984
 Mulliken atomic charges:
              1
     1  H    0.023277
     2  C    0.414206
     3  H   -0.130772
     4  H    0.051071
     5  C    0.598883
     6  O   -0.827185
     7  N   -0.448077
     8  H   -0.066942
     9  C   -0.103776
    10  H   -0.134852
    11  C    0.796761
    12  H    0.149591
    13  H   -0.062881
    14  H   -0.113005
    15  C    1.010059
    16  O   -0.899359
    17  N   -0.559306
    18  H   -0.092097
    19  C    0.741792
    20  H   -0.138038
    21  H   -0.133317
    22  H   -0.076033
 Sum of Mulliken atomic charges =   0.00000
 Mulliken charges with hydrogens summed into heavy atoms:
              1
     2  C    0.357782
     5  C    0.598883
     6  O   -0.827185
     7  N   -0.515019
     9  C   -0.238628
    11  C    0.770465
    15  C    1.010059
    16  O   -0.899359
    17  N   -0.651402
    19  C    0.394404
 Sum of Mulliken charges with hydrogens summed into heavy atoms =   0.00000
 Electronic spatial extent (au):  <R**2>=           1747.1955
 Charge=              0.0000 electrons
 Dipole moment (field-independent basis, Debye):
    X=              0.0292    Y=              0.9872    Z=             -0.5102  Tot=              1.1116
 Quadrupole moment (field-independent basis, Debye-Ang):
   XX=            -55.4097   YY=            -61.5918   ZZ=            -64.5378
   XY=              8.6443   XZ=             10.6849   YZ=             -4.7277
 Traceless Quadrupole moment (field-independent basis, Debye-Ang):
   XX=              5.1034   YY=             -1.0787   ZZ=             -4.0247
   XY=              8.6443   XZ=             10.6849   YZ=             -4.7277
 Octapole moment (field-independent basis, Debye-Ang**2):
  XXX=             -0.3409  YYY=              3.7047  ZZZ=             -5.8331  XYY=             -5.8330
  XXY=             -9.9764  XXZ=              6.3167  XZZ=              6.4447  YZZ=              0.3831
  YYZ=              5.0897  XYZ=             -2.4736
 Hexadecapole moment (field-independent basis, Debye-Ang**3):
 XXXX=          -1381.0394 YYYY=           -471.3201 ZZZZ=           -346.2057 XXXY=             14.0858
 XXXZ=             27.9360 YYYX=              6.6131 YYYZ=             -3.1377 ZZZX=             23.7949
 ZZZY=             -1.2538 XXYY=           -320.9188 XXZZ=           -318.5786 YYZZ=           -134.1334
 XXYZ=            -10.6547 YYXZ=             10.6361 ZZXY=             18.3352
 N-N= 5.576633975303D+02 E-N=-2.270626169941D+03  KE= 4.920709936298D+02
 1\1\GINC-NODE011\SP\RMP2-FC\Aug-CC-pVDZ\C6H12N2O2\MANAGER\14-Feb-2017\
 0\\#SP MP2/aug-cc-pVDZ\\Single Point calculation at MP2\\0,1\H,0,-4.01
 19,-0.6631,0.5918\C,0,-3.098,-1.1556,0.2486\H,0,-3.2621,-1.5556,-0.756
 6\H,0,-2.8979,-1.9877,0.9323\C,0,-1.949,-0.158,0.3379\O,0,-1.7612,0.50
 8,1.3498\N,0,-1.1768,-0.0753,-0.7915\H,0,-1.2712,-0.8212,-1.4673\C,0,0
 .0652,0.6973,-0.9287\H,0,0.2012,0.8183,-2.0101\C,0,0.0055,2.0985,-0.31
 64\H,0,-0.1336,2.0763,0.7646\H,0,0.9195,2.6461,-0.5721\H,0,-0.8442,2.6
 447,-0.7374\C,0,1.2435,-0.2234,-0.5272\O,0,1.4322,-1.2584,-1.1599\N,0,
 2.016,0.1765,0.5175\H,0,1.7142,0.9755,1.0556\C,0,3.1008,-0.6386,1.0383
 \H,0,3.3253,-1.403,0.2934\H,0,3.9908,-0.0249,1.2126\H,0,2.8198,-1.1318
 ,1.9773\\Version=EM64L-G09RevA.02\State=1-A\HF=-492.9190904\MP2=-494.5
 20405\RMSD=5.805e-09\PG=C01 [X(C6H12N2O2)]\\@


 I SUPPOSE A BABY LLAMA HAS A MMAMA AND A PPOPA.
     -- RICHARD AMOUR
 Job cpu time:  0 days  7 hours 48 minutes 30.7 seconds.
 File lengths (MBytes):  RWF=  10583 Int=      0 D2E=      0 Chk=      7 Scr=      2
 Normal termination of Gaussian 09 at Tue Feb 14 05:09:02 2017.
