 Entering Gaussian System, Link 0=g09
 Initial command:
 /home/steboss/Software/g09/l1.exe /home/steboss/projects/phi_psi_scan/alanine/MP2/90/5717/Gau-5509.inp -scrdir=/home/steboss/projects/phi_psi_scan/alanine/MP2/90/5717/
 Entering Link 1 = /home/steboss/Software/g09/l1.exe PID=      5511.
  
 Copyright (c) 1988,1990,1992,1993,1995,1998,2003,2009, Gaussian, Inc.
                  All Rights Reserved.
  
 This is part of the Gaussian(R) 09 program.  It is based on
 the Gaussian(R) 03 system (copyright 2003, Gaussian, Inc.),
 the Gaussian(R) 98 system (copyright 1998, Gaussian, Inc.),
 the Gaussian(R) 94 system (copyright 1995, Gaussian, Inc.),
 the Gaussian 92(TM) system (copyright 1992, Gaussian, Inc.),
 the Gaussian 90(TM) system (copyright 1990, Gaussian, Inc.),
 the Gaussian 88(TM) system (copyright 1988, Gaussian, Inc.),
 the Gaussian 86(TM) system (copyright 1986, Carnegie Mellon
 University), and the Gaussian 82(TM) system (copyright 1983,
 Carnegie Mellon University). Gaussian is a federally registered
 trademark of Gaussian, Inc.
  
 This software contains proprietary and confidential information,
 including trade secrets, belonging to Gaussian, Inc.
  
 This software is provided under written license and may be
 used, copied, transmitted, or stored only in accord with that
 written license.
  
 The following legend is applicable only to US Government
 contracts under FAR:
  
                    RESTRICTED RIGHTS LEGEND
  
 Use, reproduction and disclosure by the US Government is
 subject to restrictions as set forth in subparagraphs (a)
 and (c) of the Commercial Computer Software - Restricted
 Rights clause in FAR 52.227-19.
  
 Gaussian, Inc.
 340 Quinnipiac St., Bldg. 40, Wallingford CT 06492
  
  
 ---------------------------------------------------------------
 Warning -- This program may not be used in any manner that
 competes with the business of Gaussian, Inc. or will provide
 assistance to any competitor of Gaussian, Inc.  The licensee
 of this program is prohibited from giving any competitor of
 Gaussian, Inc. access to this program.  By using this program,
 the user acknowledges that Gaussian, Inc. is engaged in the
 business of creating and licensing software in the field of
 computational chemistry and represents and warrants to the
 licensee that it is not a competitor of Gaussian, Inc. and that
 it will not use this program in any manner prohibited above.
 ---------------------------------------------------------------
  

 Cite this work as:
 Gaussian 09, Revision A.02,
 M. J. Frisch, G. W. Trucks, H. B. Schlegel, G. E. Scuseria, 
 M. A. Robb, J. R. Cheeseman, G. Scalmani, V. Barone, B. Mennucci, 
 G. A. Petersson, H. Nakatsuji, M. Caricato, X. Li, H. P. Hratchian, 
 A. F. Izmaylov, J. Bloino, G. Zheng, J. L. Sonnenberg, M. Hada, 
 M. Ehara, K. Toyota, R. Fukuda, J. Hasegawa, M. Ishida, T. Nakajima, 
 Y. Honda, O. Kitao, H. Nakai, T. Vreven, J. A. Montgomery, Jr., 
 J. E. Peralta, F. Ogliaro, M. Bearpark, J. J. Heyd, E. Brothers, 
 K. N. Kudin, V. N. Staroverov, R. Kobayashi, J. Normand, 
 K. Raghavachari, A. Rendell, J. C. Burant, S. S. Iyengar, J. Tomasi, 
 M. Cossi, N. Rega, J. M. Millam, M. Klene, J. E. Knox, J. B. Cross, 
 V. Bakken, C. Adamo, J. Jaramillo, R. Gomperts, R. E. Stratmann, 
 O. Yazyev, A. J. Austin, R. Cammi, C. Pomelli, J. W. Ochterski, 
 R. L. Martin, K. Morokuma, V. G. Zakrzewski, G. A. Voth, 
 P. Salvador, J. J. Dannenberg, S. Dapprich, A. D. Daniels, 
 O. Farkas, J. B. Foresman, J. V. Ortiz, J. Cioslowski, 
 and D. J. Fox, Gaussian, Inc., Wallingford CT, 2009.
 
 ******************************************
 Gaussian 09:  EM64L-G09RevA.02 11-Jun-2009
                14-Feb-2017 
 ******************************************
 %chk=structure_225.chk
 %NProcShared=8
 Will use up to    8 processors via shared memory.
 -------------------
 #SP MP2/aug-cc-pVDZ
 -------------------
 1/38=1/1;
 2/12=2,17=6,18=5,40=1/2;
 3/5=16,7=10,11=9,16=1,25=1,30=1/1,2,3;
 4//1;
 5/5=2,38=5/2;
 8/10=1/1;
 9/16=-3/6;
 6/7=2,8=2,9=2,10=2/1;
 99/5=1,9=1/99;
 -------------------------------
 Single Point calculation at MP2
 -------------------------------
 Symbolic Z-matrix:
 Charge =  0 Multiplicity = 1
 H                    -3.9969   -0.7111    0.7842 
 C                    -3.1139   -1.1336    0.2999 
 H                    -3.3746   -1.4639   -0.7104 
 H                    -2.7997   -2.0087    0.8811 
 C                    -2.0007   -0.0926    0.3263 
 O                    -1.8622    0.6758    1.2701 
 N                    -1.1964   -0.1018   -0.7872 
 H                    -1.2345   -0.9383   -1.3554 
 C                     0.0712    0.623    -0.9263 
 H                     0.2415    0.6845   -2.0097 
 C                     0.0404    2.0582   -0.3945 
 H                    -0.0635    2.0989    0.69 
 H                     0.9484    2.5841   -0.7123 
 H                    -0.8165    2.5884   -0.82 
 C                     1.2112   -0.3061   -0.4382 
 O                     1.2425   -1.4682   -0.8334 
 N                     2.153     0.2378    0.3776 
 H                     1.9898    1.1613    0.7501 
 C                     3.2532   -0.5421    0.9203 
 H                     3.3243   -1.4615    0.3381 
 H                     4.1922    0.0156    0.8406 
 H                     3.0828   -0.8031    1.9723 
 
                          Input orientation:                          
 ---------------------------------------------------------------------
 Center     Atomic      Atomic             Coordinates (Angstroms)
 Number     Number       Type             X           Y           Z
 ---------------------------------------------------------------------
      1          1           0       -3.996900   -0.711100    0.784200
      2          6           0       -3.113900   -1.133600    0.299900
      3          1           0       -3.374600   -1.463900   -0.710400
      4          1           0       -2.799700   -2.008700    0.881100
      5          6           0       -2.000700   -0.092600    0.326300
      6          8           0       -1.862200    0.675800    1.270100
      7          7           0       -1.196400   -0.101800   -0.787200
      8          1           0       -1.234500   -0.938300   -1.355400
      9          6           0        0.071200    0.623000   -0.926300
     10          1           0        0.241500    0.684500   -2.009700
     11          6           0        0.040400    2.058200   -0.394500
     12          1           0       -0.063500    2.098900    0.690000
     13          1           0        0.948400    2.584100   -0.712300
     14          1           0       -0.816500    2.588400   -0.820000
     15          6           0        1.211200   -0.306100   -0.438200
     16          8           0        1.242500   -1.468200   -0.833400
     17          7           0        2.153000    0.237800    0.377600
     18          1           0        1.989800    1.161300    0.750100
     19          6           0        3.253200   -0.542100    0.920300
     20          1           0        3.324300   -1.461500    0.338100
     21          1           0        4.192200    0.015600    0.840600
     22          1           0        3.082800   -0.803100    1.972300
 ---------------------------------------------------------------------
                    Distance matrix (angstroms):
                    1          2          3          4          5
     1  H    0.000000
     2  C    1.092127   0.000000
     3  H    1.785440   1.094426   0.000000
     4  H    1.768175   1.096501   1.777692   0.000000
     5  C    2.139399   1.524333   2.200639   2.148870   0.000000
     6  O    2.591628   2.404573   3.284517   2.869977   1.224900
     7  N    3.268539   2.433763   2.570169   2.998343   1.373632
     8  H    3.501480   2.512032   2.296151   2.932156   2.032335
     9  C    4.610322   3.838499   4.034266   4.293554   2.524650
    10  H    5.264752   4.460768   4.402270   4.985875   3.329901
    11  C    5.035687   4.540858   4.916015   5.121816   3.051489
    12  H    4.834936   4.461634   5.061427   4.939199   2.947489
    13  H    6.128119   5.598939   5.922384   6.138484   4.115896
    14  H    4.855420   4.515031   4.793435   5.287736   3.147077
    15  C    5.364941   4.464979   4.737526   4.552661   3.308526
    16  O    5.535444   4.513817   4.618740   4.423916   3.708844
    17  N    6.235945   5.443070   5.885056   5.461640   4.167136
    18  H    6.272768   5.614000   6.148294   5.745030   4.204279
    19  C    7.253346   6.424541   6.887426   6.228166   5.306444
    20  H    7.373064   6.446658   6.780459   6.172330   5.498150
    21  H    8.221474   7.415667   7.864540   7.279155   6.215161
    22  H    7.179289   6.426916   7.023642   6.103114   5.390371
                    6          7          8          9         10
     6  O    0.000000
     7  N    2.297920   0.000000
     8  H    3.145247   1.011946   0.000000
     9  C    2.926602   1.466797   2.080057   0.000000
    10  H    3.896501   2.044586   2.289141   1.098426   0.000000
    11  C    2.881286   2.519819   3.395248   1.530869   2.129874
    12  H    2.365809   2.882475   3.844410   2.192909   3.062994
    13  H    3.933318   3.437999   4.193558   2.158979   2.406540
    14  H    3.019941   2.717090   3.591516   2.159192   2.481851
    15  C    3.650781   2.441327   2.687449   1.549538   2.095523
    16  O    4.319793   2.795964   2.586273   2.398685   2.649491
    17  N    4.136452   3.562382   3.982670   2.486448   3.090724
    18  H    3.917144   3.756406   4.386064   2.604056   3.301573
    19  C    5.270005   4.786268   5.047300   3.859082   4.377189
    20  H    5.686515   4.853021   4.891251   4.065281   4.429575
    21  H    6.105415   5.630322   5.931392   4.524766   4.917283
    22  H    5.208959   5.139865   5.452609   4.416489   5.112951
                   11         12         13         14         15
    11  C    0.000000
    12  H    1.090226   0.000000
    13  H    1.096372   1.796053   0.000000
    14  H    1.093819   1.756906   1.768188   0.000000
    15  C    2.638673   2.946476   2.915039   3.554640   0.000000
    16  O    3.751423   4.092748   4.064763   4.549249   1.227860
    17  N    2.893626   2.911041   2.853781   3.972090   1.359538
    18  H    2.432015   2.258040   2.290740   3.518117   2.042434
    19  C    4.337320   4.245988   4.213148   5.421359   2.463936
    20  H    4.869188   4.927217   4.807819   5.906700   2.530372
    21  H    4.789064   4.740654   4.419381   5.870602   3.259629
    22  H    4.800518   4.468232   4.820359   5.873989   3.091991
                   16         17         18         19         20
    16  O    0.000000
    17  N    2.281659   0.000000
    18  H    3.159145   1.009080   0.000000
    19  C    2.824188   1.453687   2.127609   0.000000
    20  H    2.388796   2.064249   2.971483   1.090554   0.000000
    21  H    3.701982   2.102874   2.484227   1.095035   1.785380
    22  H    3.420675   2.119214   2.558767   1.097206   1.778320
                   21         22
    21  H    0.000000
    22  H    1.783755   0.000000
 Stoichiometry    C6H12N2O2
 Framework group  C1[X(C6H12N2O2)]
 Deg. of freedom    60
 Full point group                 C1      NOp   1
 Largest Abelian subgroup         C1      NOp   1
 Largest concise Abelian subgroup C1      NOp   1
                         Standard orientation:                         
 ---------------------------------------------------------------------
 Center     Atomic      Atomic             Coordinates (Angstroms)
 Number     Number       Type             X           Y           Z
 ---------------------------------------------------------------------
      1          1           0       -3.996906   -0.711086    0.784200
      2          6           0       -3.113907   -1.133589    0.299900
      3          1           0       -3.374608   -1.463888   -0.710400
      4          1           0       -2.799709   -2.008690    0.881100
      5          6           0       -2.000704   -0.092592    0.326300
      6          8           0       -1.862202    0.675808    1.270100
      7          7           0       -1.196404   -0.101794   -0.787200
      8          1           0       -1.234506   -0.938294   -1.355400
      9          6           0        0.071198    0.623002   -0.926300
     10          1           0        0.241498    0.684502   -2.009700
     11          6           0        0.040402    2.058202   -0.394500
     12          1           0       -0.063498    2.098903    0.690000
     13          1           0        0.948403    2.584100   -0.712300
     14          1           0       -0.816497    2.588405   -0.820000
     15          6           0        1.211195   -0.306101   -0.438200
     16          8           0        1.242492   -1.468201   -0.833400
     17          7           0        2.152997    0.237797    0.377600
     18          1           0        1.989799    1.161297    0.750100
     19          6           0        3.253195   -0.542107    0.920300
     20          1           0        3.324292   -1.461507    0.338100
     21          1           0        4.192196    0.015591    0.840600
     22          1           0        3.082794   -0.803106    1.972300
 ---------------------------------------------------------------------
 Rotational constants (GHZ):      2.1281766      0.7841575      0.7174613
 Standard basis: Aug-CC-pVDZ (5D, 7F)
 There are   338 symmetry adapted basis functions of A   symmetry.
 Integral buffers will be    131072 words long.
 Raffenetti 1 integral format.
 Two-electron integral symmetry is turned on.
   338 basis functions,   562 primitive gaussians,   358 cartesian basis functions
    39 alpha electrons       39 beta electrons
       nuclear repulsion energy       556.9550034002 Hartrees.
 NAtoms=   22 NActive=   22 NUniq=   22 SFac= 7.50D-01 NAtFMM=   80 NAOKFM=F Big=F
 One-electron integrals computed using PRISM.
 NBasis=   338 RedAO= T  NBF=   338
 NBsUse=   338 1.00D-06 NBFU=   338
 Harris functional with IExCor=  205 diagonalized for initial guess.
 ExpMin= 2.97D-02 ExpMax= 1.17D+04 ExpMxC= 4.01D+02 IAcc=3 IRadAn=         0 AccDes= 0.00D+00
 HarFok:  IExCor=  205 AccDes= 0.00D+00 IRadAn=         0 IDoV= 1
 ScaDFX=  1.000000  1.000000  1.000000  1.000000
 FoFCou: FMM=F IPFlag=           0 FMFlag=      100000 FMFlg1=           0
         NFxFlg=           0 DoJE=T BraDBF=F KetDBF=T FulRan=T
         Omega=  0.000000  0.000000  1.000000  0.000000  0.000000 ICntrl=     500 IOpCl=  0
         NMat0=    1 NMatS0=    1 NMatT0=    0 NMatD0=    1 NMtDS0=    0 NMtDT0=    0
         I1Cent=           4 NGrid=           0.
 Petite list used in FoFCou.
 Initial guess orbital symmetries:
       Occupied  (A) (A) (A) (A) (A) (A) (A) (A) (A) (A) (A) (A)
                 (A) (A) (A) (A) (A) (A) (A) (A) (A) (A) (A) (A)
                 (A) (A) (A) (A) (A) (A) (A) (A) (A) (A) (A) (A)
                 (A) (A) (A)
       Virtual   (A) (A) (A) (A) (A) (A) (A) (A) (A) (A) (A) (A)
                 (A) (A) (A) (A) (A) (A) (A) (A) (A) (A) (A) (A)
                 (A) (A) (A) (A) (A) (A) (A) (A) (A) (A) (A) (A)
                 (A) (A) (A) (A) (A) (A) (A) (A) (A) (A) (A) (A)
                 (A) (A) (A) (A) (A) (A) (A) (A) (A) (A) (A) (A)
                 (A) (A) (A) (A) (A) (A) (A) (A) (A) (A) (A) (A)
                 (A) (A) (A) (A) (A) (A) (A) (A) (A) (A) (A) (A)
                 (A) (A) (A) (A) (A) (A) (A) (A) (A) (A) (A) (A)
                 (A) (A) (A) (A) (A) (A) (A) (A) (A) (A) (A) (A)
                 (A) (A) (A) (A) (A) (A) (A) (A) (A) (A) (A) (A)
                 (A) (A) (A) (A) (A) (A) (A) (A) (A) (A) (A) (A)
                 (A) (A) (A) (A) (A) (A) (A) (A) (A) (A) (A) (A)
                 (A) (A) (A) (A) (A) (A) (A) (A) (A) (A) (A) (A)
                 (A) (A) (A) (A) (A) (A) (A) (A) (A) (A) (A) (A)
                 (A) (A) (A) (A) (A) (A) (A) (A) (A) (A) (A) (A)
                 (A) (A) (A) (A) (A) (A) (A) (A) (A) (A) (A) (A)
                 (A) (A) (A) (A) (A) (A) (A) (A) (A) (A) (A) (A)
                 (A) (A) (A) (A) (A) (A) (A) (A) (A) (A) (A) (A)
                 (A) (A) (A) (A) (A) (A) (A) (A) (A) (A) (A) (A)
                 (A) (A) (A) (A) (A) (A) (A) (A) (A) (A) (A) (A)
                 (A) (A) (A) (A) (A) (A) (A) (A) (A) (A) (A) (A)
                 (A) (A) (A) (A) (A) (A) (A) (A) (A) (A) (A) (A)
                 (A) (A) (A) (A) (A) (A) (A) (A) (A) (A) (A) (A)
                 (A) (A) (A) (A) (A) (A) (A) (A) (A) (A) (A) (A)
                 (A) (A) (A) (A) (A) (A) (A) (A) (A) (A) (A)
 The electronic state of the initial guess is 1-A.
 Requested convergence on RMS density matrix=1.00D-08 within 128 cycles.
 Requested convergence on MAX density matrix=1.00D-06.
 Requested convergence on             energy=1.00D-06.
 No special actions if energy rises.
 Initial convergence to 1.0D-05 achieved.  Increase integral accuracy.
 SCF Done:  E(RHF) =  -492.919050975     A.U. after   14 cycles
             Convg  =    0.5773D-08             -V/T =  2.0017
 ExpMin= 2.97D-02 ExpMax= 1.17D+04 ExpMxC= 4.01D+02 IAcc=3 IRadAn=         5 AccDes= 0.00D+00
 HarFok:  IExCor=  205 AccDes= 0.00D+00 IRadAn=         5 IDoV=-2
 ScaDFX=  1.000000  1.000000  1.000000  1.000000
 Range of M.O.s used for correlation:    11   338
 NBasis=   338 NAE=    39 NBE=    39 NFC=    10 NFV=     0
 NROrb=    328 NOA=    29 NOB=    29 NVA=   299 NVB=   299

 **** Warning!!: The largest alpha MO coefficient is  0.82043754D+02

 Disk-based method using OVN memory for 29 occupieds at a time.
 Estimated scratch disk usage=  1383433026 words.
 Actual    scratch disk usage=  1370631968 words.
 JobTyp=1 Pass  1:  I=   1 to  29 NPSUse=  8 ParTrn=T ParDer=T DoDerP=F.
 Spin components of T(2) and E(2):
     alpha-alpha T2 =       0.6783045951D-01 E2=     -0.2056463977D+00
     alpha-beta  T2 =       0.3762020445D+00 E2=     -0.1189697417D+01
     beta-beta   T2 =       0.6783045951D-01 E2=     -0.2056463977D+00
 ANorm=    0.1229578368D+01
 E2 =    -0.1600990212D+01 EUMP2 =    -0.49452004118746D+03

 **********************************************************************

            Population analysis using the SCF density.

 **********************************************************************

 Orbital symmetries:
       Occupied  (A) (A) (A) (A) (A) (A) (A) (A) (A) (A) (A) (A)
                 (A) (A) (A) (A) (A) (A) (A) (A) (A) (A) (A) (A)
                 (A) (A) (A) (A) (A) (A) (A) (A) (A) (A) (A) (A)
                 (A) (A) (A)
       Virtual   (A) (A) (A) (A) (A) (A) (A) (A) (A) (A) (A) (A)
                 (A) (A) (A) (A) (A) (A) (A) (A) (A) (A) (A) (A)
                 (A) (A) (A) (A) (A) (A) (A) (A) (A) (A) (A) (A)
                 (A) (A) (A) (A) (A) (A) (A) (A) (A) (A) (A) (A)
                 (A) (A) (A) (A) (A) (A) (A) (A) (A) (A) (A) (A)
                 (A) (A) (A) (A) (A) (A) (A) (A) (A) (A) (A) (A)
                 (A) (A) (A) (A) (A) (A) (A) (A) (A) (A) (A) (A)
                 (A) (A) (A) (A) (A) (A) (A) (A) (A) (A) (A) (A)
                 (A) (A) (A) (A) (A) (A) (A) (A) (A) (A) (A) (A)
                 (A) (A) (A) (A) (A) (A) (A) (A) (A) (A) (A) (A)
                 (A) (A) (A) (A) (A) (A) (A) (A) (A) (A) (A) (A)
                 (A) (A) (A) (A) (A) (A) (A) (A) (A) (A) (A) (A)
                 (A) (A) (A) (A) (A) (A) (A) (A) (A) (A) (A) (A)
                 (A) (A) (A) (A) (A) (A) (A) (A) (A) (A) (A) (A)
                 (A) (A) (A) (A) (A) (A) (A) (A) (A) (A) (A) (A)
                 (A) (A) (A) (A) (A) (A) (A) (A) (A) (A) (A) (A)
                 (A) (A) (A) (A) (A) (A) (A) (A) (A) (A) (A) (A)
                 (A) (A) (A) (A) (A) (A) (A) (A) (A) (A) (A) (A)
                 (A) (A) (A) (A) (A) (A) (A) (A) (A) (A) (A) (A)
                 (A) (A) (A) (A) (A) (A) (A) (A) (A) (A) (A) (A)
                 (A) (A) (A) (A) (A) (A) (A) (A) (A) (A) (A) (A)
                 (A) (A) (A) (A) (A) (A) (A) (A) (A) (A) (A) (A)
                 (A) (A) (A) (A) (A) (A) (A) (A) (A) (A) (A) (A)
                 (A) (A) (A) (A) (A) (A) (A) (A) (A) (A) (A) (A)
                 (A) (A) (A) (A) (A) (A) (A) (A) (A) (A) (A)
 The electronic state is 1-A.
 Alpha  occ. eigenvalues --  -20.53164 -20.53019 -15.60081 -15.59473 -11.36323
 Alpha  occ. eigenvalues --  -11.36225 -11.29818 -11.27042 -11.24367 -11.23675
 Alpha  occ. eigenvalues --   -1.38933  -1.38082  -1.23869  -1.23488  -1.05660
 Alpha  occ. eigenvalues --   -0.99017  -0.95606  -0.89245  -0.80221  -0.76582
 Alpha  occ. eigenvalues --   -0.72206  -0.69792  -0.65514  -0.64691  -0.61872
 Alpha  occ. eigenvalues --   -0.61691  -0.59596  -0.58784  -0.56403  -0.55618
 Alpha  occ. eigenvalues --   -0.55252  -0.54616  -0.52859  -0.51310  -0.50652
 Alpha  occ. eigenvalues --   -0.43578  -0.42047  -0.39908  -0.38913
 Alpha virt. eigenvalues --    0.03068   0.03822   0.04233   0.04918   0.05681
 Alpha virt. eigenvalues --    0.05950   0.06198   0.06982   0.07574   0.07767
 Alpha virt. eigenvalues --    0.09383   0.09599   0.10738   0.11422   0.13479
 Alpha virt. eigenvalues --    0.13514   0.14143   0.14369   0.14998   0.15222
 Alpha virt. eigenvalues --    0.15485   0.16265   0.16541   0.16831   0.17287
 Alpha virt. eigenvalues --    0.17481   0.17965   0.18318   0.18548   0.19040
 Alpha virt. eigenvalues --    0.19304   0.20545   0.20988   0.21666   0.22753
 Alpha virt. eigenvalues --    0.22904   0.23841   0.25250   0.25649   0.26300
 Alpha virt. eigenvalues --    0.26839   0.28193   0.28562   0.30200   0.30559
 Alpha virt. eigenvalues --    0.31561   0.31829   0.32665   0.33096   0.33651
 Alpha virt. eigenvalues --    0.34484   0.34728   0.35862   0.36276   0.36769
 Alpha virt. eigenvalues --    0.37129   0.38115   0.38788   0.39847   0.40773
 Alpha virt. eigenvalues --    0.40948   0.41396   0.41666   0.42454   0.42996
 Alpha virt. eigenvalues --    0.43607   0.43866   0.44367   0.45044   0.45340
 Alpha virt. eigenvalues --    0.45726   0.47113   0.47269   0.48591   0.49058
 Alpha virt. eigenvalues --    0.50150   0.50571   0.51501   0.51752   0.52682
 Alpha virt. eigenvalues --    0.53125   0.53755   0.55090   0.55526   0.55966
 Alpha virt. eigenvalues --    0.56769   0.57320   0.58293   0.58853   0.59295
 Alpha virt. eigenvalues --    0.60062   0.60509   0.61398   0.61805   0.62689
 Alpha virt. eigenvalues --    0.62849   0.63222   0.64209   0.64340   0.64999
 Alpha virt. eigenvalues --    0.65953   0.66686   0.66796   0.67763   0.68267
 Alpha virt. eigenvalues --    0.68440   0.69550   0.70357   0.70937   0.71649
 Alpha virt. eigenvalues --    0.71996   0.72612   0.73367   0.74174   0.75708
 Alpha virt. eigenvalues --    0.75957   0.76358   0.77251   0.79103   0.80043
 Alpha virt. eigenvalues --    0.81241   0.81372   0.81817   0.82574   0.83016
 Alpha virt. eigenvalues --    0.85310   0.85609   0.86598   0.86971   0.87907
 Alpha virt. eigenvalues --    0.88370   0.89878   0.90489   0.92286   0.92851
 Alpha virt. eigenvalues --    0.93879   0.95592   0.96526   0.97678   0.98251
 Alpha virt. eigenvalues --    0.99101   0.99592   1.01561   1.02841   1.05448
 Alpha virt. eigenvalues --    1.05898   1.06854   1.09559   1.10232   1.11229
 Alpha virt. eigenvalues --    1.12261   1.14124   1.14205   1.15115   1.16119
 Alpha virt. eigenvalues --    1.16906   1.18487   1.19460   1.20443   1.22222
 Alpha virt. eigenvalues --    1.23316   1.24419   1.27064   1.28292   1.30016
 Alpha virt. eigenvalues --    1.31527   1.33489   1.34890   1.36919   1.38025
 Alpha virt. eigenvalues --    1.40721   1.44308   1.45105   1.46342   1.48817
 Alpha virt. eigenvalues --    1.49694   1.51730   1.52195   1.53638   1.54539
 Alpha virt. eigenvalues --    1.55751   1.57593   1.59231   1.61285   1.62865
 Alpha virt. eigenvalues --    1.66301   1.67989   1.68997   1.71137   1.72326
 Alpha virt. eigenvalues --    1.74549   1.75874   1.77438   1.79437   1.79919
 Alpha virt. eigenvalues --    1.81044   1.83154   1.85281   1.86488   1.87472
 Alpha virt. eigenvalues --    1.89351   1.90177   1.91285   1.93652   1.94519
 Alpha virt. eigenvalues --    1.95756   1.97367   1.98438   1.99188   2.01810
 Alpha virt. eigenvalues --    2.02460   2.02915   2.04584   2.06605   2.07703
 Alpha virt. eigenvalues --    2.10109   2.12399   2.13335   2.15716   2.17636
 Alpha virt. eigenvalues --    2.18189   2.18912   2.19982   2.22696   2.23472
 Alpha virt. eigenvalues --    2.25798   2.27163   2.27494   2.28438   2.30100
 Alpha virt. eigenvalues --    2.30713   2.33058   2.34293   2.36495   2.37004
 Alpha virt. eigenvalues --    2.38443   2.41570   2.43265   2.43904   2.44261
 Alpha virt. eigenvalues --    2.45345   2.46520   2.48745   2.49348   2.50065
 Alpha virt. eigenvalues --    2.53296   2.54913   2.57393   2.59062   2.61259
 Alpha virt. eigenvalues --    2.62787   2.63182   2.66224   2.67146   2.69871
 Alpha virt. eigenvalues --    2.71444   2.73093   2.73763   2.77178   2.78777
 Alpha virt. eigenvalues --    2.83455   2.84160   2.86459   2.87922   2.88508
 Alpha virt. eigenvalues --    2.90217   2.92730   2.95512   2.95884   2.98498
 Alpha virt. eigenvalues --    2.99190   3.03026   3.04859   3.06505   3.08340
 Alpha virt. eigenvalues --    3.09726   3.13615   3.18100   3.19751   3.24072
 Alpha virt. eigenvalues --    3.27812   3.32183   3.42198   3.45289   3.53996
 Alpha virt. eigenvalues --    3.62785   3.65316   3.77177   3.83561   3.84523
 Alpha virt. eigenvalues --    3.85819   3.89039   3.92183   3.96581   4.03416
 Alpha virt. eigenvalues --    4.04313   4.10530   4.20784   4.23973
          Condensed to atoms (all electrons):
              1          2          3          4          5          6
     1  H    0.785847   0.373830  -0.102278  -0.054396  -0.050166   0.027756
     2  C    0.373830   4.509913   0.356942   0.311058   0.233585  -0.051029
     3  H   -0.102278   0.356942   1.014975  -0.068455   0.038366  -0.004362
     4  H   -0.054396   0.311058  -0.068455   0.730760  -0.024013   0.011087
     5  C   -0.050166   0.233585   0.038366  -0.024013   5.271885   0.194450
     6  O    0.027756  -0.051029  -0.004362   0.011087   0.194450   8.699951
     7  N    0.039269  -0.060751  -0.149830   0.029723   0.127403  -0.124332
     8  H   -0.005596  -0.048720   0.013056  -0.000499  -0.112531   0.005351
     9  C   -0.008453   0.039099  -0.011379   0.006256  -0.374331   0.138827
    10  H   -0.001262   0.002759   0.004680  -0.000606   0.040766   0.000379
    11  C    0.005798  -0.012623  -0.011734   0.004975  -0.033043  -0.050500
    12  H    0.000729   0.002536   0.001132   0.000279   0.048795  -0.069091
    13  H    0.000115  -0.003544  -0.001516   0.000383  -0.051815   0.005020
    14  H   -0.000352   0.001539  -0.000063   0.000582   0.040238   0.022878
    15  C   -0.002545  -0.030635   0.002178  -0.008050  -0.030468   0.016502
    16  O   -0.000002   0.007382   0.000589   0.000565   0.014058  -0.001758
    17  N    0.000391   0.002288   0.000592   0.000226   0.046857  -0.004887
    18  H   -0.000117  -0.001942  -0.000433   0.000102  -0.011573   0.000238
    19  C   -0.000173  -0.001973   0.000482  -0.000603   0.008715   0.000725
    20  H   -0.000048  -0.000151   0.000071  -0.000107  -0.004317   0.000026
    21  H    0.000011  -0.000117  -0.000018  -0.000003   0.002020  -0.000043
    22  H   -0.000045   0.000185   0.000094   0.000006   0.001247   0.000230
              7          8          9         10         11         12
     1  H    0.039269  -0.005596  -0.008453  -0.001262   0.005798   0.000729
     2  C   -0.060751  -0.048720   0.039099   0.002759  -0.012623   0.002536
     3  H   -0.149830   0.013056  -0.011379   0.004680  -0.011734   0.001132
     4  H    0.029723  -0.000499   0.006256  -0.000606   0.004975   0.000279
     5  C    0.127403  -0.112531  -0.374331   0.040766  -0.033043   0.048795
     6  O   -0.124332   0.005351   0.138827   0.000379  -0.050500  -0.069091
     7  N    7.444642   0.361219  -0.099699  -0.100049  -0.068814  -0.060028
     8  H    0.361219   0.908255  -0.163281   0.026790  -0.009430  -0.001762
     9  C   -0.099699  -0.163281   7.084177  -0.058766   0.284424  -0.000745
    10  H   -0.100049   0.026790  -0.058766   1.323622  -0.003909   0.078512
    11  C   -0.068814  -0.009430   0.284424  -0.003909   4.398265   0.372244
    12  H   -0.060028  -0.001762  -0.000745   0.078512   0.372244   1.063014
    13  H    0.096238   0.000725  -0.080504  -0.105618   0.292231  -0.276622
    14  H   -0.042479   0.002617   0.003335  -0.044119   0.164278  -0.210957
    15  C    0.032776   0.083190  -0.357123  -0.112848  -0.201142  -0.113382
    16  O    0.003238  -0.010691  -0.003629   0.022659   0.011199   0.004208
    17  N    0.052806  -0.008540  -0.205240   0.044397   0.029297   0.016385
    18  H   -0.012628   0.000976   0.057855  -0.007516   0.018414   0.017428
    19  C    0.010347   0.001399  -0.057454  -0.002536  -0.023042  -0.005943
    20  H   -0.000952  -0.000268  -0.006346   0.003160  -0.002577   0.001188
    21  H    0.004521   0.001118  -0.041467  -0.005363   0.003773  -0.001847
    22  H   -0.005906  -0.001073   0.045390   0.001806  -0.002070  -0.001727
             13         14         15         16         17         18
     1  H    0.000115  -0.000352  -0.002545  -0.000002   0.000391  -0.000117
     2  C   -0.003544   0.001539  -0.030635   0.007382   0.002288  -0.001942
     3  H   -0.001516  -0.000063   0.002178   0.000589   0.000592  -0.000433
     4  H    0.000383   0.000582  -0.008050   0.000565   0.000226   0.000102
     5  C   -0.051815   0.040238  -0.030468   0.014058   0.046857  -0.011573
     6  O    0.005020   0.022878   0.016502  -0.001758  -0.004887   0.000238
     7  N    0.096238  -0.042479   0.032776   0.003238   0.052806  -0.012628
     8  H    0.000725   0.002617   0.083190  -0.010691  -0.008540   0.000976
     9  C   -0.080504   0.003335  -0.357123  -0.003629  -0.205240   0.057855
    10  H   -0.105618  -0.044119  -0.112848   0.022659   0.044397  -0.007516
    11  C    0.292231   0.164278  -0.201142   0.011199   0.029297   0.018414
    12  H   -0.276622  -0.210957  -0.113382   0.004208   0.016385   0.017428
    13  H    1.359481  -0.232823   0.018865   0.001436   0.004266   0.006922
    14  H   -0.232823   1.331106   0.102477  -0.003435  -0.011030   0.000279
    15  C    0.018865   0.102477   5.469455   0.158108   0.141427  -0.084431
    16  O    0.001436  -0.003435   0.158108   8.804267  -0.152692   0.015818
    17  N    0.004266  -0.011030   0.141427  -0.152692   7.151785   0.258936
    18  H    0.006922   0.000279  -0.084431   0.015818   0.258936   0.977467
    19  C    0.002286   0.004455  -0.072470   0.008373   0.262433  -0.126108
    20  H    0.000403   0.000175   0.026499  -0.009297  -0.058054  -0.000602
    21  H    0.001292   0.000991   0.021410   0.008684  -0.123203   0.007027
    22  H   -0.002619   0.001024  -0.061432   0.006977   0.072003  -0.001897
             19         20         21         22
     1  H   -0.000173  -0.000048   0.000011  -0.000045
     2  C   -0.001973  -0.000151  -0.000117   0.000185
     3  H    0.000482   0.000071  -0.000018   0.000094
     4  H   -0.000603  -0.000107  -0.000003   0.000006
     5  C    0.008715  -0.004317   0.002020   0.001247
     6  O    0.000725   0.000026  -0.000043   0.000230
     7  N    0.010347  -0.000952   0.004521  -0.005906
     8  H    0.001399  -0.000268   0.001118  -0.001073
     9  C   -0.057454  -0.006346  -0.041467   0.045390
    10  H   -0.002536   0.003160  -0.005363   0.001806
    11  C   -0.023042  -0.002577   0.003773  -0.002070
    12  H   -0.005943   0.001188  -0.001847  -0.001727
    13  H    0.002286   0.000403   0.001292  -0.002619
    14  H    0.004455   0.000175   0.000991   0.001024
    15  C   -0.072470   0.026499   0.021410  -0.061432
    16  O    0.008373  -0.009297   0.008684   0.006977
    17  N    0.262433  -0.058054  -0.123203   0.072003
    18  H   -0.126108  -0.000602   0.007027  -0.001897
    19  C    4.106252   0.468651   0.392515   0.287525
    20  H    0.468651   0.969727  -0.151303  -0.099075
    21  H    0.392515  -0.151303   1.184899  -0.163408
    22  H    0.287525  -0.099075  -0.163408   0.995099
 Mulliken atomic charges:
              1
     1  H   -0.008312
     2  C    0.370367
     3  H   -0.083093
     4  H    0.060730
     5  C    0.623872
     6  O   -0.817420
     7  N   -0.476714
     8  H   -0.042306
     9  C   -0.190944
    10  H   -0.106940
    11  C    0.833985
    12  H    0.135654
    13  H   -0.034601
    14  H   -0.130716
    15  C    1.001640
    16  O   -0.886056
    17  N   -0.520443
    18  H   -0.114215
    19  C    0.736142
    20  H   -0.136804
    21  H   -0.141489
    22  H   -0.072335
 Sum of Mulliken atomic charges =   0.00000
 Mulliken charges with hydrogens summed into heavy atoms:
              1
     2  C    0.339692
     5  C    0.623872
     6  O   -0.817420
     7  N   -0.519021
     9  C   -0.297885
    11  C    0.804322
    15  C    1.001640
    16  O   -0.886056
    17  N   -0.634658
    19  C    0.385514
 Sum of Mulliken charges with hydrogens summed into heavy atoms =   0.00000
 Electronic spatial extent (au):  <R**2>=           1772.2479
 Charge=              0.0000 electrons
 Dipole moment (field-independent basis, Debye):
    X=              0.9226    Y=              1.0880    Z=             -0.9947  Tot=              1.7391
 Quadrupole moment (field-independent basis, Debye-Ang):
   XX=            -54.1036   YY=            -63.0239   ZZ=            -63.4822
   XY=              9.7915   XZ=              8.7856   YZ=             -4.3817
 Traceless Quadrupole moment (field-independent basis, Debye-Ang):
   XX=              6.0996   YY=             -2.8206   ZZ=             -3.2790
   XY=              9.7915   XZ=              8.7856   YZ=             -4.3817
 Octapole moment (field-independent basis, Debye-Ang**2):
  XXX=              7.8449  YYY=              7.0105  ZZZ=             -6.9102  XYY=             -4.6639
  XXY=            -10.8920  XXZ=              4.6709  XZZ=              8.0145  YZZ=             -2.5865
  YYZ=              4.0564  XYZ=              0.5157
 Hexadecapole moment (field-independent basis, Debye-Ang**3):
 XXXX=          -1436.6114 YYYY=           -486.5703 ZZZZ=           -295.6686 XXXY=             19.2866
 XXXZ=             26.9829 YYYX=             11.4907 YYYZ=             -2.9108 ZZZX=             14.8751
 ZZZY=              0.9801 XXYY=           -334.1481 XXZZ=           -320.2051 YYZZ=           -129.1700
 XXYZ=             -9.3328 YYXZ=             12.3072 ZZXY=             14.3206
 N-N= 5.569550034002D+02 E-N=-2.269235969466D+03  KE= 4.920716552599D+02
 1\1\GINC-NODE011\SP\RMP2-FC\Aug-CC-pVDZ\C6H12N2O2\MANAGER\14-Feb-2017\
 0\\#SP MP2/aug-cc-pVDZ\\Single Point calculation at MP2\\0,1\H,0,-3.99
 69,-0.7111,0.7842\C,0,-3.1139,-1.1336,0.2999\H,0,-3.3746,-1.4639,-0.71
 04\H,0,-2.7997,-2.0087,0.8811\C,0,-2.0007,-0.0926,0.3263\O,0,-1.8622,0
 .6758,1.2701\N,0,-1.1964,-0.1018,-0.7872\H,0,-1.2345,-0.9383,-1.3554\C
 ,0,0.0712,0.623,-0.9263\H,0,0.2415,0.6845,-2.0097\C,0,0.0404,2.0582,-0
 .3945\H,0,-0.0635,2.0989,0.69\H,0,0.9484,2.5841,-0.7123\H,0,-0.8165,2.
 5884,-0.82\C,0,1.2112,-0.3061,-0.4382\O,0,1.2425,-1.4682,-0.8334\N,0,2
 .153,0.2378,0.3776\H,0,1.9898,1.1613,0.7501\C,0,3.2532,-0.5421,0.9203\
 H,0,3.3243,-1.4615,0.3381\H,0,4.1922,0.0156,0.8406\H,0,3.0828,-0.8031,
 1.9723\\Version=EM64L-G09RevA.02\State=1-A\HF=-492.919051\MP2=-494.520
 0412\RMSD=5.773e-09\PG=C01 [X(C6H12N2O2)]\\@


 IF YOU WISH TO UNDERSTAND THE FRAGRANCE OF THE ROSE, 
 OR THE TENACITY OF THE OAK; 
 IF YOU ARE NOT SATISFIED UNTIL YOU KNOW THE SECRET PATHS 
 BY WHICH THE SUNSHINE AND THE AIR ACHIEVE THESE WONDERS; 
 IF YOU WISH TO SEE THE PATTERN WHICH UNDERLIES ONE LARGE FIELD OF 
 HUMAN EXPERIENCE AND HUMAN MEASUREMENT, THEN TAKE UP CHEMISTRY.

                                         -- C. A. COULSON, 1973.
 Job cpu time:  0 days 10 hours 59 minutes 13.8 seconds.
 File lengths (MBytes):  RWF=  10574 Int=      0 D2E=      0 Chk=      7 Scr=      2
 Normal termination of Gaussian 09 at Tue Feb 14 05:12:31 2017.
