 Entering Gaussian System, Link 0=g09
 Initial command:
 /home/steboss/Software/g09/l1.exe /home/steboss/projects/phi_psi_scan/alanine/MP2/90/5727/Gau-24928.inp -scrdir=/home/steboss/projects/phi_psi_scan/alanine/MP2/90/5727/
 Entering Link 1 = /home/steboss/Software/g09/l1.exe PID=     24930.
  
 Copyright (c) 1988,1990,1992,1993,1995,1998,2003,2009, Gaussian, Inc.
                  All Rights Reserved.
  
 This is part of the Gaussian(R) 09 program.  It is based on
 the Gaussian(R) 03 system (copyright 2003, Gaussian, Inc.),
 the Gaussian(R) 98 system (copyright 1998, Gaussian, Inc.),
 the Gaussian(R) 94 system (copyright 1995, Gaussian, Inc.),
 the Gaussian 92(TM) system (copyright 1992, Gaussian, Inc.),
 the Gaussian 90(TM) system (copyright 1990, Gaussian, Inc.),
 the Gaussian 88(TM) system (copyright 1988, Gaussian, Inc.),
 the Gaussian 86(TM) system (copyright 1986, Carnegie Mellon
 University), and the Gaussian 82(TM) system (copyright 1983,
 Carnegie Mellon University). Gaussian is a federally registered
 trademark of Gaussian, Inc.
  
 This software contains proprietary and confidential information,
 including trade secrets, belonging to Gaussian, Inc.
  
 This software is provided under written license and may be
 used, copied, transmitted, or stored only in accord with that
 written license.
  
 The following legend is applicable only to US Government
 contracts under FAR:
  
                    RESTRICTED RIGHTS LEGEND
  
 Use, reproduction and disclosure by the US Government is
 subject to restrictions as set forth in subparagraphs (a)
 and (c) of the Commercial Computer Software - Restricted
 Rights clause in FAR 52.227-19.
  
 Gaussian, Inc.
 340 Quinnipiac St., Bldg. 40, Wallingford CT 06492
  
  
 ---------------------------------------------------------------
 Warning -- This program may not be used in any manner that
 competes with the business of Gaussian, Inc. or will provide
 assistance to any competitor of Gaussian, Inc.  The licensee
 of this program is prohibited from giving any competitor of
 Gaussian, Inc. access to this program.  By using this program,
 the user acknowledges that Gaussian, Inc. is engaged in the
 business of creating and licensing software in the field of
 computational chemistry and represents and warrants to the
 licensee that it is not a competitor of Gaussian, Inc. and that
 it will not use this program in any manner prohibited above.
 ---------------------------------------------------------------
  

 Cite this work as:
 Gaussian 09, Revision A.02,
 M. J. Frisch, G. W. Trucks, H. B. Schlegel, G. E. Scuseria, 
 M. A. Robb, J. R. Cheeseman, G. Scalmani, V. Barone, B. Mennucci, 
 G. A. Petersson, H. Nakatsuji, M. Caricato, X. Li, H. P. Hratchian, 
 A. F. Izmaylov, J. Bloino, G. Zheng, J. L. Sonnenberg, M. Hada, 
 M. Ehara, K. Toyota, R. Fukuda, J. Hasegawa, M. Ishida, T. Nakajima, 
 Y. Honda, O. Kitao, H. Nakai, T. Vreven, J. A. Montgomery, Jr., 
 J. E. Peralta, F. Ogliaro, M. Bearpark, J. J. Heyd, E. Brothers, 
 K. N. Kudin, V. N. Staroverov, R. Kobayashi, J. Normand, 
 K. Raghavachari, A. Rendell, J. C. Burant, S. S. Iyengar, J. Tomasi, 
 M. Cossi, N. Rega, J. M. Millam, M. Klene, J. E. Knox, J. B. Cross, 
 V. Bakken, C. Adamo, J. Jaramillo, R. Gomperts, R. E. Stratmann, 
 O. Yazyev, A. J. Austin, R. Cammi, C. Pomelli, J. W. Ochterski, 
 R. L. Martin, K. Morokuma, V. G. Zakrzewski, G. A. Voth, 
 P. Salvador, J. J. Dannenberg, S. Dapprich, A. D. Daniels, 
 O. Farkas, J. B. Foresman, J. V. Ortiz, J. Cioslowski, 
 and D. J. Fox, Gaussian, Inc., Wallingford CT, 2009.
 
 ******************************************
 Gaussian 09:  EM64L-G09RevA.02 11-Jun-2009
                14-Feb-2017 
 ******************************************
 %chk=structure_45.chk
 %NProcShared=8
 Will use up to    8 processors via shared memory.
 -------------------
 #SP MP2/aug-cc-pVDZ
 -------------------
 1/38=1/1;
 2/12=2,17=6,18=5,40=1/2;
 3/5=16,7=10,11=9,16=1,25=1,30=1/1,2,3;
 4//1;
 5/5=2,38=5/2;
 8/10=1/1;
 9/16=-3/6;
 6/7=2,8=2,9=2,10=2/1;
 99/5=1,9=1/99;
 -------------------------------
 Single Point calculation at MP2
 -------------------------------
 Symbolic Z-matrix:
 Charge =  0 Multiplicity = 1
 H                    -3.5048   -1.7135    0.7593 
 C                    -3.1243   -1.2029   -0.1273 
 H                    -3.9058   -0.5222   -0.4866 
 H                    -2.9229   -1.9384   -0.9134 
 C                    -1.8908   -0.3986    0.2654 
 O                    -1.7309    0.0466    1.3898 
 N                    -0.9593   -0.2423   -0.7468 
 H                    -1.3041   -0.4872   -1.667 
 C                     0.0689    0.8224   -0.7473 
 H                     0.3454    0.9321   -1.804 
 C                    -0.3992    2.1819   -0.2284 
 H                    -0.6609    2.1291    0.8277 
 H                     0.4088    2.9069   -0.3504 
 H                    -1.2708    2.5208   -0.7993 
 C                     1.3696    0.354    -0.0479 
 O                     2.0343    1.1055    0.6506 
 N                     1.7799   -0.9002   -0.4102 
 H                     1.0598   -1.5121   -0.7716 
 C                     2.9462   -1.5146    0.2032 
 H                     3.6547   -0.7221    0.4481 
 H                     2.6976   -2.0527    1.1279 
 H                     3.4098   -2.2126   -0.5007 
 
                          Input orientation:                          
 ---------------------------------------------------------------------
 Center     Atomic      Atomic             Coordinates (Angstroms)
 Number     Number       Type             X           Y           Z
 ---------------------------------------------------------------------
      1          1           0       -3.504800   -1.713500    0.759300
      2          6           0       -3.124300   -1.202900   -0.127300
      3          1           0       -3.905800   -0.522200   -0.486600
      4          1           0       -2.922900   -1.938400   -0.913400
      5          6           0       -1.890800   -0.398600    0.265400
      6          8           0       -1.730900    0.046600    1.389800
      7          7           0       -0.959300   -0.242300   -0.746800
      8          1           0       -1.304100   -0.487200   -1.667000
      9          6           0        0.068900    0.822400   -0.747300
     10          1           0        0.345400    0.932100   -1.804000
     11          6           0       -0.399200    2.181900   -0.228400
     12          1           0       -0.660900    2.129100    0.827700
     13          1           0        0.408800    2.906900   -0.350400
     14          1           0       -1.270800    2.520800   -0.799300
     15          6           0        1.369600    0.354000   -0.047900
     16          8           0        2.034300    1.105500    0.650600
     17          7           0        1.779900   -0.900200   -0.410200
     18          1           0        1.059800   -1.512100   -0.771600
     19          6           0        2.946200   -1.514600    0.203200
     20          1           0        3.654700   -0.722100    0.448100
     21          1           0        2.697600   -2.052700    1.127900
     22          1           0        3.409800   -2.212600   -0.500700
 ---------------------------------------------------------------------
                    Distance matrix (angstroms):
                    1          2          3          4          5
     1  H    0.000000
     2  C    1.091582   0.000000
     3  H    1.769820   1.096901   0.000000
     4  H    1.785249   1.095206   1.775915   0.000000
     5  C    2.139602   1.524019   2.154299   2.196767   0.000000
     6  O    2.577247   2.409234   2.928242   3.265857   1.219855
     7  N    3.303383   2.448215   2.971180   2.600045   1.384439
     8  H    3.497688   2.489183   2.857169   2.300958   2.021444
     9  C    4.633785   3.831810   4.204064   4.074368   2.521275
    10  H    5.328578   4.405493   4.682225   4.440127   3.324721
    11  C    5.078823   4.346638   4.435659   4.880078   3.021207
    12  H    4.781006   4.252363   4.391600   4.969168   2.866723
    13  H    6.155956   5.424300   5.512989   5.907125   4.073537
    14  H    5.034807   4.213429   4.037432   4.756776   3.168735
    15  C    5.355922   4.756614   5.365634   4.942645   3.360770
    16  O    6.216125   5.704822   6.263180   6.023724   4.221031
    17  N    5.473321   4.921670   5.698764   4.842251   3.765910
    18  H    4.818692   4.244693   5.071322   4.007959   3.319833
    19  C    6.477979   6.087475   6.957772   5.989385   4.964463
    20  H    7.234512   6.820344   7.620681   6.826265   5.557931
    21  H    6.222595   6.015996   6.968065   5.980802   4.953117
    22  H    7.046162   6.622189   7.508372   6.352054   5.654544
                    6          7          8          9         10
     6  O    0.000000
     7  N    2.289954   0.000000
     8  H    3.132272   1.012734   0.000000
     9  C    2.899714   1.480129   2.108561   0.000000
    10  H    3.910945   2.049178   2.180374   1.097771   0.000000
    11  C    2.991906   2.541495   3.164255   1.528599   2.144515
    12  H    2.407834   2.862103   3.671820   2.172717   3.061257
    13  H    3.973403   3.456341   4.023354   2.149000   2.452918
    14  H    3.335493   2.781099   3.130827   2.163807   2.479010
    15  C    3.431410   2.503559   3.236939   1.549316   2.113545
    16  O    3.980505   3.568043   4.364960   2.428388   2.984546
    17  N    4.057357   2.837137   3.355767   2.451226   2.712525
    18  H    3.858653   2.385324   2.727670   2.536210   2.747787
    19  C    5.071551   4.215943   4.755865   3.826732   4.096261
    20  H    5.521086   4.790302   5.396158   4.083188   4.331258
    21  H    4.907878   4.490542   5.125998   4.323498   4.799783
    22  H    5.924928   4.799133   5.153457   4.520359   4.580205
                   11         12         13         14         15
    11  C    0.000000
    12  H    1.089322   0.000000
    13  H    1.092416   1.771200   0.000000
    14  H    1.095658   1.781161   1.780910   0.000000
    15  C    2.549991   2.835593   2.744438   3.497333   0.000000
    16  O    2.802356   2.888464   2.624746   3.876722   1.222490
    17  N    3.779004   4.082470   4.046913   4.600153   1.368439
    18  H    4.008664   4.333233   4.486510   4.657977   2.025351
    19  C    5.004207   5.165048   5.127820   5.922208   2.457719
    20  H    5.032392   5.186313   4.933874   6.027683   2.574041
    21  H    5.418631   5.371880   5.658764   6.354463   2.989698
    22  H    5.821878   6.098000   5.936150   6.663502   3.309816
                   16         17         18         19         20
    16  O    0.000000
    17  N    2.283166   0.000000
    18  H    3.134347   1.011719   0.000000
    19  C    2.810098   1.453961   2.123381   0.000000
    20  H    2.450882   2.069607   2.974101   1.090873   0.000000
    21  H    3.262209   2.129831   2.565685   1.098373   1.774448
    22  H    3.771907   2.094554   2.467101   1.094351   1.783757
                   21         22
    21  H    0.000000
    22  H    1.784695   0.000000
 Stoichiometry    C6H12N2O2
 Framework group  C1[X(C6H12N2O2)]
 Deg. of freedom    60
 Full point group                 C1      NOp   1
 Largest Abelian subgroup         C1      NOp   1
 Largest concise Abelian subgroup C1      NOp   1
                         Standard orientation:                         
 ---------------------------------------------------------------------
 Center     Atomic      Atomic             Coordinates (Angstroms)
 Number     Number       Type             X           Y           Z
 ---------------------------------------------------------------------
      1          1           0       -3.504809   -1.713505    0.759295
      2          6           0       -3.124308   -1.202906   -0.127305
      3          1           0       -3.905808   -0.522205   -0.486605
      4          1           0       -2.922909   -1.938406   -0.913405
      5          6           0       -1.890808   -0.398606    0.265395
      6          8           0       -1.730908    0.046593    1.389795
      7          7           0       -0.959308   -0.242307   -0.746805
      8          1           0       -1.304108   -0.487207   -1.667005
      9          6           0        0.068893    0.822392   -0.747305
     10          1           0        0.345393    0.932092   -1.804005
     11          6           0       -0.399206    2.181893   -0.228405
     12          1           0       -0.660906    2.129093    0.827695
     13          1           0        0.408794    2.906892   -0.350405
     14          1           0       -1.270806    2.520793   -0.799305
     15          6           0        1.369593    0.353991   -0.047905
     16          8           0        2.034293    1.105491    0.650595
     17          7           0        1.779892   -0.900209   -0.410205
     18          1           0        1.059791   -1.512108   -0.771605
     19          6           0        2.946191   -1.514610    0.203195
     20          1           0        3.654692   -0.722110    0.448095
     21          1           0        2.697591   -2.052709    1.127895
     22          1           0        3.409791   -2.212610   -0.500705
 ---------------------------------------------------------------------
 Rotational constants (GHZ):      1.9987356      0.8390697      0.7028136
 Standard basis: Aug-CC-pVDZ (5D, 7F)
 There are   338 symmetry adapted basis functions of A   symmetry.
 Integral buffers will be    131072 words long.
 Raffenetti 1 integral format.
 Two-electron integral symmetry is turned on.
   338 basis functions,   562 primitive gaussians,   358 cartesian basis functions
    39 alpha electrons       39 beta electrons
       nuclear repulsion energy       557.2481263498 Hartrees.
 NAtoms=   22 NActive=   22 NUniq=   22 SFac= 7.50D-01 NAtFMM=   80 NAOKFM=F Big=F
 One-electron integrals computed using PRISM.
 NBasis=   338 RedAO= T  NBF=   338
 NBsUse=   338 1.00D-06 NBFU=   338
 Harris functional with IExCor=  205 diagonalized for initial guess.
 ExpMin= 2.97D-02 ExpMax= 1.17D+04 ExpMxC= 4.01D+02 IAcc=3 IRadAn=         0 AccDes= 0.00D+00
 HarFok:  IExCor=  205 AccDes= 0.00D+00 IRadAn=         0 IDoV= 1
 ScaDFX=  1.000000  1.000000  1.000000  1.000000
 FoFCou: FMM=F IPFlag=           0 FMFlag=      100000 FMFlg1=           0
         NFxFlg=           0 DoJE=T BraDBF=F KetDBF=T FulRan=T
         Omega=  0.000000  0.000000  1.000000  0.000000  0.000000 ICntrl=     500 IOpCl=  0
         NMat0=    1 NMatS0=    1 NMatT0=    0 NMatD0=    1 NMtDS0=    0 NMtDT0=    0
         I1Cent=           4 NGrid=           0.
 Petite list used in FoFCou.
 Initial guess orbital symmetries:
       Occupied  (A) (A) (A) (A) (A) (A) (A) (A) (A) (A) (A) (A)
                 (A) (A) (A) (A) (A) (A) (A) (A) (A) (A) (A) (A)
                 (A) (A) (A) (A) (A) (A) (A) (A) (A) (A) (A) (A)
                 (A) (A) (A)
       Virtual   (A) (A) (A) (A) (A) (A) (A) (A) (A) (A) (A) (A)
                 (A) (A) (A) (A) (A) (A) (A) (A) (A) (A) (A) (A)
                 (A) (A) (A) (A) (A) (A) (A) (A) (A) (A) (A) (A)
                 (A) (A) (A) (A) (A) (A) (A) (A) (A) (A) (A) (A)
                 (A) (A) (A) (A) (A) (A) (A) (A) (A) (A) (A) (A)
                 (A) (A) (A) (A) (A) (A) (A) (A) (A) (A) (A) (A)
                 (A) (A) (A) (A) (A) (A) (A) (A) (A) (A) (A) (A)
                 (A) (A) (A) (A) (A) (A) (A) (A) (A) (A) (A) (A)
                 (A) (A) (A) (A) (A) (A) (A) (A) (A) (A) (A) (A)
                 (A) (A) (A) (A) (A) (A) (A) (A) (A) (A) (A) (A)
                 (A) (A) (A) (A) (A) (A) (A) (A) (A) (A) (A) (A)
                 (A) (A) (A) (A) (A) (A) (A) (A) (A) (A) (A) (A)
                 (A) (A) (A) (A) (A) (A) (A) (A) (A) (A) (A) (A)
                 (A) (A) (A) (A) (A) (A) (A) (A) (A) (A) (A) (A)
                 (A) (A) (A) (A) (A) (A) (A) (A) (A) (A) (A) (A)
                 (A) (A) (A) (A) (A) (A) (A) (A) (A) (A) (A) (A)
                 (A) (A) (A) (A) (A) (A) (A) (A) (A) (A) (A) (A)
                 (A) (A) (A) (A) (A) (A) (A) (A) (A) (A) (A) (A)
                 (A) (A) (A) (A) (A) (A) (A) (A) (A) (A) (A) (A)
                 (A) (A) (A) (A) (A) (A) (A) (A) (A) (A) (A) (A)
                 (A) (A) (A) (A) (A) (A) (A) (A) (A) (A) (A) (A)
                 (A) (A) (A) (A) (A) (A) (A) (A) (A) (A) (A) (A)
                 (A) (A) (A) (A) (A) (A) (A) (A) (A) (A) (A) (A)
                 (A) (A) (A) (A) (A) (A) (A) (A) (A) (A) (A) (A)
                 (A) (A) (A) (A) (A) (A) (A) (A) (A) (A) (A)
 The electronic state of the initial guess is 1-A.
 Requested convergence on RMS density matrix=1.00D-08 within 128 cycles.
 Requested convergence on MAX density matrix=1.00D-06.
 Requested convergence on             energy=1.00D-06.
 No special actions if energy rises.
 Initial convergence to 1.0D-05 achieved.  Increase integral accuracy.
 SCF Done:  E(RHF) =  -492.916747452     A.U. after   14 cycles
             Convg  =    0.7881D-08             -V/T =  2.0017
 ExpMin= 2.97D-02 ExpMax= 1.17D+04 ExpMxC= 4.01D+02 IAcc=3 IRadAn=         5 AccDes= 0.00D+00
 HarFok:  IExCor=  205 AccDes= 0.00D+00 IRadAn=         5 IDoV=-2
 ScaDFX=  1.000000  1.000000  1.000000  1.000000
 Range of M.O.s used for correlation:    11   338
 NBasis=   338 NAE=    39 NBE=    39 NFC=    10 NFV=     0
 NROrb=    328 NOA=    29 NOB=    29 NVA=   299 NVB=   299

 **** Warning!!: The largest alpha MO coefficient is  0.77922353D+02

 Disk-based method using OVN memory for 29 occupieds at a time.
 Estimated scratch disk usage=  1386493469 words.
 Actual    scratch disk usage=  1373173970 words.
 JobTyp=1 Pass  1:  I=   1 to  29 NPSUse=  8 ParTrn=T ParDer=T DoDerP=F.
 Spin components of T(2) and E(2):
     alpha-alpha T2 =       0.6793901034D-01 E2=     -0.2056552785D+00
     alpha-beta  T2 =       0.3771702099D+00 E2=     -0.1190588391D+01
     beta-beta   T2 =       0.6793901034D-01 E2=     -0.2056552785D+00
 ANorm=    0.1230060255D+01
 E2 =    -0.1601898948D+01 EUMP2 =    -0.49451864640024D+03

 **********************************************************************

            Population analysis using the SCF density.

 **********************************************************************

 Orbital symmetries:
       Occupied  (A) (A) (A) (A) (A) (A) (A) (A) (A) (A) (A) (A)
                 (A) (A) (A) (A) (A) (A) (A) (A) (A) (A) (A) (A)
                 (A) (A) (A) (A) (A) (A) (A) (A) (A) (A) (A) (A)
                 (A) (A) (A)
       Virtual   (A) (A) (A) (A) (A) (A) (A) (A) (A) (A) (A) (A)
                 (A) (A) (A) (A) (A) (A) (A) (A) (A) (A) (A) (A)
                 (A) (A) (A) (A) (A) (A) (A) (A) (A) (A) (A) (A)
                 (A) (A) (A) (A) (A) (A) (A) (A) (A) (A) (A) (A)
                 (A) (A) (A) (A) (A) (A) (A) (A) (A) (A) (A) (A)
                 (A) (A) (A) (A) (A) (A) (A) (A) (A) (A) (A) (A)
                 (A) (A) (A) (A) (A) (A) (A) (A) (A) (A) (A) (A)
                 (A) (A) (A) (A) (A) (A) (A) (A) (A) (A) (A) (A)
                 (A) (A) (A) (A) (A) (A) (A) (A) (A) (A) (A) (A)
                 (A) (A) (A) (A) (A) (A) (A) (A) (A) (A) (A) (A)
                 (A) (A) (A) (A) (A) (A) (A) (A) (A) (A) (A) (A)
                 (A) (A) (A) (A) (A) (A) (A) (A) (A) (A) (A) (A)
                 (A) (A) (A) (A) (A) (A) (A) (A) (A) (A) (A) (A)
                 (A) (A) (A) (A) (A) (A) (A) (A) (A) (A) (A) (A)
                 (A) (A) (A) (A) (A) (A) (A) (A) (A) (A) (A) (A)
                 (A) (A) (A) (A) (A) (A) (A) (A) (A) (A) (A) (A)
                 (A) (A) (A) (A) (A) (A) (A) (A) (A) (A) (A) (A)
                 (A) (A) (A) (A) (A) (A) (A) (A) (A) (A) (A) (A)
                 (A) (A) (A) (A) (A) (A) (A) (A) (A) (A) (A) (A)
                 (A) (A) (A) (A) (A) (A) (A) (A) (A) (A) (A) (A)
                 (A) (A) (A) (A) (A) (A) (A) (A) (A) (A) (A) (A)
                 (A) (A) (A) (A) (A) (A) (A) (A) (A) (A) (A) (A)
                 (A) (A) (A) (A) (A) (A) (A) (A) (A) (A) (A) (A)
                 (A) (A) (A) (A) (A) (A) (A) (A) (A) (A) (A) (A)
                 (A) (A) (A) (A) (A) (A) (A) (A) (A) (A) (A)
 The electronic state is 1-A.
 Alpha  occ. eigenvalues --  -20.54298 -20.52906 -15.60883 -15.58838 -11.37275
 Alpha  occ. eigenvalues --  -11.35477 -11.29850 -11.26378 -11.25709 -11.21990
 Alpha  occ. eigenvalues --   -1.39661  -1.38133  -1.24973  -1.22235  -1.05451
 Alpha  occ. eigenvalues --   -0.99605  -0.95595  -0.87520  -0.80344  -0.76671
 Alpha  occ. eigenvalues --   -0.71461  -0.70245  -0.65717  -0.64108  -0.62361
 Alpha  occ. eigenvalues --   -0.61350  -0.60420  -0.59069  -0.57238  -0.55499
 Alpha  occ. eigenvalues --   -0.54326  -0.53072  -0.52116  -0.51273  -0.50632
 Alpha  occ. eigenvalues --   -0.44375  -0.42842  -0.39774  -0.38965
 Alpha virt. eigenvalues --    0.02035   0.03642   0.03781   0.04649   0.05637
 Alpha virt. eigenvalues --    0.06046   0.06332   0.06422   0.07628   0.07927
 Alpha virt. eigenvalues --    0.08564   0.09356   0.11131   0.12260   0.12510
 Alpha virt. eigenvalues --    0.13201   0.13754   0.14448   0.14716   0.15104
 Alpha virt. eigenvalues --    0.15337   0.16160   0.16302   0.16734   0.16845
 Alpha virt. eigenvalues --    0.17622   0.17945   0.18468   0.18778   0.19296
 Alpha virt. eigenvalues --    0.19974   0.20087   0.20772   0.20961   0.21919
 Alpha virt. eigenvalues --    0.23267   0.23743   0.24194   0.25081   0.26679
 Alpha virt. eigenvalues --    0.27795   0.28390   0.29174   0.29969   0.31178
 Alpha virt. eigenvalues --    0.31595   0.31845   0.32681   0.32916   0.33888
 Alpha virt. eigenvalues --    0.34299   0.34549   0.35144   0.35741   0.36778
 Alpha virt. eigenvalues --    0.36890   0.37920   0.38972   0.39416   0.40223
 Alpha virt. eigenvalues --    0.40641   0.41557   0.42198   0.42643   0.42959
 Alpha virt. eigenvalues --    0.43632   0.44336   0.45158   0.45408   0.46429
 Alpha virt. eigenvalues --    0.46825   0.47880   0.48462   0.48566   0.49853
 Alpha virt. eigenvalues --    0.49919   0.50724   0.51588   0.51739   0.52024
 Alpha virt. eigenvalues --    0.52427   0.53139   0.54833   0.55077   0.55670
 Alpha virt. eigenvalues --    0.56597   0.57242   0.58131   0.58687   0.58864
 Alpha virt. eigenvalues --    0.59579   0.60036   0.60757   0.61383   0.62018
 Alpha virt. eigenvalues --    0.62273   0.63684   0.64132   0.64566   0.65246
 Alpha virt. eigenvalues --    0.65457   0.66179   0.66685   0.67184   0.67847
 Alpha virt. eigenvalues --    0.68244   0.69389   0.70257   0.70719   0.71260
 Alpha virt. eigenvalues --    0.72232   0.72633   0.73587   0.74155   0.75222
 Alpha virt. eigenvalues --    0.75377   0.76125   0.76844   0.77392   0.78564
 Alpha virt. eigenvalues --    0.79345   0.80308   0.81913   0.83374   0.83997
 Alpha virt. eigenvalues --    0.85092   0.86497   0.86704   0.88149   0.88628
 Alpha virt. eigenvalues --    0.90118   0.90875   0.91741   0.92575   0.92883
 Alpha virt. eigenvalues --    0.94177   0.96344   0.97544   0.98379   0.98879
 Alpha virt. eigenvalues --    0.99547   1.01187   1.02502   1.03904   1.04329
 Alpha virt. eigenvalues --    1.06181   1.07758   1.09000   1.09535   1.10904
 Alpha virt. eigenvalues --    1.12554   1.13172   1.14648   1.14902   1.16035
 Alpha virt. eigenvalues --    1.17372   1.18135   1.18890   1.20023   1.20784
 Alpha virt. eigenvalues --    1.21340   1.25489   1.26152   1.27581   1.29632
 Alpha virt. eigenvalues --    1.31741   1.33270   1.34875   1.36857   1.37546
 Alpha virt. eigenvalues --    1.39774   1.40279   1.43408   1.44882   1.45570
 Alpha virt. eigenvalues --    1.48343   1.51100   1.52458   1.53153   1.54705
 Alpha virt. eigenvalues --    1.55309   1.57373   1.59389   1.62348   1.62927
 Alpha virt. eigenvalues --    1.65574   1.67719   1.69319   1.71836   1.72505
 Alpha virt. eigenvalues --    1.73051   1.76893   1.78174   1.78633   1.80201
 Alpha virt. eigenvalues --    1.82618   1.84820   1.85071   1.86323   1.87169
 Alpha virt. eigenvalues --    1.89103   1.89365   1.91380   1.92714   1.93129
 Alpha virt. eigenvalues --    1.94853   1.96738   1.98298   2.00286   2.01239
 Alpha virt. eigenvalues --    2.02475   2.04157   2.04465   2.07241   2.08723
 Alpha virt. eigenvalues --    2.10431   2.11816   2.12245   2.13140   2.17052
 Alpha virt. eigenvalues --    2.17413   2.18928   2.20023   2.23084   2.23718
 Alpha virt. eigenvalues --    2.25268   2.26709   2.27720   2.28579   2.31320
 Alpha virt. eigenvalues --    2.31626   2.32401   2.34309   2.36010   2.36775
 Alpha virt. eigenvalues --    2.38630   2.40053   2.41839   2.42461   2.43966
 Alpha virt. eigenvalues --    2.45073   2.47556   2.48306   2.49880   2.50459
 Alpha virt. eigenvalues --    2.52951   2.55665   2.57082   2.60028   2.61030
 Alpha virt. eigenvalues --    2.61345   2.62958   2.66316   2.68433   2.70065
 Alpha virt. eigenvalues --    2.72454   2.73441   2.76074   2.76571   2.79228
 Alpha virt. eigenvalues --    2.82913   2.83939   2.85556   2.87808   2.89831
 Alpha virt. eigenvalues --    2.91450   2.93634   2.93707   2.96179   2.98644
 Alpha virt. eigenvalues --    3.01594   3.02041   3.04568   3.05926   3.08247
 Alpha virt. eigenvalues --    3.09737   3.13689   3.17629   3.19992   3.23987
 Alpha virt. eigenvalues --    3.28214   3.32939   3.42518   3.46574   3.52427
 Alpha virt. eigenvalues --    3.60331   3.66631   3.72244   3.82275   3.85219
 Alpha virt. eigenvalues --    3.87004   3.87467   3.90924   3.95867   4.03565
 Alpha virt. eigenvalues --    4.04032   4.07393   4.20854   4.22935
          Condensed to atoms (all electrons):
              1          2          3          4          5          6
     1  H    0.780961   0.380894  -0.054880  -0.099595  -0.060415   0.025409
     2  C    0.380894   4.614978   0.342300   0.366148   0.081600  -0.010637
     3  H   -0.054880   0.342300   0.734818  -0.078897  -0.030203   0.007247
     4  H   -0.099595   0.366148  -0.078897   1.017517   0.007616   0.005643
     5  C   -0.060415   0.081600  -0.030203   0.007616   5.203466   0.200227
     6  O    0.025409  -0.010637   0.007247   0.005643   0.200227   8.669227
     7  N    0.038791   0.024452   0.024505  -0.161438  -0.065807  -0.054616
     8  H   -0.005463  -0.081234  -0.003167   0.015070  -0.020846  -0.002139
     9  C    0.002636  -0.052119  -0.005804   0.037774   0.051707  -0.064869
    10  H    0.000309   0.021360  -0.000340   0.004098  -0.013818   0.004894
    11  C    0.000445  -0.016049   0.003076  -0.012500  -0.052016   0.015287
    12  H   -0.000326  -0.010702   0.000767   0.000059   0.020527  -0.024974
    13  H   -0.000147   0.002877   0.000167  -0.000219  -0.020659   0.000603
    14  H    0.000267   0.001922  -0.000851   0.000178   0.012222   0.008128
    15  C   -0.002649   0.000727   0.005281  -0.013438  -0.034332   0.015845
    16  O    0.000086   0.004071   0.000120   0.000377   0.014293  -0.000145
    17  N   -0.000785  -0.004327  -0.000001  -0.000392   0.016025   0.011429
    18  H    0.000996   0.005155  -0.000812   0.000353  -0.009686  -0.002025
    19  C   -0.000055   0.001749   0.000336  -0.000785  -0.008328   0.000522
    20  H   -0.000028   0.000032   0.000048  -0.000121  -0.002856   0.000031
    21  H    0.000184   0.000419  -0.000039  -0.000132   0.002721  -0.000274
    22  H   -0.000050  -0.000217  -0.000010   0.000042  -0.001639   0.000106
              7          8          9         10         11         12
     1  H    0.038791  -0.005463   0.002636   0.000309   0.000445  -0.000326
     2  C    0.024452  -0.081234  -0.052119   0.021360  -0.016049  -0.010702
     3  H    0.024505  -0.003167  -0.005804  -0.000340   0.003076   0.000767
     4  H   -0.161438   0.015070   0.037774   0.004098  -0.012500   0.000059
     5  C   -0.065807  -0.020846   0.051707  -0.013818  -0.052016   0.020527
     6  O   -0.054616  -0.002139  -0.064869   0.004894   0.015287  -0.024974
     7  N    7.633567   0.316238  -0.562356   0.016382   0.030687  -0.045287
     8  H    0.316238   0.920815   0.041353  -0.058090   0.002222  -0.001581
     9  C   -0.562356   0.041353   7.990785  -0.211399  -0.069854  -0.027993
    10  H    0.016382  -0.058090  -0.211399   1.320416   0.010307   0.059492
    11  C    0.030687   0.002222  -0.069854   0.010307   4.521597   0.347617
    12  H   -0.045287  -0.001581  -0.027993   0.059492   0.347617   0.979237
    13  H    0.065819  -0.005937  -0.030903  -0.019884   0.280339  -0.184754
    14  H   -0.037108   0.013258   0.079792  -0.086570   0.209864  -0.170591
    15  C    0.170665  -0.056118  -0.827655   0.090243   0.039538  -0.010295
    16  O   -0.021405   0.000787  -0.076381  -0.003709  -0.035387   0.030482
    17  N   -0.040464   0.020775   0.094924  -0.051114  -0.001635  -0.001881
    18  H    0.013581  -0.009784  -0.071272   0.011184   0.011834  -0.002040
    19  C    0.015627  -0.000768  -0.022153  -0.000619   0.006563  -0.000070
    20  H    0.002448   0.000229   0.005340   0.001665  -0.008302  -0.000141
    21  H    0.008258   0.000132   0.015307   0.001724  -0.001738  -0.000441
    22  H   -0.002976  -0.000749  -0.004040  -0.002829   0.006157   0.000402
             13         14         15         16         17         18
     1  H   -0.000147   0.000267  -0.002649   0.000086  -0.000785   0.000996
     2  C    0.002877   0.001922   0.000727   0.004071  -0.004327   0.005155
     3  H    0.000167  -0.000851   0.005281   0.000120  -0.000001  -0.000812
     4  H   -0.000219   0.000178  -0.013438   0.000377  -0.000392   0.000353
     5  C   -0.020659   0.012222  -0.034332   0.014293   0.016025  -0.009686
     6  O    0.000603   0.008128   0.015845  -0.000145   0.011429  -0.002025
     7  N    0.065819  -0.037108   0.170665  -0.021405  -0.040464   0.013581
     8  H   -0.005937   0.013258  -0.056118   0.000787   0.020775  -0.009784
     9  C   -0.030903   0.079792  -0.827655  -0.076381   0.094924  -0.071272
    10  H   -0.019884  -0.086570   0.090243  -0.003709  -0.051114   0.011184
    11  C    0.280339   0.209864   0.039538  -0.035387  -0.001635   0.011834
    12  H   -0.184754  -0.170591  -0.010295   0.030482  -0.001881  -0.002040
    13  H    1.152124  -0.182116   0.042750  -0.018152  -0.009304  -0.000910
    14  H   -0.182116   1.190333  -0.042355   0.006897   0.009970   0.001543
    15  C    0.042750  -0.042355   5.356196   0.297931   0.089270  -0.004951
    16  O   -0.018152   0.006897   0.297931   8.721081  -0.146191   0.007178
    17  N   -0.009304   0.009970   0.089270  -0.146191   7.120308   0.254057
    18  H   -0.000910   0.001543  -0.004951   0.007178   0.254057   0.975127
    19  C    0.001373   0.000126  -0.089416   0.012113   0.261877  -0.128710
    20  H    0.000383  -0.000563   0.028233  -0.018644  -0.054116   0.007239
    21  H   -0.000180   0.000079  -0.040282   0.003140   0.090622  -0.013437
    22  H    0.000168   0.000306   0.002860   0.012440  -0.139021   0.015788
             19         20         21         22
     1  H   -0.000055  -0.000028   0.000184  -0.000050
     2  C    0.001749   0.000032   0.000419  -0.000217
     3  H    0.000336   0.000048  -0.000039  -0.000010
     4  H   -0.000785  -0.000121  -0.000132   0.000042
     5  C   -0.008328  -0.002856   0.002721  -0.001639
     6  O    0.000522   0.000031  -0.000274   0.000106
     7  N    0.015627   0.002448   0.008258  -0.002976
     8  H   -0.000768   0.000229   0.000132  -0.000749
     9  C   -0.022153   0.005340   0.015307  -0.004040
    10  H   -0.000619   0.001665   0.001724  -0.002829
    11  C    0.006563  -0.008302  -0.001738   0.006157
    12  H   -0.000070  -0.000141  -0.000441   0.000402
    13  H    0.001373   0.000383  -0.000180   0.000168
    14  H    0.000126  -0.000563   0.000079   0.000306
    15  C   -0.089416   0.028233  -0.040282   0.002860
    16  O    0.012113  -0.018644   0.003140   0.012440
    17  N    0.261877  -0.054116   0.090622  -0.139021
    18  H   -0.128710   0.007239  -0.013437   0.015788
    19  C    4.088275   0.440618   0.285577   0.405486
    20  H    0.440618   0.988521  -0.092288  -0.170282
    21  H    0.285577  -0.092288   0.993181  -0.174308
    22  H    0.405486  -0.170282  -0.174308   1.207347
 Mulliken atomic charges:
              1
     1  H   -0.006585
     2  C    0.326602
     3  H    0.056340
     4  H   -0.087358
     5  C    0.710199
     6  O   -0.804919
     7  N   -0.369563
     8  H   -0.085005
     9  C   -0.292820
    10  H   -0.093704
    11  C    0.711948
    12  H    0.042492
    13  H   -0.073438
    14  H   -0.014731
    15  C    0.981951
    16  O   -0.790981
    17  N   -0.520025
    18  H   -0.060407
    19  C    0.730660
    20  H   -0.127446
    21  H   -0.078226
    22  H   -0.154982
 Sum of Mulliken atomic charges =   0.00000
 Mulliken charges with hydrogens summed into heavy atoms:
              1
     2  C    0.288999
     5  C    0.710199
     6  O   -0.804919
     7  N   -0.454568
     9  C   -0.386524
    11  C    0.666270
    15  C    0.981951
    16  O   -0.790981
    17  N   -0.580432
    19  C    0.370006
 Sum of Mulliken charges with hydrogens summed into heavy atoms =   0.00000
 Electronic spatial extent (au):  <R**2>=           1761.3861
 Charge=              0.0000 electrons
 Dipole moment (field-independent basis, Debye):
    X=             -2.3546    Y=             -3.4579    Z=             -5.2835  Tot=              6.7392
 Quadrupole moment (field-independent basis, Debye-Ang):
   XX=            -59.5599   YY=            -58.7011   ZZ=            -63.8364
   XY=             -3.5011   XZ=              3.8344   YZ=             -2.1179
 Traceless Quadrupole moment (field-independent basis, Debye-Ang):
   XX=              1.1393   YY=              1.9980   ZZ=             -3.1373
   XY=             -3.5011   XZ=              3.8344   YZ=             -2.1179
 Octapole moment (field-independent basis, Debye-Ang**2):
  XXX=            -19.1017  YYY=             -7.8405  ZZZ=            -10.9424  XYY=             -3.7281
  XXY=            -24.9680  XXZ=            -12.4947  XZZ=              2.1095  YZZ=             -3.2950
  YYZ=             -2.5423  XYZ=             -4.1805
 Hexadecapole moment (field-independent basis, Debye-Ang**3):
 XXXX=          -1410.5436 YYYY=           -588.4807 ZZZZ=           -233.4685 XXXY=            -16.0723
 XXXZ=             10.7729 YYYX=             -4.1834 YYYZ=              5.2953 ZZZX=             17.2466
 ZZZY=              3.7216 XXYY=           -338.2789 XXZZ=           -305.0871 YYZZ=           -133.7736
 XXYZ=            -13.4336 YYXZ=             -9.6322 ZZXY=              2.5595
 N-N= 5.572481263498D+02 E-N=-2.269814950000D+03  KE= 4.920578439052D+02
 1\1\GINC-NODE002\SP\RMP2-FC\Aug-CC-pVDZ\C6H12N2O2\STEBOSS\14-Feb-2017\
 0\\#SP MP2/aug-cc-pVDZ\\Single Point calculation at MP2\\0,1\H,0,-3.50
 48,-1.7135,0.7593\C,0,-3.1243,-1.2029,-0.1273\H,0,-3.9058,-0.5222,-0.4
 866\H,0,-2.9229,-1.9384,-0.9134\C,0,-1.8908,-0.3986,0.2654\O,0,-1.7309
 ,0.0466,1.3898\N,0,-0.9593,-0.2423,-0.7468\H,0,-1.3041,-0.4872,-1.667\
 C,0,0.0689,0.8224,-0.7473\H,0,0.3454,0.9321,-1.804\C,0,-0.3992,2.1819,
 -0.2284\H,0,-0.6609,2.1291,0.8277\H,0,0.4088,2.9069,-0.3504\H,0,-1.270
 8,2.5208,-0.7993\C,0,1.3696,0.354,-0.0479\O,0,2.0343,1.1055,0.6506\N,0
 ,1.7799,-0.9002,-0.4102\H,0,1.0598,-1.5121,-0.7716\C,0,2.9462,-1.5146,
 0.2032\H,0,3.6547,-0.7221,0.4481\H,0,2.6976,-2.0527,1.1279\H,0,3.4098,
 -2.2126,-0.5007\\Version=EM64L-G09RevA.02\State=1-A\HF=-492.9167475\MP
 2=-494.5186464\RMSD=7.881e-09\PG=C01 [X(C6H12N2O2)]\\@


 OUR LITTLE SYSTEMS HAVE THEIR DAY,    
   THEY HAVE THEIR DAY AND CEASE TO BE.
   THEY ARE BUT BROKEN LIGHTS OF THEE, 
 AND THOU, OH LORD, ART MORE THAN THEY.
          -------------------          
 LET KNOWLEDGE GROW FROM MORE TO MORE, 
   BUT MORE OF REVERENCE IN US DWELL.  
   THAT MIND AND SOUL, ACCORDING WELL, 
 MAY MAKE ONE MUSIC AS BEFORE.....     
          -------------------          
                    LORD TENNYSON      
 Job cpu time:  0 days  6 hours 53 minutes 55.6 seconds.
 File lengths (MBytes):  RWF=  10593 Int=      0 D2E=      0 Chk=      7 Scr=      2
 Normal termination of Gaussian 09 at Tue Feb 14 05:34:14 2017.
