 Entering Gaussian System, Link 0=g09
 Initial command:
 /home/steboss/Software/g09/l1.exe /home/steboss/projects/phi_psi_scan/alanine/MP2/90/5708/Gau-21414.inp -scrdir=/home/steboss/projects/phi_psi_scan/alanine/MP2/90/5708/
 Entering Link 1 = /home/steboss/Software/g09/l1.exe PID=     21416.
  
 Copyright (c) 1988,1990,1992,1993,1995,1998,2003,2009, Gaussian, Inc.
                  All Rights Reserved.
  
 This is part of the Gaussian(R) 09 program.  It is based on
 the Gaussian(R) 03 system (copyright 2003, Gaussian, Inc.),
 the Gaussian(R) 98 system (copyright 1998, Gaussian, Inc.),
 the Gaussian(R) 94 system (copyright 1995, Gaussian, Inc.),
 the Gaussian 92(TM) system (copyright 1992, Gaussian, Inc.),
 the Gaussian 90(TM) system (copyright 1990, Gaussian, Inc.),
 the Gaussian 88(TM) system (copyright 1988, Gaussian, Inc.),
 the Gaussian 86(TM) system (copyright 1986, Carnegie Mellon
 University), and the Gaussian 82(TM) system (copyright 1983,
 Carnegie Mellon University). Gaussian is a federally registered
 trademark of Gaussian, Inc.
  
 This software contains proprietary and confidential information,
 including trade secrets, belonging to Gaussian, Inc.
  
 This software is provided under written license and may be
 used, copied, transmitted, or stored only in accord with that
 written license.
  
 The following legend is applicable only to US Government
 contracts under FAR:
  
                    RESTRICTED RIGHTS LEGEND
  
 Use, reproduction and disclosure by the US Government is
 subject to restrictions as set forth in subparagraphs (a)
 and (c) of the Commercial Computer Software - Restricted
 Rights clause in FAR 52.227-19.
  
 Gaussian, Inc.
 340 Quinnipiac St., Bldg. 40, Wallingford CT 06492
  
  
 ---------------------------------------------------------------
 Warning -- This program may not be used in any manner that
 competes with the business of Gaussian, Inc. or will provide
 assistance to any competitor of Gaussian, Inc.  The licensee
 of this program is prohibited from giving any competitor of
 Gaussian, Inc. access to this program.  By using this program,
 the user acknowledges that Gaussian, Inc. is engaged in the
 business of creating and licensing software in the field of
 computational chemistry and represents and warrants to the
 licensee that it is not a competitor of Gaussian, Inc. and that
 it will not use this program in any manner prohibited above.
 ---------------------------------------------------------------
  

 Cite this work as:
 Gaussian 09, Revision A.02,
 M. J. Frisch, G. W. Trucks, H. B. Schlegel, G. E. Scuseria, 
 M. A. Robb, J. R. Cheeseman, G. Scalmani, V. Barone, B. Mennucci, 
 G. A. Petersson, H. Nakatsuji, M. Caricato, X. Li, H. P. Hratchian, 
 A. F. Izmaylov, J. Bloino, G. Zheng, J. L. Sonnenberg, M. Hada, 
 M. Ehara, K. Toyota, R. Fukuda, J. Hasegawa, M. Ishida, T. Nakajima, 
 Y. Honda, O. Kitao, H. Nakai, T. Vreven, J. A. Montgomery, Jr., 
 J. E. Peralta, F. Ogliaro, M. Bearpark, J. J. Heyd, E. Brothers, 
 K. N. Kudin, V. N. Staroverov, R. Kobayashi, J. Normand, 
 K. Raghavachari, A. Rendell, J. C. Burant, S. S. Iyengar, J. Tomasi, 
 M. Cossi, N. Rega, J. M. Millam, M. Klene, J. E. Knox, J. B. Cross, 
 V. Bakken, C. Adamo, J. Jaramillo, R. Gomperts, R. E. Stratmann, 
 O. Yazyev, A. J. Austin, R. Cammi, C. Pomelli, J. W. Ochterski, 
 R. L. Martin, K. Morokuma, V. G. Zakrzewski, G. A. Voth, 
 P. Salvador, J. J. Dannenberg, S. Dapprich, A. D. Daniels, 
 O. Farkas, J. B. Foresman, J. V. Ortiz, J. Cioslowski, 
 and D. J. Fox, Gaussian, Inc., Wallingford CT, 2009.
 
 ******************************************
 Gaussian 09:  EM64L-G09RevA.02 11-Jun-2009
                14-Feb-2017 
 ******************************************
 %chk=structure_105.chk
 %NProcShared=8
 Will use up to    8 processors via shared memory.
 -------------------
 #SP MP2/aug-cc-pVDZ
 -------------------
 1/38=1/1;
 2/12=2,17=6,18=5,40=1/2;
 3/5=16,7=10,11=9,16=1,25=1,30=1/1,2,3;
 4//1;
 5/5=2,38=5/2;
 8/10=1/1;
 9/16=-3/6;
 6/7=2,8=2,9=2,10=2/1;
 99/5=1,9=1/99;
 -------------------------------
 Single Point calculation at MP2
 -------------------------------
 Symbolic Z-matrix:
 Charge =  0 Multiplicity = 1
 H                    -3.9365   -1.3735    0.0874 
 C                    -2.8874   -1.5886   -0.1244 
 H                    -2.8021   -2.03     -1.1234 
 H                    -2.5391   -2.3253    0.6093 
 C                    -2.0859   -0.3       0.0422 
 O                    -2.4172    0.5609    0.8405 
 N                    -0.9927   -0.217    -0.7953 
 H                    -0.7862   -1.0564   -1.3204 
 C                     0.1267    0.7294   -0.7149 
 H                     0.5013    0.8219   -1.7448 
 C                    -0.2509    2.127    -0.2197 
 H                    -0.5268    2.1018    0.8326 
 H                     0.6118    2.7902   -0.3545 
 H                    -1.0916    2.5245   -0.7941 
 C                     1.2428    0.1246    0.17 
 O                     1.1275    0.0264    1.383 
 N                     2.3303   -0.3395   -0.5219 
 H                     2.3932   -0.1448   -1.5108 
 C                     3.488    -0.9136    0.1427 
 H                     3.2211   -1.0553    1.1908 
 H                     3.7511   -1.8809   -0.2995 
 H                     4.3589   -0.2488    0.0844 
 
                          Input orientation:                          
 ---------------------------------------------------------------------
 Center     Atomic      Atomic             Coordinates (Angstroms)
 Number     Number       Type             X           Y           Z
 ---------------------------------------------------------------------
      1          1           0       -3.936500   -1.373500    0.087400
      2          6           0       -2.887400   -1.588600   -0.124400
      3          1           0       -2.802100   -2.030000   -1.123400
      4          1           0       -2.539100   -2.325300    0.609300
      5          6           0       -2.085900   -0.300000    0.042200
      6          8           0       -2.417200    0.560900    0.840500
      7          7           0       -0.992700   -0.217000   -0.795300
      8          1           0       -0.786200   -1.056400   -1.320400
      9          6           0        0.126700    0.729400   -0.714900
     10          1           0        0.501300    0.821900   -1.744800
     11          6           0       -0.250900    2.127000   -0.219700
     12          1           0       -0.526800    2.101800    0.832600
     13          1           0        0.611800    2.790200   -0.354500
     14          1           0       -1.091600    2.524500   -0.794100
     15          6           0        1.242800    0.124600    0.170000
     16          8           0        1.127500    0.026400    1.383000
     17          7           0        2.330300   -0.339500   -0.521900
     18          1           0        2.393200   -0.144800   -1.510800
     19          6           0        3.488000   -0.913600    0.142700
     20          1           0        3.221100   -1.055300    1.190800
     21          1           0        3.751100   -1.880900   -0.299500
     22          1           0        4.358900   -0.248800    0.084400
 ---------------------------------------------------------------------
                    Distance matrix (angstroms):
                    1          2          3          4          5
     1  H    0.000000
     2  C    1.091668   0.000000
     3  H    1.784346   1.095496   0.000000
     4  H    1.769472   1.096520   1.777251   0.000000
     5  C    2.139899   1.526646   2.205553   2.151472   0.000000
     6  O    2.572418   2.402597   3.273807   2.898010   1.219915
     7  N    3.283688   2.433368   2.582353   2.968027   1.379631
     8  H    3.465089   2.475620   2.247345   2.899398   2.029295
     9  C    4.644940   3.847936   4.044630   4.265113   2.555086
    10  H    5.279281   4.463126   4.408166   4.968972   3.338508
    11  C    5.092294   4.556961   4.960438   5.074059   3.053874
    12  H    4.925351   4.484120   5.106339   4.868103   2.970550
    13  H    6.182128   5.609923   5.956530   6.084852   4.121200
    14  H    4.905599   4.537729   4.876240   5.252176   3.108992
    15  C    5.392242   4.481102   4.761974   4.527445   3.358104
    16  O    5.411321   4.582565   5.094367   4.424145   3.497173
    17  N    6.380688   5.379837   5.437014   5.379040   4.452257
    18  H    6.642970   5.647247   5.540325   5.794565   4.743230
    19  C    7.438936   6.416595   6.512658   6.207781   5.608473
    20  H    7.249137   6.271199   6.525680   5.927136   5.482154
    21  H    7.714035   6.647239   6.606472   6.371030   6.056944
    22  H    8.371297   7.372077   7.477391   7.222865   6.445142
                    6          7          8          9         10
     6  O    0.000000
     7  N    2.304381   0.000000
     8  H    3.153618   1.011417   0.000000
     9  C    2.986484   1.468058   2.095017   0.000000
    10  H    3.907626   2.052535   2.316416   1.099807   0.000000
    11  C    2.875682   2.525058   3.410590   1.530062   2.143600
    12  H    2.438862   2.871229   3.831047   2.169170   3.055834
    13  H    3.946219   3.436856   4.205199   2.147582   2.412333
    14  H    2.878343   2.743284   3.632231   2.170924   2.517937
    15  C    3.746402   2.458852   2.780808   1.547421   2.168527
    16  O    3.625589   3.049505   3.484692   2.428373   3.287564
    17  N    5.020519   3.336478   3.296076   2.456756   2.487886
    18  H    5.400609   3.461426   3.312982   2.556307   2.137417
    19  C    6.126374   4.630526   4.519938   3.838393   3.936368
    20  H    5.875818   4.733228   4.729120   4.048723   4.420287
    21  H    6.731264   5.051536   4.723254   4.485811   4.467127
    22  H    6.866064   5.423514   5.394232   4.416704   4.401528
                   11         12         13         14         15
    11  C    0.000000
    12  H    1.088160   0.000000
    13  H    1.096475   1.783118   0.000000
    14  H    1.093032   1.773084   1.779162   0.000000
    15  C    2.528361   2.734930   2.789029   3.484025   0.000000
    16  O    2.980127   2.710523   3.305063   3.988066   1.222418
    17  N    3.582951   3.994701   3.574393   4.470569   1.369953
    18  H    3.717429   4.366364   3.622795   4.447769   2.054528
    19  C    4.832800   5.068256   4.715704   5.802660   2.473768
    20  H    4.916434   4.913486   4.897374   5.945938   2.519497
    21  H    5.664418   5.953485   5.628268   6.565358   3.245617
    22  H    5.194917   5.473133   4.844472   6.178261   3.139560
                   16         17         18         19         20
    16  O    0.000000
    17  N    2.282379   0.000000
    18  H    3.163129   1.009845   0.000000
    19  C    2.827349   1.453118   2.126900   0.000000
    20  H    2.364355   2.058940   2.968682   1.090792   0.000000
    21  H    3.654022   2.108091   2.514992   1.095642   1.784239
    22  H    3.493429   2.119208   2.533664   1.097189   1.780211
                   21         22
    21  H    0.000000
    22  H    1.783410   0.000000
 Stoichiometry    C6H12N2O2
 Framework group  C1[X(C6H12N2O2)]
 Deg. of freedom    60
 Full point group                 C1      NOp   1
 Largest Abelian subgroup         C1      NOp   1
 Largest concise Abelian subgroup C1      NOp   1
                         Standard orientation:                         
 ---------------------------------------------------------------------
 Center     Atomic      Atomic             Coordinates (Angstroms)
 Number     Number       Type             X           Y           Z
 ---------------------------------------------------------------------
      1          1           0       -3.936505   -1.373493    0.087400
      2          6           0       -2.887405   -1.588592   -0.124400
      3          1           0       -2.802104   -2.029991   -1.123400
      4          1           0       -2.539104   -2.325291    0.609300
      5          6           0       -2.085906   -0.299991    0.042200
      6          8           0       -2.417207    0.560909    0.840500
      7          7           0       -0.992706   -0.216990   -0.795300
      8          1           0       -0.786205   -1.056389   -1.320400
      9          6           0        0.126693    0.729412   -0.714900
     10          1           0        0.501293    0.821912   -1.744800
     11          6           0       -0.250909    2.127011   -0.219700
     12          1           0       -0.526809    2.101811    0.832600
     13          1           0        0.611791    2.790212   -0.354500
     14          1           0       -1.091609    2.524510   -0.794100
     15          6           0        1.242793    0.124613    0.170000
     16          8           0        1.127494    0.026413    1.383000
     17          7           0        2.330294   -0.339486   -0.521900
     18          1           0        2.393194   -0.144786   -1.510800
     19          6           0        3.487995   -0.913585    0.142700
     20          1           0        3.221095   -1.055285    1.190800
     21          1           0        3.751096   -1.880884   -0.299500
     22          1           0        4.358894   -0.248784    0.084400
 ---------------------------------------------------------------------
 Rotational constants (GHZ):      2.2970860      0.7461081      0.6738701
 Standard basis: Aug-CC-pVDZ (5D, 7F)
 There are   338 symmetry adapted basis functions of A   symmetry.
 Integral buffers will be    131072 words long.
 Raffenetti 1 integral format.
 Two-electron integral symmetry is turned on.
   338 basis functions,   562 primitive gaussians,   358 cartesian basis functions
    39 alpha electrons       39 beta electrons
       nuclear repulsion energy       554.1119691583 Hartrees.
 NAtoms=   22 NActive=   22 NUniq=   22 SFac= 7.50D-01 NAtFMM=   80 NAOKFM=F Big=F
 One-electron integrals computed using PRISM.
 NBasis=   338 RedAO= T  NBF=   338
 NBsUse=   338 1.00D-06 NBFU=   338
 Harris functional with IExCor=  205 diagonalized for initial guess.
 ExpMin= 2.97D-02 ExpMax= 1.17D+04 ExpMxC= 4.01D+02 IAcc=3 IRadAn=         0 AccDes= 0.00D+00
 HarFok:  IExCor=  205 AccDes= 0.00D+00 IRadAn=         0 IDoV= 1
 ScaDFX=  1.000000  1.000000  1.000000  1.000000
 FoFCou: FMM=F IPFlag=           0 FMFlag=      100000 FMFlg1=           0
         NFxFlg=           0 DoJE=T BraDBF=F KetDBF=T FulRan=T
         Omega=  0.000000  0.000000  1.000000  0.000000  0.000000 ICntrl=     500 IOpCl=  0
         NMat0=    1 NMatS0=    1 NMatT0=    0 NMatD0=    1 NMtDS0=    0 NMtDT0=    0
         I1Cent=           4 NGrid=           0.
 Petite list used in FoFCou.
 Initial guess orbital symmetries:
       Occupied  (A) (A) (A) (A) (A) (A) (A) (A) (A) (A) (A) (A)
                 (A) (A) (A) (A) (A) (A) (A) (A) (A) (A) (A) (A)
                 (A) (A) (A) (A) (A) (A) (A) (A) (A) (A) (A) (A)
                 (A) (A) (A)
       Virtual   (A) (A) (A) (A) (A) (A) (A) (A) (A) (A) (A) (A)
                 (A) (A) (A) (A) (A) (A) (A) (A) (A) (A) (A) (A)
                 (A) (A) (A) (A) (A) (A) (A) (A) (A) (A) (A) (A)
                 (A) (A) (A) (A) (A) (A) (A) (A) (A) (A) (A) (A)
                 (A) (A) (A) (A) (A) (A) (A) (A) (A) (A) (A) (A)
                 (A) (A) (A) (A) (A) (A) (A) (A) (A) (A) (A) (A)
                 (A) (A) (A) (A) (A) (A) (A) (A) (A) (A) (A) (A)
                 (A) (A) (A) (A) (A) (A) (A) (A) (A) (A) (A) (A)
                 (A) (A) (A) (A) (A) (A) (A) (A) (A) (A) (A) (A)
                 (A) (A) (A) (A) (A) (A) (A) (A) (A) (A) (A) (A)
                 (A) (A) (A) (A) (A) (A) (A) (A) (A) (A) (A) (A)
                 (A) (A) (A) (A) (A) (A) (A) (A) (A) (A) (A) (A)
                 (A) (A) (A) (A) (A) (A) (A) (A) (A) (A) (A) (A)
                 (A) (A) (A) (A) (A) (A) (A) (A) (A) (A) (A) (A)
                 (A) (A) (A) (A) (A) (A) (A) (A) (A) (A) (A) (A)
                 (A) (A) (A) (A) (A) (A) (A) (A) (A) (A) (A) (A)
                 (A) (A) (A) (A) (A) (A) (A) (A) (A) (A) (A) (A)
                 (A) (A) (A) (A) (A) (A) (A) (A) (A) (A) (A) (A)
                 (A) (A) (A) (A) (A) (A) (A) (A) (A) (A) (A) (A)
                 (A) (A) (A) (A) (A) (A) (A) (A) (A) (A) (A) (A)
                 (A) (A) (A) (A) (A) (A) (A) (A) (A) (A) (A) (A)
                 (A) (A) (A) (A) (A) (A) (A) (A) (A) (A) (A) (A)
                 (A) (A) (A) (A) (A) (A) (A) (A) (A) (A) (A) (A)
                 (A) (A) (A) (A) (A) (A) (A) (A) (A) (A) (A) (A)
                 (A) (A) (A) (A) (A) (A) (A) (A) (A) (A) (A)
 The electronic state of the initial guess is 1-A.
 Requested convergence on RMS density matrix=1.00D-08 within 128 cycles.
 Requested convergence on MAX density matrix=1.00D-06.
 Requested convergence on             energy=1.00D-06.
 No special actions if energy rises.
 Initial convergence to 1.0D-05 achieved.  Increase integral accuracy.
 SCF Done:  E(RHF) =  -492.912360487     A.U. after   14 cycles
             Convg  =    0.7987D-08             -V/T =  2.0017
 ExpMin= 2.97D-02 ExpMax= 1.17D+04 ExpMxC= 4.01D+02 IAcc=3 IRadAn=         5 AccDes= 0.00D+00
 HarFok:  IExCor=  205 AccDes= 0.00D+00 IRadAn=         5 IDoV=-2
 ScaDFX=  1.000000  1.000000  1.000000  1.000000
 Range of M.O.s used for correlation:    11   338
 NBasis=   338 NAE=    39 NBE=    39 NFC=    10 NFV=     0
 NROrb=    328 NOA=    29 NOB=    29 NVA=   299 NVB=   299

 **** Warning!!: The largest alpha MO coefficient is  0.73219028D+02

 Disk-based method using OVN memory for 29 occupieds at a time.
 Estimated scratch disk usage=  1379904562 words.
 Actual    scratch disk usage=  1366588484 words.
 JobTyp=1 Pass  1:  I=   1 to  29 NPSUse=  8 ParTrn=T ParDer=T DoDerP=F.
 Spin components of T(2) and E(2):
     alpha-alpha T2 =       0.6792536728D-01 E2=     -0.2055754343D+00
     alpha-beta  T2 =       0.3771614473D+00 E2=     -0.1190570361D+01
     beta-beta   T2 =       0.6792536728D-01 E2=     -0.2055754343D+00
 ANorm=    0.1230045602D+01
 E2 =    -0.1601721230D+01 EUMP2 =    -0.49451408171697D+03

 **********************************************************************

            Population analysis using the SCF density.

 **********************************************************************

 Orbital symmetries:
       Occupied  (A) (A) (A) (A) (A) (A) (A) (A) (A) (A) (A) (A)
                 (A) (A) (A) (A) (A) (A) (A) (A) (A) (A) (A) (A)
                 (A) (A) (A) (A) (A) (A) (A) (A) (A) (A) (A) (A)
                 (A) (A) (A)
       Virtual   (A) (A) (A) (A) (A) (A) (A) (A) (A) (A) (A) (A)
                 (A) (A) (A) (A) (A) (A) (A) (A) (A) (A) (A) (A)
                 (A) (A) (A) (A) (A) (A) (A) (A) (A) (A) (A) (A)
                 (A) (A) (A) (A) (A) (A) (A) (A) (A) (A) (A) (A)
                 (A) (A) (A) (A) (A) (A) (A) (A) (A) (A) (A) (A)
                 (A) (A) (A) (A) (A) (A) (A) (A) (A) (A) (A) (A)
                 (A) (A) (A) (A) (A) (A) (A) (A) (A) (A) (A) (A)
                 (A) (A) (A) (A) (A) (A) (A) (A) (A) (A) (A) (A)
                 (A) (A) (A) (A) (A) (A) (A) (A) (A) (A) (A) (A)
                 (A) (A) (A) (A) (A) (A) (A) (A) (A) (A) (A) (A)
                 (A) (A) (A) (A) (A) (A) (A) (A) (A) (A) (A) (A)
                 (A) (A) (A) (A) (A) (A) (A) (A) (A) (A) (A) (A)
                 (A) (A) (A) (A) (A) (A) (A) (A) (A) (A) (A) (A)
                 (A) (A) (A) (A) (A) (A) (A) (A) (A) (A) (A) (A)
                 (A) (A) (A) (A) (A) (A) (A) (A) (A) (A) (A) (A)
                 (A) (A) (A) (A) (A) (A) (A) (A) (A) (A) (A) (A)
                 (A) (A) (A) (A) (A) (A) (A) (A) (A) (A) (A) (A)
                 (A) (A) (A) (A) (A) (A) (A) (A) (A) (A) (A) (A)
                 (A) (A) (A) (A) (A) (A) (A) (A) (A) (A) (A) (A)
                 (A) (A) (A) (A) (A) (A) (A) (A) (A) (A) (A) (A)
                 (A) (A) (A) (A) (A) (A) (A) (A) (A) (A) (A) (A)
                 (A) (A) (A) (A) (A) (A) (A) (A) (A) (A) (A) (A)
                 (A) (A) (A) (A) (A) (A) (A) (A) (A) (A) (A) (A)
                 (A) (A) (A) (A) (A) (A) (A) (A) (A) (A) (A) (A)
                 (A) (A) (A) (A) (A) (A) (A) (A) (A) (A) (A)
 The electronic state is 1-A.
 Alpha  occ. eigenvalues --  -20.53153 -20.52519 -15.60441 -15.59904 -11.36092
 Alpha  occ. eigenvalues --  -11.36066 -11.29952 -11.27309 -11.24377 -11.22313
 Alpha  occ. eigenvalues --   -1.38804  -1.37808  -1.24264  -1.23263  -1.05403
 Alpha  occ. eigenvalues --   -0.98712  -0.96201  -0.87789  -0.80154  -0.77182
 Alpha  occ. eigenvalues --   -0.71910  -0.69716  -0.65724  -0.63942  -0.62370
 Alpha  occ. eigenvalues --   -0.61747  -0.59705  -0.58686  -0.56190  -0.55249
 Alpha  occ. eigenvalues --   -0.54995  -0.53073  -0.51615  -0.51191  -0.50880
 Alpha  occ. eigenvalues --   -0.44460  -0.41355  -0.39783  -0.38452
 Alpha virt. eigenvalues --    0.02040   0.03634   0.03867   0.04558   0.05611
 Alpha virt. eigenvalues --    0.05974   0.06139   0.06585   0.07667   0.07808
 Alpha virt. eigenvalues --    0.08610   0.09483   0.10909   0.12125   0.12645
 Alpha virt. eigenvalues --    0.13093   0.13852   0.14320   0.14511   0.14942
 Alpha virt. eigenvalues --    0.15103   0.16158   0.16446   0.16775   0.16980
 Alpha virt. eigenvalues --    0.17494   0.18359   0.18652   0.18912   0.19229
 Alpha virt. eigenvalues --    0.19798   0.20535   0.21043   0.21509   0.22526
 Alpha virt. eigenvalues --    0.23463   0.24012   0.24430   0.25495   0.26721
 Alpha virt. eigenvalues --    0.27247   0.27976   0.29365   0.30173   0.30842
 Alpha virt. eigenvalues --    0.31130   0.31921   0.32197   0.33482   0.34204
 Alpha virt. eigenvalues --    0.34572   0.35066   0.35335   0.35826   0.36349
 Alpha virt. eigenvalues --    0.37284   0.38175   0.39075   0.39910   0.40454
 Alpha virt. eigenvalues --    0.40555   0.41075   0.41593   0.42200   0.42466
 Alpha virt. eigenvalues --    0.42939   0.44251   0.44456   0.44767   0.45397
 Alpha virt. eigenvalues --    0.46223   0.46997   0.47683   0.48536   0.49544
 Alpha virt. eigenvalues --    0.50041   0.50655   0.51605   0.51840   0.52861
 Alpha virt. eigenvalues --    0.53057   0.54084   0.55019   0.55683   0.56309
 Alpha virt. eigenvalues --    0.56512   0.57370   0.58088   0.58424   0.59131
 Alpha virt. eigenvalues --    0.59378   0.60494   0.61135   0.61596   0.62027
 Alpha virt. eigenvalues --    0.62762   0.63126   0.63616   0.64446   0.65151
 Alpha virt. eigenvalues --    0.65634   0.66193   0.66999   0.68435   0.68713
 Alpha virt. eigenvalues --    0.68952   0.69319   0.70272   0.70790   0.71494
 Alpha virt. eigenvalues --    0.72032   0.72683   0.73607   0.74014   0.74435
 Alpha virt. eigenvalues --    0.75211   0.76267   0.76887   0.78192   0.78719
 Alpha virt. eigenvalues --    0.80272   0.81263   0.81547   0.81890   0.82713
 Alpha virt. eigenvalues --    0.84094   0.84330   0.84780   0.86196   0.87502
 Alpha virt. eigenvalues --    0.88846   0.88933   0.90957   0.92033   0.92893
 Alpha virt. eigenvalues --    0.93837   0.96271   0.97530   0.97702   0.99214
 Alpha virt. eigenvalues --    1.00670   1.01149   1.02120   1.02210   1.04808
 Alpha virt. eigenvalues --    1.05521   1.06484   1.08304   1.09386   1.10113
 Alpha virt. eigenvalues --    1.11685   1.12148   1.13340   1.14032   1.16130
 Alpha virt. eigenvalues --    1.16626   1.18066   1.19041   1.19830   1.21246
 Alpha virt. eigenvalues --    1.23577   1.26176   1.26743   1.28009   1.29395
 Alpha virt. eigenvalues --    1.31547   1.31975   1.33356   1.35687   1.37420
 Alpha virt. eigenvalues --    1.39235   1.41882   1.42854   1.45604   1.46523
 Alpha virt. eigenvalues --    1.50020   1.50863   1.51355   1.53891   1.55804
 Alpha virt. eigenvalues --    1.56532   1.57795   1.60419   1.62462   1.63465
 Alpha virt. eigenvalues --    1.68008   1.68736   1.69901   1.71124   1.72912
 Alpha virt. eigenvalues --    1.73870   1.75727   1.77593   1.77955   1.80082
 Alpha virt. eigenvalues --    1.81126   1.84941   1.85482   1.86943   1.88513
 Alpha virt. eigenvalues --    1.89924   1.91057   1.91188   1.92241   1.94433
 Alpha virt. eigenvalues --    1.94943   1.96084   1.97240   1.98991   2.01864
 Alpha virt. eigenvalues --    2.03011   2.04632   2.05672   2.07513   2.08090
 Alpha virt. eigenvalues --    2.11681   2.12770   2.13468   2.13594   2.17751
 Alpha virt. eigenvalues --    2.19099   2.19595   2.19869   2.20362   2.21400
 Alpha virt. eigenvalues --    2.25361   2.25645   2.27486   2.28574   2.30768
 Alpha virt. eigenvalues --    2.32356   2.33415   2.34524   2.35646   2.37010
 Alpha virt. eigenvalues --    2.38690   2.39852   2.41935   2.42860   2.44309
 Alpha virt. eigenvalues --    2.47035   2.48072   2.49009   2.50269   2.52453
 Alpha virt. eigenvalues --    2.54420   2.54991   2.56130   2.58810   2.62033
 Alpha virt. eigenvalues --    2.62742   2.64523   2.65155   2.67035   2.68871
 Alpha virt. eigenvalues --    2.70980   2.73383   2.75938   2.76826   2.79081
 Alpha virt. eigenvalues --    2.80602   2.82511   2.86418   2.86914   2.88313
 Alpha virt. eigenvalues --    2.91287   2.92464   2.93969   2.95217   2.98842
 Alpha virt. eigenvalues --    3.01482   3.01856   3.02487   3.06183   3.08532
 Alpha virt. eigenvalues --    3.10315   3.12581   3.18415   3.20675   3.24997
 Alpha virt. eigenvalues --    3.30196   3.33314   3.41835   3.45396   3.47279
 Alpha virt. eigenvalues --    3.57947   3.64368   3.73255   3.83348   3.84520
 Alpha virt. eigenvalues --    3.85365   3.88872   3.95280   3.99122   4.03962
 Alpha virt. eigenvalues --    4.07799   4.14299   4.22141   4.35360
          Condensed to atoms (all electrons):
              1          2          3          4          5          6
     1  H    0.796960   0.379817  -0.103432  -0.053463  -0.059735   0.026312
     2  C    0.379817   4.527108   0.342582   0.335806   0.183480  -0.035507
     3  H   -0.103432   0.342582   1.012207  -0.070481   0.063504  -0.004256
     4  H   -0.053463   0.335806  -0.070481   0.731938  -0.051068   0.013320
     5  C   -0.059735   0.183480   0.063504  -0.051068   5.324403   0.214944
     6  O    0.026312  -0.035507  -0.004256   0.013320   0.214944   8.664005
     7  N    0.036686  -0.040102  -0.145153   0.036379   0.217681  -0.111957
     8  H   -0.004076  -0.050705   0.014225  -0.004436  -0.134741   0.000628
     9  C    0.005017   0.010418  -0.017825  -0.012581  -0.456416   0.079654
    10  H   -0.000527   0.012265   0.006028  -0.000542  -0.000146   0.004291
    11  C    0.001510   0.003401  -0.006427   0.003768  -0.022280  -0.037443
    12  H   -0.000899   0.008577   0.001948   0.000803   0.032893  -0.056893
    13  H   -0.000067  -0.001910  -0.001015   0.000359  -0.028824   0.007091
    14  H    0.000460  -0.003930  -0.001406  -0.000192   0.008761   0.014460
    15  C   -0.004538   0.001738  -0.010490   0.009387  -0.004725   0.008857
    16  O   -0.000793  -0.010822   0.000506  -0.000879   0.002635   0.001117
    17  N    0.000410  -0.003964   0.000789  -0.000249   0.014958  -0.002148
    18  H    0.000022   0.000593  -0.000501   0.000261  -0.006509   0.000532
    19  C   -0.000238  -0.002032  -0.000043   0.000035  -0.008048  -0.000498
    20  H   -0.000035  -0.000003   0.000143   0.000000  -0.001812  -0.000238
    21  H   -0.000008   0.000240  -0.000040  -0.000033  -0.000955   0.000051
    22  H    0.000004   0.000090   0.000014   0.000004   0.001089  -0.000008
              7          8          9         10         11         12
     1  H    0.036686  -0.004076   0.005017  -0.000527   0.001510  -0.000899
     2  C   -0.040102  -0.050705   0.010418   0.012265   0.003401   0.008577
     3  H   -0.145153   0.014225  -0.017825   0.006028  -0.006427   0.001948
     4  H    0.036379  -0.004436  -0.012581  -0.000542   0.003768   0.000803
     5  C    0.217681  -0.134741  -0.456416  -0.000146  -0.022280   0.032893
     6  O   -0.111957   0.000628   0.079654   0.004291  -0.037443  -0.056893
     7  N    7.641734   0.282158  -0.586282  -0.170284   0.043075  -0.057065
     8  H    0.282158   1.012308  -0.028905   0.037194  -0.030166  -0.006308
     9  C   -0.586282  -0.028905   9.243607  -0.406159  -0.011418  -0.018175
    10  H   -0.170284   0.037194  -0.406159   1.740327   0.026124   0.076424
    11  C    0.043075  -0.030166  -0.011418   0.026124   4.352424   0.387307
    12  H   -0.057065  -0.006308  -0.018175   0.076424   0.387307   0.949157
    13  H    0.143932  -0.000811  -0.325537  -0.083072   0.322152  -0.185722
    14  H   -0.060237   0.001064   0.198952  -0.035441   0.146979  -0.185041
    15  C    0.087467  -0.028860  -1.286802   0.211915   0.042523  -0.030780
    16  O    0.019036  -0.000714  -0.046132  -0.021147  -0.007937  -0.003346
    17  N    0.027600   0.022594   0.073619  -0.064509  -0.000867  -0.004197
    18  H   -0.007567  -0.001726  -0.056799   0.008319  -0.000423  -0.000840
    19  C    0.010007   0.003297  -0.024818   0.010771  -0.005526  -0.002861
    20  H   -0.007606  -0.000531   0.053251   0.009809  -0.010030   0.000309
    21  H    0.000959  -0.001017  -0.018140  -0.003059   0.008902   0.000428
    22  H   -0.000395   0.000208   0.013708  -0.001420  -0.003239  -0.000902
             13         14         15         16         17         18
     1  H   -0.000067   0.000460  -0.004538  -0.000793   0.000410   0.000022
     2  C   -0.001910  -0.003930   0.001738  -0.010822  -0.003964   0.000593
     3  H   -0.001015  -0.001406  -0.010490   0.000506   0.000789  -0.000501
     4  H    0.000359  -0.000192   0.009387  -0.000879  -0.000249   0.000261
     5  C   -0.028824   0.008761  -0.004725   0.002635   0.014958  -0.006509
     6  O    0.007091   0.014460   0.008857   0.001117  -0.002148   0.000532
     7  N    0.143932  -0.060237   0.087467   0.019036   0.027600  -0.007567
     8  H   -0.000811   0.001064  -0.028860  -0.000714   0.022594  -0.001726
     9  C   -0.325537   0.198952  -1.286802  -0.046132   0.073619  -0.056799
    10  H   -0.083072  -0.035441   0.211915  -0.021147  -0.064509   0.008319
    11  C    0.322152   0.146979   0.042523  -0.007937  -0.000867  -0.000423
    12  H   -0.185722  -0.185041  -0.030780  -0.003346  -0.004197  -0.000840
    13  H    1.341784  -0.189692   0.070848   0.005756  -0.003052   0.008092
    14  H   -0.189692   1.092812   0.003564   0.002895   0.005284  -0.002499
    15  C    0.070848   0.003564   5.578944   0.293464   0.081394  -0.017564
    16  O    0.005756   0.002895   0.293464   8.709162  -0.170688   0.009648
    17  N   -0.003052   0.005284   0.081394  -0.170688   7.140842   0.276956
    18  H    0.008092  -0.002499  -0.017564   0.009648   0.276956   1.014255
    19  C    0.001993   0.000897  -0.096394   0.000681   0.246771  -0.119462
    20  H   -0.001665  -0.000243  -0.060369   0.014598  -0.022332  -0.001070
    21  H    0.001033   0.000248  -0.011517   0.013504  -0.104045   0.009607
    22  H   -0.001109   0.000230  -0.010659   0.005454  -0.011831  -0.001733
             19         20         21         22
     1  H   -0.000238  -0.000035  -0.000008   0.000004
     2  C   -0.002032  -0.000003   0.000240   0.000090
     3  H   -0.000043   0.000143  -0.000040   0.000014
     4  H    0.000035   0.000000  -0.000033   0.000004
     5  C   -0.008048  -0.001812  -0.000955   0.001089
     6  O   -0.000498  -0.000238   0.000051  -0.000008
     7  N    0.010007  -0.007606   0.000959  -0.000395
     8  H    0.003297  -0.000531  -0.001017   0.000208
     9  C   -0.024818   0.053251  -0.018140   0.013708
    10  H    0.010771   0.009809  -0.003059  -0.001420
    11  C   -0.005526  -0.010030   0.008902  -0.003239
    12  H   -0.002861   0.000309   0.000428  -0.000902
    13  H    0.001993  -0.001665   0.001033  -0.001109
    14  H    0.000897  -0.000243   0.000248   0.000230
    15  C   -0.096394  -0.060369  -0.011517  -0.010659
    16  O    0.000681   0.014598   0.013504   0.005454
    17  N    0.246771  -0.022332  -0.104045  -0.011831
    18  H   -0.119462  -0.001070   0.009607  -0.001733
    19  C    4.081551   0.464983   0.377172   0.314249
    20  H    0.464983   0.939032  -0.135995  -0.097404
    21  H    0.377172  -0.135995   1.139051  -0.154107
    22  H    0.314249  -0.097404  -0.154107   1.035072
 Mulliken atomic charges:
              1
     1  H   -0.019386
     2  C    0.342858
     3  H   -0.080877
     4  H    0.061864
     5  C    0.710910
     6  O   -0.786312
     7  N   -0.360066
     8  H   -0.080680
     9  C   -0.382237
    10  H   -0.357161
    11  C    0.797592
    12  H    0.095183
    13  H   -0.080565
    14  H    0.002076
    15  C    1.172596
    16  O   -0.815999
    17  N   -0.503333
    18  H   -0.111592
    19  C    0.747512
    20  H   -0.142792
    21  H   -0.122278
    22  H   -0.087314
 Sum of Mulliken atomic charges =   0.00000
 Mulliken charges with hydrogens summed into heavy atoms:
              1
     2  C    0.304460
     5  C    0.710910
     6  O   -0.786312
     7  N   -0.440746
     9  C   -0.739399
    11  C    0.814286
    15  C    1.172596
    16  O   -0.815999
    17  N   -0.614925
    19  C    0.395128
 Sum of Mulliken charges with hydrogens summed into heavy atoms =   0.00000
 Electronic spatial extent (au):  <R**2>=           1834.5118
 Charge=              0.0000 electrons
 Dipole moment (field-independent basis, Debye):
    X=              2.8785    Y=             -2.4291    Z=             -5.7588  Tot=              6.8811
 Quadrupole moment (field-independent basis, Debye-Ang):
   XX=            -57.2715   YY=            -57.6223   ZZ=            -64.4182
   XY=              5.1402   XZ=             -0.3775   YZ=             -0.8108
 Traceless Quadrupole moment (field-independent basis, Debye-Ang):
   XX=              2.4992   YY=              2.1484   ZZ=             -4.6475
   XY=              5.1402   XZ=             -0.3775   YZ=             -0.8108
 Octapole moment (field-independent basis, Debye-Ang**2):
  XXX=             34.5461  YYY=             -2.5677  ZZZ=            -11.1136  XYY=             -1.6275
  XXY=            -22.8466  XXZ=            -16.3391  XZZ=              5.8198  YZZ=             -4.0937
  YYZ=             -0.0894  XYZ=              1.7185
 Hexadecapole moment (field-independent basis, Debye-Ang**3):
 XXXX=          -1576.1843 YYYY=           -496.1730 ZZZZ=           -247.3724 XXXY=             20.8137
 XXXZ=             16.3837 YYYX=             -2.1776 YYYZ=              3.2816 ZZZX=            -17.1847
 ZZZY=              5.0109 XXYY=           -349.5337 XXZZ=           -325.9186 YYZZ=           -119.7945
 XXYZ=            -10.7830 YYXZ=              1.1127 ZZXY=              1.9149
 N-N= 5.541119691583D+02 E-N=-2.263650691259D+03  KE= 4.920570066398D+02
 1\1\GINC-NODE010\SP\RMP2-FC\Aug-CC-pVDZ\C6H12N2O2\MANAGER\14-Feb-2017\
 0\\#SP MP2/aug-cc-pVDZ\\Single Point calculation at MP2\\0,1\H,0,-3.93
 65,-1.3735,0.0874\C,0,-2.8874,-1.5886,-0.1244\H,0,-2.8021,-2.03,-1.123
 4\H,0,-2.5391,-2.3253,0.6093\C,0,-2.0859,-0.3,0.0422\O,0,-2.4172,0.560
 9,0.8405\N,0,-0.9927,-0.217,-0.7953\H,0,-0.7862,-1.0564,-1.3204\C,0,0.
 1267,0.7294,-0.7149\H,0,0.5013,0.8219,-1.7448\C,0,-0.2509,2.127,-0.219
 7\H,0,-0.5268,2.1018,0.8326\H,0,0.6118,2.7902,-0.3545\H,0,-1.0916,2.52
 45,-0.7941\C,0,1.2428,0.1246,0.17\O,0,1.1275,0.0264,1.383\N,0,2.3303,-
 0.3395,-0.5219\H,0,2.3932,-0.1448,-1.5108\C,0,3.488,-0.9136,0.1427\H,0
 ,3.2211,-1.0553,1.1908\H,0,3.7511,-1.8809,-0.2995\H,0,4.3589,-0.2488,0
 .0844\\Version=EM64L-G09RevA.02\State=1-A\HF=-492.9123605\MP2=-494.514
 0817\RMSD=7.987e-09\PG=C01 [X(C6H12N2O2)]\\@


 THE PROGRESS OF RIVERS TO THE SEA IS NOT AS RAPID
 AS THAT OF MAN TO ERROR.
                                              -- VOLTAIRE
 Job cpu time:  0 days 14 hours 34 minutes 48.4 seconds.
 File lengths (MBytes):  RWF=  10543 Int=      0 D2E=      0 Chk=      7 Scr=      2
 Normal termination of Gaussian 09 at Tue Feb 14 05:10:15 2017.
