 Entering Gaussian System, Link 0=g09
 Initial command:
 /home/steboss/Software/g09/l1.exe /home/steboss/projects/phi_psi_scan/alanine/MP2/90/5722/Gau-14626.inp -scrdir=/home/steboss/projects/phi_psi_scan/alanine/MP2/90/5722/
 Entering Link 1 = /home/steboss/Software/g09/l1.exe PID=     14628.
  
 Copyright (c) 1988,1990,1992,1993,1995,1998,2003,2009, Gaussian, Inc.
                  All Rights Reserved.
  
 This is part of the Gaussian(R) 09 program.  It is based on
 the Gaussian(R) 03 system (copyright 2003, Gaussian, Inc.),
 the Gaussian(R) 98 system (copyright 1998, Gaussian, Inc.),
 the Gaussian(R) 94 system (copyright 1995, Gaussian, Inc.),
 the Gaussian 92(TM) system (copyright 1992, Gaussian, Inc.),
 the Gaussian 90(TM) system (copyright 1990, Gaussian, Inc.),
 the Gaussian 88(TM) system (copyright 1988, Gaussian, Inc.),
 the Gaussian 86(TM) system (copyright 1986, Carnegie Mellon
 University), and the Gaussian 82(TM) system (copyright 1983,
 Carnegie Mellon University). Gaussian is a federally registered
 trademark of Gaussian, Inc.
  
 This software contains proprietary and confidential information,
 including trade secrets, belonging to Gaussian, Inc.
  
 This software is provided under written license and may be
 used, copied, transmitted, or stored only in accord with that
 written license.
  
 The following legend is applicable only to US Government
 contracts under FAR:
  
                    RESTRICTED RIGHTS LEGEND
  
 Use, reproduction and disclosure by the US Government is
 subject to restrictions as set forth in subparagraphs (a)
 and (c) of the Commercial Computer Software - Restricted
 Rights clause in FAR 52.227-19.
  
 Gaussian, Inc.
 340 Quinnipiac St., Bldg. 40, Wallingford CT 06492
  
  
 ---------------------------------------------------------------
 Warning -- This program may not be used in any manner that
 competes with the business of Gaussian, Inc. or will provide
 assistance to any competitor of Gaussian, Inc.  The licensee
 of this program is prohibited from giving any competitor of
 Gaussian, Inc. access to this program.  By using this program,
 the user acknowledges that Gaussian, Inc. is engaged in the
 business of creating and licensing software in the field of
 computational chemistry and represents and warrants to the
 licensee that it is not a competitor of Gaussian, Inc. and that
 it will not use this program in any manner prohibited above.
 ---------------------------------------------------------------
  

 Cite this work as:
 Gaussian 09, Revision A.02,
 M. J. Frisch, G. W. Trucks, H. B. Schlegel, G. E. Scuseria, 
 M. A. Robb, J. R. Cheeseman, G. Scalmani, V. Barone, B. Mennucci, 
 G. A. Petersson, H. Nakatsuji, M. Caricato, X. Li, H. P. Hratchian, 
 A. F. Izmaylov, J. Bloino, G. Zheng, J. L. Sonnenberg, M. Hada, 
 M. Ehara, K. Toyota, R. Fukuda, J. Hasegawa, M. Ishida, T. Nakajima, 
 Y. Honda, O. Kitao, H. Nakai, T. Vreven, J. A. Montgomery, Jr., 
 J. E. Peralta, F. Ogliaro, M. Bearpark, J. J. Heyd, E. Brothers, 
 K. N. Kudin, V. N. Staroverov, R. Kobayashi, J. Normand, 
 K. Raghavachari, A. Rendell, J. C. Burant, S. S. Iyengar, J. Tomasi, 
 M. Cossi, N. Rega, J. M. Millam, M. Klene, J. E. Knox, J. B. Cross, 
 V. Bakken, C. Adamo, J. Jaramillo, R. Gomperts, R. E. Stratmann, 
 O. Yazyev, A. J. Austin, R. Cammi, C. Pomelli, J. W. Ochterski, 
 R. L. Martin, K. Morokuma, V. G. Zakrzewski, G. A. Voth, 
 P. Salvador, J. J. Dannenberg, S. Dapprich, A. D. Daniels, 
 O. Farkas, J. B. Foresman, J. V. Ortiz, J. Cioslowski, 
 and D. J. Fox, Gaussian, Inc., Wallingford CT, 2009.
 
 ******************************************
 Gaussian 09:  EM64L-G09RevA.02 11-Jun-2009
                14-Feb-2017 
 ******************************************
 %chk=structure_300.chk
 %NProcShared=8
 Will use up to    8 processors via shared memory.
 -------------------
 #SP MP2/aug-cc-pVDZ
 -------------------
 1/38=1/1;
 2/12=2,17=6,18=5,40=1/2;
 3/5=16,7=10,11=9,16=1,25=1,30=1/1,2,3;
 4//1;
 5/5=2,38=5/2;
 8/10=1/1;
 9/16=-3/6;
 6/7=2,8=2,9=2,10=2/1;
 99/5=1,9=1/99;
 -------------------------------
 Single Point calculation at MP2
 -------------------------------
 Symbolic Z-matrix:
 Charge =  0 Multiplicity = 1
 H                    -3.4071   -1.7394   -0.5605 
 C                    -3.199    -0.6714   -0.6572 
 H                    -3.9735   -0.1306   -0.1011 
 H                    -3.2649   -0.3824   -1.7109 
 C                    -1.845    -0.3768   -0.0314 
 O                    -1.4849   -0.9288    1.0104 
 N                    -1.0573    0.5082   -0.7062 
 H                    -1.4382    0.9056   -1.5531 
 C                     0.1122    1.2139   -0.1439 
 H                     0.2531    2.0864   -0.7865 
 C                    -0.0736    1.7062    1.2975 
 H                    -0.2128    0.8826    1.9976 
 H                     0.8134    2.2781    1.5893 
 H                    -0.9448    2.3676    1.3613 
 C                     1.416     0.407    -0.3466 
 O                     2.363     0.8856   -0.9619 
 N                     1.4082   -0.8211    0.2365 
 H                     0.55     -1.1182    0.6958 
 C                     2.5324   -1.7337    0.1487 
 H                     3.3455   -1.211    -0.3574 
 H                     2.8665   -2.0401    1.1469 
 H                     2.2745   -2.6334   -0.4243 
 
                          Input orientation:                          
 ---------------------------------------------------------------------
 Center     Atomic      Atomic             Coordinates (Angstroms)
 Number     Number       Type             X           Y           Z
 ---------------------------------------------------------------------
      1          1           0       -3.407100   -1.739400   -0.560500
      2          6           0       -3.199000   -0.671400   -0.657200
      3          1           0       -3.973500   -0.130600   -0.101100
      4          1           0       -3.264900   -0.382400   -1.710900
      5          6           0       -1.845000   -0.376800   -0.031400
      6          8           0       -1.484900   -0.928800    1.010400
      7          7           0       -1.057300    0.508200   -0.706200
      8          1           0       -1.438200    0.905600   -1.553100
      9          6           0        0.112200    1.213900   -0.143900
     10          1           0        0.253100    2.086400   -0.786500
     11          6           0       -0.073600    1.706200    1.297500
     12          1           0       -0.212800    0.882600    1.997600
     13          1           0        0.813400    2.278100    1.589300
     14          1           0       -0.944800    2.367600    1.361300
     15          6           0        1.416000    0.407000   -0.346600
     16          8           0        2.363000    0.885600   -0.961900
     17          7           0        1.408200   -0.821100    0.236500
     18          1           0        0.550000   -1.118200    0.695800
     19          6           0        2.532400   -1.733700    0.148700
     20          1           0        3.345500   -1.211000   -0.357400
     21          1           0        2.866500   -2.040100    1.146900
     22          1           0        2.274500   -2.633400   -0.424300
 ---------------------------------------------------------------------
                    Distance matrix (angstroms):
                    1          2          3          4          5
     1  H    0.000000
     2  C    1.092374   0.000000
     3  H    1.766379   1.096158   0.000000
     4  H    1.784682   1.094599   1.776787   0.000000
     5  C    2.139341   1.520438   2.143825   2.199288   0.000000
     6  O    2.611446   2.405262   2.840015   3.297336   1.232771
     7  N    3.254918   2.445554   3.046052   2.583813   1.363470
     8  H    3.443522   2.527841   3.099961   2.240687   2.031159
     9  C    4.613134   3.844721   4.301448   4.050737   2.524602
    10  H    5.299517   4.420314   4.821723   4.396113   3.322582
    11  C    5.141648   4.386566   4.532012   4.857686   3.040185
    12  H    4.860279   4.287222   4.424249   4.966741   2.892578
    13  H    6.210843   5.463119   5.619048   5.882356   4.091730
    14  H    5.159814   4.288506   4.189587   4.731150   3.206510
    15  C    5.283472   4.749489   5.421807   4.939159   3.368652
    16  O    6.351834   5.783851   6.474942   5.817395   4.490740
    17  N    4.966447   4.695466   5.436309   5.081603   3.294311
    18  H    4.197954   4.010641   4.698133   4.570237   2.610463
    19  C    5.981694   5.884463   6.705152   6.236410   4.586420
    20  H    6.776287   6.573548   7.402750   6.798230   5.267206
    21  H    6.508740   6.474443   7.210360   6.964844   5.133536
    22  H    5.753118   5.819183   6.738395   6.116150   4.713480
                    6          7          8          9         10
     6  O    0.000000
     7  N    2.279150   0.000000
     8  H    3.152576   1.010075   0.000000
     9  C    2.911065   1.477134   2.117695   0.000000
    10  H    3.916749   2.052879   2.200559   1.092723   0.000000
    11  C    3.002902   2.533315   3.260217   1.534443   2.143441
    12  H    2.423628   2.857252   3.756275   2.191211   3.068780
    13  H    3.987670   3.449838   4.102211   2.151322   2.448491
    14  H    3.358734   2.782909   3.297668   2.171152   2.475294
    15  C    3.470019   2.501353   3.138583   1.546632   2.089553
    16  O    4.689174   3.450546   3.846952   2.417231   2.434002
    17  N    2.996756   2.955404   3.779703   2.442447   3.291556
    18  H    2.067768   2.682200   3.620256   2.517033   3.543279
    19  C    4.186776   4.317744   5.062380   3.825092   4.545654
    20  H    5.028248   4.739405   5.365956   4.047215   4.540915
    21  H    4.493139   5.032298   5.873465   4.454307   5.253180
    22  H    4.370024   4.588029   5.251938   4.422203   5.147209
                   11         12         13         14         15
    11  C    0.000000
    12  H    1.089878   0.000000
    13  H    1.094982   1.779667   0.000000
    14  H    1.095678   1.773676   1.775179   0.000000
    15  C    2.570971   2.893866   2.758958   3.512015   0.000000
    16  O    3.422761   3.923442   3.293773   4.305244   1.226565
    17  N    3.115878   2.937977   3.433496   4.119416   1.359521
    18  H    2.954345   2.505942   3.521729   3.850730   2.040291
    19  C    4.465858   4.218955   4.596175   5.511985   2.464603
    20  H    4.789467   4.752966   4.730221   5.845253   2.518136
    21  H    4.764623   4.329891   4.801853   5.830934   3.212910
    22  H    5.225925   4.941105   5.505654   6.209852   3.160236
                   16         17         18         19         20
    16  O    0.000000
    17  N    2.293606   0.000000
    18  H    3.170198   1.017709   0.000000
    19  C    2.850063   1.450646   2.146641   0.000000
    20  H    2.393002   2.063461   2.988756   1.091093   0.000000
    21  H    3.641465   2.107470   2.533686   1.096315   1.783190
    22  H    3.560928   2.114607   2.554282   1.097407   1.781780
                   21         22
    21  H    0.000000
    22  H    1.780769   0.000000
 Stoichiometry    C6H12N2O2
 Framework group  C1[X(C6H12N2O2)]
 Deg. of freedom    60
 Full point group                 C1      NOp   1
 Largest Abelian subgroup         C1      NOp   1
 Largest concise Abelian subgroup C1      NOp   1
                         Standard orientation:                         
 ---------------------------------------------------------------------
 Center     Atomic      Atomic             Coordinates (Angstroms)
 Number     Number       Type             X           Y           Z
 ---------------------------------------------------------------------
      1          1           0       -3.407114   -1.739399   -0.560497
      2          6           0       -3.199012   -0.671400   -0.657197
      3          1           0       -3.973511   -0.130598   -0.101097
      4          1           0       -3.264911   -0.382400   -1.710897
      5          6           0       -1.845011   -0.376803   -0.031397
      6          8           0       -1.484912   -0.928803    1.010403
      7          7           0       -1.057309    0.508196   -0.706197
      8          1           0       -1.438208    0.905597   -1.553097
      9          6           0        0.112192    1.213893   -0.143897
     10          1           0        0.253094    2.086393   -0.786497
     11          6           0       -0.073607    1.706194    1.297503
     12          1           0       -0.212808    0.882594    1.997603
     13          1           0        0.813394    2.278092    1.589303
     14          1           0       -0.944805    2.367596    1.361303
     15          6           0        1.415991    0.406991   -0.346597
     16          8           0        2.362992    0.885589   -0.961897
     17          7           0        1.408188   -0.821109    0.236503
     18          1           0        0.549987   -1.118208    0.695803
     19          6           0        2.532386   -1.733712    0.148703
     20          1           0        3.345487   -1.211013   -0.357397
     21          1           0        2.866485   -2.040112    1.146903
     22          1           0        2.274484   -2.633411   -0.424297
 ---------------------------------------------------------------------
 Rotational constants (GHZ):      1.9918466      0.8666562      0.7522600
 Standard basis: Aug-CC-pVDZ (5D, 7F)
 There are   338 symmetry adapted basis functions of A   symmetry.
 Integral buffers will be    131072 words long.
 Raffenetti 1 integral format.
 Two-electron integral symmetry is turned on.
   338 basis functions,   562 primitive gaussians,   358 cartesian basis functions
    39 alpha electrons       39 beta electrons
       nuclear repulsion energy       562.3785662639 Hartrees.
 NAtoms=   22 NActive=   22 NUniq=   22 SFac= 7.50D-01 NAtFMM=   80 NAOKFM=F Big=F
 One-electron integrals computed using PRISM.
 NBasis=   338 RedAO= T  NBF=   338
 NBsUse=   338 1.00D-06 NBFU=   338
 Harris functional with IExCor=  205 diagonalized for initial guess.
 ExpMin= 2.97D-02 ExpMax= 1.17D+04 ExpMxC= 4.01D+02 IAcc=3 IRadAn=         0 AccDes= 0.00D+00
 HarFok:  IExCor=  205 AccDes= 0.00D+00 IRadAn=         0 IDoV= 1
 ScaDFX=  1.000000  1.000000  1.000000  1.000000
 FoFCou: FMM=F IPFlag=           0 FMFlag=      100000 FMFlg1=           0
         NFxFlg=           0 DoJE=T BraDBF=F KetDBF=T FulRan=T
         Omega=  0.000000  0.000000  1.000000  0.000000  0.000000 ICntrl=     500 IOpCl=  0
         NMat0=    1 NMatS0=    1 NMatT0=    0 NMatD0=    1 NMtDS0=    0 NMtDT0=    0
         I1Cent=           4 NGrid=           0.
 Petite list used in FoFCou.
 Initial guess orbital symmetries:
       Occupied  (A) (A) (A) (A) (A) (A) (A) (A) (A) (A) (A) (A)
                 (A) (A) (A) (A) (A) (A) (A) (A) (A) (A) (A) (A)
                 (A) (A) (A) (A) (A) (A) (A) (A) (A) (A) (A) (A)
                 (A) (A) (A)
       Virtual   (A) (A) (A) (A) (A) (A) (A) (A) (A) (A) (A) (A)
                 (A) (A) (A) (A) (A) (A) (A) (A) (A) (A) (A) (A)
                 (A) (A) (A) (A) (A) (A) (A) (A) (A) (A) (A) (A)
                 (A) (A) (A) (A) (A) (A) (A) (A) (A) (A) (A) (A)
                 (A) (A) (A) (A) (A) (A) (A) (A) (A) (A) (A) (A)
                 (A) (A) (A) (A) (A) (A) (A) (A) (A) (A) (A) (A)
                 (A) (A) (A) (A) (A) (A) (A) (A) (A) (A) (A) (A)
                 (A) (A) (A) (A) (A) (A) (A) (A) (A) (A) (A) (A)
                 (A) (A) (A) (A) (A) (A) (A) (A) (A) (A) (A) (A)
                 (A) (A) (A) (A) (A) (A) (A) (A) (A) (A) (A) (A)
                 (A) (A) (A) (A) (A) (A) (A) (A) (A) (A) (A) (A)
                 (A) (A) (A) (A) (A) (A) (A) (A) (A) (A) (A) (A)
                 (A) (A) (A) (A) (A) (A) (A) (A) (A) (A) (A) (A)
                 (A) (A) (A) (A) (A) (A) (A) (A) (A) (A) (A) (A)
                 (A) (A) (A) (A) (A) (A) (A) (A) (A) (A) (A) (A)
                 (A) (A) (A) (A) (A) (A) (A) (A) (A) (A) (A) (A)
                 (A) (A) (A) (A) (A) (A) (A) (A) (A) (A) (A) (A)
                 (A) (A) (A) (A) (A) (A) (A) (A) (A) (A) (A) (A)
                 (A) (A) (A) (A) (A) (A) (A) (A) (A) (A) (A) (A)
                 (A) (A) (A) (A) (A) (A) (A) (A) (A) (A) (A) (A)
                 (A) (A) (A) (A) (A) (A) (A) (A) (A) (A) (A) (A)
                 (A) (A) (A) (A) (A) (A) (A) (A) (A) (A) (A) (A)
                 (A) (A) (A) (A) (A) (A) (A) (A) (A) (A) (A) (A)
                 (A) (A) (A) (A) (A) (A) (A) (A) (A) (A) (A) (A)
                 (A) (A) (A) (A) (A) (A) (A) (A) (A) (A) (A)
 The electronic state of the initial guess is 1-A.
 Requested convergence on RMS density matrix=1.00D-08 within 128 cycles.
 Requested convergence on MAX density matrix=1.00D-06.
 Requested convergence on             energy=1.00D-06.
 No special actions if energy rises.
 Initial convergence to 1.0D-05 achieved.  Increase integral accuracy.
 SCF Done:  E(RHF) =  -492.923065753     A.U. after   14 cycles
             Convg  =    0.7662D-08             -V/T =  2.0017
 ExpMin= 2.97D-02 ExpMax= 1.17D+04 ExpMxC= 4.01D+02 IAcc=3 IRadAn=         5 AccDes= 0.00D+00
 HarFok:  IExCor=  205 AccDes= 0.00D+00 IRadAn=         5 IDoV=-2
 ScaDFX=  1.000000  1.000000  1.000000  1.000000
 Range of M.O.s used for correlation:    11   338
 NBasis=   338 NAE=    39 NBE=    39 NFC=    10 NFV=     0
 NROrb=    328 NOA=    29 NOB=    29 NVA=   299 NVB=   299

 **** Warning!!: The largest alpha MO coefficient is  0.73751810D+02

 Disk-based method using OVN memory for 29 occupieds at a time.
 Estimated scratch disk usage=  1390608252 words.
 Actual    scratch disk usage=  1377425558 words.
 JobTyp=1 Pass  1:  I=   1 to  29 NPSUse=  8 ParTrn=T ParDer=T DoDerP=F.
 Spin components of T(2) and E(2):
     alpha-alpha T2 =       0.6810312409D-01 E2=     -0.2062576470D+00
     alpha-beta  T2 =       0.3768628844D+00 E2=     -0.1191228900D+01
     beta-beta   T2 =       0.6810312409D-01 E2=     -0.2062576470D+00
 ANorm=    0.1230068751D+01
 E2 =    -0.1603744194D+01 EUMP2 =    -0.49452680994675D+03

 **********************************************************************

            Population analysis using the SCF density.

 **********************************************************************

 Orbital symmetries:
       Occupied  (A) (A) (A) (A) (A) (A) (A) (A) (A) (A) (A) (A)
                 (A) (A) (A) (A) (A) (A) (A) (A) (A) (A) (A) (A)
                 (A) (A) (A) (A) (A) (A) (A) (A) (A) (A) (A) (A)
                 (A) (A) (A)
       Virtual   (A) (A) (A) (A) (A) (A) (A) (A) (A) (A) (A) (A)
                 (A) (A) (A) (A) (A) (A) (A) (A) (A) (A) (A) (A)
                 (A) (A) (A) (A) (A) (A) (A) (A) (A) (A) (A) (A)
                 (A) (A) (A) (A) (A) (A) (A) (A) (A) (A) (A) (A)
                 (A) (A) (A) (A) (A) (A) (A) (A) (A) (A) (A) (A)
                 (A) (A) (A) (A) (A) (A) (A) (A) (A) (A) (A) (A)
                 (A) (A) (A) (A) (A) (A) (A) (A) (A) (A) (A) (A)
                 (A) (A) (A) (A) (A) (A) (A) (A) (A) (A) (A) (A)
                 (A) (A) (A) (A) (A) (A) (A) (A) (A) (A) (A) (A)
                 (A) (A) (A) (A) (A) (A) (A) (A) (A) (A) (A) (A)
                 (A) (A) (A) (A) (A) (A) (A) (A) (A) (A) (A) (A)
                 (A) (A) (A) (A) (A) (A) (A) (A) (A) (A) (A) (A)
                 (A) (A) (A) (A) (A) (A) (A) (A) (A) (A) (A) (A)
                 (A) (A) (A) (A) (A) (A) (A) (A) (A) (A) (A) (A)
                 (A) (A) (A) (A) (A) (A) (A) (A) (A) (A) (A) (A)
                 (A) (A) (A) (A) (A) (A) (A) (A) (A) (A) (A) (A)
                 (A) (A) (A) (A) (A) (A) (A) (A) (A) (A) (A) (A)
                 (A) (A) (A) (A) (A) (A) (A) (A) (A) (A) (A) (A)
                 (A) (A) (A) (A) (A) (A) (A) (A) (A) (A) (A) (A)
                 (A) (A) (A) (A) (A) (A) (A) (A) (A) (A) (A) (A)
                 (A) (A) (A) (A) (A) (A) (A) (A) (A) (A) (A) (A)
                 (A) (A) (A) (A) (A) (A) (A) (A) (A) (A) (A) (A)
                 (A) (A) (A) (A) (A) (A) (A) (A) (A) (A) (A) (A)
                 (A) (A) (A) (A) (A) (A) (A) (A) (A) (A) (A) (A)
                 (A) (A) (A) (A) (A) (A) (A) (A) (A) (A) (A)
 The electronic state is 1-A.
 Alpha  occ. eigenvalues --  -20.54627 -20.52402 -15.61331 -15.57855 -11.38018
 Alpha  occ. eigenvalues --  -11.35105 -11.29744 -11.26016 -11.25745 -11.23583
 Alpha  occ. eigenvalues --   -1.39950  -1.37499  -1.25198  -1.21880  -1.06076
 Alpha  occ. eigenvalues --   -1.00230  -0.94889  -0.88928  -0.80507  -0.76936
 Alpha  occ. eigenvalues --   -0.72100  -0.70555  -0.65605  -0.63449  -0.62656
 Alpha  occ. eigenvalues --   -0.61254  -0.60087  -0.58859  -0.57646  -0.56829
 Alpha  occ. eigenvalues --   -0.54514  -0.53928  -0.52576  -0.51688  -0.50565
 Alpha  occ. eigenvalues --   -0.44261  -0.43672  -0.39412  -0.37895
 Alpha virt. eigenvalues --    0.02495   0.04041   0.04341   0.04423   0.05853
 Alpha virt. eigenvalues --    0.05876   0.06605   0.06763   0.07571   0.08176
 Alpha virt. eigenvalues --    0.08934   0.09928   0.10846   0.11593   0.12030
 Alpha virt. eigenvalues --    0.13632   0.13798   0.14181   0.14863   0.15258
 Alpha virt. eigenvalues --    0.15493   0.16003   0.16222   0.16880   0.17285
 Alpha virt. eigenvalues --    0.17788   0.18185   0.18435   0.18975   0.19218
 Alpha virt. eigenvalues --    0.19597   0.19850   0.20720   0.21235   0.22298
 Alpha virt. eigenvalues --    0.23242   0.24277   0.25270   0.25497   0.25814
 Alpha virt. eigenvalues --    0.27476   0.28704   0.29242   0.29684   0.30741
 Alpha virt. eigenvalues --    0.31417   0.31632   0.32311   0.33228   0.33653
 Alpha virt. eigenvalues --    0.34578   0.34853   0.35741   0.36057   0.36238
 Alpha virt. eigenvalues --    0.37906   0.38230   0.39287   0.39703   0.40588
 Alpha virt. eigenvalues --    0.41101   0.41671   0.42039   0.42272   0.42992
 Alpha virt. eigenvalues --    0.43461   0.44191   0.45076   0.46088   0.46260
 Alpha virt. eigenvalues --    0.46429   0.46703   0.47887   0.48242   0.48974
 Alpha virt. eigenvalues --    0.49312   0.49905   0.51246   0.51638   0.52550
 Alpha virt. eigenvalues --    0.53276   0.54265   0.54855   0.55587   0.55875
 Alpha virt. eigenvalues --    0.56828   0.57078   0.57810   0.58801   0.59636
 Alpha virt. eigenvalues --    0.59836   0.60251   0.61029   0.61929   0.62471
 Alpha virt. eigenvalues --    0.63236   0.64311   0.64525   0.65087   0.65770
 Alpha virt. eigenvalues --    0.66019   0.66685   0.66851   0.68398   0.68687
 Alpha virt. eigenvalues --    0.69213   0.69446   0.70328   0.71536   0.72890
 Alpha virt. eigenvalues --    0.73428   0.74086   0.74937   0.75273   0.75533
 Alpha virt. eigenvalues --    0.76431   0.77394   0.78664   0.78870   0.79554
 Alpha virt. eigenvalues --    0.80479   0.81358   0.83275   0.83558   0.84058
 Alpha virt. eigenvalues --    0.84482   0.85122   0.85993   0.87231   0.88781
 Alpha virt. eigenvalues --    0.89888   0.91138   0.91492   0.92337   0.93434
 Alpha virt. eigenvalues --    0.94578   0.94745   0.95850   0.97888   0.98462
 Alpha virt. eigenvalues --    0.99637   1.01055   1.02952   1.04130   1.04881
 Alpha virt. eigenvalues --    1.07139   1.07612   1.08545   1.10468   1.12308
 Alpha virt. eigenvalues --    1.12412   1.14262   1.14573   1.15840   1.16779
 Alpha virt. eigenvalues --    1.17602   1.18972   1.19445   1.20474   1.20689
 Alpha virt. eigenvalues --    1.23255   1.24168   1.24857   1.26899   1.30388
 Alpha virt. eigenvalues --    1.33344   1.34528   1.36120   1.36667   1.38550
 Alpha virt. eigenvalues --    1.40617   1.42662   1.44209   1.46761   1.48150
 Alpha virt. eigenvalues --    1.49670   1.51501   1.53640   1.53779   1.56512
 Alpha virt. eigenvalues --    1.57830   1.58262   1.60997   1.62425   1.64888
 Alpha virt. eigenvalues --    1.66222   1.69489   1.70955   1.72251   1.73488
 Alpha virt. eigenvalues --    1.75868   1.77396   1.78538   1.79472   1.81271
 Alpha virt. eigenvalues --    1.83152   1.83880   1.85037   1.85526   1.88089
 Alpha virt. eigenvalues --    1.89652   1.90629   1.91446   1.91917   1.93462
 Alpha virt. eigenvalues --    1.96728   1.97657   1.99158   2.00156   2.01389
 Alpha virt. eigenvalues --    2.03495   2.05642   2.06609   2.08630   2.09528
 Alpha virt. eigenvalues --    2.10927   2.12161   2.14301   2.15265   2.16603
 Alpha virt. eigenvalues --    2.18714   2.19686   2.21052   2.21687   2.24086
 Alpha virt. eigenvalues --    2.25298   2.26621   2.27741   2.30166   2.31008
 Alpha virt. eigenvalues --    2.31823   2.33337   2.35229   2.36612   2.39089
 Alpha virt. eigenvalues --    2.40170   2.41902   2.42454   2.43119   2.46332
 Alpha virt. eigenvalues --    2.48054   2.48599   2.49383   2.50991   2.52253
 Alpha virt. eigenvalues --    2.53966   2.55467   2.57629   2.58421   2.61109
 Alpha virt. eigenvalues --    2.63486   2.64206   2.66502   2.68154   2.70744
 Alpha virt. eigenvalues --    2.74030   2.74994   2.75859   2.76339   2.77538
 Alpha virt. eigenvalues --    2.81990   2.83734   2.85621   2.88372   2.89621
 Alpha virt. eigenvalues --    2.91112   2.93794   2.94866   2.97415   2.99868
 Alpha virt. eigenvalues --    3.00802   3.02681   3.06150   3.08523   3.08723
 Alpha virt. eigenvalues --    3.09258   3.15284   3.18955   3.21807   3.27866
 Alpha virt. eigenvalues --    3.28849   3.37334   3.45315   3.49335   3.52575
 Alpha virt. eigenvalues --    3.62802   3.64523   3.77845   3.82797   3.84153
 Alpha virt. eigenvalues --    3.88642   3.94461   3.96812   3.98527   4.03290
 Alpha virt. eigenvalues --    4.11826   4.15215   4.21890   4.27148
          Condensed to atoms (all electrons):
              1          2          3          4          5          6
     1  H    0.739959   0.315365  -0.039031  -0.080385  -0.021855   0.020993
     2  C    0.315365   4.679803   0.362275   0.409987   0.139790  -0.057484
     3  H   -0.039031   0.362275   0.703482  -0.071677  -0.069792   0.012255
     4  H   -0.080385   0.409987  -0.071677   1.005126   0.011671  -0.001085
     5  C   -0.021855   0.139790  -0.069792   0.011671   5.511207   0.203844
     6  O    0.020993  -0.057484   0.012255  -0.001085   0.203844   8.742143
     7  N    0.046349  -0.035221   0.040985  -0.165000   0.127809  -0.104605
     8  H   -0.004101  -0.110102  -0.004599   0.013230  -0.111567   0.000460
     9  C    0.008980  -0.117435   0.006689  -0.013001  -0.372683  -0.037615
    10  H   -0.000138  -0.006569   0.000188   0.000294   0.000018   0.005852
    11  C   -0.000175  -0.016267   0.001249  -0.010052  -0.062958   0.024927
    12  H   -0.001508  -0.008944   0.001728   0.000381  -0.003550  -0.018026
    13  H    0.000076   0.005438   0.000197  -0.000091  -0.011530   0.004940
    14  H    0.000136   0.011023   0.000188   0.000532   0.023959   0.003450
    15  C   -0.002978  -0.016743   0.001027  -0.011138  -0.025344   0.055324
    16  O    0.000221   0.001875   0.000054   0.000297   0.010739  -0.003175
    17  N    0.000767  -0.004058  -0.000784   0.002649   0.061303  -0.050019
    18  H    0.001819  -0.015265  -0.003415  -0.000029  -0.055530   0.062124
    19  C   -0.001181   0.000589   0.000170   0.000396   0.005329   0.009447
    20  H   -0.000105  -0.000421   0.000007  -0.000186  -0.007320   0.002314
    21  H   -0.000208  -0.000038   0.000001   0.000086  -0.004916   0.000202
    22  H    0.000388   0.002551   0.000056   0.000207   0.022177  -0.001395
              7          8          9         10         11         12
     1  H    0.046349  -0.004101   0.008980  -0.000138  -0.000175  -0.001508
     2  C   -0.035221  -0.110102  -0.117435  -0.006569  -0.016267  -0.008944
     3  H    0.040985  -0.004599   0.006689   0.000188   0.001249   0.001728
     4  H   -0.165000   0.013230  -0.013001   0.000294  -0.010052   0.000381
     5  C    0.127809  -0.111567  -0.372683   0.000018  -0.062958  -0.003550
     6  O   -0.104605   0.000460  -0.037615   0.005852   0.024927  -0.018026
     7  N    7.562213   0.296330  -0.586097  -0.083677   0.123902  -0.081492
     8  H    0.296330   0.985194   0.112973  -0.047448  -0.006864  -0.004472
     9  C   -0.586097   0.112973   9.085212  -0.570206  -0.131715   0.046768
    10  H   -0.083677  -0.047448  -0.570206   1.584509   0.023461   0.072681
    11  C    0.123902  -0.006864  -0.131715   0.023461   4.291779   0.284597
    12  H   -0.081492  -0.004472   0.046768   0.072681   0.284597   1.065181
    13  H    0.108490  -0.004129  -0.206501  -0.040033   0.436669  -0.217173
    14  H   -0.055291   0.006229   0.061728  -0.048544   0.148590  -0.183987
    15  C   -0.048180  -0.009377  -0.767030   0.241271   0.006103   0.066145
    16  O   -0.008743  -0.006292   0.062713   0.020437   0.011522  -0.009786
    17  N   -0.012202   0.018845  -0.219616   0.046730   0.051496  -0.021620
    18  H    0.035206   0.001687   0.029485  -0.002148  -0.017157   0.004605
    19  C   -0.025283   0.001654  -0.071870   0.017461  -0.012241   0.009448
    20  H   -0.004957   0.000272   0.026523   0.006618  -0.012000   0.003119
    21  H   -0.002623  -0.000836  -0.004741  -0.000406   0.013253   0.000002
    22  H    0.007504   0.000433  -0.056918  -0.003410  -0.000616  -0.001738
             13         14         15         16         17         18
     1  H    0.000076   0.000136  -0.002978   0.000221   0.000767   0.001819
     2  C    0.005438   0.011023  -0.016743   0.001875  -0.004058  -0.015265
     3  H    0.000197   0.000188   0.001027   0.000054  -0.000784  -0.003415
     4  H   -0.000091   0.000532  -0.011138   0.000297   0.002649  -0.000029
     5  C   -0.011530   0.023959  -0.025344   0.010739   0.061303  -0.055530
     6  O    0.004940   0.003450   0.055324  -0.003175  -0.050019   0.062124
     7  N    0.108490  -0.055291  -0.048180  -0.008743  -0.012202   0.035206
     8  H   -0.004129   0.006229  -0.009377  -0.006292   0.018845   0.001687
     9  C   -0.206501   0.061728  -0.767030   0.062713  -0.219616   0.029485
    10  H   -0.040033  -0.048544   0.241271   0.020437   0.046730  -0.002148
    11  C    0.436669   0.148590   0.006103   0.011522   0.051496  -0.017157
    12  H   -0.217173  -0.183987   0.066145  -0.009786  -0.021620   0.004605
    13  H    1.224836  -0.172546  -0.078868   0.016987   0.011659   0.004011
    14  H   -0.172546   1.198835   0.073921  -0.004362   0.012602  -0.006324
    15  C   -0.078868   0.073921   5.341994   0.165356   0.232222  -0.076057
    16  O    0.016987  -0.004362   0.165356   8.700997  -0.126513   0.002410
    17  N    0.011659   0.012602   0.232222  -0.126513   7.189444   0.183845
    18  H    0.004011  -0.006324  -0.076057   0.002410   0.183845   1.092365
    19  C   -0.009595   0.005648  -0.035909  -0.015606   0.229958  -0.171579
    20  H   -0.002798   0.000307   0.005638  -0.002108  -0.076415  -0.002132
    21  H   -0.000849   0.001031  -0.029530   0.008338  -0.019401   0.001120
    22  H   -0.000072   0.000419  -0.001962   0.003758   0.020680  -0.015643
             19         20         21         22
     1  H   -0.001181  -0.000105  -0.000208   0.000388
     2  C    0.000589  -0.000421  -0.000038   0.002551
     3  H    0.000170   0.000007   0.000001   0.000056
     4  H    0.000396  -0.000186   0.000086   0.000207
     5  C    0.005329  -0.007320  -0.004916   0.022177
     6  O    0.009447   0.002314   0.000202  -0.001395
     7  N   -0.025283  -0.004957  -0.002623   0.007504
     8  H    0.001654   0.000272  -0.000836   0.000433
     9  C   -0.071870   0.026523  -0.004741  -0.056918
    10  H    0.017461   0.006618  -0.000406  -0.003410
    11  C   -0.012241  -0.012000   0.013253  -0.000616
    12  H    0.009448   0.003119   0.000002  -0.001738
    13  H   -0.009595  -0.002798  -0.000849  -0.000072
    14  H    0.005648   0.000307   0.001031   0.000419
    15  C   -0.035909   0.005638  -0.029530  -0.001962
    16  O   -0.015606  -0.002108   0.008338   0.003758
    17  N    0.229958  -0.076415  -0.019401   0.020680
    18  H   -0.171579  -0.002132   0.001120  -0.015643
    19  C    4.182092   0.487778   0.337850   0.327253
    20  H    0.487778   1.023928  -0.143352  -0.138590
    21  H    0.337850  -0.143352   1.090256  -0.142527
    22  H    0.327253  -0.138590  -0.142527   1.072100
 Mulliken atomic charges:
              1
     1  H    0.016610
     2  C    0.459850
     3  H    0.058747
     4  H   -0.092213
     5  C    0.629200
     6  O   -0.874871
     7  N   -0.135416
     8  H   -0.127520
     9  C   -0.285645
    10  H   -0.216942
    11  C    0.852497
    12  H   -0.002361
    13  H   -0.069118
    14  H   -0.077546
    15  C    0.914116
    16  O   -0.829120
    17  N   -0.531574
    18  H   -0.053399
    19  C    0.728192
    20  H   -0.166119
    21  H   -0.102711
    22  H   -0.094657
 Sum of Mulliken atomic charges =   0.00000
 Mulliken charges with hydrogens summed into heavy atoms:
              1
     2  C    0.442994
     5  C    0.629200
     6  O   -0.874871
     7  N   -0.262936
     9  C   -0.502587
    11  C    0.703472
    15  C    0.914116
    16  O   -0.829120
    17  N   -0.584973
    19  C    0.364705
 Sum of Mulliken charges with hydrogens summed into heavy atoms =   0.00000
 Electronic spatial extent (au):  <R**2>=           1691.9947
 Charge=              0.0000 electrons
 Dipole moment (field-independent basis, Debye):
    X=             -4.0278    Y=              0.1318    Z=             -0.9063  Tot=              4.1307
 Quadrupole moment (field-independent basis, Debye-Ang):
   XX=            -62.2767   YY=            -59.2550   ZZ=            -63.1138
   XY=             -8.3315   XZ=             11.2565   YZ=              2.9715
 Traceless Quadrupole moment (field-independent basis, Debye-Ang):
   XX=             -0.7282   YY=              2.2935   ZZ=             -1.5653
   XY=             -8.3315   XZ=             11.2565   YZ=              2.9715
 Octapole moment (field-independent basis, Debye-Ang**2):
  XXX=            -42.6286  YYY=             -1.9791  ZZZ=             -5.1356  XYY=             -0.0541
  XXY=            -18.0882  XXZ=              2.2912  XZZ=             -5.4022  YZZ=              3.0624
  YYZ=             -1.3324  XYZ=              1.8943
 Hexadecapole moment (field-independent basis, Debye-Ang**3):
 XXXX=          -1355.6740 YYYY=           -532.3274 ZZZZ=           -284.7747 XXXY=            -34.4590
 XXXZ=             41.7223 YYYX=             -3.6739 YYYZ=             -2.4722 ZZZX=             18.0070
 ZZZY=             -9.6277 XXYY=           -321.9835 XXZZ=           -293.1179 YYZZ=           -138.4007
 XXYZ=             19.0225 YYXZ=             13.0641 ZZXY=            -14.4367
 N-N= 5.623785662639D+02 E-N=-2.279996230388D+03  KE= 4.920743933564D+02
 1\1\GINC-NODE001\SP\RMP2-FC\Aug-CC-pVDZ\C6H12N2O2\STEBOSS\14-Feb-2017\
 0\\#SP MP2/aug-cc-pVDZ\\Single Point calculation at MP2\\0,1\H,0,-3.40
 71,-1.7394,-0.5605\C,0,-3.199,-0.6714,-0.6572\H,0,-3.9735,-0.1306,-0.1
 011\H,0,-3.2649,-0.3824,-1.7109\C,0,-1.845,-0.3768,-0.0314\O,0,-1.4849
 ,-0.9288,1.0104\N,0,-1.0573,0.5082,-0.7062\H,0,-1.4382,0.9056,-1.5531\
 C,0,0.1122,1.2139,-0.1439\H,0,0.2531,2.0864,-0.7865\C,0,-0.0736,1.7062
 ,1.2975\H,0,-0.2128,0.8826,1.9976\H,0,0.8134,2.2781,1.5893\H,0,-0.9448
 ,2.3676,1.3613\C,0,1.416,0.407,-0.3466\O,0,2.363,0.8856,-0.9619\N,0,1.
 4082,-0.8211,0.2365\H,0,0.55,-1.1182,0.6958\C,0,2.5324,-1.7337,0.1487\
 H,0,3.3455,-1.211,-0.3574\H,0,2.8665,-2.0401,1.1469\H,0,2.2745,-2.6334
 ,-0.4243\\Version=EM64L-G09RevA.02\State=1-A\HF=-492.9230658\MP2=-494.
 5268099\RMSD=7.662e-09\PG=C01 [X(C6H12N2O2)]\\@


 I (ERNEST RUTHERFORD) CAME INTO THE ROOM, WHICH WAS HALF DARK, AND PRESENTLY
 SPOTTED LORD KELVIN IN THE AUDIENCE AND REALIZED I WAS IN TROUBLE AT
 THE LAST PART OF MY SPEECH DEALING THE AGE OF THE EARTH, WHERE MY VIEWS
 CONFLICTED WITH HIS.  TO MY RELIEF KELVIN FELL FAST ASLEEP, BUT AS I CAME
 TO THE IMPORTANT POINT, I SAW THE OLD BIRD SIT UP AND COCK A BALEFUL GLANCE
 AT ME! THEN A SUDDEN INSPIRATION CAME AND I SAID LORD KELVIN HAD LIMITED
 THE AGE OF THE EARTH PROVIDED NO NEW SOURCE WAS DISCOVERED. THAT
 PROPHETIC UTTERANCE REFERS TO WHAT WE ARE NOW CONSIDERING TONIGHT, RADIUM!
 BEHOLD!  THE OLD BOY BEAMED UPON ME.
 Job cpu time:  0 days  8 hours 51 minutes 24.6 seconds.
 File lengths (MBytes):  RWF=  10625 Int=      0 D2E=      0 Chk=      7 Scr=      2
 Normal termination of Gaussian 09 at Tue Feb 14 05:32:50 2017.
