 Entering Gaussian System, Link 0=g09
 Initial command:
 /home/steboss/Software/g09/l1.exe /home/steboss/projects/phi_psi_scan/alanine/120/4181/Gau-5411.inp -scrdir=/home/steboss/projects/phi_psi_scan/alanine/120/4181/
 Entering Link 1 = /home/steboss/Software/g09/l1.exe PID=      5413.
  
 Copyright (c) 1988,1990,1992,1993,1995,1998,2003,2009, Gaussian, Inc.
                  All Rights Reserved.
  
 This is part of the Gaussian(R) 09 program.  It is based on
 the Gaussian(R) 03 system (copyright 2003, Gaussian, Inc.),
 the Gaussian(R) 98 system (copyright 1998, Gaussian, Inc.),
 the Gaussian(R) 94 system (copyright 1995, Gaussian, Inc.),
 the Gaussian 92(TM) system (copyright 1992, Gaussian, Inc.),
 the Gaussian 90(TM) system (copyright 1990, Gaussian, Inc.),
 the Gaussian 88(TM) system (copyright 1988, Gaussian, Inc.),
 the Gaussian 86(TM) system (copyright 1986, Carnegie Mellon
 University), and the Gaussian 82(TM) system (copyright 1983,
 Carnegie Mellon University). Gaussian is a federally registered
 trademark of Gaussian, Inc.
  
 This software contains proprietary and confidential information,
 including trade secrets, belonging to Gaussian, Inc.
  
 This software is provided under written license and may be
 used, copied, transmitted, or stored only in accord with that
 written license.
  
 The following legend is applicable only to US Government
 contracts under FAR:
  
                    RESTRICTED RIGHTS LEGEND
  
 Use, reproduction and disclosure by the US Government is
 subject to restrictions as set forth in subparagraphs (a)
 and (c) of the Commercial Computer Software - Restricted
 Rights clause in FAR 52.227-19.
  
 Gaussian, Inc.
 340 Quinnipiac St., Bldg. 40, Wallingford CT 06492
  
  
 ---------------------------------------------------------------
 Warning -- This program may not be used in any manner that
 competes with the business of Gaussian, Inc. or will provide
 assistance to any competitor of Gaussian, Inc.  The licensee
 of this program is prohibited from giving any competitor of
 Gaussian, Inc. access to this program.  By using this program,
 the user acknowledges that Gaussian, Inc. is engaged in the
 business of creating and licensing software in the field of
 computational chemistry and represents and warrants to the
 licensee that it is not a competitor of Gaussian, Inc. and that
 it will not use this program in any manner prohibited above.
 ---------------------------------------------------------------
  

 Cite this work as:
 Gaussian 09, Revision A.02,
 M. J. Frisch, G. W. Trucks, H. B. Schlegel, G. E. Scuseria, 
 M. A. Robb, J. R. Cheeseman, G. Scalmani, V. Barone, B. Mennucci, 
 G. A. Petersson, H. Nakatsuji, M. Caricato, X. Li, H. P. Hratchian, 
 A. F. Izmaylov, J. Bloino, G. Zheng, J. L. Sonnenberg, M. Hada, 
 M. Ehara, K. Toyota, R. Fukuda, J. Hasegawa, M. Ishida, T. Nakajima, 
 Y. Honda, O. Kitao, H. Nakai, T. Vreven, J. A. Montgomery, Jr., 
 J. E. Peralta, F. Ogliaro, M. Bearpark, J. J. Heyd, E. Brothers, 
 K. N. Kudin, V. N. Staroverov, R. Kobayashi, J. Normand, 
 K. Raghavachari, A. Rendell, J. C. Burant, S. S. Iyengar, J. Tomasi, 
 M. Cossi, N. Rega, J. M. Millam, M. Klene, J. E. Knox, J. B. Cross, 
 V. Bakken, C. Adamo, J. Jaramillo, R. Gomperts, R. E. Stratmann, 
 O. Yazyev, A. J. Austin, R. Cammi, C. Pomelli, J. W. Ochterski, 
 R. L. Martin, K. Morokuma, V. G. Zakrzewski, G. A. Voth, 
 P. Salvador, J. J. Dannenberg, S. Dapprich, A. D. Daniels, 
 O. Farkas, J. B. Foresman, J. V. Ortiz, J. Cioslowski, 
 and D. J. Fox, Gaussian, Inc., Wallingford CT, 2009.
 
 ******************************************
 Gaussian 09:  EM64L-G09RevA.02 11-Jun-2009
                10-Feb-2017 
 ******************************************
 %chk=structure_165.chk
 %NProcShared=8
 Will use up to    8 processors via shared memory.
 ----------------------------------------------------------------------
 # b3lyp/6-31G* Opt=(ModRedundant, maxcycles=1000, calcfc) geom=nocrowd
 ----------------------------------------------------------------------
 1/6=1000,10=4,14=-1,18=120,19=15,26=3,38=1/1,3;
 2/9=110,12=1,17=6,18=5,40=1/2;
 3/5=1,6=6,7=1,11=2,16=1,25=1,30=1,71=2,74=-5/1,2,3;
 4//1;
 5/5=2,38=5/2;
 8/6=4,10=90,11=11/1;
 11/6=1,8=1,9=11,15=111,16=1/1,2,10;
 10/6=1,7=6,13=1/2;
 6/7=2,8=2,9=2,10=2,28=1/1;
 7/10=1,18=20,25=1/1,2,3,16;
 1/6=1000,10=4,14=-1,18=20,19=15/3(2);
 2/9=110,12=1/2;
 99//99;
 2/9=110,12=1/2;
 3/5=1,6=6,7=1,11=2,16=1,25=1,30=1,71=1,74=-5/1,2,3;
 4/5=5,16=3/1;
 5/5=2,38=5/2;
 7//1,2,3,16;
 1/6=1000,14=-1,18=20,19=15/3(-5);
 2/9=110,12=1/2;
 6/7=2,8=2,9=2,10=2,19=2,28=1/1;
 99/9=1/99;
 ------------------
 Phi Psi fixed scan
 ------------------
 Symbolic Z-matrix:
 Charge =  0 Multiplicity = 1
 H                     1.5624    1.8816   -1.7047 
 C                     1.7794    2.5343   -0.8591 
 H                     1.7316    1.9596    0.0658 
 H                     1.0463    3.3401   -0.824 
 C                     3.1755    3.1484   -0.9815 
 O                     3.8914    2.883    -1.9446 
 N                     3.5554    3.9697    0. 
 H                     2.9312    4.1571    0.7716 
 C                     4.8533    4.6139    0. 
 H                     5.4076    4.3155    0.8898 
 C                     5.6613    4.2208   -1.2322 
 H                     5.1233    4.5214   -2.1312 
 H                     6.6305    4.7189   -1.2058 
 H                     5.8085    3.1409   -1.2414 
 C                     4.7127    6.1294    0. 
 O                     3.6366    6.656    -0.2741 
 N                     5.8056    6.8311    0.309 
 H                     6.6679    6.3528    0.5272 
 C                     5.801     8.2797    0.3436 
 H                     4.8071    8.6467    0.0875 
 H                     6.0669    8.6206    1.3442 
 H                     6.5256    8.6631   -0.3748 
 
 The following ModRedundant input section has been read:
 D    5    7    9   15 F                                                       
 D    7    9   15   17 F                                                       

 GradGradGradGradGradGradGradGradGradGradGradGradGradGradGradGradGradGrad
 Berny optimization.
 Initialization pass.
                           ----------------------------
                           !    Initial Parameters    !
                           ! (Angstroms and Degrees)  !
 --------------------------                            --------------------------
 ! Name  Definition              Value          Derivative Info.                !
 --------------------------------------------------------------------------------
 ! R1    R(1,2)                  1.09           calculate D2E/DX2 analytically  !
 ! R2    R(2,3)                  1.09           calculate D2E/DX2 analytically  !
 ! R3    R(2,4)                  1.0899         calculate D2E/DX2 analytically  !
 ! R4    R(2,5)                  1.5301         calculate D2E/DX2 analytically  !
 ! R5    R(5,6)                  1.229          calculate D2E/DX2 analytically  !
 ! R6    R(5,7)                  1.335          calculate D2E/DX2 analytically  !
 ! R7    R(7,8)                  1.01           calculate D2E/DX2 analytically  !
 ! R8    R(7,9)                  1.449          calculate D2E/DX2 analytically  !
 ! R9    R(9,10)                 1.09           calculate D2E/DX2 analytically  !
 ! R10   R(9,11)                 1.525          calculate D2E/DX2 analytically  !
 ! R11   R(9,15)                 1.522          calculate D2E/DX2 analytically  !
 ! R12   R(11,12)                1.09           calculate D2E/DX2 analytically  !
 ! R13   R(11,13)                1.09           calculate D2E/DX2 analytically  !
 ! R14   R(11,14)                1.0899         calculate D2E/DX2 analytically  !
 ! R15   R(15,16)                1.229          calculate D2E/DX2 analytically  !
 ! R16   R(15,17)                1.335          calculate D2E/DX2 analytically  !
 ! R17   R(17,18)                1.0099         calculate D2E/DX2 analytically  !
 ! R18   R(17,19)                1.449          calculate D2E/DX2 analytically  !
 ! R19   R(19,20)                1.09           calculate D2E/DX2 analytically  !
 ! R20   R(19,21)                1.09           calculate D2E/DX2 analytically  !
 ! R21   R(19,22)                1.09           calculate D2E/DX2 analytically  !
 ! A1    A(1,2,3)              109.5015         calculate D2E/DX2 analytically  !
 ! A2    A(1,2,4)              109.4979         calculate D2E/DX2 analytically  !
 ! A3    A(1,2,5)              111.0948         calculate D2E/DX2 analytically  !
 ! A4    A(3,2,4)              109.4502         calculate D2E/DX2 analytically  !
 ! A5    A(3,2,5)              108.6335         calculate D2E/DX2 analytically  !
 ! A6    A(4,2,5)              108.6362         calculate D2E/DX2 analytically  !
 ! A7    A(2,5,6)              120.4974         calculate D2E/DX2 analytically  !
 ! A8    A(2,5,7)              116.5994         calculate D2E/DX2 analytically  !
 ! A9    A(6,5,7)              122.9032         calculate D2E/DX2 analytically  !
 ! A10   A(5,7,8)              119.9965         calculate D2E/DX2 analytically  !
 ! A11   A(5,7,9)              121.8985         calculate D2E/DX2 analytically  !
 ! A12   A(8,7,9)              118.105          calculate D2E/DX2 analytically  !
 ! A13   A(7,9,10)             109.5            calculate D2E/DX2 analytically  !
 ! A14   A(7,9,11)             111.0992         calculate D2E/DX2 analytically  !
 ! A15   A(7,9,15)             111.0966         calculate D2E/DX2 analytically  !
 ! A16   A(10,9,11)            108.6382         calculate D2E/DX2 analytically  !
 ! A17   A(10,9,15)            108.6373         calculate D2E/DX2 analytically  !
 ! A18   A(11,9,15)            107.7947         calculate D2E/DX2 analytically  !
 ! A19   A(9,11,12)            109.5007         calculate D2E/DX2 analytically  !
 ! A20   A(9,11,13)            109.4959         calculate D2E/DX2 analytically  !
 ! A21   A(9,11,14)            109.4978         calculate D2E/DX2 analytically  !
 ! A22   A(12,11,13)           109.441          calculate D2E/DX2 analytically  !
 ! A23   A(12,11,14)           109.4482         calculate D2E/DX2 analytically  !
 ! A24   A(13,11,14)           109.4436         calculate D2E/DX2 analytically  !
 ! A25   A(9,15,16)            120.4997         calculate D2E/DX2 analytically  !
 ! A26   A(9,15,17)            116.5985         calculate D2E/DX2 analytically  !
 ! A27   A(16,15,17)           122.9018         calculate D2E/DX2 analytically  !
 ! A28   A(15,17,18)           120.0035         calculate D2E/DX2 analytically  !
 ! A29   A(15,17,19)           121.8963         calculate D2E/DX2 analytically  !
 ! A30   A(18,17,19)           118.1002         calculate D2E/DX2 analytically  !
 ! A31   A(17,19,20)           109.5046         calculate D2E/DX2 analytically  !
 ! A32   A(17,19,21)           109.4999         calculate D2E/DX2 analytically  !
 ! A33   A(17,19,22)           109.4988         calculate D2E/DX2 analytically  !
 ! A34   A(20,19,21)           109.4397         calculate D2E/DX2 analytically  !
 ! A35   A(20,19,22)           109.443          calculate D2E/DX2 analytically  !
 ! A36   A(21,19,22)           109.4414         calculate D2E/DX2 analytically  !
 ! D1    D(1,2,5,6)             -0.0016         calculate D2E/DX2 analytically  !
 ! D2    D(1,2,5,7)            179.9943         calculate D2E/DX2 analytically  !
 ! D3    D(3,2,5,6)            120.5076         calculate D2E/DX2 analytically  !
 ! D4    D(3,2,5,7)            -59.4965         calculate D2E/DX2 analytically  !
 ! D5    D(4,2,5,6)           -120.5083         calculate D2E/DX2 analytically  !
 ! D6    D(4,2,5,7)             59.4876         calculate D2E/DX2 analytically  !
 ! D7    D(2,5,7,8)              0.0085         calculate D2E/DX2 analytically  !
 ! D8    D(2,5,7,9)            179.9978         calculate D2E/DX2 analytically  !
 ! D9    D(6,5,7,8)           -179.9958         calculate D2E/DX2 analytically  !
 ! D10   D(6,5,7,9)             -0.0064         calculate D2E/DX2 analytically  !
 ! D11   D(5,7,9,10)          -119.9959         calculate D2E/DX2 analytically  !
 ! D12   D(5,7,9,11)             0.0067         calculate D2E/DX2 analytically  !
 ! D13   D(5,7,9,15)           120.0043         frozen, calculate D2E/DX2 analyt!
 ! D14   D(8,7,9,10)            59.9937         calculate D2E/DX2 analytically  !
 ! D15   D(8,7,9,11)           179.9963         calculate D2E/DX2 analytically  !
 ! D16   D(8,7,9,15)           -60.0061         calculate D2E/DX2 analytically  !
 ! D17   D(7,9,11,12)           60.0024         calculate D2E/DX2 analytically  !
 ! D18   D(7,9,11,13)          179.9986         calculate D2E/DX2 analytically  !
 ! D19   D(7,9,11,14)          -60.0038         calculate D2E/DX2 analytically  !
 ! D20   D(10,9,11,12)        -179.4843         calculate D2E/DX2 analytically  !
 ! D21   D(10,9,11,13)         -59.4881         calculate D2E/DX2 analytically  !
 ! D22   D(10,9,11,14)          60.5095         calculate D2E/DX2 analytically  !
 ! D23   D(15,9,11,12)         -61.938          calculate D2E/DX2 analytically  !
 ! D24   D(15,9,11,13)          58.0582         calculate D2E/DX2 analytically  !
 ! D25   D(15,9,11,14)         178.0558         calculate D2E/DX2 analytically  !
 ! D26   D(7,9,15,16)          -15.0014         calculate D2E/DX2 analytically  !
 ! D27   D(7,9,15,17)          164.9981         frozen, calculate D2E/DX2 analyt!
 ! D28   D(10,9,15,16)        -135.5125         calculate D2E/DX2 analytically  !
 ! D29   D(10,9,15,17)          44.487          calculate D2E/DX2 analytically  !
 ! D30   D(11,9,15,16)         106.9406         calculate D2E/DX2 analytically  !
 ! D31   D(11,9,15,17)         -73.0599         calculate D2E/DX2 analytically  !
 ! D32   D(9,15,17,18)           0.0035         calculate D2E/DX2 analytically  !
 ! D33   D(9,15,17,19)         179.9985         calculate D2E/DX2 analytically  !
 ! D34   D(16,15,17,18)       -179.997          calculate D2E/DX2 analytically  !
 ! D35   D(16,15,17,19)         -0.002          calculate D2E/DX2 analytically  !
 ! D36   D(15,17,19,20)          0.0027         calculate D2E/DX2 analytically  !
 ! D37   D(15,17,19,21)        120.002          calculate D2E/DX2 analytically  !
 ! D38   D(15,17,19,22)       -120.0001         calculate D2E/DX2 analytically  !
 ! D39   D(18,17,19,20)        179.9978         calculate D2E/DX2 analytically  !
 ! D40   D(18,17,19,21)        -60.0029         calculate D2E/DX2 analytically  !
 ! D41   D(18,17,19,22)         59.995          calculate D2E/DX2 analytically  !
 --------------------------------------------------------------------------------
 Trust Radius=3.00D-01 FncErr=1.00D-07 GrdErr=1.00D-06
 Number of steps in this run= 132 maximum allowed number of steps= 132.
 GradGradGradGradGradGradGradGradGradGradGradGradGradGradGradGradGradGrad

                          Input orientation:                          
 ---------------------------------------------------------------------
 Center     Atomic      Atomic             Coordinates (Angstroms)
 Number     Number       Type             X           Y           Z
 ---------------------------------------------------------------------
      1          1           0        1.562400    1.881600   -1.704700
      2          6           0        1.779400    2.534300   -0.859100
      3          1           0        1.731600    1.959600    0.065800
      4          1           0        1.046300    3.340100   -0.824000
      5          6           0        3.175500    3.148400   -0.981500
      6          8           0        3.891400    2.883000   -1.944600
      7          7           0        3.555400    3.969700    0.000000
      8          1           0        2.931200    4.157100    0.771600
      9          6           0        4.853300    4.613900    0.000000
     10          1           0        5.407600    4.315500    0.889800
     11          6           0        5.661300    4.220800   -1.232200
     12          1           0        5.123300    4.521400   -2.131200
     13          1           0        6.630500    4.718900   -1.205800
     14          1           0        5.808500    3.140900   -1.241400
     15          6           0        4.712700    6.129400    0.000000
     16          8           0        3.636600    6.656000   -0.274100
     17          7           0        5.805600    6.831100    0.309000
     18          1           0        6.667900    6.352800    0.527200
     19          6           0        5.801000    8.279700    0.343600
     20          1           0        4.807100    8.646700    0.087500
     21          1           0        6.066900    8.620600    1.344200
     22          1           0        6.525600    8.663100   -0.374800
 ---------------------------------------------------------------------
                    Distance matrix (angstroms):
                    1          2          3          4          5
     1  H    0.000000
     2  C    1.090021   0.000000
     3  H    1.780276   1.089956   0.000000
     4  H    1.780229   1.089946   1.779652   0.000000
     5  C    2.174832   1.530097   2.143579   2.143606   0.000000
     6  O    2.546487   2.400093   3.091781   3.091808   1.229029
     7  N    3.352344   2.439795   2.714973   2.714950   1.334991
     8  H    3.630919   2.572801   2.601192   2.601207   2.037282
     9  C    4.604507   3.809416   4.098128   4.098145   2.434347
    10  H    5.238403   4.403994   4.443221   4.786382   3.137859
    11  C    4.743005   4.248839   4.715970   4.715982   2.718841
    12  H    4.453140   4.092490   4.784690   4.441415   2.645915
    13  H    5.829649   5.331590   5.764540   5.764560   3.801816
    14  H    4.453072   4.092403   4.441324   4.784606   2.645807
    15  C    5.556455   4.718797   5.126258   4.679921   3.494666
    16  O    5.398501   4.558490   5.079442   4.243493   3.607809
    17  N    6.823290   6.003102   6.355166   6.010134   4.705858
    18  H    7.144168   6.356115   6.624210   6.519547   4.974054
    19  C    7.943359   7.115432   7.522025   6.954862   5.914337
    20  H    7.714055   6.886541   7.360467   6.567682   5.834054
    21  H    8.660279   7.764035   8.049724   7.602052   6.611660
    22  H    8.508274   7.766798   8.253089   7.652375   6.480985
                    6          7          8          9         10
     6  O    0.000000
     7  N    2.252839   0.000000
     8  H    3.150088   1.010005   0.000000
     9  C    2.775380   1.448978   2.120967   0.000000
    10  H    3.519196   2.083739   2.484274   1.089970   0.000000
    11  C    2.330186   2.452791   3.387140   1.525027   2.139209
    12  H    2.058337   2.702720   3.655717   2.150225   3.041326
    13  H    3.379205   3.386959   4.232086   2.150214   2.459625
    14  H    2.058221   2.702673   3.655638   2.150165   2.466256
    15  C    3.872353   2.450234   2.767504   1.522008   2.136554
    16  O    4.134129   2.701468   2.799210   2.392836   3.157379
    17  N    4.932582   3.653285   3.953030   2.432762   2.612274
    18  H    5.085102   3.955346   4.340940   2.567973   2.422896
    19  C    6.164966   4.872051   5.041306   3.801879   4.020943
    20  H    6.179658   4.842390   4.913604   4.034014   4.445625
    21  H    6.961972   5.453932   5.484826   4.396970   4.378932
    22  H    6.543152   5.566917   5.876902   4.396940   4.663771
                   11         12         13         14         15
    11  C    0.000000
    12  H    1.089957   0.000000
    13  H    1.090023   1.779613   0.000000
    14  H    1.089925   1.779613   1.779617   0.000000
    15  C    2.461892   2.701161   2.668599   3.416575   0.000000
    16  O    3.308710   3.196187   3.685629   4.243671   1.228995
    17  N    3.034763   3.428531   2.726989   4.002665   1.335026
    18  H    2.941795   3.578674   2.382082   3.766008   2.037315
    19  C    4.356298   4.550685   3.970895   5.377690   2.434389
    20  H    4.696792   4.694754   4.519405   5.751749   2.520589
    21  H    5.114742   5.456393   4.695041   6.064587   3.137963
    22  H    4.606102   4.712225   4.032156   5.635594   3.137948
                   16         17         18         19         20
    16  O    0.000000
    17  N    2.252826   0.000000
    18  H    3.150046   1.009922   0.000000
    19  C    2.775353   1.449020   2.120889   0.000000
    20  H    2.337458   2.083859   2.986284   1.090006   0.000000
    21  H    3.519220   2.083801   2.484272   1.090007   1.779627
    22  H    3.519220   2.083796   2.484218   1.090018   1.779672
                   21         22
    21  H    0.000000
    22  H    1.779655   0.000000
 Stoichiometry    C6H12N2O2
 Framework group  C1[X(C6H12N2O2)]
 Deg. of freedom    60
 Full point group                 C1      NOp   1
 Largest Abelian subgroup         C1      NOp   1
 Largest concise Abelian subgroup C1      NOp   1
                         Standard orientation:                         
 ---------------------------------------------------------------------
 Center     Atomic      Atomic             Coordinates (Angstroms)
 Number     Number       Type             X           Y           Z
 ---------------------------------------------------------------------
      1          1           0        4.211410   -0.669965   -0.541483
      2          6           0        3.356949   -1.047549    0.020186
      3          1           0        3.642848   -1.196024    1.061446
      4          1           0        3.032218   -1.996744   -0.405912
      5          6           0        2.186566   -0.063224   -0.029854
      6          8           0        2.286763    0.994033   -0.648466
      7          7           0        1.078595   -0.418175    0.624829
      8          1           0        1.044307   -1.298159    1.119363
      9          6           0       -0.097941    0.427103    0.653268
     10          1           0       -0.330601    0.692264    1.684575
     11          6           0        0.128070    1.709466   -0.140565
     12          1           0        0.353078    1.460551   -1.177588
     13          1           0       -0.771064    2.324460   -0.101953
     14          1           0        0.963756    2.261186    0.289749
     15          6           0       -1.299998   -0.286687    0.051545
     16          8           0       -1.149042   -1.304977   -0.619819
     17          7           0       -2.497595    0.251122    0.294068
     18          1           0       -2.570979    1.089725    0.852014
     19          6           0       -3.718429   -0.333823   -0.222713
     20          1           0       -3.478193   -1.226414   -0.800364
     21          1           0       -4.372156   -0.603559    0.606744
     22          1           0       -4.224692    0.387881   -0.863791
 ---------------------------------------------------------------------
 Rotational constants (GHZ):      3.1937784      0.6995499      0.6237609
 Standard basis: 6-31G(d) (6D, 7F)
 There are   174 symmetry adapted basis functions of A   symmetry.
 Integral buffers will be    131072 words long.
 Raffenetti 2 integral format.
 Two-electron integral symmetry is turned on.
   174 basis functions,   328 primitive gaussians,   174 cartesian basis functions
    39 alpha electrons       39 beta electrons
       nuclear repulsion energy       561.3792429438 Hartrees.
 NAtoms=   22 NActive=   22 NUniq=   22 SFac= 7.50D-01 NAtFMM=   80 NAOKFM=F Big=F
 One-electron integrals computed using PRISM.
 NBasis=   174 RedAO= T  NBF=   174
 NBsUse=   174 1.00D-06 NBFU=   174
 Harris functional with IExCor=  402 diagonalized for initial guess.
 ExpMin= 1.61D-01 ExpMax= 5.48D+03 ExpMxC= 8.25D+02 IAcc=1 IRadAn=         1 AccDes= 0.00D+00
 HarFok:  IExCor=  402 AccDes= 0.00D+00 IRadAn=         1 IDoV= 1
 ScaDFX=  1.000000  1.000000  1.000000  1.000000
 FoFCou: FMM=F IPFlag=           0 FMFlag=      100000 FMFlg1=           0
         NFxFlg=           0 DoJE=T BraDBF=F KetDBF=T FulRan=T
         Omega=  0.000000  0.000000  1.000000  0.000000  0.000000 ICntrl=     500 IOpCl=  0
         NMat0=    1 NMatS0=    1 NMatT0=    0 NMatD0=    1 NMtDS0=    0 NMtDT0=    0
         I1Cent=           4 NGrid=           0.
 Petite list used in FoFCou.
 Initial guess orbital symmetries:
       Occupied  (A) (A) (A) (A) (A) (A) (A) (A) (A) (A) (A) (A)
                 (A) (A) (A) (A) (A) (A) (A) (A) (A) (A) (A) (A)
                 (A) (A) (A) (A) (A) (A) (A) (A) (A) (A) (A) (A)
                 (A) (A) (A)
       Virtual   (A) (A) (A) (A) (A) (A) (A) (A) (A) (A) (A) (A)
                 (A) (A) (A) (A) (A) (A) (A) (A) (A) (A) (A) (A)
                 (A) (A) (A) (A) (A) (A) (A) (A) (A) (A) (A) (A)
                 (A) (A) (A) (A) (A) (A) (A) (A) (A) (A) (A) (A)
                 (A) (A) (A) (A) (A) (A) (A) (A) (A) (A) (A) (A)
                 (A) (A) (A) (A) (A) (A) (A) (A) (A) (A) (A) (A)
                 (A) (A) (A) (A) (A) (A) (A) (A) (A) (A) (A) (A)
                 (A) (A) (A) (A) (A) (A) (A) (A) (A) (A) (A) (A)
                 (A) (A) (A) (A) (A) (A) (A) (A) (A) (A) (A) (A)
                 (A) (A) (A) (A) (A) (A) (A) (A) (A) (A) (A) (A)
                 (A) (A) (A) (A) (A) (A) (A) (A) (A) (A) (A) (A)
                 (A) (A) (A)
 The electronic state of the initial guess is 1-A.
 Requested convergence on RMS density matrix=1.00D-08 within 128 cycles.
 Requested convergence on MAX density matrix=1.00D-06.
 Requested convergence on             energy=1.00D-06.
 No special actions if energy rises.
 Integral accuracy reduced to 1.0D-05 until final iterations.
 Initial convergence to 1.0D-05 achieved.  Increase integral accuracy.
 SCF Done:  E(RB3LYP) =  -495.816297629     A.U. after   14 cycles
             Convg  =    0.5627D-08             -V/T =  2.0084
 Range of M.O.s used for correlation:     1   174
 NBasis=   174 NAE=    39 NBE=    39 NFC=     0 NFV=     0
 NROrb=    174 NOA=    39 NOB=    39 NVA=   135 NVB=   135
 Symmetrizing basis deriv contribution to polar:
 IMax=3 JMax=2 DiffMx= 0.00D+00
 G2DrvN: will do    23 centers at a time, making    1 passes doing MaxLOS=2.
 Calling FoFCou, ICntrl=  3107 FMM=F I1Cent=   0 AccDes= 0.00D+00.
 FoFDir/FoFCou used for L=0 through L=2.
 End of G2Drv Frequency-dependent properties file   721 does not exist.
 End of G2Drv Frequency-dependent properties file   722 does not exist.
          IDoAtm=1111111111111111111111
          Differentiating once with respect to nuclear coordinates.
          There are    69 degrees of freedom in the 1st order CPHF.  IDoFFX=5.
     63 vectors produced by pass  0 Test12= 7.63D-11 1.45D-07 XBig12= 1.68D-01 8.01D-02.
 AX will form    63 AO Fock derivatives at one time.
     63 vectors produced by pass  1 Test12= 7.63D-11 1.45D-07 XBig12= 2.31D-02 4.47D-02.
     63 vectors produced by pass  2 Test12= 7.63D-11 1.45D-07 XBig12= 3.40D-05 1.24D-03.
     63 vectors produced by pass  3 Test12= 7.63D-11 1.45D-07 XBig12= 6.85D-08 5.12D-05.
     30 vectors produced by pass  4 Test12= 7.63D-11 1.45D-07 XBig12= 6.96D-11 1.60D-06.
 Inverted reduced A of dimension   282 with in-core refinement.
 End of Minotr Frequency-dependent properties file   721 does not exist.
 End of Minotr Frequency-dependent properties file   722 does not exist.

 **********************************************************************

            Population analysis using the SCF density.

 **********************************************************************

 Orbital symmetries:
       Occupied  (A) (A) (A) (A) (A) (A) (A) (A) (A) (A) (A) (A)
                 (A) (A) (A) (A) (A) (A) (A) (A) (A) (A) (A) (A)
                 (A) (A) (A) (A) (A) (A) (A) (A) (A) (A) (A) (A)
                 (A) (A) (A)
       Virtual   (A) (A) (A) (A) (A) (A) (A) (A) (A) (A) (A) (A)
                 (A) (A) (A) (A) (A) (A) (A) (A) (A) (A) (A) (A)
                 (A) (A) (A) (A) (A) (A) (A) (A) (A) (A) (A) (A)
                 (A) (A) (A) (A) (A) (A) (A) (A) (A) (A) (A) (A)
                 (A) (A) (A) (A) (A) (A) (A) (A) (A) (A) (A) (A)
                 (A) (A) (A) (A) (A) (A) (A) (A) (A) (A) (A) (A)
                 (A) (A) (A) (A) (A) (A) (A) (A) (A) (A) (A) (A)
                 (A) (A) (A) (A) (A) (A) (A) (A) (A) (A) (A) (A)
                 (A) (A) (A) (A) (A) (A) (A) (A) (A) (A) (A) (A)
                 (A) (A) (A) (A) (A) (A) (A) (A) (A) (A) (A) (A)
                 (A) (A) (A) (A) (A) (A) (A) (A) (A) (A) (A) (A)
                 (A) (A) (A)
 The electronic state is 1-A.
 Alpha  occ. eigenvalues --  -19.10377 -19.08916 -14.36555 -14.35819 -10.27789
 Alpha  occ. eigenvalues --  -10.27778 -10.23372 -10.21910 -10.18227 -10.16571
 Alpha  occ. eigenvalues --   -1.03316  -1.02177  -0.92675  -0.92176  -0.78500
 Alpha  occ. eigenvalues --   -0.72612  -0.70468  -0.64667  -0.59522  -0.57109
 Alpha  occ. eigenvalues --   -0.53883  -0.50741  -0.47144  -0.45798  -0.44395
 Alpha  occ. eigenvalues --   -0.43933  -0.41972  -0.40320  -0.39882  -0.39125
 Alpha  occ. eigenvalues --   -0.38963  -0.37130  -0.36656  -0.35494  -0.34503
 Alpha  occ. eigenvalues --   -0.25387  -0.25140  -0.23984  -0.21951
 Alpha virt. eigenvalues --    0.03206   0.04035   0.06635   0.08561   0.12058
 Alpha virt. eigenvalues --    0.13355   0.14602   0.15371   0.15854   0.16624
 Alpha virt. eigenvalues --    0.17073   0.18166   0.18313   0.18906   0.20600
 Alpha virt. eigenvalues --    0.20889   0.24329   0.24880   0.29440   0.34684
 Alpha virt. eigenvalues --    0.35212   0.40718   0.41880   0.51012   0.51497
 Alpha virt. eigenvalues --    0.52450   0.53900   0.55549   0.55978   0.56655
 Alpha virt. eigenvalues --    0.58327   0.60094   0.61803   0.63909   0.66856
 Alpha virt. eigenvalues --    0.68035   0.69377   0.71518   0.73142   0.74980
 Alpha virt. eigenvalues --    0.75709   0.77286   0.80059   0.81402   0.83183
 Alpha virt. eigenvalues --    0.85787   0.86869   0.87948   0.88406   0.89510
 Alpha virt. eigenvalues --    0.89977   0.90315   0.91265   0.92589   0.94604
 Alpha virt. eigenvalues --    0.95092   0.95818   0.97320   0.98184   1.01810
 Alpha virt. eigenvalues --    1.05850   1.07500   1.10419   1.14670   1.18098
 Alpha virt. eigenvalues --    1.22508   1.29243   1.33372   1.34424   1.37530
 Alpha virt. eigenvalues --    1.38229   1.40695   1.43201   1.49020   1.50383
 Alpha virt. eigenvalues --    1.51875   1.53317   1.61840   1.65411   1.70230
 Alpha virt. eigenvalues --    1.73417   1.77983   1.78929   1.83495   1.83545
 Alpha virt. eigenvalues --    1.83767   1.86051   1.87974   1.89181   1.93290
 Alpha virt. eigenvalues --    1.96136   1.96505   1.99503   2.02534   2.02887
 Alpha virt. eigenvalues --    2.07146   2.10755   2.14053   2.14640   2.19282
 Alpha virt. eigenvalues --    2.21141   2.25584   2.27425   2.29184   2.30155
 Alpha virt. eigenvalues --    2.31755   2.37494   2.38349   2.40398   2.44122
 Alpha virt. eigenvalues --    2.45266   2.47448   2.54980   2.60207   2.63075
 Alpha virt. eigenvalues --    2.66230   2.69109   2.72709   2.80476   2.89498
 Alpha virt. eigenvalues --    2.94642   2.98357   3.03413   3.16183   3.21454
 Alpha virt. eigenvalues --    3.93526   4.01549   4.06449   4.14718   4.23343
 Alpha virt. eigenvalues --    4.24161   4.33101   4.43098   4.49370   4.65942
          Condensed to atoms (all electrons):
              1          2          3          4          5          6
     1  H    0.503628   0.359655  -0.021668  -0.020670  -0.017328   0.005192
     2  C    0.359655   5.330975   0.348279   0.352141   0.354481  -0.073370
     3  H   -0.021668   0.348279   0.561648  -0.026406  -0.027267   0.001279
     4  H   -0.020670   0.352141  -0.026406   0.541737  -0.026681   0.001148
     5  C   -0.017328   0.354481  -0.027267  -0.026681   4.345885   0.575802
     6  O    0.005192  -0.073370   0.001279   0.001148   0.575802   8.161799
     7  N    0.004598  -0.135868   0.005439   0.005021   0.254353  -0.097128
     8  H   -0.000140   0.000456   0.000679   0.000763  -0.015859   0.003686
     9  C   -0.000101   0.003213   0.000148  -0.000015  -0.037093  -0.015762
    10  H    0.000003  -0.000255   0.000021   0.000004   0.001066  -0.000084
    11  C    0.000000   0.000608  -0.000016  -0.000006   0.000421  -0.033206
    12  H    0.000017  -0.000267   0.000012  -0.000007   0.001367  -0.009081
    13  H   -0.000001   0.000039  -0.000001  -0.000001   0.000985   0.005895
    14  H    0.000018  -0.000247  -0.000010   0.000009  -0.000007  -0.008564
    15  C    0.000000  -0.000145  -0.000006   0.000049   0.000889  -0.000639
    16  O    0.000000  -0.000061   0.000001   0.000057   0.002687  -0.000021
    17  N    0.000000   0.000001   0.000000   0.000000   0.000075  -0.000006
    18  H    0.000000   0.000000   0.000000   0.000000  -0.000003   0.000003
    19  C    0.000000   0.000000   0.000000   0.000000  -0.000001   0.000000
    20  H    0.000000   0.000000   0.000000   0.000000  -0.000001   0.000000
    21  H    0.000000   0.000000   0.000000   0.000000   0.000000   0.000000
    22  H    0.000000   0.000000   0.000000   0.000000   0.000000   0.000000
              7          8          9         10         11         12
     1  H    0.004598  -0.000140  -0.000101   0.000003   0.000000   0.000017
     2  C   -0.135868   0.000456   0.003213  -0.000255   0.000608  -0.000267
     3  H    0.005439   0.000679   0.000148   0.000021  -0.000016   0.000012
     4  H    0.005021   0.000763  -0.000015   0.000004  -0.000006  -0.000007
     5  C    0.254353  -0.015859  -0.037093   0.001066   0.000421   0.001367
     6  O   -0.097128   0.003686  -0.015762  -0.000084  -0.033206  -0.009081
     7  N    7.092279   0.305847   0.264356  -0.049576  -0.040683  -0.004507
     8  H    0.305847   0.405920  -0.039039  -0.000866   0.005140  -0.000175
     9  C    0.264356  -0.039039   5.131689   0.365579   0.367884  -0.028011
    10  H   -0.049576  -0.000866   0.365579   0.632318  -0.040360   0.005734
    11  C   -0.040683   0.005140   0.367884  -0.040360   5.106632   0.389045
    12  H   -0.004507  -0.000175  -0.028011   0.005734   0.389045   0.511976
    13  H    0.004706  -0.000075  -0.033381  -0.003903   0.318997  -0.034524
    14  H   -0.003018  -0.000259  -0.022423  -0.004782   0.382622  -0.022668
    15  C   -0.042121   0.001773   0.298134  -0.051368  -0.041394  -0.003634
    16  O   -0.002710   0.004544  -0.093017   0.002361  -0.002663   0.002039
    17  N    0.003628   0.000266  -0.127608   0.004921  -0.000619  -0.000130
    18  H    0.000143  -0.000013   0.002461   0.002303   0.000431  -0.000101
    19  C   -0.000110   0.000000   0.006002  -0.000364  -0.000104  -0.000018
    20  H   -0.000010  -0.000004   0.001309  -0.000054  -0.000049  -0.000009
    21  H    0.000003   0.000000  -0.000142   0.000010  -0.000009   0.000000
    22  H    0.000001   0.000000  -0.000054  -0.000006   0.000034  -0.000001
             13         14         15         16         17         18
     1  H   -0.000001   0.000018   0.000000   0.000000   0.000000   0.000000
     2  C    0.000039  -0.000247  -0.000145  -0.000061   0.000001   0.000000
     3  H   -0.000001  -0.000010  -0.000006   0.000001   0.000000   0.000000
     4  H   -0.000001   0.000009   0.000049   0.000057   0.000000   0.000000
     5  C    0.000985  -0.000007   0.000889   0.002687   0.000075  -0.000003
     6  O    0.005895  -0.008564  -0.000639  -0.000021  -0.000006   0.000003
     7  N    0.004706  -0.003018  -0.042121  -0.002710   0.003628   0.000143
     8  H   -0.000075  -0.000259   0.001773   0.004544   0.000266  -0.000013
     9  C   -0.033381  -0.022423   0.298134  -0.093017  -0.127608   0.002461
    10  H   -0.003903  -0.004782  -0.051368   0.002361   0.004921   0.002303
    11  C    0.318997   0.382622  -0.041394  -0.002663  -0.000619   0.000431
    12  H   -0.034524  -0.022668  -0.003634   0.002039  -0.000130  -0.000101
    13  H    0.672253  -0.034141  -0.008626  -0.000020   0.004155   0.003693
    14  H   -0.034141   0.526977   0.004267  -0.000081   0.000092  -0.000123
    15  C   -0.008626   0.004267   4.419820   0.618444   0.249406  -0.022398
    16  O   -0.000020  -0.000081   0.618444   8.082937  -0.104816   0.003645
    17  N    0.004155   0.000092   0.249406  -0.104816   7.109507   0.303585
    18  H    0.003693  -0.000123  -0.022398   0.003645   0.303585   0.411034
    19  C   -0.000176   0.000007  -0.024191  -0.009744   0.267354  -0.033082
    20  H   -0.000009   0.000001  -0.000620   0.022453  -0.037686   0.003815
    21  H    0.000005   0.000000   0.000935   0.000601  -0.044160  -0.001018
    22  H    0.000012  -0.000002   0.001938   0.000574  -0.044568  -0.000481
             19         20         21         22
     1  H    0.000000   0.000000   0.000000   0.000000
     2  C    0.000000   0.000000   0.000000   0.000000
     3  H    0.000000   0.000000   0.000000   0.000000
     4  H    0.000000   0.000000   0.000000   0.000000
     5  C   -0.000001  -0.000001   0.000000   0.000000
     6  O    0.000000   0.000000   0.000000   0.000000
     7  N   -0.000110  -0.000010   0.000003   0.000001
     8  H    0.000000  -0.000004   0.000000   0.000000
     9  C    0.006002   0.001309  -0.000142  -0.000054
    10  H   -0.000364  -0.000054   0.000010  -0.000006
    11  C   -0.000104  -0.000049  -0.000009   0.000034
    12  H   -0.000018  -0.000009   0.000000  -0.000001
    13  H   -0.000176  -0.000009   0.000005   0.000012
    14  H    0.000007   0.000001   0.000000  -0.000002
    15  C   -0.024191  -0.000620   0.000935   0.001938
    16  O   -0.009744   0.022453   0.000601   0.000574
    17  N    0.267354  -0.037686  -0.044160  -0.044568
    18  H   -0.033082   0.003815  -0.001018  -0.000481
    19  C    4.964695   0.376075   0.382588   0.382954
    20  H    0.376075   0.472467  -0.024097  -0.024095
    21  H    0.382588  -0.024097   0.568077  -0.039155
    22  H    0.382954  -0.024095  -0.039155   0.562565
 Mulliken atomic charges:
              1
     1  H    0.186798
     2  C   -0.539635
     3  H    0.157869
     4  H    0.172857
     5  C    0.586231
     6  O   -0.516944
     7  N   -0.564644
     8  H    0.327356
     9  C   -0.044130
    10  H    0.137296
    11  C   -0.412704
    12  H    0.192943
    13  H    0.104117
    14  H    0.182332
    15  C    0.599489
    16  O   -0.527212
    17  N   -0.583396
    18  H    0.326107
    19  C   -0.311886
    20  H    0.210515
    21  H    0.156360
    22  H    0.160284
 Sum of Mulliken atomic charges =   0.00000
 Mulliken charges with hydrogens summed into heavy atoms:
              1
     2  C   -0.022111
     5  C    0.586231
     6  O   -0.516944
     7  N   -0.237288
     9  C    0.093166
    11  C    0.066688
    15  C    0.599489
    16  O   -0.527212
    17  N   -0.257290
    19  C    0.215272
 Sum of Mulliken charges with hydrogens summed into heavy atoms =   0.00000
 APT atomic charges:
              1
     1  H    0.685140
     2  C   -1.240077
     3  H    0.448857
     4  H    0.308500
     5  C    0.020814
     6  O   -0.224775
     7  N   -0.691407
     8  H    0.583197
     9  C   -0.443471
    10  H    0.412460
    11  C   -1.091938
    12  H    0.320012
    13  H    0.391466
    14  H    0.469961
    15  C    0.019384
    16  O   -0.293325
    17  N   -0.412290
    18  H    0.586664
    19  C   -1.384896
    20  H    0.364948
    21  H    0.617947
    22  H    0.552827
 Sum of APT charges=   0.00000
 APT Atomic charges with hydrogens summed into heavy atoms:
              1
     1  H    0.000000
     2  C    0.202419
     3  H    0.000000
     4  H    0.000000
     5  C    0.020814
     6  O   -0.224775
     7  N   -0.108210
     8  H    0.000000
     9  C   -0.031010
    10  H    0.000000
    11  C    0.089502
    12  H    0.000000
    13  H    0.000000
    14  H    0.000000
    15  C    0.019384
    16  O   -0.293325
    17  N    0.174374
    18  H    0.000000
    19  C    0.150826
    20  H    0.000000
    21  H    0.000000
    22  H    0.000000
 Sum of APT charges=   0.00000
 Electronic spatial extent (au):  <R**2>=           1872.7943
 Charge=              0.0000 electrons
 Dipole moment (field-independent basis, Debye):
    X=             -2.4200    Y=             -0.0411    Z=              3.5511  Tot=              4.2974
 Quadrupole moment (field-independent basis, Debye-Ang):
   XX=            -51.9111   YY=            -62.0474   ZZ=            -59.2476
   XY=             -9.8327   XZ=              1.1738   YZ=             -0.3546
 Traceless Quadrupole moment (field-independent basis, Debye-Ang):
   XX=              5.8243   YY=             -4.3121   ZZ=             -1.5122
   XY=             -9.8327   XZ=              1.1738   YZ=             -0.3546
 Octapole moment (field-independent basis, Debye-Ang**2):
  XXX=            -34.1187  YYY=             -1.5986  ZZZ=              0.7484  XYY=             -1.8975
  XXY=            -11.3402  XXZ=              8.1345  XZZ=             -1.9143  YZZ=             -1.4078
  YYZ=              6.8091  XYZ=              1.3329
 Hexadecapole moment (field-independent basis, Debye-Ang**3):
 XXXX=          -1725.0476 YYYY=           -394.9741 ZZZZ=           -148.9019 XXXY=            -29.0311
 XXXZ=              5.6134 YYYX=             -4.3614 YYYZ=             -0.4922 ZZZX=             -1.4777
 ZZZY=             -2.1974 XXYY=           -379.3459 XXZZ=           -332.9833 YYZZ=            -87.4196
 XXYZ=             15.2036 YYXZ=             -0.3603 ZZXY=             -5.4894
 N-N= 5.613792429438D+02 E-N=-2.279487183222D+03  KE= 4.916653629534D+02
  Exact polarizability:   0.000   0.000   0.000   0.000   0.000   0.000
 Approx polarizability: 118.915  -5.877 119.632 -10.948   0.055  97.197
 Calling FoFJK, ICntrl=    100147 FMM=F ISym2X=0 I1Cent= 0 IOpClX= 0 NMat=1 NMatS=1 NMatT=0.
 ***** Axes restored to original set *****
 -------------------------------------------------------------------
 Center     Atomic                   Forces (Hartrees/Bohr)
 Number     Number              X              Y              Z
 -------------------------------------------------------------------
      1        1           0.003757113    0.001200797   -0.000764537
      2        6           0.006238261    0.006644152    0.005446799
      3        1          -0.004995644   -0.002497533    0.003908317
      4        1          -0.005896986    0.000662267    0.001890020
      5        6          -0.015544314   -0.025547674   -0.031408823
      6        8          -0.029888775   -0.019261911   -0.006148128
      7        7           0.010275138    0.010187282    0.019051162
      8        1          -0.001072799    0.002774534   -0.001880776
      9        6           0.004781417    0.001552818   -0.002029765
     10        1           0.002855676   -0.002635924    0.007145411
     11        6           0.019172536    0.003442504   -0.000730863
     12        1           0.009287692    0.000632848    0.000836471
     13        1           0.005782767    0.004334915    0.003576117
     14        1           0.006785777    0.005814678   -0.003825776
     15        6          -0.033003760   -0.002695615   -0.001755216
     16        8          -0.001524599    0.001673704   -0.000030148
     17        7           0.015626455    0.008861404    0.005708194
     18        1          -0.000016888   -0.000707322   -0.000186793
     19        6           0.004465235    0.000079591    0.000229978
     20        1          -0.000318640   -0.003410110   -0.000223846
     21        1           0.001081100    0.004275109    0.003001702
     22        1           0.002153236    0.004619488   -0.001809499
 -------------------------------------------------------------------
 Cartesian Forces:  Max     0.033003760 RMS     0.009734534

 GradGradGradGradGradGradGradGradGradGradGradGradGradGradGradGradGradGrad
 Berny optimization.
 Internal  Forces:  Max     0.124249103 RMS     0.021873447
 Search for a local minimum.
 Step number   1 out of a maximum of  132
 All quantities printed in internal units (Hartrees-Bohrs-Radians)
 Mixed Optimization -- RFO/linear search
 Second derivative matrix not updated -- analytic derivatives used.
     Eigenvalues ---   -0.01680  -0.00050  -0.00009   0.00357   0.01065
     Eigenvalues ---    0.01423   0.01628   0.01992   0.04054   0.04387
     Eigenvalues ---    0.04490   0.04797   0.05411   0.05799   0.05923
     Eigenvalues ---    0.05985   0.06420   0.06606   0.11978   0.12103
     Eigenvalues ---    0.12450   0.13258   0.13360   0.13463   0.13668
     Eigenvalues ---    0.14229   0.14573   0.17807   0.17952   0.18605
     Eigenvalues ---    0.19104   0.21140   0.22606   0.23512   0.23944
     Eigenvalues ---    0.24318   0.29250   0.31085   0.33497   0.34473
     Eigenvalues ---    0.34547   0.34579   0.35076   0.35121   0.35243
     Eigenvalues ---    0.35463   0.35600   0.35893   0.36002   0.37685
     Eigenvalues ---    0.39525   0.46855   0.46917   0.50757   0.54353
     Eigenvalues ---    0.80592   0.82909   1.811011000.000001000.00000
     Eigenvalues --- 1000.000001000.000001000.000001000.000001000.00000
     Eigenvalues --- 1000.000001000.000001000.000001000.000001000.00000
     Eigenvalues --- 1000.000001000.000001000.000001000.000001000.00000
     Eigenvalues --- 1000.000001000.000001000.000001000.000001000.00000
     Eigenvalues --- 1000.000001000.000001000.000001000.000001000.00000
     Eigenvalues --- 1000.000001000.000001000.000001000.000001000.00000
     Eigenvalues --- 1000.000001000.000001000.000001000.000001000.00000
     Eigenvalues --- 1000.000001000.000001000.00000
 RFO step:  Lambda=-3.16735438D-02 EMin=-1.68036631D-02
 Linear search not attempted -- first point.
 Maximum step size (   0.300) exceeded in Quadratic search.
    -- Step size scaled by   0.322
 Iteration  1 RMS(Cart)=  0.08466586 RMS(Int)=  0.00402314
 Iteration  2 RMS(Cart)=  0.00536949 RMS(Int)=  0.00009724
 Iteration  3 RMS(Cart)=  0.00002210 RMS(Int)=  0.00009581
 Iteration  4 RMS(Cart)=  0.00000000 RMS(Int)=  0.00009581
 Iteration  1 RMS(Cart)=  0.00000555 RMS(Int)=  0.00000177
 Iteration  2 RMS(Cart)=  0.00000310 RMS(Int)=  0.00000197
 Iteration  3 RMS(Cart)=  0.00000176 RMS(Int)=  0.00000224
 Iteration  4 RMS(Cart)=  0.00000103 RMS(Int)=  0.00000244
 Iteration  5 RMS(Cart)=  0.00000062 RMS(Int)=  0.00000257
 Variable       Old X    -DE/DX   Delta X   Delta X   Delta X     New X
                                 (Linear)    (Quad)   (Total)
    R1        2.05984  -0.00087   0.00000   0.00003   0.00003   2.05987
    R2        2.05972   0.00485   0.00000   0.00378   0.00378   2.06350
    R3        2.05970   0.00452   0.00000   0.00326   0.00326   2.06296
    R4        2.89146  -0.00075   0.00000  -0.00281  -0.00281   2.88865
    R5        2.32253  -0.00843   0.00000  -0.00158  -0.00158   2.32095
    R6        2.52277   0.05696   0.00000   0.01827   0.01827   2.54103
    R7        1.90863  -0.00026   0.00000   0.00012   0.00012   1.90876
    R8        2.73817   0.04475   0.00000   0.00057   0.00057   2.73874
    R9        2.05975   0.00801   0.00000   0.00589   0.00589   2.06564
   R10        2.88188   0.01818   0.00000   0.01134   0.01134   2.89323
   R11        2.87618   0.01370   0.00000   0.01678   0.01678   2.89296
   R12        2.05972  -0.00510   0.00000   0.00248   0.00248   2.06220
   R13        2.05984   0.00721   0.00000   0.00288   0.00288   2.06273
   R14        2.05966  -0.00481   0.00000  -0.00403  -0.00403   2.05563
   R15        2.32246   0.00206   0.00000  -0.00241  -0.00241   2.32005
   R16        2.52283   0.02760   0.00000   0.01554   0.01554   2.53837
   R17        1.90848   0.00028   0.00000   0.00014   0.00014   1.90862
   R18        2.73825   0.00556   0.00000   0.00226   0.00226   2.74051
   R19        2.05981  -0.00081   0.00000   0.00019   0.00019   2.06000
   R20        2.05982   0.00435   0.00000   0.00355   0.00355   2.06336
   R21        2.05984   0.00425   0.00000   0.00350   0.00350   2.06333
    A1        1.91116  -0.00012   0.00000  -0.00075  -0.00072   1.91045
    A2        1.91110   0.00023   0.00000  -0.00017  -0.00016   1.91094
    A3        1.93897  -0.00801   0.00000  -0.01169  -0.01167   1.92731
    A4        1.91027  -0.00503   0.00000  -0.00764  -0.00769   1.90257
    A5        1.89601   0.00695   0.00000   0.01427   0.01426   1.91027
    A6        1.89606   0.00603   0.00000   0.00605   0.00603   1.90209
    A7        2.10308  -0.02064   0.00000   0.00901   0.00893   2.11200
    A8        2.03504  -0.04020   0.00000  -0.01580  -0.01588   2.01916
    A9        2.14506   0.06084   0.00000   0.00680   0.00672   2.15178
   A10        2.09433  -0.06196   0.00000  -0.01328  -0.01380   2.08053
   A11        2.12753   0.12425   0.00000   0.02664   0.02612   2.15365
   A12        2.06132  -0.06229   0.00000  -0.01335  -0.01388   2.04744
   A13        1.91114  -0.01623   0.00000   0.00767   0.00758   1.91872
   A14        1.93905   0.06933   0.00000   0.00746   0.00734   1.94639
   A15        1.93900  -0.03042   0.00000  -0.01982  -0.01980   1.91920
   A16        1.89609  -0.01796   0.00000   0.00714   0.00708   1.90317
   A17        1.89608   0.01297   0.00000   0.00036   0.00038   1.89646
   A18        1.88137  -0.01843   0.00000  -0.00256  -0.00255   1.87882
   A19        1.91115   0.00921   0.00000   0.00283   0.00283   1.91398
   A20        1.91106  -0.01013   0.00000  -0.00183  -0.00185   1.90922
   A21        1.91110   0.01099   0.00000   0.01182   0.01181   1.92290
   A22        1.91011  -0.00240   0.00000  -0.00272  -0.00271   1.90739
   A23        1.91023  -0.00447   0.00000  -0.01231  -0.01232   1.89791
   A24        1.91015  -0.00321   0.00000   0.00219   0.00217   1.91232
   A25        2.10312   0.00497   0.00000   0.00814   0.00814   2.11125
   A26        2.03503  -0.00788   0.00000  -0.01033  -0.01033   2.02470
   A27        2.14504   0.00291   0.00000   0.00219   0.00219   2.14723
   A28        2.09446  -0.00324   0.00000  -0.00576  -0.00576   2.08870
   A29        2.12749   0.00522   0.00000   0.00485   0.00485   2.13234
   A30        2.06124  -0.00198   0.00000   0.00091   0.00091   2.06215
   A31        1.91122  -0.00684   0.00000  -0.01053  -0.01052   1.90070
   A32        1.91113   0.00477   0.00000   0.00765   0.00763   1.91876
   A33        1.91111   0.00522   0.00000   0.00812   0.00810   1.91922
   A34        1.91008   0.00014   0.00000  -0.00088  -0.00086   1.90922
   A35        1.91014  -0.00007   0.00000  -0.00100  -0.00098   1.90916
   A36        1.91011  -0.00322   0.00000  -0.00336  -0.00341   1.90670
    D1       -0.00003  -0.00008   0.00000   0.05268   0.05268   0.05266
    D2        3.14149   0.00005   0.00000   0.07554   0.07556  -3.06613
    D3        2.10326  -0.00069   0.00000   0.05374   0.05370   2.15695
    D4       -1.03841  -0.00056   0.00000   0.07661   0.07657  -0.96184
    D5       -2.10327   0.00071   0.00000   0.05620   0.05623  -2.04704
    D6        1.03825   0.00083   0.00000   0.07907   0.07910   1.11736
    D7        0.00015  -0.00068   0.00000   0.05351   0.05353   0.05368
    D8        3.14155   0.00107   0.00000   0.11541   0.11540  -3.02623
    D9       -3.14152  -0.00055   0.00000   0.07698   0.07699  -3.06453
   D10       -0.00011   0.00120   0.00000   0.13888   0.13886   0.13874
   D11       -2.09432  -0.00834   0.00000  -0.00709  -0.00712  -2.10144
   D12        0.00012   0.00257   0.00000   0.01149   0.01152   0.01164
   D13        2.09447   0.00529   0.00000   0.00000   0.00000   2.09447
   D14        1.04709  -0.00662   0.00000   0.05368   0.05365   1.10074
   D15        3.14153   0.00428   0.00000   0.07227   0.07230  -3.06936
   D16       -1.04730   0.00701   0.00000   0.06077   0.06077  -0.98653
   D17        1.04724  -0.00230   0.00000  -0.03697  -0.03700   1.01024
   D18        3.14157  -0.00580   0.00000  -0.03968  -0.03972   3.10185
   D19       -1.04726  -0.00921   0.00000  -0.03087  -0.03090  -1.07816
   D20       -3.13259   0.00891   0.00000  -0.01824  -0.01823   3.13237
   D21       -1.03826   0.00541   0.00000  -0.02096  -0.02095  -1.05921
   D22        1.05609   0.00201   0.00000  -0.01215  -0.01212   1.04397
   D23       -1.08102   0.00452   0.00000  -0.01538  -0.01536  -1.09638
   D24        1.01331   0.00102   0.00000  -0.01809  -0.01809   0.99522
   D25        3.10766  -0.00239   0.00000  -0.00928  -0.00926   3.09840
   D26       -0.26182  -0.02845   0.00000  -0.00105  -0.00106  -0.26289
   D27        2.87976  -0.02827   0.00000   0.00000   0.00000   2.87976
   D28       -2.36514   0.00208   0.00000   0.00149   0.00147  -2.36367
   D29        0.77644   0.00225   0.00000   0.00254   0.00253   0.77898
   D30        1.86647   0.02646   0.00000  -0.00576  -0.00572   1.86075
   D31       -1.27514   0.02664   0.00000  -0.00471  -0.00466  -1.27979
   D32        0.00006  -0.00023   0.00000  -0.00287  -0.00288  -0.00282
   D33        3.14157  -0.00066   0.00000  -0.00469  -0.00469   3.13688
   D34       -3.14154  -0.00005   0.00000  -0.00180  -0.00180   3.13985
   D35       -0.00004  -0.00048   0.00000  -0.00361  -0.00360  -0.00364
   D36        0.00005   0.00024   0.00000   0.00109   0.00109   0.00114
   D37        2.09443  -0.00086   0.00000  -0.00176  -0.00178   2.09265
   D38       -2.09440   0.00132   0.00000   0.00379   0.00382  -2.09058
   D39        3.14155  -0.00018   0.00000  -0.00069  -0.00069   3.14086
   D40       -1.04725  -0.00128   0.00000  -0.00354  -0.00356  -1.05081
   D41        1.04711   0.00090   0.00000   0.00201   0.00204   1.04915
         Item               Value     Threshold  Converged?
 Maximum Force            0.124249     0.000450     NO 
 RMS     Force            0.021625     0.000300     NO 
 Maximum Displacement     0.349148     0.001800     NO 
 RMS     Displacement     0.085320     0.001200     NO 
 Predicted change in Energy=-9.337563D-03
 GradGradGradGradGradGradGradGradGradGradGradGradGradGradGradGradGradGrad

                          Input orientation:                          
 ---------------------------------------------------------------------
 Center     Atomic      Atomic             Coordinates (Angstroms)
 Number     Number       Type             X           Y           Z
 ---------------------------------------------------------------------
      1          1           0        1.526081    1.884319   -1.641344
      2          6           0        1.748083    2.607617   -0.856655
      3          1           0        1.592234    2.144361    0.119807
      4          1           0        1.080907    3.466253   -0.953428
      5          6           0        3.195209    3.087445   -0.967270
      6          8           0        3.920179    2.705774   -1.882256
      7          7           0        3.610332    3.916861    0.006304
      8          1           0        2.982625    4.138275    0.766042
      9          6           0        4.898764    4.580326   -0.006556
     10          1           0        5.475251    4.292006    0.876267
     11          6           0        5.699438    4.227882   -1.263042
     12          1           0        5.128615    4.503167   -2.151438
     13          1           0        6.643368    4.776004   -1.256864
     14          1           0        5.899023    3.158981   -1.293159
     15          6           0        4.704890    6.098805    0.009514
     16          8           0        3.612653    6.598893   -0.243917
     17          7           0        5.791400    6.828118    0.312694
     18          1           0        6.665195    6.363450    0.514331
     19          6           0        5.760066    8.277204    0.360550
     20          1           0        4.752582    8.616787    0.119742
     21          1           0        6.029680    8.622615    1.360657
     22          1           0        6.464527    8.689457   -0.364679
 ---------------------------------------------------------------------
                    Distance matrix (angstroms):
                    1          2          3          4          5
     1  H    0.000000
     2  C    1.090037   0.000000
     3  H    1.781474   1.091959   0.000000
     4  H    1.781550   1.091671   1.777832   0.000000
     5  C    2.165151   1.528609   2.154223   2.148014   0.000000
     6  O    2.542544   2.404057   3.121341   3.082615   1.228191
     7  N    3.345156   2.434500   2.688375   2.742649   1.344657
     8  H    3.605182   2.549539   2.515253   2.650419   2.038088
     9  C    4.616923   3.813272   4.108898   4.088247   2.460440
    10  H    5.266048   4.442068   4.501381   4.831140   3.169887
    11  C    4.801282   4.289943   4.808582   4.691137   2.767533
    12  H    4.482947   4.086266   4.819597   4.346764   2.672935
    13  H    5.890355   5.368974   5.859584   5.722630   3.850310
    14  H    4.568218   4.210088   4.644821   4.839843   2.724322
    15  C    5.531007   4.656323   5.033728   4.581576   3.507353
    16  O    5.341702   4.447735   4.904818   4.089813   3.609399
    17  N    6.815596   5.960572   6.293471   5.924014   4.729814
    18  H    7.149828   6.337497   6.609939   6.460057   4.996814
    19  C    7.924846   7.051369   7.418931   6.838590   5.939292
    20  H    7.670584   6.788998   7.202784   6.415676   5.846420
    21  H    8.642860   7.709004   7.949743   7.512218   6.640148
    22  H    8.504588   7.712047   8.173876   7.524085   6.514145
                    6          7          8          9         10
     6  O    0.000000
     7  N    2.264817   0.000000
     8  H    3.153498   1.010070   0.000000
     9  C    2.826628   1.449279   2.112796   0.000000
    10  H    3.541727   2.091768   2.499794   1.093088   0.000000
    11  C    2.421983   2.464211   3.392091   1.531030   2.151979
    12  H    2.182521   2.702737   3.640070   2.158542   3.054790
    13  H    3.477459   3.396031   4.230826   2.155273   2.479718
    14  H    2.113825   2.738813   3.701986   2.162427   2.483896
    15  C    3.963234   2.441095   2.717022   1.530889   2.146914
    16  O    4.234985   2.693679   2.733421   2.405210   3.169513
    17  N    5.031202   3.650527   3.915354   2.439526   2.617141
    18  H    5.163074   3.946654   4.309999   2.563421   2.416163
    19  C    6.281416   4.874365   5.000934   3.813595   4.028509
    20  H    6.296107   4.838069   4.858758   4.041081   4.449530
    21  H    7.069334   5.461834   5.454119   4.414559   4.392744
    22  H    6.676916   5.573305   5.840842   4.411895   4.675061
                   11         12         13         14         15
    11  C    0.000000
    12  H    1.091269   0.000000
    13  H    1.091549   1.780218   0.000000
    14  H    1.087792   1.771160   1.780486   0.000000
    15  C    2.471614   2.719432   2.666685   3.430084   0.000000
    16  O    3.318882   3.213851   3.678888   4.261618   1.227720
    17  N    3.041813   3.452046   2.720392   4.006609   1.343250
    18  H    2.941494   3.595560   2.378569   3.758013   2.041488
    19  C    4.363110   4.577354   3.956596   5.380546   2.445822
    20  H    4.697990   4.713971   4.496858   5.753110   2.520845
    21  H    5.128989   5.487857   4.693021   6.075451   3.154405
    22  H    4.614983   4.743647   4.017847   5.636314   3.154017
                   16         17         18         19         20
    16  O    0.000000
    17  N    2.260376   0.000000
    18  H    3.154107   1.009996   0.000000
    19  C    2.791683   1.450214   2.122583   0.000000
    20  H    2.345972   2.077429   2.981832   1.090106   0.000000
    21  H    3.537249   2.091703   2.494789   1.091885   1.780698
    22  H    3.538111   2.092013   2.494642   1.091868   1.780646
                   21         22
    21  H    0.000000
    22  H    1.780546   0.000000
 Stoichiometry    C6H12N2O2
 Framework group  C1[X(C6H12N2O2)]
 Deg. of freedom    60
 Full point group                 C1      NOp   1
 Largest Abelian subgroup         C1      NOp   1
 Largest concise Abelian subgroup C1      NOp   1
                         Standard orientation:                         
 ---------------------------------------------------------------------
 Center     Atomic      Atomic             Coordinates (Angstroms)
 Number     Number       Type             X           Y           Z
 ---------------------------------------------------------------------
      1          1           0        4.185725   -0.778658   -0.509242
      2          6           0        3.281565   -1.143904   -0.022139
      3          1           0        3.513609   -1.434999    1.004404
      4          1           0        2.903402   -2.014302   -0.561718
      5          6           0        2.205157   -0.058593   -0.012520
      6          8           0        2.395502    1.026179   -0.556112
      7          7           0        1.073200   -0.366109    0.644907
      8          1           0        1.008036   -1.251520    1.126615
      9          6           0       -0.104681    0.478286    0.643356
     10          1           0       -0.351166    0.775986    1.665835
     11          6           0        0.106149    1.734750   -0.205702
     12          1           0        0.362214    1.448901   -1.227263
     13          1           0       -0.812799    2.323744   -0.215744
     14          1           0        0.917529    2.332462    0.203804
     15          6           0       -1.294219   -0.285090    0.055241
     16          8           0       -1.127653   -1.323715   -0.577854
     17          7           0       -2.505663    0.251714    0.275615
     18          1           0       -2.584232    1.108208    0.805084
     19          6           0       -3.722808   -0.357003   -0.225529
     20          1           0       -3.464953   -1.265109   -0.770676
     21          1           0       -4.383098   -0.608978    0.606780
     22          1           0       -4.236800    0.334652   -0.896052
 ---------------------------------------------------------------------
 Rotational constants (GHZ):      3.1040576      0.7006514      0.6177314
 Standard basis: 6-31G(d) (6D, 7F)
 There are   174 symmetry adapted basis functions of A   symmetry.
 Integral buffers will be    131072 words long.
 Raffenetti 2 integral format.
 Two-electron integral symmetry is turned on.
   174 basis functions,   328 primitive gaussians,   174 cartesian basis functions
    39 alpha electrons       39 beta electrons
       nuclear repulsion energy       559.1832317080 Hartrees.
 NAtoms=   22 NActive=   22 NUniq=   22 SFac= 7.50D-01 NAtFMM=   80 NAOKFM=F Big=F
 One-electron integrals computed using PRISM.
 NBasis=   174 RedAO= T  NBF=   174
 NBsUse=   174 1.00D-06 NBFU=   174
 Initial guess read from the read-write file.
 B after Tr=     0.000000    0.000000    0.000000
         Rot=    1.000000    0.000000    0.000000    0.000000 Ang=   0.00 deg.
 Initial guess orbital symmetries:
       Occupied  (A) (A) (A) (A) (A) (A) (A) (A) (A) (A) (A) (A)
                 (A) (A) (A) (A) (A) (A) (A) (A) (A) (A) (A) (A)
                 (A) (A) (A) (A) (A) (A) (A) (A) (A) (A) (A) (A)
                 (A) (A) (A)
       Virtual   (A) (A) (A) (A) (A) (A) (A) (A) (A) (A) (A) (A)
                 (A) (A) (A) (A) (A) (A) (A) (A) (A) (A) (A) (A)
                 (A) (A) (A) (A) (A) (A) (A) (A) (A) (A) (A) (A)
                 (A) (A) (A) (A) (A) (A) (A) (A) (A) (A) (A) (A)
                 (A) (A) (A) (A) (A) (A) (A) (A) (A) (A) (A) (A)
                 (A) (A) (A) (A) (A) (A) (A) (A) (A) (A) (A) (A)
                 (A) (A) (A) (A) (A) (A) (A) (A) (A) (A) (A) (A)
                 (A) (A) (A) (A) (A) (A) (A) (A) (A) (A) (A) (A)
                 (A) (A) (A) (A) (A) (A) (A) (A) (A) (A) (A) (A)
                 (A) (A) (A) (A) (A) (A) (A) (A) (A) (A) (A) (A)
                 (A) (A) (A) (A) (A) (A) (A) (A) (A) (A) (A) (A)
                 (A) (A) (A)
 Harris functional with IExCor=  402 diagonalized for initial guess.
 ExpMin= 1.61D-01 ExpMax= 5.48D+03 ExpMxC= 8.25D+02 IAcc=1 IRadAn=         1 AccDes= 0.00D+00
 HarFok:  IExCor=  402 AccDes= 0.00D+00 IRadAn=         1 IDoV= 1
 ScaDFX=  1.000000  1.000000  1.000000  1.000000
 FoFCou: FMM=F IPFlag=           0 FMFlag=      100000 FMFlg1=           0
         NFxFlg=           0 DoJE=T BraDBF=F KetDBF=T FulRan=T
         Omega=  0.000000  0.000000  1.000000  0.000000  0.000000 ICntrl=     500 IOpCl=  0
         NMat0=    1 NMatS0=    1 NMatT0=    0 NMatD0=    1 NMtDS0=    0 NMtDT0=    0
         I1Cent=           4 NGrid=           0.
 Petite list used in FoFCou.
 Requested convergence on RMS density matrix=1.00D-08 within 128 cycles.
 Requested convergence on MAX density matrix=1.00D-06.
 Requested convergence on             energy=1.00D-06.
 No special actions if energy rises.
 Integral accuracy reduced to 1.0D-05 until final iterations.
 Initial convergence to 1.0D-05 achieved.  Increase integral accuracy.
 SCF Done:  E(RB3LYP) =  -495.825486877     A.U. after   13 cycles
             Convg  =    0.4549D-08             -V/T =  2.0087
 Calling FoFJK, ICntrl=      2127 FMM=F ISym2X=0 I1Cent= 0 IOpClX= 0 NMat=1 NMatS=1 NMatT=0.
 ***** Axes restored to original set *****
 -------------------------------------------------------------------
 Center     Atomic                   Forces (Hartrees/Bohr)
 Number     Number              X              Y              Z
 -------------------------------------------------------------------
      1        1           0.002774746    0.000472299   -0.000439860
      2        6           0.004837993    0.005120623    0.003612754
      3        1          -0.003979578   -0.001129715    0.002646298
      4        1          -0.004258621    0.000865529    0.001035390
      5        6          -0.009918981   -0.023387259   -0.019037984
      6        8          -0.021192070   -0.011802046   -0.003946249
      7        7           0.008650175    0.006261181    0.013906803
      8        1          -0.001745403    0.003946962   -0.002825737
      9        6           0.003018919    0.002419751   -0.004690270
     10        1           0.002041632   -0.002225672    0.004904479
     11        6           0.013403355    0.002809414   -0.000264043
     12        1           0.006464392    0.000390530    0.000470696
     13        1           0.003724755    0.003480266    0.002089112
     14        1           0.004543252    0.003901529   -0.002775081
     15        6          -0.023325946   -0.002270853    0.000253957
     16        8          -0.001002999    0.001161597    0.000220335
     17        7           0.010733907    0.006598277    0.004228380
     18        1          -0.000056181   -0.000587172   -0.000107648
     19        6           0.003497603   -0.000074785    0.000065870
     20        1          -0.000197394   -0.002449231   -0.000172444
     21        1           0.000648037    0.003103901    0.002112399
     22        1           0.001338407    0.003394874   -0.001287160
 -------------------------------------------------------------------
 Cartesian Forces:  Max     0.023387259 RMS     0.006975081

 GradGradGradGradGradGradGradGradGradGradGradGradGradGradGradGradGradGrad
 Berny optimization.
 Using GEDIIS/GDIIS optimizer.
 Internal  Forces:  Max     0.086170428 RMS     0.015180785
 Search for a local minimum.
 Step number   2 out of a maximum of  132
 All quantities printed in internal units (Hartrees-Bohrs-Radians)
 Mixed Optimization -- RFO/linear search
 Update second derivatives using D2CorX and points    1    2
 DE= -9.19D-03 DEPred=-9.34D-03 R= 9.84D-01
 SS=  1.41D+00  RLast= 3.00D-01 DXNew= 5.0454D-01 8.9999D-01
 Trust test= 9.84D-01 RLast= 3.00D-01 DXMaxT set to 5.05D-01
 Use linear search instead of GDIIS.
 Linear search step of   0.594 exceeds DXMaxT=   0.505 but not scaled.
 Quartic linear search produced a step of  2.00000.
 Iteration  1 RMS(Cart)=  0.14973454 RMS(Int)=  0.01588706
 Iteration  2 RMS(Cart)=  0.02968879 RMS(Int)=  0.00067474
 Iteration  3 RMS(Cart)=  0.00061007 RMS(Int)=  0.00054761
 Iteration  4 RMS(Cart)=  0.00000037 RMS(Int)=  0.00054761
 Iteration  1 RMS(Cart)=  0.00003996 RMS(Int)=  0.00001172
 Iteration  2 RMS(Cart)=  0.00002152 RMS(Int)=  0.00001308
 Iteration  3 RMS(Cart)=  0.00001168 RMS(Int)=  0.00001476
 Iteration  4 RMS(Cart)=  0.00000640 RMS(Int)=  0.00001587
 Iteration  5 RMS(Cart)=  0.00000355 RMS(Int)=  0.00001653
 Iteration  6 RMS(Cart)=  0.00000200 RMS(Int)=  0.00001691
 Iteration  7 RMS(Cart)=  0.00000115 RMS(Int)=  0.00001713
 Iteration  8 RMS(Cart)=  0.00000068 RMS(Int)=  0.00001726
 Variable       Old X    -DE/DX   Delta X   Delta X   Delta X     New X
                                 (Linear)    (Quad)   (Total)
    R1        2.05987  -0.00056   0.00006   0.00000   0.00006   2.05993
    R2        2.06350   0.00341   0.00757   0.00000   0.00757   2.07107
    R3        2.06296   0.00319   0.00652   0.00000   0.00652   2.06948
    R4        2.88865  -0.00058  -0.00562   0.00000  -0.00562   2.88303
    R5        2.32095  -0.00590  -0.00317   0.00000  -0.00317   2.31778
    R6        2.54103   0.03989   0.03653   0.00000   0.03653   2.57757
    R7        1.90876  -0.00017   0.00024   0.00000   0.00024   1.90900
    R8        2.73874   0.03103   0.00114   0.00000   0.00114   2.73988
    R9        2.06564   0.00563   0.01178   0.00000   0.01178   2.07742
   R10        2.89323   0.01267   0.02269   0.00000   0.02269   2.91591
   R11        2.89296   0.00992   0.03357   0.00000   0.03357   2.92653
   R12        2.06220  -0.00367   0.00496   0.00000   0.00496   2.06716
   R13        2.06273   0.00498   0.00577   0.00000   0.00577   2.06850
   R14        2.05563  -0.00292  -0.00806   0.00000  -0.00806   2.04757
   R15        2.32005   0.00132  -0.00482   0.00000  -0.00482   2.31524
   R16        2.53837   0.01943   0.03108   0.00000   0.03108   2.56946
   R17        1.90862   0.00020   0.00028   0.00000   0.00028   1.90889
   R18        2.74051   0.00388   0.00451   0.00000   0.00451   2.74502
   R19        2.06000  -0.00054   0.00038   0.00000   0.00038   2.06038
   R20        2.06336   0.00307   0.00710   0.00000   0.00710   2.07046
   R21        2.06333   0.00300   0.00699   0.00000   0.00699   2.07033
    A1        1.91045  -0.00013  -0.00143   0.00000  -0.00121   1.90924
    A2        1.91094   0.00017  -0.00032   0.00000  -0.00026   1.91068
    A3        1.92731  -0.00572  -0.02333   0.00000  -0.02318   1.90412
    A4        1.90257  -0.00373  -0.01538   0.00000  -0.01571   1.88686
    A5        1.91027   0.00507   0.02853   0.00000   0.02847   1.93875
    A6        1.90209   0.00436   0.01206   0.00000   0.01192   1.91401
    A7        2.11200  -0.01380   0.01786   0.00000   0.01736   2.12936
    A8        2.01916  -0.02770  -0.03177   0.00000  -0.03226   1.98690
    A9        2.15178   0.04149   0.01343   0.00000   0.01294   2.16472
   A10        2.08053  -0.04288  -0.02760   0.00000  -0.03058   2.04995
   A11        2.15365   0.08617   0.05224   0.00000   0.04928   2.20293
   A12        2.04744  -0.04328  -0.02776   0.00000  -0.03074   2.01670
   A13        1.91872  -0.01173   0.01516   0.00000   0.01464   1.93336
   A14        1.94639   0.04791   0.01468   0.00000   0.01396   1.96035
   A15        1.91920  -0.02119  -0.03960   0.00000  -0.03948   1.87972
   A16        1.90317  -0.01263   0.01415   0.00000   0.01376   1.91693
   A17        1.89646   0.00829   0.00077   0.00000   0.00094   1.89740
   A18        1.87882  -0.01131  -0.00510   0.00000  -0.00506   1.87376
   A19        1.91398   0.00647   0.00567   0.00000   0.00566   1.91964
   A20        1.90922  -0.00686  -0.00369   0.00000  -0.00377   1.90545
   A21        1.92290   0.00766   0.02361   0.00000   0.02352   1.94642
   A22        1.90739  -0.00180  -0.00543   0.00000  -0.00541   1.90198
   A23        1.89791  -0.00334  -0.02464   0.00000  -0.02466   1.87325
   A24        1.91232  -0.00214   0.00434   0.00000   0.00418   1.91650
   A25        2.11125   0.00369   0.01627   0.00000   0.01627   2.12753
   A26        2.02470  -0.00574  -0.02066   0.00000  -0.02066   2.00404
   A27        2.14723   0.00206   0.00438   0.00000   0.00438   2.15161
   A28        2.08870  -0.00240  -0.01152   0.00000  -0.01152   2.07717
   A29        2.13234   0.00372   0.00970   0.00000   0.00970   2.14204
   A30        2.06215  -0.00133   0.00182   0.00000   0.00181   2.06396
   A31        1.90070  -0.00495  -0.02103   0.00000  -0.02093   1.87977
   A32        1.91876   0.00347   0.01526   0.00000   0.01516   1.93392
   A33        1.91922   0.00380   0.01621   0.00000   0.01611   1.93532
   A34        1.90922   0.00007  -0.00173   0.00000  -0.00163   1.90759
   A35        1.90916  -0.00007  -0.00196   0.00000  -0.00185   1.90731
   A36        1.90670  -0.00234  -0.00682   0.00000  -0.00710   1.89960
    D1        0.05266   0.00019   0.10537   0.00000   0.10541   0.15807
    D2       -3.06613  -0.00006   0.15112   0.00000   0.15121  -2.91493
    D3        2.15695  -0.00032   0.10739   0.00000   0.10715   2.26410
    D4       -0.96184  -0.00058   0.15314   0.00000   0.15294  -0.80890
    D5       -2.04704   0.00075   0.11245   0.00000   0.11259  -1.93445
    D6        1.11736   0.00049   0.15820   0.00000   0.15838   1.27574
    D7        0.05368  -0.00003   0.10707   0.00000   0.10725   0.16093
    D8       -3.02623   0.00147   0.23080   0.00000   0.23072  -2.79551
    D9       -3.06453   0.00054   0.15398   0.00000   0.15406  -2.91046
   D10        0.13874   0.00204   0.27771   0.00000   0.27753   0.41628
   D11       -2.10144  -0.00525  -0.01424   0.00000  -0.01440  -2.11584
   D12        0.01164   0.00252   0.02305   0.00000   0.02324   0.03489
   D13        2.09447   0.00505   0.00000   0.00000   0.00000   2.09447
   D14        1.10074  -0.00367   0.10731   0.00000   0.10708   1.20782
   D15       -3.06936   0.00409   0.14460   0.00000   0.14472  -2.92464
   D16       -0.98653   0.00662   0.12155   0.00000   0.12148  -0.86505
   D17        1.01024  -0.00170  -0.07399   0.00000  -0.07415   0.93609
   D18        3.10185  -0.00417  -0.07944   0.00000  -0.07965   3.02220
   D19       -1.07816  -0.00638  -0.06179   0.00000  -0.06192  -1.14008
   D20        3.13237   0.00608  -0.03645   0.00000  -0.03636   3.09601
   D21       -1.05921   0.00361  -0.04190   0.00000  -0.04186  -1.10107
   D22        1.04397   0.00140  -0.02425   0.00000  -0.02413   1.01983
   D23       -1.09638   0.00281  -0.03073   0.00000  -0.03063  -1.12702
   D24        0.99522   0.00033  -0.03617   0.00000  -0.03614   0.95908
   D25        3.09840  -0.00187  -0.01852   0.00000  -0.01841   3.07999
   D26       -0.26289  -0.02021  -0.00212   0.00000  -0.00219  -0.26508
   D27        2.87976  -0.02019   0.00000   0.00000   0.00000   2.87976
   D28       -2.36367   0.00181   0.00295   0.00000   0.00283  -2.36084
   D29        0.77898   0.00183   0.00507   0.00000   0.00502   0.78400
   D30        1.86075   0.01855  -0.01143   0.00000  -0.01119   1.84956
   D31       -1.27979   0.01857  -0.00931   0.00000  -0.00900  -1.28879
   D32       -0.00282  -0.00017  -0.00576   0.00000  -0.00580  -0.00862
   D33        3.13688  -0.00051  -0.00938   0.00000  -0.00939   3.12749
   D34        3.13985  -0.00015  -0.00359   0.00000  -0.00358   3.13627
   D35       -0.00364  -0.00050  -0.00721   0.00000  -0.00717  -0.01081
   D36        0.00114   0.00020   0.00218   0.00000   0.00218   0.00332
   D37        2.09265  -0.00066  -0.00356   0.00000  -0.00371   2.08894
   D38       -2.09058   0.00104   0.00764   0.00000   0.00781  -2.08277
   D39        3.14086  -0.00014  -0.00138   0.00000  -0.00140   3.13947
   D40       -1.05081  -0.00100  -0.00713   0.00000  -0.00729  -1.05810
   D41        1.04915   0.00070   0.00408   0.00000   0.00423   1.05338
         Item               Value     Threshold  Converged?
 Maximum Force            0.086160     0.000450     NO 
 RMS     Force            0.014988     0.000300     NO 
 Maximum Displacement     0.811813     0.001800     NO 
 RMS     Displacement     0.168925     0.001200     NO 
 Predicted change in Energy=-1.066447D-02
 GradGradGradGradGradGradGradGradGradGradGradGradGradGradGradGradGradGrad

                          Input orientation:                          
 ---------------------------------------------------------------------
 Center     Atomic      Atomic             Coordinates (Angstroms)
 Number     Number       Type             X           Y           Z
 ---------------------------------------------------------------------
      1          1           0        1.445336    1.912831   -1.487340
      2          6           0        1.718560    2.761895   -0.860692
      3          1           0        1.393127    2.573954    0.168826
      4          1           0        1.207081    3.660853   -1.220629
      5          6           0        3.228631    2.967925   -0.929939
      6          8           0        3.932010    2.357645   -1.728160
      7          7           0        3.713676    3.815399    0.022421
      8          1           0        3.080048    4.106004    0.753562
      9          6           0        4.983012    4.514816   -0.019483
     10          1           0        5.604068    4.247892    0.847440
     11          6           0        5.760045    4.241222   -1.324213
     12          1           0        5.127898    4.462102   -2.189202
     13          1           0        6.645365    4.884098   -1.356946
     14          1           0        6.057865    3.202120   -1.399052
     15          6           0        4.685542    6.033783    0.031266
     16          8           0        3.564525    6.481309   -0.178698
     17          7           0        5.759208    6.816374    0.320348
     18          1           0        6.654077    6.378360    0.486912
     19          6           0        5.678115    8.264815    0.394478
     20          1           0        4.646621    8.550215    0.186317
     21          1           0        5.957568    8.619660    1.392686
     22          1           0        6.338722    8.731327   -0.344601
 ---------------------------------------------------------------------
                    Distance matrix (angstroms):
                    1          2          3          4          5
     1  H    0.000000
     2  C    1.090069   0.000000
     3  H    1.784011   1.095963   0.000000
     4  H    1.784231   1.095121   1.773851   0.000000
     5  C    2.145707   1.525633   2.175217   2.156690   0.000000
     6  O    2.537597   2.411489   3.176676   3.062871   1.226516
     7  N    3.323328   2.422859   2.635824   2.802156   1.363990
     8  H    3.536090   2.503217   2.352615   2.757462   2.037517
     9  C    4.630344   3.799607   4.085301   4.053352   2.509912
    10  H    5.310251   4.497007   4.581988   4.894387   3.231113
    11  C    4.905582   4.328610   4.907028   4.590974   2.860908
    12  H    4.533504   4.034753   4.803531   4.117395   2.724982
    13  H    5.990470   5.387339   5.937234   5.575827   3.940574
    14  H    4.790144   4.394678   4.961110   4.875692   2.877409
    15  C    5.457778   4.505975   4.778005   4.392918   3.527887
    16  O    5.203316   4.207938   4.483655   3.820751   3.608469
    17  N    6.776574   5.844697   6.089642   5.749242   4.772588
    18  H    7.139300   6.265316   6.500175   6.322208   5.037084
    19  C    7.861638   6.894610   7.127267   6.617792   5.984237
    20  H    7.556733   6.570723   6.804500   6.141318   5.866743
    21  H    8.581162   7.573659   7.673494   7.347538   6.692069
    22  H    8.470121   7.566132   7.914275   7.267108   6.575111
                    6          7          8          9         10
     6  O    0.000000
     7  N    2.288504   0.000000
     8  H    3.153021   1.010199   0.000000
     9  C    2.945772   1.449881   2.094277   0.000000
    10  H    3.605902   2.107437   2.529748   1.099324   0.000000
    11  C    2.655701   2.486438   3.393791   1.543034   2.177257
    12  H    2.464031   2.703614   3.602826   2.175190   3.081204
    13  H    3.725998   3.411682   4.215585   2.165316   2.519598
    14  H    2.310998   2.809256   3.783933   2.186708   2.519186
    15  C    4.144560   2.421947   2.610680   1.548652   2.167772
[...]
    14  H    4.887460   4.466428   5.021713   4.942843   2.943239
    15  C    5.469924   4.493478   4.700181   4.413491   3.556478
    16  O    5.202264   4.171618   4.345737   3.833643   3.627416
    17  N    6.796078   5.838009   6.019170   5.769751   4.808510
    18  H    7.157329   6.265074   6.463617   6.338217   5.067078
    19  C    7.875447   6.877281   7.031322   6.630219   6.016251
    20  H    7.573444   6.546053   6.665297   6.162075   5.904382
    21  H    8.648651   7.624764   7.658461   7.444918   6.771447
    22  H    8.421988   7.478849   7.761016   7.178083   6.550892
                    6          7          8          9         10
     6  O    0.000000
     7  N    2.309662   0.000000
     8  H    3.134510   1.014930   0.000000
     9  C    3.009688   1.461802   2.047891   0.000000
    10  H    3.686120   2.088044   2.592322   1.101305   0.000000
    11  C    2.812872   2.540730   3.346991   1.539511   2.149263
    12  H    2.697932   2.850749   3.558786   2.187390   3.071075
    13  H    3.887881   3.456598   4.159434   2.163473   2.445146
    14  H    2.437803   2.812481   3.776137   2.182076   2.515554
    15  C    4.196984   2.426303   2.383635   1.551198   2.151373
    16  O    4.463274   2.669010   2.221194   2.433656   3.150984
    17  N    5.304641   3.652360   3.671140   2.455607   2.629304
    18  H    5.395069   3.938306   4.166002   2.548970   2.441943
    19  C    6.576339   4.887663   4.707552   3.841048   4.042748
    20  H    6.598525   4.828379   4.453362   4.060823   4.418725
    21  H    7.373590   5.540051   5.319180   4.479634   4.433419
    22  H    6.963722   5.550403   5.478440   4.421574   4.720186
                   11         12         13         14         15
    11  C    0.000000
    12  H    1.092524   0.000000
    13  H    1.096021   1.775703   0.000000
    14  H    1.088955   1.761850   1.779261   0.000000
    15  C    2.537516   2.789779   2.763755   3.494051   0.000000
    16  O    3.448864   3.406081   3.844160   4.367394   1.226880
    17  N    3.057826   3.436702   2.757832   4.045449   1.361669
    18  H    2.854565   3.451739   2.271249   3.722089   2.046601
    19  C    4.393378   4.578454   4.011844   5.426683   2.472978
    20  H    4.789805   4.827870   4.629547   5.841204   2.527030
    21  H    5.138777   5.479173   4.673713   6.104639   3.232870
    22  H    4.628258   4.666334   4.102006   5.678325   3.148182
                   16         17         18         19         20
    16  O    0.000000
    17  N    2.278766   0.000000
    18  H    3.161792   1.010096   0.000000
    19  C    2.832077   1.453339   2.127667   0.000000
    20  H    2.374603   2.061887   2.970934   1.090519   0.000000
    21  H    3.641302   2.106408   2.499093   1.095542   1.782777
    22  H    3.518152   2.117972   2.546951   1.096849   1.780570
                   21         22
    21  H    0.000000
    22  H    1.783512   0.000000
 Stoichiometry    C6H12N2O2
 Framework group  C1[X(C6H12N2O2)]
 Deg. of freedom    60
 Full point group                 C1      NOp   1
 Largest Abelian subgroup         C1      NOp   1
 Largest concise Abelian subgroup C1      NOp   1
                         Standard orientation:                         
 ---------------------------------------------------------------------
 Center     Atomic      Atomic             Coordinates (Angstroms)
 Number     Number       Type             X           Y           Z
 ---------------------------------------------------------------------
      1          1           0        4.119910   -1.087425   -0.317745
      2          6           0        3.086416   -1.344671   -0.081860
      3          1           0        3.055812   -1.924871    0.846925
      4          1           0        2.686429   -1.975015   -0.885519
      5          6           0        2.272584   -0.057842    0.017871
      6          8           0        2.689664    1.005203   -0.418495
      7          7           0        1.070465   -0.226423    0.675045
      8          1           0        0.805643   -1.201915    0.766514
      9          6           0       -0.121433    0.614902    0.583314
     10          1           0       -0.394188    0.939666    1.599682
     11          6           0        0.017338    1.874007   -0.291610
     12          1           0        0.224937    1.613042   -1.331998
     13          1           0       -0.919328    2.442068   -0.256593
     14          1           0        0.830319    2.507456    0.059997
     15          6           0       -1.276677   -0.279829    0.062656
     16          8           0       -1.072475   -1.396235   -0.403365
     17          7           0       -2.521967    0.248526    0.218334
     18          1           0       -2.606471    1.182095    0.594634
     19          6           0       -3.727091   -0.423419   -0.238134
     20          1           0       -3.442248   -1.428428   -0.551268
     21          1           0       -4.462266   -0.491507    0.571244
     22          1           0       -4.182364    0.099482   -1.088063
 ---------------------------------------------------------------------
 Rotational constants (GHZ):      2.8519942      0.6999620      0.5982043

 **********************************************************************

            Population analysis using the SCF density.

 **********************************************************************

 Orbital symmetries:
       Occupied  (A) (A) (A) (A) (A) (A) (A) (A) (A) (A) (A) (A)
                 (A) (A) (A) (A) (A) (A) (A) (A) (A) (A) (A) (A)
                 (A) (A) (A) (A) (A) (A) (A) (A) (A) (A) (A) (A)
                 (A) (A) (A)
       Virtual   (A) (A) (A) (A) (A) (A) (A) (A) (A) (A) (A) (A)
                 (A) (A) (A) (A) (A) (A) (A) (A) (A) (A) (A) (A)
                 (A) (A) (A) (A) (A) (A) (A) (A) (A) (A) (A) (A)
                 (A) (A) (A) (A) (A) (A) (A) (A) (A) (A) (A) (A)
                 (A) (A) (A) (A) (A) (A) (A) (A) (A) (A) (A) (A)
                 (A) (A) (A) (A) (A) (A) (A) (A) (A) (A) (A) (A)
                 (A) (A) (A) (A) (A) (A) (A) (A) (A) (A) (A) (A)
                 (A) (A) (A) (A) (A) (A) (A) (A) (A) (A) (A) (A)
                 (A) (A) (A) (A) (A) (A) (A) (A) (A) (A) (A) (A)
                 (A) (A) (A) (A) (A) (A) (A) (A) (A) (A) (A) (A)
                 (A) (A) (A) (A) (A) (A) (A) (A) (A) (A) (A) (A)
                 (A) (A) (A)
 The electronic state is 1-A.
 Alpha  occ. eigenvalues --  -19.12411 -19.10219 -14.37387 -14.34800 -10.29473
 Alpha  occ. eigenvalues --  -10.28064 -10.24242 -10.22694 -10.18471 -10.18151
 Alpha  occ. eigenvalues --   -1.04403  -1.01975  -0.93163  -0.91438  -0.78125
 Alpha  occ. eigenvalues --   -0.72479  -0.70979  -0.65034  -0.59682  -0.54984
 Alpha  occ. eigenvalues --   -0.53709  -0.49706  -0.47452  -0.45982  -0.44854
 Alpha  occ. eigenvalues --   -0.44025  -0.42746  -0.40855  -0.40355  -0.39976
 Alpha  occ. eigenvalues --   -0.38763  -0.38138  -0.36932  -0.36439  -0.34670
 Alpha  occ. eigenvalues --   -0.26473  -0.26326  -0.24952  -0.23494
 Alpha virt. eigenvalues --    0.01771   0.03374   0.06044   0.10046   0.11317
 Alpha virt. eigenvalues --    0.13633   0.14380   0.14620   0.15221   0.15951
 Alpha virt. eigenvalues --    0.16456   0.17279   0.18354   0.18893   0.19014
 Alpha virt. eigenvalues --    0.20306   0.23444   0.24878   0.28327   0.33759
 Alpha virt. eigenvalues --    0.34062   0.38817   0.40398   0.49668   0.51112
 Alpha virt. eigenvalues --    0.52368   0.53043   0.54129   0.55234   0.56413
 Alpha virt. eigenvalues --    0.57205   0.59161   0.60980   0.63687   0.66890
 Alpha virt. eigenvalues --    0.68180   0.69432   0.71894   0.72664   0.73553
 Alpha virt. eigenvalues --    0.73731   0.76611   0.78151   0.79958   0.83729
 Alpha virt. eigenvalues --    0.85065   0.86015   0.86189   0.87367   0.88319
 Alpha virt. eigenvalues --    0.88743   0.90617   0.91720   0.92555   0.93520
 Alpha virt. eigenvalues --    0.94138   0.95156   0.96315   0.97148   1.00077
 Alpha virt. eigenvalues --    1.05382   1.07439   1.08651   1.13108   1.14863
 Alpha virt. eigenvalues --    1.19412   1.21321   1.25615   1.32212   1.35017
 Alpha virt. eigenvalues --    1.37419   1.39350   1.41436   1.44913   1.49036
 Alpha virt. eigenvalues --    1.51662   1.54556   1.62020   1.67581   1.68070
 Alpha virt. eigenvalues --    1.73365   1.74485   1.75599   1.78319   1.81020
 Alpha virt. eigenvalues --    1.82552   1.85036   1.85252   1.86891   1.90134
 Alpha virt. eigenvalues --    1.92104   1.95096   1.96444   1.98901   2.00900
 Alpha virt. eigenvalues --    2.05030   2.06427   2.09167   2.10104   2.18251
 Alpha virt. eigenvalues --    2.21473   2.23797   2.25994   2.28709   2.29391
 Alpha virt. eigenvalues --    2.30347   2.31224   2.34596   2.36998   2.41220
 Alpha virt. eigenvalues --    2.45272   2.45402   2.51894   2.56585   2.57446
 Alpha virt. eigenvalues --    2.65327   2.68040   2.70620   2.77704   2.86709
 Alpha virt. eigenvalues --    2.92180   2.96939   3.00525   3.10481   3.17467
 Alpha virt. eigenvalues --    3.90842   3.99044   4.04887   4.09485   4.20070
 Alpha virt. eigenvalues --    4.23360   4.26709   4.41471   4.47893   4.62495
          Condensed to atoms (all electrons):
              1          2          3          4          5          6
     1  H    0.516919   0.356073  -0.023322  -0.020835  -0.020654   0.005127
     2  C    0.356073   5.345727   0.348425   0.355687   0.342947  -0.078596
     3  H   -0.023322   0.348425   0.557929  -0.027138  -0.025210   0.001933
     4  H   -0.020835   0.355687  -0.027138   0.528876  -0.020090   0.000560
     5  C   -0.020654   0.342947  -0.025210  -0.020090   4.319449   0.596745
     6  O    0.005127  -0.078596   0.001933   0.000560   0.596745   8.058812
     7  N    0.004753  -0.127820   0.005944   0.000444   0.261613  -0.087574
     8  H   -0.000042   0.000034   0.000553   0.000881  -0.016394   0.003249
     9  C   -0.000171   0.005026   0.000380  -0.000212  -0.026954  -0.005410
    10  H    0.000007  -0.000253  -0.000001  -0.000001  -0.000045  -0.000118
    11  C    0.000003   0.000324  -0.000011  -0.000009   0.000281  -0.001685
    12  H    0.000007  -0.000169   0.000002  -0.000004   0.002217  -0.000452
    13  H    0.000000   0.000013   0.000000  -0.000001   0.000501   0.000913
    14  H   -0.000002   0.000195  -0.000009  -0.000001   0.001243   0.008906
    15  C    0.000000  -0.000056  -0.000058   0.000072   0.001772   0.000046
    16  O    0.000000  -0.000440   0.000002   0.000283   0.001626  -0.000002
    17  N    0.000000   0.000001   0.000000   0.000000  -0.000023  -0.000001
    18  H    0.000000   0.000000   0.000000   0.000000   0.000001   0.000000
    19  C    0.000000   0.000000   0.000000   0.000000   0.000000   0.000000
    20  H    0.000000   0.000000   0.000000   0.000000   0.000000   0.000000
    21  H    0.000000   0.000000   0.000000   0.000000   0.000000   0.000000
    22  H    0.000000   0.000000   0.000000   0.000000   0.000000   0.000000
              7          8          9         10         11         12
     1  H    0.004753  -0.000042  -0.000171   0.000007   0.000003   0.000007
     2  C   -0.127820   0.000034   0.005026  -0.000253   0.000324  -0.000169
     3  H    0.005944   0.000553   0.000380  -0.000001  -0.000011   0.000002
     4  H    0.000444   0.000881  -0.000212  -0.000001  -0.000009  -0.000004
     5  C    0.261613  -0.016394  -0.026954  -0.000045   0.000281   0.002217
     6  O   -0.087574   0.003249  -0.005410  -0.000118  -0.001685  -0.000452
     7  N    7.107133   0.289649   0.278837  -0.047820  -0.040988  -0.002423
     8  H    0.289649   0.407468  -0.058877   0.002007   0.005223   0.000000
     9  C    0.278837  -0.058877   5.066562   0.368522   0.360356  -0.030839
    10  H   -0.047820   0.002007   0.368522   0.618391  -0.044370   0.005406
    11  C   -0.040988   0.005223   0.360356  -0.044370   5.097265   0.379822
    12  H   -0.002423   0.000000  -0.030839   0.005406   0.379822   0.532425
    13  H    0.004028  -0.000104  -0.032967  -0.003160   0.342666  -0.031358
    14  H   -0.004870  -0.000117  -0.021064  -0.004994   0.371569  -0.026077
    15  C   -0.036627   0.000989   0.311077  -0.052243  -0.029996  -0.004385
    16  O   -0.016468   0.028447  -0.081915   0.001529  -0.000783   0.000993
    17  N    0.003566   0.001430  -0.113578   0.004918  -0.001211   0.000228
    18  H    0.000202  -0.000064   0.002004   0.001672   0.000423  -0.000094
    19  C   -0.000093  -0.000017   0.005376  -0.000259  -0.000098  -0.000024
    20  H    0.000004  -0.000032   0.001052  -0.000052  -0.000038  -0.000006
    21  H    0.000002   0.000001  -0.000135   0.000015  -0.000006   0.000000
    22  H    0.000000   0.000000  -0.000043  -0.000006   0.000022  -0.000002
             13         14         15         16         17         18
     1  H    0.000000  -0.000002   0.000000   0.000000   0.000000   0.000000
     2  C    0.000013   0.000195  -0.000056  -0.000440   0.000001   0.000000
     3  H    0.000000  -0.000009  -0.000058   0.000002   0.000000   0.000000
     4  H   -0.000001  -0.000001   0.000072   0.000283   0.000000   0.000000
     5  C    0.000501   0.001243   0.001772   0.001626  -0.000023   0.000001
     6  O    0.000913   0.008906   0.000046  -0.000002  -0.000001   0.000000
     7  N    0.004028  -0.004870  -0.036627  -0.016468   0.003566   0.000202
     8  H   -0.000104  -0.000117   0.000989   0.028447   0.001430  -0.000064
     9  C   -0.032967  -0.021064   0.311077  -0.081915  -0.113578   0.002004
    10  H   -0.003160  -0.004994  -0.052243   0.001529   0.004918   0.001672
    11  C    0.342666   0.371569  -0.029996  -0.000783  -0.001211   0.000423
    12  H   -0.031358  -0.026077  -0.004385   0.000993   0.000228  -0.000094
    13  H    0.623089  -0.025543  -0.006799  -0.000037   0.003822   0.004629
    14  H   -0.025543   0.500532   0.003449  -0.000063   0.000059  -0.000117
    15  C   -0.006799   0.003449   4.426358   0.589019   0.259177  -0.023827
    16  O   -0.000037  -0.000063   0.589019   8.079339  -0.096815   0.003364
    17  N    0.003822   0.000059   0.259177  -0.096815   7.073146   0.305115
    18  H    0.004629  -0.000117  -0.023827   0.003364   0.305115   0.407196
    19  C   -0.000128   0.000005  -0.022422  -0.007868   0.268646  -0.032519
    20  H   -0.000003   0.000001  -0.001252   0.020134  -0.039690   0.004037
    21  H    0.000005   0.000000   0.001677   0.000434  -0.039831  -0.001246
    22  H    0.000001  -0.000001   0.000563   0.000472  -0.042687  -0.000405
             19         20         21         22
     1  H    0.000000   0.000000   0.000000   0.000000
     2  C    0.000000   0.000000   0.000000   0.000000
     3  H    0.000000   0.000000   0.000000   0.000000
     4  H    0.000000   0.000000   0.000000   0.000000
     5  C    0.000000   0.000000   0.000000   0.000000
     6  O    0.000000   0.000000   0.000000   0.000000
     7  N   -0.000093   0.000004   0.000002   0.000000
     8  H   -0.000017  -0.000032   0.000001   0.000000
     9  C    0.005376   0.001052  -0.000135  -0.000043
    10  H   -0.000259  -0.000052   0.000015  -0.000006
    11  C   -0.000098  -0.000038  -0.000006   0.000022
    12  H   -0.000024  -0.000006   0.000000  -0.000002
    13  H   -0.000128  -0.000003   0.000005   0.000001
    14  H    0.000005   0.000001   0.000000  -0.000001
    15  C   -0.022422  -0.001252   0.001677   0.000563
    16  O   -0.007868   0.020134   0.000434   0.000472
    17  N    0.268646  -0.039690  -0.039831  -0.042687
    18  H   -0.032519   0.004037  -0.001246  -0.000405
    19  C    4.960266   0.377695   0.379811   0.383199
    20  H    0.377695   0.480785  -0.023039  -0.026070
    21  H    0.379811  -0.023039   0.562415  -0.039974
    22  H    0.383199  -0.026070  -0.039974   0.562254
 Mulliken atomic charges:
              1
     1  H    0.182139
     2  C   -0.547119
     3  H    0.160580
     4  H    0.181487
     5  C    0.580976
     6  O   -0.502453
     7  N   -0.591491
     8  H    0.335718
     9  C   -0.027027
    10  H    0.150852
    11  C   -0.438760
    12  H    0.174734
    13  H    0.120435
    14  H    0.196900
    15  C    0.583467
    16  O   -0.521250
    17  N   -0.586271
    18  H    0.329629
    19  C   -0.311569
    20  H    0.206475
    21  H    0.159870
    22  H    0.162678
 Sum of Mulliken atomic charges =   0.00000
 Mulliken charges with hydrogens summed into heavy atoms:
              1
     2  C   -0.022913
     5  C    0.580976
     6  O   -0.502453
     7  N   -0.255773
     9  C    0.123826
    11  C    0.053309
    15  C    0.583467
    16  O   -0.521250
    17  N   -0.256642
    19  C    0.217453
 Sum of Mulliken charges with hydrogens summed into heavy atoms =   0.00000
 Electronic spatial extent (au):  <R**2>=           1919.7169
 Charge=              0.0000 electrons
 Dipole moment (field-independent basis, Debye):
    X=             -3.9029    Y=              0.2375    Z=              1.6636  Tot=              4.2493
 Quadrupole moment (field-independent basis, Debye-Ang):
   XX=            -55.5332   YY=            -61.0436   ZZ=            -60.1975
   XY=            -10.8931   XZ=              0.4109   YZ=              0.3376
 Traceless Quadrupole moment (field-independent basis, Debye-Ang):
   XX=              3.3915   YY=             -2.1188   ZZ=             -1.2727
   XY=            -10.8931   XZ=              0.4109   YZ=              0.3376
 Octapole moment (field-independent basis, Debye-Ang**2):
  XXX=            -51.9098  YYY=              2.6275  ZZZ=             -2.6844  XYY=             -3.1071
  XXY=            -17.2014  XXZ=              5.3798  XZZ=             -2.0283  YZZ=             -0.6584
  YYZ=              4.9464  XYZ=              1.2499
 Hexadecapole moment (field-independent basis, Debye-Ang**3):
 XXXX=          -1751.5000 YYYY=           -467.8886 ZZZZ=           -135.0733 XXXY=            -47.1805
 XXXZ=             12.4310 YYYX=             -3.7566 YYYZ=              1.2883 ZZZX=             -4.1169
 ZZZY=              0.4389 XXYY=           -389.9532 XXZZ=           -333.9907 YYZZ=            -97.5242
 XXYZ=             14.4623 YYXZ=             -0.8201 ZZXY=             -1.5826
 N-N= 5.521873185706D+02 E-N=-2.260429089776D+03  KE= 4.912264208074D+02
 1\1\GINC-NODE006\FOpt\RB3LYP\6-31G(d)\C6H12N2O2\STEBOSS\10-Feb-2017\0\
 \# b3lyp/6-31G* Opt=(ModRedundant, maxcycles=1000, calcfc) geom=nocrow
 d\\Phi Psi fixed scan\\0,1\H,1.3848273824,1.8757266898,-1.3681661085\C
 ,1.6887218642,2.7647393033,-0.8138808443\H,1.3743211428,2.6704408897,0
 .231332396\H,1.1807987008,3.6384201946,-1.2403621698\C,3.1996956627,2.
 9309686642,-0.9462530477\O,3.8428497552,2.3331658106,-1.7967946657\N,3
 .7373946546,3.7750906456,0.0043905977\H,3.0346514247,4.3367854176,0.47
 42135451\C,5.0040113809,4.5017587561,-0.0626865487\H,5.6013458021,4.23
 75118029,0.824013801\C,5.864914483,4.2267231341,-1.3089996341\H,5.3486
 778131,4.5309022325,-2.2225550926\H,6.7997471117,4.793854827,-1.233425
 847\H,6.0985864532,3.1668085442,-1.3973276359\C,4.6727160496,6.0135535
 453,0.0418841283\O,3.5254243363,6.4347500317,-0.0655907168\N,5.7397365
 431,6.8136634491,0.3165379217\H,6.6563788376,6.3930945169,0.3729523537
 \C,5.6362877847,8.2597230705,0.418545506\H,4.5761341269,8.5140828302,0
 .3938886197\H,6.0712655398,8.6132722837,1.3598266056\H,6.1426131506,8.
 7595633604,-0.4162431638\\Version=EM64L-G09RevA.02\State=1-A\HF=-495.8
 408473\RMSD=6.524e-09\RMSF=9.985e-04\Dipole=0.9193622,1.0288098,0.9440
 507\Quadrupole=5.9029568,-3.4973124,-2.4056444,6.0004504,1.0960836,-2.
 6410085\PG=C01 [X(C6H12N2O2)]\\@


 A SUCCESSFUL PURSUIT OF SCIENCE MAKES A MAN THE
 BENEFACTOR OF ALL MANKIND OF EVERY AGE.
   --  JOSEPH PRIESTLEY, "EXPERIMENTS AND
 OBSERVATIONS ON DIFFERENT KINDS OF AIR", 1774
 Job cpu time:  0 days  1 hours 14 minutes 20.9 seconds.
 File lengths (MBytes):  RWF=    186 Int=      0 D2E=      0 Chk=      4 Scr=      2
 Normal termination of Gaussian 09 at Fri Feb 10 19:05:05 2017.
