 Entering Gaussian System, Link 0=g09
 Initial command:
 /home/steboss/Software/g09/l1.exe /home/steboss/projects/phi_psi_scan/alanine/120/4186/Gau-22194.inp -scrdir=/home/steboss/projects/phi_psi_scan/alanine/120/4186/
 Entering Link 1 = /home/steboss/Software/g09/l1.exe PID=     22196.
  
 Copyright (c) 1988,1990,1992,1993,1995,1998,2003,2009, Gaussian, Inc.
                  All Rights Reserved.
  
 This is part of the Gaussian(R) 09 program.  It is based on
 the Gaussian(R) 03 system (copyright 2003, Gaussian, Inc.),
 the Gaussian(R) 98 system (copyright 1998, Gaussian, Inc.),
 the Gaussian(R) 94 system (copyright 1995, Gaussian, Inc.),
 the Gaussian 92(TM) system (copyright 1992, Gaussian, Inc.),
 the Gaussian 90(TM) system (copyright 1990, Gaussian, Inc.),
 the Gaussian 88(TM) system (copyright 1988, Gaussian, Inc.),
 the Gaussian 86(TM) system (copyright 1986, Carnegie Mellon
 University), and the Gaussian 82(TM) system (copyright 1983,
 Carnegie Mellon University). Gaussian is a federally registered
 trademark of Gaussian, Inc.
  
 This software contains proprietary and confidential information,
 including trade secrets, belonging to Gaussian, Inc.
  
 This software is provided under written license and may be
 used, copied, transmitted, or stored only in accord with that
 written license.
  
 The following legend is applicable only to US Government
 contracts under FAR:
  
                    RESTRICTED RIGHTS LEGEND
  
 Use, reproduction and disclosure by the US Government is
 subject to restrictions as set forth in subparagraphs (a)
 and (c) of the Commercial Computer Software - Restricted
 Rights clause in FAR 52.227-19.
  
 Gaussian, Inc.
 340 Quinnipiac St., Bldg. 40, Wallingford CT 06492
  
  
 ---------------------------------------------------------------
 Warning -- This program may not be used in any manner that
 competes with the business of Gaussian, Inc. or will provide
 assistance to any competitor of Gaussian, Inc.  The licensee
 of this program is prohibited from giving any competitor of
 Gaussian, Inc. access to this program.  By using this program,
 the user acknowledges that Gaussian, Inc. is engaged in the
 business of creating and licensing software in the field of
 computational chemistry and represents and warrants to the
 licensee that it is not a competitor of Gaussian, Inc. and that
 it will not use this program in any manner prohibited above.
 ---------------------------------------------------------------
  

 Cite this work as:
 Gaussian 09, Revision A.02,
 M. J. Frisch, G. W. Trucks, H. B. Schlegel, G. E. Scuseria, 
 M. A. Robb, J. R. Cheeseman, G. Scalmani, V. Barone, B. Mennucci, 
 G. A. Petersson, H. Nakatsuji, M. Caricato, X. Li, H. P. Hratchian, 
 A. F. Izmaylov, J. Bloino, G. Zheng, J. L. Sonnenberg, M. Hada, 
 M. Ehara, K. Toyota, R. Fukuda, J. Hasegawa, M. Ishida, T. Nakajima, 
 Y. Honda, O. Kitao, H. Nakai, T. Vreven, J. A. Montgomery, Jr., 
 J. E. Peralta, F. Ogliaro, M. Bearpark, J. J. Heyd, E. Brothers, 
 K. N. Kudin, V. N. Staroverov, R. Kobayashi, J. Normand, 
 K. Raghavachari, A. Rendell, J. C. Burant, S. S. Iyengar, J. Tomasi, 
 M. Cossi, N. Rega, J. M. Millam, M. Klene, J. E. Knox, J. B. Cross, 
 V. Bakken, C. Adamo, J. Jaramillo, R. Gomperts, R. E. Stratmann, 
 O. Yazyev, A. J. Austin, R. Cammi, C. Pomelli, J. W. Ochterski, 
 R. L. Martin, K. Morokuma, V. G. Zakrzewski, G. A. Voth, 
 P. Salvador, J. J. Dannenberg, S. Dapprich, A. D. Daniels, 
 O. Farkas, J. B. Foresman, J. V. Ortiz, J. Cioslowski, 
 and D. J. Fox, Gaussian, Inc., Wallingford CT, 2009.
 
 ******************************************
 Gaussian 09:  EM64L-G09RevA.02 11-Jun-2009
                10-Feb-2017 
 ******************************************
 %chk=structure_240.chk
 %NProcShared=8
 Will use up to    8 processors via shared memory.
 ----------------------------------------------------------------------
 # b3lyp/6-31G* Opt=(ModRedundant, maxcycles=1000, calcfc) geom=nocrowd
 ----------------------------------------------------------------------
 1/6=1000,10=4,14=-1,18=120,19=15,26=3,38=1/1,3;
 2/9=110,12=1,17=6,18=5,40=1/2;
 3/5=1,6=6,7=1,11=2,16=1,25=1,30=1,71=2,74=-5/1,2,3;
 4//1;
 5/5=2,38=5/2;
 8/6=4,10=90,11=11/1;
 11/6=1,8=1,9=11,15=111,16=1/1,2,10;
 10/6=1,7=6,13=1/2;
 6/7=2,8=2,9=2,10=2,28=1/1;
 7/10=1,18=20,25=1/1,2,3,16;
 1/6=1000,10=4,14=-1,18=20,19=15/3(2);
 2/9=110,12=1/2;
 99//99;
 2/9=110,12=1/2;
 3/5=1,6=6,7=1,11=2,16=1,25=1,30=1,71=1,74=-5/1,2,3;
 4/5=5,16=3/1;
 5/5=2,38=5/2;
 7//1,2,3,16;
 1/6=1000,14=-1,18=20,19=15/3(-5);
 2/9=110,12=1/2;
 6/7=2,8=2,9=2,10=2,19=2,28=1/1;
 99/9=1/99;
 ------------------
 Phi Psi fixed scan
 ------------------
 Symbolic Z-matrix:
 Charge =  0 Multiplicity = 1
 H                     1.5624    1.8816   -1.7047 
 C                     1.7794    2.5343   -0.8591 
 H                     1.7316    1.9596    0.0658 
 H                     1.0463    3.3401   -0.824 
 C                     3.1755    3.1484   -0.9815 
 O                     3.8914    2.883    -1.9446 
 N                     3.5554    3.9697    0. 
 H                     2.9312    4.1571    0.7716 
 C                     4.8533    4.6139    0. 
 H                     5.4076    4.3155    0.8898 
 C                     5.6613    4.2208   -1.2322 
 H                     5.1233    4.5214   -2.1312 
 H                     6.6305    4.7189   -1.2058 
 H                     5.8085    3.1409   -1.2414 
 C                     4.7127    6.1294    0. 
 O                     4.1278    6.7016    0.9171 
 N                     5.2518    6.7798   -1.0338 
 H                     5.7229    6.2651   -1.764 
 C                     5.1851    8.2226   -1.1497 
 H                     4.6503    8.6321   -0.2928 
 H                     6.1948    8.6324   -1.1769 
 H                     4.6601    8.4901   -2.0667 
 
 The following ModRedundant input section has been read:
 D    5    7    9   15 F                                                       
 D    7    9   15   17 F                                                       

 GradGradGradGradGradGradGradGradGradGradGradGradGradGradGradGradGradGrad
 Berny optimization.
 Initialization pass.
                           ----------------------------
                           !    Initial Parameters    !
                           ! (Angstroms and Degrees)  !
 --------------------------                            --------------------------
 ! Name  Definition              Value          Derivative Info.                !
 --------------------------------------------------------------------------------
 ! R1    R(1,2)                  1.09           calculate D2E/DX2 analytically  !
 ! R2    R(2,3)                  1.09           calculate D2E/DX2 analytically  !
 ! R3    R(2,4)                  1.0899         calculate D2E/DX2 analytically  !
 ! R4    R(2,5)                  1.5301         calculate D2E/DX2 analytically  !
 ! R5    R(5,6)                  1.229          calculate D2E/DX2 analytically  !
 ! R6    R(5,7)                  1.335          calculate D2E/DX2 analytically  !
 ! R7    R(7,8)                  1.01           calculate D2E/DX2 analytically  !
 ! R8    R(7,9)                  1.449          calculate D2E/DX2 analytically  !
 ! R9    R(9,10)                 1.09           calculate D2E/DX2 analytically  !
 ! R10   R(9,11)                 1.525          calculate D2E/DX2 analytically  !
 ! R11   R(9,15)                 1.522          calculate D2E/DX2 analytically  !
 ! R12   R(11,12)                1.09           calculate D2E/DX2 analytically  !
 ! R13   R(11,13)                1.09           calculate D2E/DX2 analytically  !
 ! R14   R(11,14)                1.0899         calculate D2E/DX2 analytically  !
 ! R15   R(15,16)                1.2291         calculate D2E/DX2 analytically  !
 ! R16   R(15,17)                1.3351         calculate D2E/DX2 analytically  !
 ! R17   R(17,18)                1.01           calculate D2E/DX2 analytically  !
 ! R18   R(17,19)                1.449          calculate D2E/DX2 analytically  !
 ! R19   R(19,20)                1.0899         calculate D2E/DX2 analytically  !
 ! R20   R(19,21)                1.09           calculate D2E/DX2 analytically  !
 ! R21   R(19,22)                1.09           calculate D2E/DX2 analytically  !
 ! A1    A(1,2,3)              109.5015         calculate D2E/DX2 analytically  !
 ! A2    A(1,2,4)              109.4979         calculate D2E/DX2 analytically  !
 ! A3    A(1,2,5)              111.0948         calculate D2E/DX2 analytically  !
 ! A4    A(3,2,4)              109.4502         calculate D2E/DX2 analytically  !
 ! A5    A(3,2,5)              108.6335         calculate D2E/DX2 analytically  !
 ! A6    A(4,2,5)              108.6362         calculate D2E/DX2 analytically  !
 ! A7    A(2,5,6)              120.4974         calculate D2E/DX2 analytically  !
 ! A8    A(2,5,7)              116.5994         calculate D2E/DX2 analytically  !
 ! A9    A(6,5,7)              122.9032         calculate D2E/DX2 analytically  !
 ! A10   A(5,7,8)              119.9965         calculate D2E/DX2 analytically  !
 ! A11   A(5,7,9)              121.8985         calculate D2E/DX2 analytically  !
 ! A12   A(8,7,9)              118.105          calculate D2E/DX2 analytically  !
 ! A13   A(7,9,10)             109.5            calculate D2E/DX2 analytically  !
 ! A14   A(7,9,11)             111.0992         calculate D2E/DX2 analytically  !
 ! A15   A(7,9,15)             111.0966         calculate D2E/DX2 analytically  !
 ! A16   A(10,9,11)            108.6382         calculate D2E/DX2 analytically  !
 ! A17   A(10,9,15)            108.6373         calculate D2E/DX2 analytically  !
 ! A18   A(11,9,15)            107.7947         calculate D2E/DX2 analytically  !
 ! A19   A(9,11,12)            109.5007         calculate D2E/DX2 analytically  !
 ! A20   A(9,11,13)            109.4959         calculate D2E/DX2 analytically  !
 ! A21   A(9,11,14)            109.4978         calculate D2E/DX2 analytically  !
 ! A22   A(12,11,13)           109.441          calculate D2E/DX2 analytically  !
 ! A23   A(12,11,14)           109.4482         calculate D2E/DX2 analytically  !
 ! A24   A(13,11,14)           109.4436         calculate D2E/DX2 analytically  !
 ! A25   A(9,15,16)            120.4994         calculate D2E/DX2 analytically  !
 ! A26   A(9,15,17)            116.6015         calculate D2E/DX2 analytically  !
 ! A27   A(16,15,17)           122.8991         calculate D2E/DX2 analytically  !
 ! A28   A(15,17,18)           119.9952         calculate D2E/DX2 analytically  !
 ! A29   A(15,17,19)           121.9            calculate D2E/DX2 analytically  !
 ! A30   A(18,17,19)           118.1048         calculate D2E/DX2 analytically  !
 ! A31   A(17,19,20)           109.4999         calculate D2E/DX2 analytically  !
 ! A32   A(17,19,21)           109.4937         calculate D2E/DX2 analytically  !
 ! A33   A(17,19,22)           109.5016         calculate D2E/DX2 analytically  !
 ! A34   A(20,19,21)           109.4435         calculate D2E/DX2 analytically  !
 ! A35   A(20,19,22)           109.4435         calculate D2E/DX2 analytically  !
 ! A36   A(21,19,22)           109.4451         calculate D2E/DX2 analytically  !
 ! D1    D(1,2,5,6)             -0.0016         calculate D2E/DX2 analytically  !
 ! D2    D(1,2,5,7)            179.9943         calculate D2E/DX2 analytically  !
 ! D3    D(3,2,5,6)            120.5076         calculate D2E/DX2 analytically  !
 ! D4    D(3,2,5,7)            -59.4965         calculate D2E/DX2 analytically  !
 ! D5    D(4,2,5,6)           -120.5083         calculate D2E/DX2 analytically  !
 ! D6    D(4,2,5,7)             59.4876         calculate D2E/DX2 analytically  !
 ! D7    D(2,5,7,8)              0.0085         calculate D2E/DX2 analytically  !
 ! D8    D(2,5,7,9)            179.9978         calculate D2E/DX2 analytically  !
 ! D9    D(6,5,7,8)           -179.9958         calculate D2E/DX2 analytically  !
 ! D10   D(6,5,7,9)             -0.0064         calculate D2E/DX2 analytically  !
 ! D11   D(5,7,9,10)          -119.9959         calculate D2E/DX2 analytically  !
 ! D12   D(5,7,9,11)             0.0067         calculate D2E/DX2 analytically  !
 ! D13   D(5,7,9,15)           120.0043         frozen, calculate D2E/DX2 analyt!
 ! D14   D(8,7,9,10)            59.9937         calculate D2E/DX2 analytically  !
 ! D15   D(8,7,9,11)           179.9963         calculate D2E/DX2 analytically  !
 ! D16   D(8,7,9,15)           -60.0061         calculate D2E/DX2 analytically  !
 ! D17   D(7,9,11,12)           60.0024         calculate D2E/DX2 analytically  !
 ! D18   D(7,9,11,13)          179.9986         calculate D2E/DX2 analytically  !
 ! D19   D(7,9,11,14)          -60.0038         calculate D2E/DX2 analytically  !
 ! D20   D(10,9,11,12)        -179.4843         calculate D2E/DX2 analytically  !
 ! D21   D(10,9,11,13)         -59.4881         calculate D2E/DX2 analytically  !
 ! D22   D(10,9,11,14)          60.5095         calculate D2E/DX2 analytically  !
 ! D23   D(15,9,11,12)         -61.938          calculate D2E/DX2 analytically  !
 ! D24   D(15,9,11,13)          58.0582         calculate D2E/DX2 analytically  !
 ! D25   D(15,9,11,14)         178.0558         calculate D2E/DX2 analytically  !
 ! D26   D(7,9,15,16)           59.9975         calculate D2E/DX2 analytically  !
 ! D27   D(7,9,15,17)         -120.0005         frozen, calculate D2E/DX2 analyt!
 ! D28   D(10,9,15,16)         -60.5135         calculate D2E/DX2 analytically  !
 ! D29   D(10,9,15,17)         119.4884         calculate D2E/DX2 analytically  !
 ! D30   D(11,9,15,16)        -178.0604         calculate D2E/DX2 analytically  !
 ! D31   D(11,9,15,17)           1.9415         calculate D2E/DX2 analytically  !
 ! D32   D(9,15,17,18)           0.0029         calculate D2E/DX2 analytically  !
 ! D33   D(9,15,17,19)         179.9981         calculate D2E/DX2 analytically  !
 ! D34   D(16,15,17,18)       -179.9951         calculate D2E/DX2 analytically  !
 ! D35   D(16,15,17,19)          0.0            calculate D2E/DX2 analytically  !
 ! D36   D(15,17,19,20)          0.0044         calculate D2E/DX2 analytically  !
 ! D37   D(15,17,19,21)        120.0018         calculate D2E/DX2 analytically  !
 ! D38   D(15,17,19,22)       -119.9978         calculate D2E/DX2 analytically  !
 ! D39   D(18,17,19,20)        179.9996         calculate D2E/DX2 analytically  !
 ! D40   D(18,17,19,21)        -60.003          calculate D2E/DX2 analytically  !
 ! D41   D(18,17,19,22)         59.9974         calculate D2E/DX2 analytically  !
 --------------------------------------------------------------------------------
 Trust Radius=3.00D-01 FncErr=1.00D-07 GrdErr=1.00D-06
 Number of steps in this run= 132 maximum allowed number of steps= 132.
 GradGradGradGradGradGradGradGradGradGradGradGradGradGradGradGradGradGrad

                          Input orientation:                          
 ---------------------------------------------------------------------
 Center     Atomic      Atomic             Coordinates (Angstroms)
 Number     Number       Type             X           Y           Z
 ---------------------------------------------------------------------
      1          1           0        1.562400    1.881600   -1.704700
      2          6           0        1.779400    2.534300   -0.859100
      3          1           0        1.731600    1.959600    0.065800
      4          1           0        1.046300    3.340100   -0.824000
      5          6           0        3.175500    3.148400   -0.981500
      6          8           0        3.891400    2.883000   -1.944600
      7          7           0        3.555400    3.969700    0.000000
      8          1           0        2.931200    4.157100    0.771600
      9          6           0        4.853300    4.613900    0.000000
     10          1           0        5.407600    4.315500    0.889800
     11          6           0        5.661300    4.220800   -1.232200
     12          1           0        5.123300    4.521400   -2.131200
     13          1           0        6.630500    4.718900   -1.205800
     14          1           0        5.808500    3.140900   -1.241400
     15          6           0        4.712700    6.129400    0.000000
     16          8           0        4.127800    6.701600    0.917100
     17          7           0        5.251800    6.779800   -1.033800
     18          1           0        5.722900    6.265100   -1.764000
     19          6           0        5.185100    8.222600   -1.149700
     20          1           0        4.650300    8.632100   -0.292800
     21          1           0        6.194800    8.632400   -1.176900
     22          1           0        4.660100    8.490100   -2.066700
 ---------------------------------------------------------------------
                    Distance matrix (angstroms):
                    1          2          3          4          5
     1  H    0.000000
     2  C    1.090021   0.000000
     3  H    1.780276   1.089956   0.000000
     4  H    1.780229   1.089946   1.779652   0.000000
     5  C    2.174832   1.530097   2.143579   2.143606   0.000000
     6  O    2.546487   2.400093   3.091781   3.091808   1.229029
     7  N    3.352344   2.439795   2.714973   2.714950   1.334991
     8  H    3.630919   2.572801   2.601192   2.601207   2.037282
     9  C    4.604507   3.809416   4.098128   4.098145   2.434347
    10  H    5.238403   4.403994   4.443221   4.786382   3.137859
    11  C    4.743005   4.248839   4.715970   4.715982   2.718841
    12  H    4.453140   4.092490   4.784690   4.441415   2.645915
    13  H    5.829649   5.331590   5.764540   5.764560   3.801816
    14  H    4.453072   4.092403   4.441324   4.784606   2.645807
    15  C    5.556455   4.718797   5.126258   4.679921   3.494666
    16  O    6.057022   5.102574   5.380804   4.881266   4.139660
    17  N    6.168804   5.487472   6.069206   5.437075   4.183398
    18  H    6.043869   5.503536   6.149469   5.595517   4.100655
    19  C    7.323951   6.636264   7.254603   6.408943   5.460246
    20  H    7.556311   6.763574   7.291753   6.424660   5.720167
    21  H    8.204328   7.535488   8.123467   7.391889   6.263275
    22  H    7.307466   6.725198   7.468005   6.412983   5.649377
                    6          7          8          9         10
     6  O    0.000000
     7  N    2.252839   0.000000
     8  H    3.150088   1.010005   0.000000
     9  C    2.775380   1.448978   2.120967   0.000000
    10  H    3.519196   2.083739   2.484274   1.089970   0.000000
    11  C    2.330186   2.452791   3.387140   1.525027   2.139209
    12  H    2.058337   2.702720   3.655717   2.150225   3.041326
    13  H    3.379205   3.386959   4.232086   2.150214   2.459625
    14  H    2.058221   2.702673   3.655638   2.150165   2.466256
    15  C    3.872353   2.450234   2.767504   1.522008   2.136554
    16  O    4.777752   2.938025   2.815582   2.392888   2.707786
    17  N    4.226736   3.441392   3.939950   2.432831   3.130062
    18  H    3.850404   3.616437   4.320477   2.567949   3.308022
    19  C    5.551293   4.697328   5.029886   3.801923   4.412992
    20  H    6.029637   4.798178   4.910588   4.033965   4.539282
    21  H    6.241043   5.485645   5.871631   4.396937   4.850418
    22  H    5.660864   5.091721   5.460763   4.396988   5.169810
                   11         12         13         14         15
    11  C    0.000000
    12  H    1.089957   0.000000
    13  H    1.090023   1.779613   0.000000
    14  H    1.089925   1.779613   1.779617   0.000000
    15  C    2.461892   2.701161   2.668599   3.416575   0.000000
    16  O    3.622911   3.877683   3.834229   4.490263   1.229062
    17  N    2.599141   2.514194   2.485499   3.687086   1.335062
    18  H    2.113236   1.880119   1.877780   3.168764   2.037306
    19  C    4.030878   3.829627   3.790546   5.120616   2.434432
    20  H    4.622138   4.527836   4.479720   5.691621   2.520542
    21  H    4.444085   4.354207   3.937785   5.505448   3.137949
    22  H    4.463823   3.996160   4.341149   5.532981   3.137980
                   16         17         18         19         20
    16  O    0.000000
    17  N    2.252887   0.000000
    18  H    3.150107   1.009972   0.000000
    19  C    2.775425   1.448984   2.120943   0.000000
    20  H    2.337455   2.083722   2.986233   1.089944   0.000000
    21  H    3.519277   2.083711   2.484247   1.090032   1.779638
    22  H    3.519252   2.083775   2.484310   1.089986   1.779601
                   21         22
    21  H    0.000000
    22  H    1.779690   0.000000
 Stoichiometry    C6H12N2O2
 Framework group  C1[X(C6H12N2O2)]
 Deg. of freedom    60
 Full point group                 C1      NOp   1
 Largest Abelian subgroup         C1      NOp   1
 Largest concise Abelian subgroup C1      NOp   1
                         Standard orientation:                         
 ---------------------------------------------------------------------
 Center     Atomic      Atomic             Coordinates (Angstroms)
 Number     Number       Type             X           Y           Z
 ---------------------------------------------------------------------
      1          1           0       -3.993323   -0.292204    1.219858
      2          6           0       -3.242939   -0.888098    0.700262
      3          1           0       -3.699358   -1.378995   -0.159219
      4          1           0       -2.843186   -1.641715    1.378672
      5          6           0       -2.088980   -0.012528    0.207360
      6          8           0       -2.091884    1.198680    0.415874
      7          7           0       -1.104628   -0.633444   -0.446639
      8          1           0       -1.147176   -1.631799   -0.593567
      9          6           0        0.043275    0.084216   -0.963185
     10          1           0        0.096258   -0.044061   -2.044283
     11          6           0       -0.055875    1.574163   -0.653447
     12          1           0       -0.100483    1.719231    0.425891
     13          1           0        0.818780    2.087713   -1.052690
     14          1           0       -0.956699    1.981882   -1.111943
     15          6           0        1.335464   -0.433770   -0.348005
     16          8           0        1.666383   -1.608976   -0.489338
     17          7           0        2.066945    0.448186    0.337181
     18          1           0        1.753027    1.404037    0.425765
     19          6           0        3.316960    0.078814    0.970096
     20          1           0        3.519499   -0.976412    0.787187
     21          1           0        4.126040    0.680646    0.556143
     22          1           0        3.246985    0.254071    2.043622
 ---------------------------------------------------------------------
 Rotational constants (GHZ):      2.5479717      0.7540910      0.6787445
 Standard basis: 6-31G(d) (6D, 7F)
 There are   174 symmetry adapted basis functions of A   symmetry.
 Integral buffers will be    131072 words long.
 Raffenetti 2 integral format.
 Two-electron integral symmetry is turned on.
   174 basis functions,   328 primitive gaussians,   174 cartesian basis functions
    39 alpha electrons       39 beta electrons
       nuclear repulsion energy       564.4791197738 Hartrees.
 NAtoms=   22 NActive=   22 NUniq=   22 SFac= 7.50D-01 NAtFMM=   80 NAOKFM=F Big=F
 One-electron integrals computed using PRISM.
 NBasis=   174 RedAO= T  NBF=   174
 NBsUse=   174 1.00D-06 NBFU=   174
 Harris functional with IExCor=  402 diagonalized for initial guess.
 ExpMin= 1.61D-01 ExpMax= 5.48D+03 ExpMxC= 8.25D+02 IAcc=1 IRadAn=         1 AccDes= 0.00D+00
 HarFok:  IExCor=  402 AccDes= 0.00D+00 IRadAn=         1 IDoV= 1
 ScaDFX=  1.000000  1.000000  1.000000  1.000000
 FoFCou: FMM=F IPFlag=           0 FMFlag=      100000 FMFlg1=           0
         NFxFlg=           0 DoJE=T BraDBF=F KetDBF=T FulRan=T
         Omega=  0.000000  0.000000  1.000000  0.000000  0.000000 ICntrl=     500 IOpCl=  0
         NMat0=    1 NMatS0=    1 NMatT0=    0 NMatD0=    1 NMtDS0=    0 NMtDT0=    0
         I1Cent=           4 NGrid=           0.
 Petite list used in FoFCou.
 Initial guess orbital symmetries:
       Occupied  (A) (A) (A) (A) (A) (A) (A) (A) (A) (A) (A) (A)
                 (A) (A) (A) (A) (A) (A) (A) (A) (A) (A) (A) (A)
                 (A) (A) (A) (A) (A) (A) (A) (A) (A) (A) (A) (A)
                 (A) (A) (A)
       Virtual   (A) (A) (A) (A) (A) (A) (A) (A) (A) (A) (A) (A)
                 (A) (A) (A) (A) (A) (A) (A) (A) (A) (A) (A) (A)
                 (A) (A) (A) (A) (A) (A) (A) (A) (A) (A) (A) (A)
                 (A) (A) (A) (A) (A) (A) (A) (A) (A) (A) (A) (A)
                 (A) (A) (A) (A) (A) (A) (A) (A) (A) (A) (A) (A)
                 (A) (A) (A) (A) (A) (A) (A) (A) (A) (A) (A) (A)
                 (A) (A) (A) (A) (A) (A) (A) (A) (A) (A) (A) (A)
                 (A) (A) (A) (A) (A) (A) (A) (A) (A) (A) (A) (A)
                 (A) (A) (A) (A) (A) (A) (A) (A) (A) (A) (A) (A)
                 (A) (A) (A) (A) (A) (A) (A) (A) (A) (A) (A) (A)
                 (A) (A) (A) (A) (A) (A) (A) (A) (A) (A) (A) (A)
                 (A) (A) (A)
 The electronic state of the initial guess is 1-A.
 Requested convergence on RMS density matrix=1.00D-08 within 128 cycles.
 Requested convergence on MAX density matrix=1.00D-06.
 Requested convergence on             energy=1.00D-06.
 No special actions if energy rises.
 Integral accuracy reduced to 1.0D-05 until final iterations.
 Initial convergence to 1.0D-05 achieved.  Increase integral accuracy.
 SCF Done:  E(RB3LYP) =  -495.811208096     A.U. after   15 cycles
             Convg  =    0.6303D-08             -V/T =  2.0083
 Range of M.O.s used for correlation:     1   174
 NBasis=   174 NAE=    39 NBE=    39 NFC=     0 NFV=     0
 NROrb=    174 NOA=    39 NOB=    39 NVA=   135 NVB=   135
 Symmetrizing basis deriv contribution to polar:
 IMax=3 JMax=2 DiffMx= 0.00D+00
 G2DrvN: will do    23 centers at a time, making    1 passes doing MaxLOS=2.
 Calling FoFCou, ICntrl=  3107 FMM=F I1Cent=   0 AccDes= 0.00D+00.
 FoFDir/FoFCou used for L=0 through L=2.
 End of G2Drv Frequency-dependent properties file   721 does not exist.
 End of G2Drv Frequency-dependent properties file   722 does not exist.
          IDoAtm=1111111111111111111111
          Differentiating once with respect to nuclear coordinates.
          There are    69 degrees of freedom in the 1st order CPHF.  IDoFFX=5.
     63 vectors produced by pass  0 Test12= 7.63D-11 1.45D-07 XBig12= 1.96D-01 7.35D-02.
 AX will form    63 AO Fock derivatives at one time.
     63 vectors produced by pass  1 Test12= 7.63D-11 1.45D-07 XBig12= 3.99D-02 5.47D-02.
     63 vectors produced by pass  2 Test12= 7.63D-11 1.45D-07 XBig12= 3.90D-05 8.55D-04.
     63 vectors produced by pass  3 Test12= 7.63D-11 1.45D-07 XBig12= 8.54D-08 3.73D-05.
     31 vectors produced by pass  4 Test12= 7.63D-11 1.45D-07 XBig12= 5.92D-11 1.09D-06.
 Inverted reduced A of dimension   283 with in-core refinement.
 End of Minotr Frequency-dependent properties file   721 does not exist.
 End of Minotr Frequency-dependent properties file   722 does not exist.

 **********************************************************************

            Population analysis using the SCF density.

 **********************************************************************

 Orbital symmetries:
       Occupied  (A) (A) (A) (A) (A) (A) (A) (A) (A) (A) (A) (A)
                 (A) (A) (A) (A) (A) (A) (A) (A) (A) (A) (A) (A)
                 (A) (A) (A) (A) (A) (A) (A) (A) (A) (A) (A) (A)
                 (A) (A) (A)
       Virtual   (A) (A) (A) (A) (A) (A) (A) (A) (A) (A) (A) (A)
                 (A) (A) (A) (A) (A) (A) (A) (A) (A) (A) (A) (A)
                 (A) (A) (A) (A) (A) (A) (A) (A) (A) (A) (A) (A)
                 (A) (A) (A) (A) (A) (A) (A) (A) (A) (A) (A) (A)
                 (A) (A) (A) (A) (A) (A) (A) (A) (A) (A) (A) (A)
                 (A) (A) (A) (A) (A) (A) (A) (A) (A) (A) (A) (A)
                 (A) (A) (A) (A) (A) (A) (A) (A) (A) (A) (A) (A)
                 (A) (A) (A) (A) (A) (A) (A) (A) (A) (A) (A) (A)
                 (A) (A) (A) (A) (A) (A) (A) (A) (A) (A) (A) (A)
                 (A) (A) (A) (A) (A) (A) (A) (A) (A) (A) (A) (A)
                 (A) (A) (A) (A) (A) (A) (A) (A) (A) (A) (A) (A)
                 (A) (A) (A)
 The electronic state is 1-A.
 Alpha  occ. eigenvalues --  -19.10228 -19.09658 -14.36521 -14.36177 -10.28507
 Alpha  occ. eigenvalues --  -10.27722 -10.23468 -10.21642 -10.18859 -10.17172
 Alpha  occ. eigenvalues --   -1.03575  -1.02598  -0.92946  -0.92538  -0.79033
 Alpha  occ. eigenvalues --   -0.73086  -0.70120  -0.65719  -0.59653  -0.57148
 Alpha  occ. eigenvalues --   -0.54452  -0.51666  -0.46489  -0.45886  -0.45154
 Alpha  occ. eigenvalues --   -0.44174  -0.42152  -0.41099  -0.40083  -0.39721
 Alpha  occ. eigenvalues --   -0.38120  -0.37671  -0.37091  -0.35916  -0.35905
 Alpha  occ. eigenvalues --   -0.26487  -0.25220  -0.23479  -0.22652
 Alpha virt. eigenvalues --    0.02394   0.03802   0.07974   0.09262   0.11814
 Alpha virt. eigenvalues --    0.12999   0.13830   0.15332   0.16072   0.16539
 Alpha virt. eigenvalues --    0.17288   0.17644   0.18078   0.18936   0.20087
 Alpha virt. eigenvalues --    0.21032   0.23331   0.26330   0.28237   0.33654
 Alpha virt. eigenvalues --    0.34989   0.40228   0.41452   0.50252   0.51230
 Alpha virt. eigenvalues --    0.52901   0.53049   0.54081   0.56501   0.57389
 Alpha virt. eigenvalues --    0.58672   0.59672   0.63661   0.65648   0.67258
 Alpha virt. eigenvalues --    0.68677   0.68980   0.70230   0.71502   0.73819
 Alpha virt. eigenvalues --    0.75657   0.76496   0.80127   0.81681   0.83426
 Alpha virt. eigenvalues --    0.85911   0.86506   0.86770   0.88348   0.88452
 Alpha virt. eigenvalues --    0.89915   0.90698   0.91732   0.93086   0.94802
 Alpha virt. eigenvalues --    0.95231   0.96268   0.98516   1.00829   1.02643
 Alpha virt. eigenvalues --    1.04672   1.06827   1.09147   1.12812   1.15616
 Alpha virt. eigenvalues --    1.21783   1.30358   1.31136   1.35929   1.38279
 Alpha virt. eigenvalues --    1.39364   1.40615   1.44980   1.48480   1.49044
 Alpha virt. eigenvalues --    1.51798   1.53607   1.56946   1.61755   1.70309
 Alpha virt. eigenvalues --    1.74201   1.79513   1.80965   1.82501   1.83087
 Alpha virt. eigenvalues --    1.84507   1.86627   1.88592   1.92193   1.94120
 Alpha virt. eigenvalues --    1.94426   1.97573   1.99738   2.01669   2.04086
 Alpha virt. eigenvalues --    2.07589   2.09524   2.12585   2.15171   2.18923
 Alpha virt. eigenvalues --    2.20270   2.25848   2.26136   2.30150   2.30875
 Alpha virt. eigenvalues --    2.32715   2.36302   2.37836   2.41386   2.43055
 Alpha virt. eigenvalues --    2.44851   2.47874   2.52416   2.59501   2.63727
 Alpha virt. eigenvalues --    2.67608   2.70197   2.71090   2.75426   2.87853
 Alpha virt. eigenvalues --    2.93922   2.98578   3.02093   3.16444   3.21461
 Alpha virt. eigenvalues --    3.97092   3.99607   4.08407   4.16685   4.19134
 Alpha virt. eigenvalues --    4.24374   4.28298   4.37960   4.49829   4.74086
          Condensed to atoms (all electrons):
              1          2          3          4          5          6
     1  H    0.502163   0.360050  -0.021235  -0.021023  -0.017630   0.005050
     2  C    0.360050   5.326101   0.350638   0.351207   0.353802  -0.073593
     3  H   -0.021235   0.350638   0.552270  -0.026084  -0.027180   0.001260
     4  H   -0.021023   0.351207  -0.026084   0.547474  -0.026676   0.001246
     5  C   -0.017630   0.353802  -0.027180  -0.026676   4.363133   0.574020
     6  O    0.005050  -0.073593   0.001260   0.001246   0.574020   8.164124
     7  N    0.004593  -0.135308   0.005237   0.005140   0.252569  -0.097734
     8  H   -0.000136   0.000534   0.000702   0.000695  -0.017328   0.003469
     9  C   -0.000110   0.003629   0.000109   0.000013  -0.038165  -0.016737
    10  H    0.000003  -0.000251   0.000019   0.000002   0.001024  -0.000004
    11  C   -0.000002   0.000696  -0.000016  -0.000007  -0.000464  -0.033461
    12  H    0.000020  -0.000289   0.000012  -0.000012   0.000955  -0.009101
    13  H   -0.000001   0.000041  -0.000001  -0.000001   0.000997   0.006114
    14  H    0.000017  -0.000230  -0.000011   0.000010  -0.000100  -0.006705
    15  C    0.000001  -0.000222  -0.000005   0.000041   0.000412  -0.000322
    16  O    0.000000  -0.000007   0.000000  -0.000001   0.000256  -0.000001
    17  N    0.000000  -0.000002   0.000000   0.000000   0.000281  -0.000026
    18  H    0.000000  -0.000003   0.000000   0.000001  -0.000078  -0.000303
    19  C    0.000000   0.000000   0.000000   0.000000  -0.000009   0.000002
    20  H    0.000000   0.000000   0.000000   0.000000  -0.000001   0.000000
    21  H    0.000000   0.000000   0.000000   0.000000   0.000000   0.000000
    22  H    0.000000   0.000000   0.000000   0.000000  -0.000001   0.000000
              7          8          9         10         11         12
     1  H    0.004593  -0.000136  -0.000110   0.000003  -0.000002   0.000020
     2  C   -0.135308   0.000534   0.003629  -0.000251   0.000696  -0.000289
     3  H    0.005237   0.000702   0.000109   0.000019  -0.000016   0.000012
     4  H    0.005140   0.000695   0.000013   0.000002  -0.000007  -0.000012
     5  C    0.252569  -0.017328  -0.038165   0.001024  -0.000464   0.000955
     6  O   -0.097734   0.003469  -0.016737  -0.000004  -0.033461  -0.009101
     7  N    7.114775   0.300454   0.266429  -0.047301  -0.043713  -0.005473
     8  H    0.300454   0.397566  -0.037107  -0.000628   0.006381  -0.000196
     9  C    0.266429  -0.037107   5.092826   0.374735   0.314347  -0.020541
    10  H   -0.047301  -0.000628   0.374735   0.581566  -0.039531   0.005338
    11  C   -0.043713   0.006381   0.314347  -0.039531   5.229287   0.378727
    12  H   -0.005473  -0.000196  -0.020541   0.005338   0.378727   0.539195
    13  H    0.004674  -0.000060  -0.030680  -0.005456   0.321197  -0.048429
    14  H   -0.002825  -0.000310  -0.013517  -0.002459   0.371935  -0.019176
    15  C   -0.044677  -0.000399   0.336862  -0.037168  -0.047711  -0.008922
    16  O   -0.002095   0.008774  -0.084691  -0.000399   0.004055  -0.000122
    17  N    0.000668   0.000299  -0.115619   0.002329  -0.009325  -0.000982
    18  H    0.000460  -0.000062  -0.008319   0.000521   0.015610   0.007586
    19  C   -0.000168  -0.000002   0.007510  -0.000193  -0.000107   0.000063
    20  H   -0.000020  -0.000010   0.001017  -0.000025  -0.000108  -0.000019
    21  H   -0.000003   0.000000  -0.000151   0.000024   0.000007   0.000035
    22  H    0.000021   0.000000  -0.000217  -0.000003   0.000036  -0.000063
             13         14         15         16         17         18
     1  H   -0.000001   0.000017   0.000001   0.000000   0.000000   0.000000
     2  C    0.000041  -0.000230  -0.000222  -0.000007  -0.000002  -0.000003
     3  H   -0.000001  -0.000011  -0.000005   0.000000   0.000000   0.000000
     4  H   -0.000001   0.000010   0.000041  -0.000001   0.000000   0.000001
     5  C    0.000997  -0.000100   0.000412   0.000256   0.000281  -0.000078
     6  O    0.006114  -0.006705  -0.000322  -0.000001  -0.000026  -0.000303
     7  N    0.004674  -0.002825  -0.044677  -0.002095   0.000668   0.000460
     8  H   -0.000060  -0.000310  -0.000399   0.008774   0.000299  -0.000062
     9  C   -0.030680  -0.013517   0.336862  -0.084691  -0.115619  -0.008319
    10  H   -0.005456  -0.002459  -0.037168  -0.000399   0.002329   0.000521
    11  C    0.321197   0.371935  -0.047711   0.004055  -0.009325   0.015610
    12  H   -0.048429  -0.019176  -0.008922  -0.000122  -0.000982   0.007586
    13  H    0.662173  -0.029134  -0.006364  -0.000055  -0.000950   0.000662
    14  H   -0.029134   0.513310   0.003201  -0.000075   0.000905  -0.000064
    15  C   -0.006364   0.003201   4.345482   0.580628   0.308403  -0.015939
    16  O   -0.000055  -0.000075   0.580628   8.120954  -0.100381   0.003706
    17  N   -0.000950   0.000905   0.308403  -0.100381   7.067350   0.290985
    18  H    0.000662  -0.000064  -0.015939   0.003706   0.290985   0.394188
    19  C    0.000139  -0.000010  -0.028919  -0.008998   0.265155  -0.030154
    20  H   -0.000027   0.000002  -0.000613   0.022511  -0.037562   0.003460
    21  H   -0.000028   0.000000   0.001647   0.000595  -0.044162  -0.000615
    22  H    0.000021   0.000000   0.001602   0.000592  -0.043442  -0.000613
             19         20         21         22
     1  H    0.000000   0.000000   0.000000   0.000000
     2  C    0.000000   0.000000   0.000000   0.000000
     3  H    0.000000   0.000000   0.000000   0.000000
     4  H    0.000000   0.000000   0.000000   0.000000
     5  C   -0.000009  -0.000001   0.000000  -0.000001
     6  O    0.000002   0.000000   0.000000   0.000000
     7  N   -0.000168  -0.000020  -0.000003   0.000021
     8  H   -0.000002  -0.000010   0.000000   0.000000
     9  C    0.007510   0.001017  -0.000151  -0.000217
    10  H   -0.000193  -0.000025   0.000024  -0.000003
    11  C   -0.000107  -0.000108   0.000007   0.000036
    12  H    0.000063  -0.000019   0.000035  -0.000063
    13  H    0.000139  -0.000027  -0.000028   0.000021
    14  H   -0.000010   0.000002   0.000000   0.000000
    15  C   -0.028919  -0.000613   0.001647   0.001602
    16  O   -0.008998   0.022511   0.000595   0.000592
    17  N    0.265155  -0.037562  -0.044162  -0.043442
    18  H   -0.030154   0.003460  -0.000615  -0.000613
    19  C    4.972426   0.374697   0.382758   0.382147
    20  H    0.374697   0.478131  -0.024339  -0.024172
    21  H    0.382758  -0.024339   0.564268  -0.038444
    22  H    0.382147  -0.024172  -0.038444   0.562911
 Mulliken atomic charges:
              1
     1  H    0.188240
     2  C   -0.536793
     3  H    0.164282
     4  H    0.167976
     5  C    0.580182
     6  O   -0.517298
     7  N   -0.575704
     8  H    0.337362
     9  C   -0.031625
    10  H    0.167858
    11  C   -0.467834
    12  H    0.181393
    13  H    0.125169
    14  H    0.185236
    15  C    0.612982
    16  O   -0.545248
    17  N   -0.583924
    18  H    0.338969
    19  C   -0.316336
    20  H    0.207078
    21  H    0.158407
    22  H    0.159626
 Sum of Mulliken atomic charges =   0.00000
 Mulliken charges with hydrogens summed into heavy atoms:
              1
     2  C   -0.016294
     5  C    0.580182
     6  O   -0.517298
     7  N   -0.238342
     9  C    0.136233
    11  C    0.023965
    15  C    0.612982
    16  O   -0.545248
    17  N   -0.244955
    19  C    0.208775
 Sum of Mulliken charges with hydrogens summed into heavy atoms =   0.00000
 APT atomic charges:
              1
     1  H    0.661509
     2  C   -1.247202
     3  H    0.478358
     4  H    0.300997
     5  C    0.059113
     6  O   -0.262959
     7  N   -0.705766
     8  H    0.604078
     9  C   -0.466916
    10  H    0.482081
    11  C   -1.088887
    12  H    0.286379
    13  H    0.407748
    14  H    0.469595
    15  C   -0.166579
    16  O   -0.086612
    17  N   -0.340971
    18  H    0.460352
    19  C   -1.373076
    20  H    0.468928
    21  H    0.620827
    22  H    0.439001
 Sum of APT charges=   0.00000
 APT Atomic charges with hydrogens summed into heavy atoms:
              1
     1  H    0.000000
     2  C    0.193662
     3  H    0.000000
     4  H    0.000000
     5  C    0.059113
     6  O   -0.262959
     7  N   -0.101687
     8  H    0.000000
     9  C    0.015166
    10  H    0.000000
    11  C    0.074836
    12  H    0.000000
    13  H    0.000000
    14  H    0.000000
    15  C   -0.166579
    16  O   -0.086612
    17  N    0.119381
    18  H    0.000000
    19  C    0.155679
    20  H    0.000000
    21  H    0.000000
    22  H    0.000000
 Sum of APT charges=   0.00000
 Electronic spatial extent (au):  <R**2>=           1788.3604
 Charge=              0.0000 electrons
 Dipole moment (field-independent basis, Debye):
    X=              0.4209    Y=              0.2430    Z=              0.1519  Tot=              0.5092
 Quadrupole moment (field-independent basis, Debye-Ang):
   XX=            -56.6046   YY=            -64.0413   ZZ=            -58.0746
   XY=             13.2523   XZ=              4.5366   YZ=             -1.6813
 Traceless Quadrupole moment (field-independent basis, Debye-Ang):
   XX=              2.9689   YY=             -4.4678   ZZ=              1.4989
   XY=             13.2523   XZ=              4.5366   YZ=             -1.6813
 Octapole moment (field-independent basis, Debye-Ang**2):
  XXX=             11.4820  YYY=              0.9957  ZZZ=             -0.3522  XYY=             -2.5710
  XXY=             -4.8874  XXZ=              8.9226  XZZ=              0.5313  YZZ=             -0.7297
  YYZ=              1.3913  XYZ=              0.3330
 Hexadecapole moment (field-independent basis, Debye-Ang**3):
 XXXX=          -1556.0796 YYYY=           -418.0595 ZZZZ=           -227.4024 XXXY=             31.8464
 XXXZ=             19.3172 YYYX=             22.6350 YYYZ=              3.5047 ZZZX=              0.5081
 ZZZY=              5.8538 XXYY=           -362.2338 XXZZ=           -306.2445 YYZZ=           -107.3174
 XXYZ=             -6.5803 YYXZ=             14.3013 ZZXY=             -0.2984
 N-N= 5.644791197738D+02 E-N=-2.285472018848D+03  KE= 4.917255135532D+02
  Exact polarizability:   0.000   0.000   0.000   0.000   0.000   0.000
 Approx polarizability: 109.769  -0.354 134.103  -0.799  14.554  93.182
 Calling FoFJK, ICntrl=    100147 FMM=F ISym2X=0 I1Cent= 0 IOpClX= 0 NMat=1 NMatS=1 NMatT=0.
 ***** Axes restored to original set *****
 -------------------------------------------------------------------
 Center     Atomic                   Forces (Hartrees/Bohr)
 Number     Number              X              Y              Z
 -------------------------------------------------------------------
      1        1           0.003733080    0.001245983   -0.000793365
      2        6           0.006259886    0.006513715    0.005435715
      3        1          -0.004963823   -0.002323488    0.003781129
      4        1          -0.006170072    0.000509972    0.002060444
      5        6          -0.015769872   -0.026573633   -0.030400154
      6        8          -0.029265861   -0.018954539   -0.007379638
      7        7           0.002680125    0.011435161    0.017607760
      8        1           0.000442654    0.003381419    0.000801853
      9        6           0.014564705    0.003912302   -0.016241531
     10        1           0.000633654    0.002121363    0.006632288
     11        6           0.018903568   -0.010353157    0.003147784
     12        1           0.008234862   -0.004770450   -0.000605951
     13        1           0.006740312    0.000480451    0.005938716
     14        1           0.007340293    0.006293877   -0.005292689
     15        6          -0.013948543    0.000521671    0.025379433
     16        8          -0.005411906    0.000223405    0.005742048
     17        7           0.006409769    0.016048659   -0.013489179
     18        1          -0.002795202    0.005441870    0.002590856
     19        6           0.001091231   -0.000601147   -0.001737524
     20        1          -0.000142297   -0.002739285    0.000671278
     21        1           0.002824536    0.004333158   -0.000733583
     22        1          -0.001391101    0.003852694   -0.003115689
 -------------------------------------------------------------------
 Cartesian Forces:  Max     0.030400154 RMS     0.010018117

 GradGradGradGradGradGradGradGradGradGradGradGradGradGradGradGradGradGrad
 Berny optimization.
 Internal  Forces:  Max     0.125076360 RMS     0.022758109
 Search for a local minimum.
 Step number   1 out of a maximum of  132
 All quantities printed in internal units (Hartrees-Bohrs-Radians)
 Mixed Optimization -- RFO/linear search
 Second derivative matrix not updated -- analytic derivatives used.
     Eigenvalues ---   -0.01577  -0.00059  -0.00021   0.00355   0.01391
     Eigenvalues ---    0.01798   0.02109   0.02441   0.04390   0.04591
     Eigenvalues ---    0.04877   0.05001   0.05407   0.05830   0.05970
     Eigenvalues ---    0.06116   0.06403   0.06602   0.11407   0.11964
     Eigenvalues ---    0.12481   0.13239   0.13349   0.13479   0.13703
     Eigenvalues ---    0.14238   0.14449   0.17800   0.18394   0.18693
     Eigenvalues ---    0.19891   0.21424   0.22656   0.23593   0.23884
     Eigenvalues ---    0.26959   0.29272   0.30883   0.33663   0.34375
     Eigenvalues ---    0.34587   0.34865   0.34985   0.35094   0.35380
     Eigenvalues ---    0.35497   0.35822   0.35898   0.36403   0.39363
     Eigenvalues ---    0.46048   0.46961   0.50732   0.53514   0.71664
     Eigenvalues ---    0.80744   0.83581   1.817891000.000001000.00000
     Eigenvalues --- 1000.000001000.000001000.000001000.000001000.00000
     Eigenvalues --- 1000.000001000.000001000.000001000.000001000.00000
     Eigenvalues --- 1000.000001000.000001000.000001000.000001000.00000
     Eigenvalues --- 1000.000001000.000001000.000001000.000001000.00000
     Eigenvalues --- 1000.000001000.000001000.000001000.000001000.00000
     Eigenvalues --- 1000.000001000.000001000.000001000.000001000.00000
     Eigenvalues --- 1000.000001000.000001000.000001000.000001000.00000
     Eigenvalues --- 1000.000001000.000001000.00000
 RFO step:  Lambda=-4.11969954D-02 EMin=-1.57725507D-02
 Linear search not attempted -- first point.
 Maximum step size (   0.300) exceeded in Quadratic search.
    -- Step size scaled by   0.306
 Iteration  1 RMS(Cart)=  0.06102514 RMS(Int)=  0.00170075
 Iteration  2 RMS(Cart)=  0.00256127 RMS(Int)=  0.00009520
 Iteration  3 RMS(Cart)=  0.00000333 RMS(Int)=  0.00009518
 Iteration  4 RMS(Cart)=  0.00000000 RMS(Int)=  0.00009518
 Iteration  1 RMS(Cart)=  0.00003991 RMS(Int)=  0.00001304
 Iteration  2 RMS(Cart)=  0.00002134 RMS(Int)=  0.00001454
 Iteration  3 RMS(Cart)=  0.00001156 RMS(Int)=  0.00001643
 Iteration  4 RMS(Cart)=  0.00000638 RMS(Int)=  0.00001773
 Iteration  5 RMS(Cart)=  0.00000361 RMS(Int)=  0.00001853
 Iteration  6 RMS(Cart)=  0.00000211 RMS(Int)=  0.00001902
 Iteration  7 RMS(Cart)=  0.00000128 RMS(Int)=  0.00001932
 Iteration  8 RMS(Cart)=  0.00000080 RMS(Int)=  0.00001950
 Variable       Old X    -DE/DX   Delta X   Delta X   Delta X     New X
                                 (Linear)    (Quad)   (Total)
    R1        2.05984  -0.00087   0.00000   0.00002   0.00002   2.05986
    R2        2.05972   0.00464   0.00000   0.00292   0.00292   2.06264
    R3        2.05970   0.00459   0.00000   0.00364   0.00364   2.06334
    R4        2.89146  -0.00051   0.00000  -0.00212  -0.00212   2.88935
    R5        2.32253  -0.00717   0.00000  -0.00080  -0.00080   2.32173
    R6        2.52277   0.05760   0.00000   0.01581   0.01581   2.53857
    R7        1.90863   0.00097   0.00000   0.00040   0.00040   1.90903
    R8        2.73817   0.04958   0.00000   0.00704   0.00704   2.74521
    R9        2.05975   0.00516   0.00000   0.00428   0.00428   2.06402
   R10        2.88188   0.02140   0.00000   0.00617   0.00617   2.88806
   R11        2.87618   0.02820   0.00000   0.00676   0.00676   2.88293
   R12        2.05972  -0.00489   0.00000  -0.00453  -0.00453   2.05518
   R13        2.05984   0.00636   0.00000   0.00454   0.00454   2.06438
   R14        2.05966  -0.00520   0.00000   0.00402   0.00402   2.06368
   R15        2.32259   0.00697   0.00000  -0.00027  -0.00027   2.32232
   R16        2.52290   0.02749   0.00000   0.01200   0.01200   2.53490
   R17        1.90857  -0.00595   0.00000  -0.00049  -0.00049   1.90808
   R18        2.73818   0.00511   0.00000   0.00206   0.00206   2.74025
   R19        2.05970  -0.00043   0.00000   0.00031   0.00031   2.06000
   R20        2.05986   0.00427   0.00000   0.00294   0.00294   2.06280
   R21        2.05978   0.00423   0.00000   0.00341   0.00341   2.06319
    A1        1.91116  -0.00006   0.00000   0.00226   0.00229   1.91345
    A2        1.91110   0.00009   0.00000  -0.00395  -0.00397   1.90713
    A3        1.93897  -0.00807   0.00000  -0.01125  -0.01124   1.92773
    A4        1.91027  -0.00523   0.00000  -0.00710  -0.00715   1.90311
    A5        1.89601   0.00679   0.00000   0.01729   0.01729   1.91330
    A6        1.89606   0.00651   0.00000   0.00284   0.00280   1.89886
    A7        2.10308  -0.02061   0.00000   0.00784   0.00769   2.11076
    A8        2.03504  -0.03986   0.00000  -0.01244  -0.01259   2.02245
    A9        2.14506   0.06047   0.00000   0.00459   0.00444   2.14950
   A10        2.09433  -0.06000   0.00000  -0.00644  -0.00657   2.08777
   A11        2.12753   0.12508   0.00000   0.02089   0.02076   2.14829
   A12        2.06132  -0.06508   0.00000  -0.01446  -0.01458   2.04674
   A13        1.91114  -0.00893   0.00000  -0.01220  -0.01232   1.89881
   A14        1.93905   0.05910   0.00000   0.01208   0.01197   1.95102
   A15        1.93900  -0.04648   0.00000  -0.01091  -0.01154   1.92746
   A16        1.89609  -0.02486   0.00000  -0.01565  -0.01549   1.88060
   A17        1.89608   0.00353   0.00000  -0.01065  -0.01070   1.88538
   A18        1.88137   0.01721   0.00000   0.03726   0.03731   1.91869
   A19        1.91115   0.01258   0.00000   0.01875   0.01874   1.92989
   A20        1.91106  -0.01050   0.00000  -0.00788  -0.00787   1.90319
   A21        1.91110   0.01157   0.00000   0.00418   0.00418   1.91527
   A22        1.91011  -0.00066   0.00000   0.00374   0.00374   1.91385
   A23        1.91023  -0.00789   0.00000  -0.01822  -0.01824   1.89199
   A24        1.91015  -0.00511   0.00000  -0.00060  -0.00059   1.90956
   A25        2.10311  -0.01847   0.00000  -0.00248  -0.00249   2.10062
   A26        2.03508   0.02936   0.00000  -0.00330  -0.00331   2.03177
   A27        2.14499  -0.01089   0.00000   0.00578   0.00577   2.15076
   A28        2.09431   0.00269   0.00000  -0.00634  -0.00634   2.08797
   A29        2.12756   0.00011   0.00000   0.00352   0.00351   2.13107
   A30        2.06132  -0.00280   0.00000   0.00282   0.00281   2.06413
   A31        1.91113  -0.00581   0.00000  -0.00928  -0.00926   1.90187
   A32        1.91103   0.00458   0.00000   0.00546   0.00545   1.91648
   A33        1.91116   0.00441   0.00000   0.00795   0.00794   1.91911
   A34        1.91015  -0.00007   0.00000   0.00065   0.00066   1.91081
   A35        1.91015  -0.00005   0.00000  -0.00173  -0.00172   1.90843
   A36        1.91018  -0.00308   0.00000  -0.00306  -0.00309   1.90709
    D1       -0.00003   0.00003   0.00000   0.07210   0.07213   0.07211
    D2        3.14149  -0.00002   0.00000   0.04024   0.04025  -3.10145
    D3        2.10326  -0.00064   0.00000   0.07912   0.07910   2.18235
    D4       -1.03841  -0.00070   0.00000   0.04726   0.04721  -0.99120
    D5       -2.10327   0.00070   0.00000   0.08212   0.08214  -2.02113
    D6        1.03825   0.00064   0.00000   0.05025   0.05025   1.08851
    D7        0.00015  -0.00064   0.00000  -0.05508  -0.05502  -0.05487
    D8        3.14155   0.00035   0.00000  -0.08572  -0.08581   3.05574
    D9       -3.14152  -0.00070   0.00000  -0.08778  -0.08769   3.05398
   D10       -0.00011   0.00029   0.00000  -0.11843  -0.11848  -0.11859
   D11       -2.09432  -0.01072   0.00000  -0.02807  -0.02796  -2.12228
   D12        0.00012  -0.01012   0.00000  -0.04785  -0.04772  -0.04761
   D13        2.09447   0.02005   0.00000   0.00000   0.00000   2.09447
   D14        1.04709  -0.00975   0.00000  -0.05816  -0.05807   0.98901
   D15        3.14153  -0.00915   0.00000  -0.07793  -0.07784   3.06369
   D16       -1.04730   0.02101   0.00000  -0.03009  -0.03012  -1.07742
   D17        1.04724  -0.00470   0.00000   0.02892   0.02912   1.07636
   D18        3.14157  -0.00423   0.00000   0.04018   0.04038  -3.10124
   D19       -1.04726  -0.00984   0.00000   0.03718   0.03737  -1.00989
   D20       -3.13259   0.00476   0.00000   0.01117   0.01121  -3.12138
   D21       -1.03826   0.00522   0.00000   0.02243   0.02247  -1.01579
   D22        1.05609  -0.00038   0.00000   0.01943   0.01946   1.07555
   D23       -1.08102   0.00500   0.00000   0.01055   0.01032  -1.07070
   D24        1.01331   0.00546   0.00000   0.02181   0.02158   1.03488
   D25        3.10766  -0.00014   0.00000   0.01881   0.01857   3.12623
   D26        1.04715  -0.03173   0.00000  -0.00767  -0.00764   1.03951
   D27       -2.09440  -0.03074   0.00000   0.00000   0.00000  -2.09441
   D28       -1.05616   0.00580   0.00000   0.02107   0.02105  -1.03511
   D29        2.08547   0.00679   0.00000   0.02874   0.02869   2.11415
   D30       -3.10774   0.02392   0.00000   0.02492   0.02492  -3.08282
   D31        0.03389   0.02491   0.00000   0.03260   0.03256   0.06645
   D32        0.00005  -0.00013   0.00000   0.00298   0.00296   0.00301
   D33        3.14156  -0.00039   0.00000  -0.00452  -0.00451   3.13704
   D34       -3.14151   0.00089   0.00000   0.01085   0.01085  -3.13066
   D35        0.00000   0.00063   0.00000   0.00335   0.00337   0.00337
   D36        0.00008   0.00011   0.00000   0.03348   0.03348   0.03356
   D37        2.09443  -0.00072   0.00000   0.03193   0.03192   2.12635
   D38       -2.09436   0.00103   0.00000   0.03641   0.03644  -2.05792
   D39        3.14159  -0.00015   0.00000   0.02611   0.02610  -3.11549
   D40       -1.04725  -0.00098   0.00000   0.02457   0.02454  -1.02271
   D41        1.04715   0.00077   0.00000   0.02905   0.02906   1.07621
         Item               Value     Threshold  Converged?
 Maximum Force            0.125077     0.000450     NO 
 RMS     Force            0.022336     0.000300     NO 
 Maximum Displacement     0.215691     0.001800     NO 
 RMS     Displacement     0.060798     0.001200     NO 
 Predicted change in Energy=-1.147891D-02
 GradGradGradGradGradGradGradGradGradGradGradGradGradGradGradGradGradGrad

                          Input orientation:                          
 ---------------------------------------------------------------------
 Center     Atomic      Atomic             Coordinates (Angstroms)
 Number     Number       Type             X           Y           Z
 ---------------------------------------------------------------------
      1          1           0        1.550960    1.836252   -1.659431
      2          6           0        1.773940    2.505948   -0.828793
      3          1           0        1.777731    1.942285    0.105899
      4          1           0        1.006425    3.280641   -0.774471
      5          6           0        3.134424    3.173665   -1.031293
      6          8           0        3.782179    2.988614   -2.058739
      7          7           0        3.540511    3.988418   -0.043429
      8          1           0        2.931334    4.160788    0.743800
      9          6           0        4.848257    4.620692   -0.024028
     10          1           0        5.370637    4.320763    0.887090
     11          6           0        5.704033    4.190379   -1.214894
     12          1           0        5.234067    4.486178   -2.149995
     13          1           0        6.688041    4.657931   -1.134184
     14          1           0        5.817191    3.104205   -1.214382
     15          6           0        4.705402    6.139488   -0.008033
     16          8           0        4.103853    6.697119    0.907076
     17          7           0        5.257266    6.801577   -1.035880
     18          1           0        5.731477    6.287345   -1.764037
     19          6           0        5.190080    8.245802   -1.147333
     20          1           0        4.672944    8.644877   -0.274613
     21          1           0        6.198751    8.660492   -1.193984
     22          1           0        4.643697    8.524841   -2.050447
 ---------------------------------------------------------------------
                    Distance matrix (angstroms):
                    1          2          3          4          5
     1  H    0.000000
     2  C    1.090033   0.000000
     3  H    1.782992   1.091503   0.000000
     4  H    1.779307   1.091870   1.777965   0.000000
     5  C    2.165777   1.528976   2.156413   2.146108   0.000000
     6  O    2.542779   2.403905   3.130219   3.072367   1.228608
     7  N    3.346878   2.436244   2.704875   2.730744   1.343355
     8  H    3.617239   2.559513   2.580595   2.604819   2.041228
     9  C    4.615172   3.817226   4.076625   4.137460   2.458799
    10  H    5.219913   4.378817   4.379085   4.784243   3.161752
    11  C    4.794533   4.293252   4.713201   4.805114   2.769532
    12  H    4.563774   4.199924   4.848371   4.606337   2.717110
    13  H    5.884501   5.373330   5.746623   5.857225   3.852509
    14  H    4.472863   4.105420   4.405728   4.834059   2.689905
    15  C    5.585289   4.740225   5.118666   4.737390   3.508723
    16  O    6.060714   5.099770   5.353613   4.908562   4.136640
    17  N    6.227357   5.534336   6.084697   5.525846   4.203359
    18  H    6.107364   5.552994   6.165088   5.687322   4.120267
    19  C    7.388354   6.687108   7.276609   6.503447   5.474099
    20  H    7.617210   6.811593   7.311073   6.516767   5.733565
    21  H    8.269756   7.588856   8.146743   7.488594   6.286640
    22  H    7.379373   6.779013   7.496241   6.508418   5.652580
                    6          7          8          9         10
     6  O    0.000000
     7  N    2.262627   0.000000
     8  H    3.154703   1.010217   0.000000
     9  C    2.817844   1.452703   2.115577   0.000000
    10  H    3.602183   2.079827   2.448739   1.092234   0.000000
    11  C    2.418643   2.468592   3.394881   1.528294   2.132250
    12  H    2.087822   2.748366   3.712480   2.164874   3.044651
    13  H    3.476413   3.397784   4.229281   2.149101   2.436141
    14  H    2.206258   2.708549   3.644039   2.157663   2.468928
    15  C    3.871142   2.446493   2.761852   1.525583   2.133435
    16  O    4.759468   2.925385   2.799006   2.394293   2.692992
    17  N    4.214357   3.441813   3.943475   2.438728   3.140877
    18  H    3.842946   3.611910   4.318830   2.566211   3.320561
    19  C    5.518230   4.697340   5.036434   3.810522   4.424637
    20  H    5.997489   4.797757   4.917055   4.035789   4.531478
    21  H    6.225578   5.497117   5.888834   4.417309   4.883635
    22  H    5.602864   5.081759   5.457561   4.403476   5.179946
                   11         12         13         14         15
    11  C    0.000000
    12  H    1.087557   0.000000
    13  H    1.092424   1.781969   0.000000
    14  H    1.092053   1.767839   1.782939   0.000000
    15  C    2.500561   2.756977   2.719207   3.450260   0.000000
    16  O    3.653365   3.938442   3.873378   4.510559   1.228917
    17  N    2.655184   2.569603   2.579147   3.743787   1.341412
    18  H    2.167851   1.908032   1.991663   3.231385   2.039177
    19  C    4.088418   3.891277   3.888043   5.180133   2.443252
    20  H    4.667957   4.596379   4.549200   5.735112   2.519741
    21  H    4.497454   4.389700   4.032800   5.569410   3.161018
    22  H    4.539826   4.082799   4.468990   5.608867   3.140887
                   16         17         18         19         20
    16  O    0.000000
    17  N    2.261936   0.000000
    18  H    3.154666   1.009714   0.000000
    19  C    2.792652   1.450076   2.123437   0.000000
    20  H    2.348195   2.078152   2.982756   1.090106   0.000000
    21  H    3.557793   2.089727   2.484981   1.091587   1.781453
    22  H    3.518373   2.091758   2.504333   1.091793   1.780126
                   21         22
    21  H    0.000000
    22  H    1.780484   0.000000
 Stoichiometry    C6H12N2O2
 Framework group  C1[X(C6H12N2O2)]
 Deg. of freedom    60
 Full point group                 C1      NOp   1
 Largest Abelian subgroup         C1      NOp   1
 Largest concise Abelian subgroup C1      NOp   1
                         Standard orientation:                         
 ---------------------------------------------------------------------
 Center     Atomic      Atomic             Coordinates (Angstroms)
 Number     Number       Type             X           Y           Z
 ---------------------------------------------------------------------
      1          1           0       -4.049271   -0.288955    1.123239
      2          6           0       -3.281261   -0.882582    0.627318
      3          1           0       -3.699554   -1.351632   -0.265096
      4          1           0       -2.931815   -1.661156    1.308414
      5          6           0       -2.094604   -0.001393    0.236010
      6          8           0       -2.058022    1.185438    0.551558
      7          7           0       -1.101735   -0.616026   -0.428098
      8          1           0       -1.153198   -1.611201   -0.593982
      9          6           0        0.049050    0.089591   -0.964888
     10          1           0        0.095948   -0.082232   -2.042502
     11          6           0       -0.053416    1.597397   -0.737503
     12          1           0       -0.082560    1.822405    0.326124
     13          1           0        0.810948    2.086125   -1.192924
     14          1           0       -0.968713    1.978089   -1.195635
     15          6           0        1.337261   -0.443452   -0.345386
     16          8           0        1.643027   -1.627155   -0.470253
     17          7           0        2.084284    0.441241    0.331861
     18          1           0        1.776265    1.399785    0.408270
     19          6           0        3.329022    0.066638    0.974529
     20          1           0        3.527940   -0.986424    0.774972
     21          1           0        4.146347    0.672757    0.579358
     22          1           0        3.253472    0.222477    2.052499
 ---------------------------------------------------------------------
 Rotational constants (GHZ):      2.5064595      0.7483022      0.6748490
 Standard basis: 6-31G(d) (6D, 7F)
 There are   174 symmetry adapted basis functions of A   symmetry.
 Integral buffers will be    131072 words long.
 Raffenetti 2 integral format.
 Two-electron integral symmetry is turned on.
   174 basis functions,   328 primitive gaussians,   174 cartesian basis functions
    39 alpha electrons       39 beta electrons
       nuclear repulsion energy       561.8504734211 Hartrees.
 NAtoms=   22 NActive=   22 NUniq=   22 SFac= 7.50D-01 NAtFMM=   80 NAOKFM=F Big=F
 One-electron integrals computed using PRISM.
 NBasis=   174 RedAO= T  NBF=   174
 NBsUse=   174 1.00D-06 NBFU=   174
 Initial guess read from the read-write file.
 B after Tr=     0.000000    0.000000    0.000000
         Rot=    1.000000    0.000000    0.000000    0.000000 Ang=   0.00 deg.
 Initial guess orbital symmetries:
       Occupied  (A) (A) (A) (A) (A) (A) (A) (A) (A) (A) (A) (A)
                 (A) (A) (A) (A) (A) (A) (A) (A) (A) (A) (A) (A)
                 (A) (A) (A) (A) (A) (A) (A) (A) (A) (A) (A) (A)
                 (A) (A) (A)
       Virtual   (A) (A) (A) (A) (A) (A) (A) (A) (A) (A) (A) (A)
                 (A) (A) (A) (A) (A) (A) (A) (A) (A) (A) (A) (A)
                 (A) (A) (A) (A) (A) (A) (A) (A) (A) (A) (A) (A)
                 (A) (A) (A) (A) (A) (A) (A) (A) (A) (A) (A) (A)
                 (A) (A) (A) (A) (A) (A) (A) (A) (A) (A) (A) (A)
                 (A) (A) (A) (A) (A) (A) (A) (A) (A) (A) (A) (A)
                 (A) (A) (A) (A) (A) (A) (A) (A) (A) (A) (A) (A)
                 (A) (A) (A) (A) (A) (A) (A) (A) (A) (A) (A) (A)
                 (A) (A) (A) (A) (A) (A) (A) (A) (A) (A) (A) (A)
                 (A) (A) (A) (A) (A) (A) (A) (A) (A) (A) (A) (A)
                 (A) (A) (A) (A) (A) (A) (A) (A) (A) (A) (A) (A)
                 (A) (A) (A)
 Harris functional with IExCor=  402 diagonalized for initial guess.
 ExpMin= 1.61D-01 ExpMax= 5.48D+03 ExpMxC= 8.25D+02 IAcc=1 IRadAn=         1 AccDes= 0.00D+00
 HarFok:  IExCor=  402 AccDes= 0.00D+00 IRadAn=         1 IDoV= 1
 ScaDFX=  1.000000  1.000000  1.000000  1.000000
 FoFCou: FMM=F IPFlag=           0 FMFlag=      100000 FMFlg1=           0
         NFxFlg=           0 DoJE=T BraDBF=F KetDBF=T FulRan=T
         Omega=  0.000000  0.000000  1.000000  0.000000  0.000000 ICntrl=     500 IOpCl=  0
         NMat0=    1 NMatS0=    1 NMatT0=    0 NMatD0=    1 NMtDS0=    0 NMtDT0=    0
         I1Cent=           4 NGrid=           0.
 Petite list used in FoFCou.
 Requested convergence on RMS density matrix=1.00D-08 within 128 cycles.
 Requested convergence on MAX density matrix=1.00D-06.
 Requested convergence on             energy=1.00D-06.
 No special actions if energy rises.
 Integral accuracy reduced to 1.0D-05 until final iterations.
 Initial convergence to 1.0D-05 achieved.  Increase integral accuracy.
 SCF Done:  E(RB3LYP) =  -495.822560914     A.U. after   13 cycles
             Convg  =    0.3893D-08             -V/T =  2.0086
 Calling FoFJK, ICntrl=      2127 FMM=F ISym2X=0 I1Cent= 0 IOpClX= 0 NMat=1 NMatS=1 NMatT=0.
 ***** Axes restored to original set *****
 -------------------------------------------------------------------
 Center     Atomic                   Forces (Hartrees/Bohr)
 Number     Number              X              Y              Z
 -------------------------------------------------------------------
      1        1           0.002643182    0.001018566   -0.000771614
      2        6           0.005139333    0.004746845    0.004218809
      3        1          -0.003570926   -0.001783090    0.002844973
      4        1          -0.004561423    0.000079834    0.001635252
      5        6          -0.014543615   -0.014648423   -0.025116784
      6        8          -0.020250808   -0.013615551   -0.004278532
      7        7           0.003415670    0.006023964    0.013723935
      8        1           0.000830042    0.001748712    0.001170759
      9        6           0.012172465    0.001594703   -0.013935098
     10        1          -0.000410165    0.002515881    0.005559309
     11        6           0.013788826   -0.007596448    0.003949778
     12        1           0.005595946   -0.003705777   -0.000625653
     13        1           0.004722310   -0.000641238    0.004774163
     14        1           0.005140666    0.004481539   -0.003950504
     15        6          -0.011121159    0.000496716    0.017690431
     16        8          -0.003716026   -0.000065268    0.004051965
     17        7           0.005178225    0.011990127   -0.009126508
     18        1          -0.002108949    0.003885200    0.001890613
     19        6           0.000876240   -0.000634873   -0.001533272
     20        1          -0.000110099   -0.002039464    0.000506631
     21        1           0.001996572    0.003241405   -0.000517839
     22        1          -0.001106308    0.002906642   -0.002160812
 -------------------------------------------------------------------
 Cartesian Forces:  Max     0.025116784 RMS     0.007400834

 GradGradGradGradGradGradGradGradGradGradGradGradGradGradGradGradGradGrad
 Berny optimization.
 Using GEDIIS/GDIIS optimizer.
 Internal  Forces:  Max     0.088325081 RMS     0.016195613
 Search for a local minimum.
 Step number   2 out of a maximum of  132
 All quantities printed in internal units (Hartrees-Bohrs-Radians)
 Mixed Optimization -- RFO/linear search
 Update second derivatives using D2CorX and points    1    2
 DE= -1.14D-02 DEPred=-1.15D-02 R= 9.89D-01
 SS=  1.41D+00  RLast= 3.00D-01 DXNew= 5.0454D-01 8.9999D-01
 Trust test= 9.89D-01 RLast= 3.00D-01 DXMaxT set to 5.05D-01
 Use linear search instead of GDIIS.
 Linear search step of   0.594 exceeds DXMaxT=   0.505 but not scaled.
 Quartic linear search produced a step of  2.00000.
 Iteration  1 RMS(Cart)=  0.11711442 RMS(Int)=  0.00699641
 Iteration  2 RMS(Cart)=  0.01210428 RMS(Int)=  0.00058482
 Iteration  3 RMS(Cart)=  0.00011275 RMS(Int)=  0.00057916
 Iteration  4 RMS(Cart)=  0.00000002 RMS(Int)=  0.00057916
 Iteration  1 RMS(Cart)=  0.00027359 RMS(Int)=  0.00009030
 Iteration  2 RMS(Cart)=  0.00014833 RMS(Int)=  0.00010070
 Iteration  3 RMS(Cart)=  0.00008114 RMS(Int)=  0.00011390
 Iteration  4 RMS(Cart)=  0.00004497 RMS(Int)=  0.00012295
 Iteration  5 RMS(Cart)=  0.00002539 RMS(Int)=  0.00012854
 Iteration  6 RMS(Cart)=  0.00001469 RMS(Int)=  0.00013190
 Iteration  7 RMS(Cart)=  0.00000874 RMS(Int)=  0.00013393
 Iteration  8 RMS(Cart)=  0.00000536 RMS(Int)=  0.00013516
 Iteration  9 RMS(Cart)=  0.00000338 RMS(Int)=  0.00013591
 Iteration 10 RMS(Cart)=  0.00000218 RMS(Int)=  0.00013638
 Iteration 11 RMS(Cart)=  0.00000143 RMS(Int)=  0.00013667
 Iteration 12 RMS(Cart)=  0.00000095 RMS(Int)=  0.00013686
 Variable       Old X    -DE/DX   Delta X   Delta X   Delta X     New X
                                 (Linear)    (Quad)   (Total)
    R1        2.05986  -0.00057   0.00005   0.00000   0.00005   2.05991
    R2        2.06264   0.00334   0.00585   0.00000   0.00585   2.06849
    R3        2.06334   0.00334   0.00728   0.00000   0.00728   2.07061
    R4        2.88935  -0.00042  -0.00423   0.00000  -0.00423   2.88511
    R5        2.32173  -0.00504  -0.00159   0.00000  -0.00159   2.32014
    R6        2.53857   0.04111   0.03161   0.00000   0.03161   2.57018
    R7        1.90903   0.00071   0.00080   0.00000   0.00080   1.90983
    R8        2.74521   0.03505   0.01408   0.00000   0.01408   2.75929
    R9        2.06402   0.00375   0.00856   0.00000   0.00856   2.07258
   R10        2.88806   0.01525   0.01235   0.00000   0.01235   2.90040
   R11        2.88293   0.02076   0.01351   0.00000   0.01351   2.89645
   R12        2.05518  -0.00289  -0.00907   0.00000  -0.00907   2.04611
   R13        2.06438   0.00433   0.00907   0.00000   0.00907   2.07346
   R14        2.06368  -0.00393   0.00804   0.00000   0.00804   2.07172
   R15        2.32232   0.00481  -0.00055   0.00000  -0.00055   2.32177
   R16        2.53490   0.01986   0.02400   0.00000   0.02400   2.55890
   R17        1.90808  -0.00434  -0.00098   0.00000  -0.00098   1.90711
   R18        2.74025   0.00367   0.00413   0.00000   0.00413   2.74438
   R19        2.06000  -0.00028   0.00061   0.00000   0.00061   2.06061
   R20        2.06280   0.00310   0.00588   0.00000   0.00588   2.06868
   R21        2.06319   0.00308   0.00683   0.00000   0.00683   2.07002
    A1        1.91345  -0.00004   0.00459   0.00000   0.00477   1.91822
    A2        1.90713  -0.00002  -0.00794   0.00000  -0.00806   1.89907
    A3        1.92773  -0.00597  -0.02248   0.00000  -0.02244   1.90528
    A4        1.90311  -0.00396  -0.01430   0.00000  -0.01460   1.88852
    A5        1.91330   0.00509   0.03457   0.00000   0.03452   1.94782
    A6        1.89886   0.00493   0.00560   0.00000   0.00539   1.90425
    A7        2.11076  -0.01410   0.01537   0.00000   0.01441   2.12517
    A8        2.02245  -0.02804  -0.02519   0.00000  -0.02614   1.99631
    A9        2.14950   0.04214   0.00887   0.00000   0.00793   2.15743
   A10        2.08777  -0.04212  -0.01314   0.00000  -0.01394   2.07383
   A11        2.14829   0.08833   0.04152   0.00000   0.04076   2.18905
   A12        2.04674  -0.04616  -0.02917   0.00000  -0.02989   2.01685
   A13        1.89881  -0.00657  -0.02464   0.00000  -0.02541   1.87340
   A14        1.95102   0.04224   0.02394   0.00000   0.02322   1.97423
   A15        1.92746  -0.03506  -0.02309   0.00000  -0.02687   1.90059
   A16        1.88060  -0.01738  -0.03098   0.00000  -0.02990   1.85071
   A17        1.88538   0.00185  -0.02140   0.00000  -0.02184   1.86353
   A18        1.91869   0.01391   0.07463   0.00000   0.07497   1.99365
   A19        1.92989   0.00922   0.03748   0.00000   0.03742   1.96731
   A20        1.90319  -0.00714  -0.01575   0.00000  -0.01575   1.88744
   A21        1.91527   0.00816   0.00835   0.00000   0.00832   1.92360
   A22        1.91385  -0.00032   0.00748   0.00000   0.00744   1.92129
   A23        1.89199  -0.00612  -0.03648   0.00000  -0.03657   1.85542
   A24        1.90956  -0.00386  -0.00119   0.00000  -0.00115   1.90841
   A25        2.10062  -0.01373  -0.00498   0.00000  -0.00503   2.09559
   A26        2.03177   0.02180  -0.00662   0.00000  -0.00667   2.02510
   A27        2.15076  -0.00807   0.01154   0.00000   0.01149   2.16225
   A28        2.08797   0.00191  -0.01269   0.00000  -0.01273   2.07523
   A29        2.13107   0.00001   0.00702   0.00000   0.00698   2.13804
   A30        2.06413  -0.00192   0.00562   0.00000   0.00557   2.06970
   A31        1.90187  -0.00436  -0.01853   0.00000  -0.01845   1.88342
   A32        1.91648   0.00346   0.01090   0.00000   0.01082   1.92730
   A33        1.91911   0.00332   0.01589   0.00000   0.01583   1.93494
   A34        1.91081  -0.00007   0.00131   0.00000   0.00137   1.91218
   A35        1.90843  -0.00006  -0.00343   0.00000  -0.00334   1.90510
   A36        1.90709  -0.00230  -0.00618   0.00000  -0.00638   1.90071
    D1        0.07211  -0.00022   0.14427   0.00000   0.14444   0.21655
    D2       -3.10145   0.00025   0.08049   0.00000   0.08057  -3.02088
    D3        2.18235  -0.00078   0.15820   0.00000   0.15806   2.34041
    D4       -0.99120  -0.00031   0.09442   0.00000   0.09418  -0.89702
    D5       -2.02113   0.00035   0.16427   0.00000   0.16439  -1.85674
    D6        1.08851   0.00082   0.10050   0.00000   0.10052   1.18902
    D7       -0.05487  -0.00099  -0.11004   0.00000  -0.10971  -0.16459
    D8        3.05574   0.00014  -0.17162   0.00000  -0.17219   2.88355
    D9        3.05398  -0.00169  -0.17538   0.00000  -0.17481   2.87916
   D10       -0.11859  -0.00056  -0.23696   0.00000  -0.23729  -0.35589
   D11       -2.12228  -0.00880  -0.05592   0.00000  -0.05514  -2.17742
   D12       -0.04761  -0.00881  -0.09545   0.00000  -0.09456  -0.14216
   D13        2.09447   0.01356  -0.00001   0.00000   0.00000   2.09447
   D14        0.98901  -0.00770  -0.11615   0.00000  -0.11560   0.87342
   D15        3.06369  -0.00770  -0.15567   0.00000  -0.15501   2.90868
   D16       -1.07742   0.01467  -0.06023   0.00000  -0.06046  -1.13788
   D17        1.07636  -0.00266   0.05824   0.00000   0.05948   1.13584
   D18       -3.10124  -0.00187   0.08076   0.00000   0.08200  -3.01924
   D19       -1.00989  -0.00602   0.07474   0.00000   0.07593  -0.93396
   D20       -3.12138   0.00322   0.02242   0.00000   0.02265  -3.09873
   D21       -1.01579   0.00401   0.04494   0.00000   0.04517  -0.97062
   D22        1.07555  -0.00015   0.03892   0.00000   0.03911   1.11466
   D23       -1.07070   0.00308   0.02064   0.00000   0.01921  -1.05149
   D24        1.03488   0.00386   0.04315   0.00000   0.04173   1.07661
   D25        3.12623  -0.00029   0.03714   0.00000   0.03566  -3.12129
   D26        1.03951  -0.02249  -0.01529   0.00000  -0.01504   1.02447
   D27       -2.09441  -0.02201   0.00000   0.00000   0.00000  -2.09441
   D28       -1.03511   0.00459   0.04209   0.00000   0.04192  -0.99320
   D29        2.11415   0.00507   0.05737   0.00000   0.05696   2.17111
   D30       -3.08282   0.01666   0.04984   0.00000   0.04977  -3.03305
   D31        0.06645   0.01714   0.06512   0.00000   0.06481   0.13126
   D32        0.00301   0.00004   0.00592   0.00000   0.00586   0.00887
   D33        3.13704  -0.00023  -0.00903   0.00000  -0.00896   3.12808
   D34       -3.13066   0.00056   0.02169   0.00000   0.02162  -3.10904
   D35        0.00337   0.00029   0.00674   0.00000   0.00681   0.01017
   D36        0.03356   0.00011   0.06697   0.00000   0.06700   0.10056
   D37        2.12635  -0.00056   0.06384   0.00000   0.06378   2.19013
   D38       -2.05792   0.00087   0.07288   0.00000   0.07305  -1.98487
   D39       -3.11549  -0.00014   0.05221   0.00000   0.05215  -3.06335
   D40       -1.02271  -0.00081   0.04908   0.00000   0.04894  -0.97377
   D41        1.07621   0.00062   0.05812   0.00000   0.05820   1.13441
         Item               Value     Threshold  Converged?
 Maximum Force            0.088364     0.000450     NO 
 RMS     Force            0.015897     0.000300     NO 
 Maximum Displacement     0.471641     0.001800     NO 
 RMS     Displacement     0.119635     0.001200     NO 
 Predicted change in Energy=-1.350807D-02
 GradGradGradGradGradGradGradGradGradGradGradGradGradGradGradGradGradGrad

                          Input orientation:                          
 ---------------------------------------------------------------------
 Center     Atomic      Atomic             Coordinates (Angstroms)
 Number     Number       Type             X           Y           Z
 ---------------------------------------------------------------------
      1          1           0        1.555656    1.758024   -1.583789
      2          6           0        1.781156    2.456374   -0.777760
      3          1           0        1.888056    1.913499    0.166698
      4          1           0        0.947029    3.159549   -0.675885
      5          6           0        3.048947    3.232147   -1.126764
      6          8           0        3.532598    3.206150   -2.254954
      7          7           0        3.512035    4.029898   -0.127279
      8          1           0        2.935531    4.170163    0.690867
      9          6           0        4.840723    4.632923   -0.072539
     10          1           0        5.298347    4.329827    0.876986
     11          6           0        5.778677    4.125450   -1.176354
     12          1           0        5.447326    4.405876   -2.168286
     13          1           0        6.780802    4.529525   -0.985635
     14          1           0        5.820428    3.030007   -1.163968
     15          6           0        4.692233    6.157711   -0.025142
     16          8           0        4.059397    6.686567    0.885547
     17          7           0        5.267302    6.842652   -1.041889
     18          1           0        5.746281    6.328999   -1.766609
     19          6           0        5.198595    8.289602   -1.145232
     20          1           0        4.719733    8.668001   -0.241606
     21          1           0        6.203650    8.714517   -1.232810
     22          1           0        4.608699    8.590838   -2.017696
 ---------------------------------------------------------------------
                    Distance matrix (angstroms):
                    1          2          3          4          5
     1  H    0.000000
     2  C    1.090057   0.000000
     3  H    1.788538   1.094597   0.000000
     4  H    1.777355   1.095720   1.774294   0.000000
     5  C    2.147517   1.526735   2.181638   2.150959   0.000000
     6  O    2.540832   2.410770   3.199979   3.029983   1.227766
     7  N    3.333204   2.427971   2.683817   2.763645   1.360083
     8  H    3.591174   2.535058   2.542536   2.616007   2.048540
     9  C    4.619587   3.820425   4.021286   4.206627   2.506795
    10  H    5.165010   4.314933   4.239486   4.766019   3.206200
    11  C    4.858458   4.350272   4.672628   4.952602   2.872608
    12  H    4.743190   4.378918   4.932798   4.902373   2.866117
    13  H    5.944843   5.416422   5.666606   6.000474   3.953460
    14  H    4.470176   4.098040   4.298932   4.899493   2.779092
    15  C    5.623588   4.768721   5.090535   4.841383   3.531697
    16  O    6.054491   5.084437   5.292791   4.956284   4.123520
    17  N    6.318497   5.609136   6.097256   5.688933   4.238401
    18  H    6.203916   5.630032   6.174157   5.853880   4.156381
    19  C    7.491652   6.770559   7.303117   6.679337   5.495378
    20  H    7.717553   6.892533   7.335421   6.690661   5.755305
    21  H    8.373758   7.676580   8.175379   7.668109   6.326119
    22  H    7.496445   6.867612   7.533945   6.686343   5.651739
                    6          7          8          9         10
     6  O    0.000000
     7  N    2.281663   0.000000
     8  H    3.156529   1.010640   0.000000
     9  C    2.917158   1.460153   2.103970   0.000000
[...]
    13  H    6.108176   5.598554   5.970633   6.124336   4.101845
    14  H    4.751687   4.488846   5.029525   5.117502   3.022230
    15  C    5.479584   4.601533   4.539923   5.024495   3.535512
    16  O    5.709230   4.792317   4.445687   5.243847   4.052601
    17  N    6.347586   5.440232   5.535178   5.662321   4.284762
    18  H    6.380333   5.554088   5.836643   5.740828   4.251099
    19  C    7.460107   6.469787   6.452699   6.554767   5.493136
    20  H    7.529385   6.512028   6.310693   6.651411   5.699743
    21  H    8.400837   7.446205   7.462650   7.563907   6.368139
    22  H    7.518596   6.495377   6.544003   6.395526   5.628085
                    6          7          8          9         10
     6  O    0.000000
     7  N    2.302132   0.000000
     8  H    3.169889   1.011947   0.000000
     9  C    3.014216   1.469210   2.071905   0.000000
    10  H    3.800292   2.070115   2.388896   1.098833   0.000000
    11  C    2.825764   2.536429   3.414220   1.529499   2.136976
    12  H    2.504400   2.860867   3.782130   2.198292   3.073919
    13  H    3.908518   3.449369   4.206822   2.147174   2.429881
    14  H    2.649517   2.800004   3.732301   2.168655   2.480087
    15  C    4.088444   2.401710   2.522161   1.548589   2.102367
    16  O    4.861984   2.819813   2.462566   2.395159   2.590690
    17  N    4.544728   3.428425   3.718533   2.487543   3.182188
    18  H    4.232410   3.614323   4.142346   2.604347   3.399239
    19  C    5.813408   4.653649   4.743849   3.861238   4.457511
    20  H    6.226794   4.723022   4.582146   4.058235   4.494953
    21  H    6.585305   5.500749   5.655596   4.507541   4.988248
    22  H    5.876930   5.008837   5.119545   4.445435   5.203429
                   11         12         13         14         15
    11  C    0.000000
    12  H    1.091764   0.000000
    13  H    1.096663   1.792094   0.000000
    14  H    1.091137   1.748258   1.773174   0.000000
    15  C    2.621836   2.953600   2.852621   3.548813   0.000000
    16  O    3.734024   4.129636   3.968477   4.547112   1.229062
    17  N    2.879692   2.851799   2.862333   3.959046   1.357765
    18  H    2.421557   2.167187   2.343392   3.498448   2.043381
    19  C    4.322996   4.201727   4.201249   5.407417   2.466631
    20  H    4.847071   4.884620   4.778502   5.891112   2.517918
    21  H    4.751179   4.670004   4.381770   5.833577   3.217513
    22  H    4.816849   4.459290   4.839957   5.883632   3.152548
                   16         17         18         19         20
    16  O    0.000000
    17  N    2.281643   0.000000
    18  H    3.163209   1.008984   0.000000
    19  C    2.830654   1.453399   2.129669   0.000000
    20  H    2.369549   2.062443   2.972202   1.090578   0.000000
    21  H    3.636691   2.108493   2.505943   1.095670   1.784198
    22  H    3.520704   2.113615   2.542299   1.096590   1.781066
                   21         22
    21  H    0.000000
    22  H    1.783218   0.000000
 Stoichiometry    C6H12N2O2
 Framework group  C1[X(C6H12N2O2)]
 Deg. of freedom    60
 Full point group                 C1      NOp   1
 Largest Abelian subgroup         C1      NOp   1
 Largest concise Abelian subgroup C1      NOp   1
                         Standard orientation:                         
 ---------------------------------------------------------------------
 Center     Atomic      Atomic             Coordinates (Angstroms)
 Number     Number       Type             X           Y           Z
 ---------------------------------------------------------------------
      1          1           0       -4.068344   -0.979607    0.120424
      2          6           0       -3.066657   -1.280070    0.442635
      3          1           0       -2.773080   -2.181435   -0.104030
      4          1           0       -3.125152   -1.514242    1.510152
      5          6           0       -2.122704   -0.094957    0.256173
      6          8           0       -2.345630    0.979331    0.801709
      7          7           0       -1.059946   -0.353312   -0.566095
      8          1           0       -0.927139   -1.308804   -0.871764
      9          6           0        0.086373    0.497825   -0.912646
     10          1           0        0.164578    0.486331   -2.008632
     11          6           0       -0.019897    1.958092   -0.470272
     12          1           0       -0.098989    2.069729    0.612886
     13          1           0        0.859588    2.499592   -0.838991
     14          1           0       -0.911082    2.423394   -0.894374
     15          6           0        1.337659   -0.284753   -0.443622
     16          8           0        1.533195   -1.410890   -0.895478
     17          7           0        2.137385    0.305030    0.481645
     18          1           0        1.880102    1.214768    0.834109
     19          6           0        3.308410   -0.351678    1.038245
     20          1           0        3.445119   -1.289712    0.499021
     21          1           0        4.200621    0.272213    0.914915
     22          1           0        3.172082   -0.568539    2.104498
 ---------------------------------------------------------------------
 Rotational constants (GHZ):      2.2141655      0.7404446      0.6672218

 **********************************************************************

            Population analysis using the SCF density.

 **********************************************************************

 Orbital symmetries:
       Occupied  (A) (A) (A) (A) (A) (A) (A) (A) (A) (A) (A) (A)
                 (A) (A) (A) (A) (A) (A) (A) (A) (A) (A) (A) (A)
                 (A) (A) (A) (A) (A) (A) (A) (A) (A) (A) (A) (A)
                 (A) (A) (A)
       Virtual   (A) (A) (A) (A) (A) (A) (A) (A) (A) (A) (A) (A)
                 (A) (A) (A) (A) (A) (A) (A) (A) (A) (A) (A) (A)
                 (A) (A) (A) (A) (A) (A) (A) (A) (A) (A) (A) (A)
                 (A) (A) (A) (A) (A) (A) (A) (A) (A) (A) (A) (A)
                 (A) (A) (A) (A) (A) (A) (A) (A) (A) (A) (A) (A)
                 (A) (A) (A) (A) (A) (A) (A) (A) (A) (A) (A) (A)
                 (A) (A) (A) (A) (A) (A) (A) (A) (A) (A) (A) (A)
                 (A) (A) (A) (A) (A) (A) (A) (A) (A) (A) (A) (A)
                 (A) (A) (A) (A) (A) (A) (A) (A) (A) (A) (A) (A)
                 (A) (A) (A) (A) (A) (A) (A) (A) (A) (A) (A) (A)
                 (A) (A) (A) (A) (A) (A) (A) (A) (A) (A) (A) (A)
                 (A) (A) (A)
 The electronic state is 1-A.
 Alpha  occ. eigenvalues --  -19.11509 -19.10067 -14.37151 -14.35836 -10.28985
 Alpha  occ. eigenvalues --  -10.28477 -10.24224 -10.22373 -10.18783 -10.18699
 Alpha  occ. eigenvalues --   -1.03695  -1.02049  -0.92783  -0.91875  -0.78316
 Alpha  occ. eigenvalues --   -0.72643  -0.70973  -0.65822  -0.59484  -0.55993
 Alpha  occ. eigenvalues --   -0.53477  -0.50854  -0.46677  -0.45804  -0.45083
 Alpha  occ. eigenvalues --   -0.44062  -0.42558  -0.41274  -0.40148  -0.39570
 Alpha  occ. eigenvalues --   -0.38886  -0.38646  -0.37546  -0.36162  -0.34971
 Alpha  occ. eigenvalues --   -0.26656  -0.26006  -0.24055  -0.23768
 Alpha virt. eigenvalues --    0.01749   0.04020   0.07249   0.08955   0.11130
 Alpha virt. eigenvalues --    0.12629   0.14276   0.14958   0.15541   0.16010
 Alpha virt. eigenvalues --    0.16665   0.17984   0.18103   0.18491   0.19095
 Alpha virt. eigenvalues --    0.21118   0.21840   0.25669   0.26436   0.32269
 Alpha virt. eigenvalues --    0.33893   0.39828   0.42085   0.49144   0.50597
 Alpha virt. eigenvalues --    0.52116   0.53138   0.53943   0.55479   0.56312
 Alpha virt. eigenvalues --    0.57246   0.61084   0.62344   0.64308   0.66342
 Alpha virt. eigenvalues --    0.68362   0.69145   0.70068   0.71092   0.72269
 Alpha virt. eigenvalues --    0.74693   0.76866   0.78716   0.79651   0.82057
 Alpha virt. eigenvalues --    0.84591   0.85499   0.86224   0.86634   0.88374
 Alpha virt. eigenvalues --    0.89713   0.89850   0.91571   0.92247   0.93682
 Alpha virt. eigenvalues --    0.94551   0.96094   0.97660   0.98899   1.01055
 Alpha virt. eigenvalues --    1.03299   1.06513   1.08286   1.12366   1.16237
 Alpha virt. eigenvalues --    1.18065   1.23239   1.27311   1.30459   1.31835
 Alpha virt. eigenvalues --    1.37660   1.40338   1.42659   1.47258   1.48176
 Alpha virt. eigenvalues --    1.52644   1.53065   1.55456   1.60779   1.68202
 Alpha virt. eigenvalues --    1.74542   1.75687   1.78438   1.79854   1.81202
 Alpha virt. eigenvalues --    1.82385   1.83540   1.86854   1.89244   1.89786
 Alpha virt. eigenvalues --    1.92993   1.94648   1.98178   1.99078   2.00982
 Alpha virt. eigenvalues --    2.05462   2.06272   2.07740   2.12410   2.18810
 Alpha virt. eigenvalues --    2.22270   2.22542   2.25134   2.29280   2.29720
 Alpha virt. eigenvalues --    2.30366   2.32276   2.34824   2.35087   2.38433
 Alpha virt. eigenvalues --    2.42744   2.45072   2.48708   2.55276   2.62596
 Alpha virt. eigenvalues --    2.66037   2.67666   2.70425   2.74275   2.85766
 Alpha virt. eigenvalues --    2.92353   2.97650   3.00630   3.12441   3.18463
 Alpha virt. eigenvalues --    3.94814   3.95608   4.07986   4.14475   4.16384
 Alpha virt. eigenvalues --    4.20463   4.26929   4.34310   4.51759   4.67524
          Condensed to atoms (all electrons):
              1          2          3          4          5          6
     1  H    0.520725   0.362489  -0.025572  -0.023707  -0.020052   0.001007
     2  C    0.362489   5.314656   0.338814   0.362577   0.345569  -0.081478
     3  H   -0.025572   0.338814   0.579209  -0.025843  -0.026643   0.003233
     4  H   -0.023707   0.362577  -0.025843   0.523346  -0.020784   0.000770
     5  C   -0.020052   0.345569  -0.026643  -0.020784   4.312042   0.580019
     6  O    0.001007  -0.081478   0.003233   0.000770   0.580019   8.092389
     7  N    0.001265  -0.114962   0.007636   0.001403   0.273491  -0.084535
     8  H   -0.000006   0.000562   0.002174  -0.000079  -0.011734   0.003006
     9  C   -0.000182   0.005554   0.000364  -0.000139  -0.029576  -0.005521
    10  H    0.000020  -0.000276  -0.000004  -0.000005   0.001751   0.000014
    11  C    0.000003   0.000331  -0.000028   0.000005  -0.001026   0.000802
    12  H    0.000004   0.000064  -0.000004  -0.000007   0.002310   0.005061
    13  H    0.000000   0.000013  -0.000001   0.000000   0.000429   0.000941
    14  H   -0.000005   0.000008  -0.000002   0.000003   0.001328   0.002138
    15  C   -0.000002  -0.000333  -0.000003   0.000019   0.000765  -0.000222
    16  O    0.000000  -0.000034  -0.000025   0.000001   0.000200  -0.000001
    17  N    0.000000  -0.000002   0.000000   0.000000   0.000245  -0.000014
    18  H    0.000000  -0.000001   0.000000   0.000000  -0.000018  -0.000059
    19  C    0.000000   0.000000   0.000000   0.000000  -0.000007   0.000001
    20  H    0.000000   0.000000   0.000000   0.000000   0.000000   0.000000
    21  H    0.000000   0.000000   0.000000   0.000000   0.000000   0.000000
    22  H    0.000000   0.000000   0.000000   0.000000  -0.000001   0.000000
              7          8          9         10         11         12
     1  H    0.001265  -0.000006  -0.000182   0.000020   0.000003   0.000004
     2  C   -0.114962   0.000562   0.005554  -0.000276   0.000331   0.000064
     3  H    0.007636   0.002174   0.000364  -0.000004  -0.000028  -0.000004
     4  H    0.001403  -0.000079  -0.000139  -0.000005   0.000005  -0.000007
     5  C    0.273491  -0.011734  -0.029576   0.001751  -0.001026   0.002310
     6  O   -0.084535   0.003006  -0.005521   0.000014   0.000802   0.005061
     7  N    7.110992   0.286025   0.266245  -0.047281  -0.039507  -0.004825
     8  H    0.286025   0.399917  -0.041951  -0.000645   0.005878  -0.000090
     9  C    0.266245  -0.041951   5.032462   0.370917   0.323400  -0.023243
    10  H   -0.047281  -0.000645   0.370917   0.592922  -0.042991   0.004850
    11  C   -0.039507   0.005878   0.323400  -0.042991   5.159287   0.368306
    12  H   -0.004825  -0.000090  -0.023243   0.004850   0.368306   0.528893
    13  H    0.003884  -0.000084  -0.033277  -0.004088   0.347403  -0.033258
    14  H   -0.002973  -0.000159  -0.014855  -0.004285   0.368527  -0.025009
    15  C   -0.047099  -0.002738   0.340111  -0.043037  -0.028810  -0.006465
    16  O   -0.010457   0.020946  -0.079929   0.000412   0.003689  -0.000049
    17  N    0.000297   0.000761  -0.098472   0.003725  -0.001188   0.000534
    18  H    0.000328  -0.000104  -0.004890   0.000353   0.008951   0.005996
    19  C   -0.000190  -0.000005   0.006188  -0.000205  -0.000234  -0.000052
    20  H   -0.000015  -0.000030   0.000940  -0.000022  -0.000055  -0.000003
    21  H   -0.000002  -0.000001  -0.000097   0.000017  -0.000011   0.000016
    22  H    0.000028   0.000002  -0.000235  -0.000003   0.000016  -0.000020
             13         14         15         16         17         18
     1  H    0.000000  -0.000005  -0.000002   0.000000   0.000000   0.000000
     2  C    0.000013   0.000008  -0.000333  -0.000034  -0.000002  -0.000001
     3  H   -0.000001  -0.000002  -0.000003  -0.000025   0.000000   0.000000
     4  H    0.000000   0.000003   0.000019   0.000001   0.000000   0.000000
     5  C    0.000429   0.001328   0.000765   0.000200   0.000245  -0.000018
     6  O    0.000941   0.002138  -0.000222  -0.000001  -0.000014  -0.000059
     7  N    0.003884  -0.002973  -0.047099  -0.010457   0.000297   0.000328
     8  H   -0.000084  -0.000159  -0.002738   0.020946   0.000761  -0.000104
     9  C   -0.033277  -0.014855   0.340111  -0.079929  -0.098472  -0.004890
    10  H   -0.004088  -0.004285  -0.043037   0.000412   0.003725   0.000353
    11  C    0.347403   0.368527  -0.028810   0.003689  -0.001188   0.008951
    12  H   -0.033258  -0.025009  -0.006465  -0.000049   0.000534   0.005996
    13  H    0.604843  -0.026030  -0.002743  -0.000009   0.001542   0.000474
    14  H   -0.026030   0.514454   0.002655  -0.000062   0.000214  -0.000213
    15  C   -0.002743   0.002655   4.380667   0.553495   0.300302  -0.016705
    16  O   -0.000009  -0.000062   0.553495   8.120445  -0.093426   0.003258
    17  N    0.001542   0.000214   0.300302  -0.093426   7.034674   0.298550
    18  H    0.000474  -0.000213  -0.016705   0.003258   0.298550   0.395385
    19  C   -0.000060   0.000002  -0.026598  -0.007566   0.264813  -0.031738
    20  H   -0.000007   0.000001  -0.000927   0.020973  -0.040284   0.003860
    21  H   -0.000015   0.000000   0.001604   0.000429  -0.040305  -0.000757
    22  H    0.000009   0.000000   0.001001   0.000505  -0.041371  -0.000579
             19         20         21         22
     1  H    0.000000   0.000000   0.000000   0.000000
     2  C    0.000000   0.000000   0.000000   0.000000
     3  H    0.000000   0.000000   0.000000   0.000000
     4  H    0.000000   0.000000   0.000000   0.000000
     5  C   -0.000007   0.000000   0.000000  -0.000001
     6  O    0.000001   0.000000   0.000000   0.000000
     7  N   -0.000190  -0.000015  -0.000002   0.000028
     8  H   -0.000005  -0.000030  -0.000001   0.000002
     9  C    0.006188   0.000940  -0.000097  -0.000235
    10  H   -0.000205  -0.000022   0.000017  -0.000003
    11  C   -0.000234  -0.000055  -0.000011   0.000016
    12  H   -0.000052  -0.000003   0.000016  -0.000020
    13  H   -0.000060  -0.000007  -0.000015   0.000009
    14  H    0.000002   0.000001   0.000000   0.000000
    15  C   -0.026598  -0.000927   0.001604   0.001001
    16  O   -0.007566   0.020973   0.000429   0.000505
    17  N    0.264813  -0.040284  -0.040305  -0.041371
    18  H   -0.031738   0.003860  -0.000757  -0.000579
    19  C    4.970342   0.376941   0.380514   0.381638
    20  H    0.376941   0.481310  -0.023461  -0.025399
    21  H    0.380514  -0.023461   0.561411  -0.039323
    22  H    0.381638  -0.025399  -0.039323   0.560625
 Mulliken atomic charges:
              1
     1  H    0.184012
     2  C   -0.533552
     3  H    0.146693
     4  H    0.182442
     5  C    0.591691
     6  O   -0.517548
     7  N   -0.599748
     8  H    0.338354
     9  C   -0.013812
    10  H    0.167860
    11  C   -0.472747
    12  H    0.176991
    13  H    0.140033
    14  H    0.184264
    15  C    0.595064
    16  O   -0.532794
    17  N   -0.590593
    18  H    0.337909
    19  C   -0.313785
    20  H    0.206177
    21  H    0.159982
    22  H    0.163107
 Sum of Mulliken atomic charges =   0.00000
 Mulliken charges with hydrogens summed into heavy atoms:
              1
     2  C   -0.020404
     5  C    0.591691
     6  O   -0.517548
     7  N   -0.261394
     9  C    0.154048
    11  C    0.028542
    15  C    0.595064
    16  O   -0.532794
    17  N   -0.252684
    19  C    0.215480
 Sum of Mulliken charges with hydrogens summed into heavy atoms =   0.00000
 Electronic spatial extent (au):  <R**2>=           1843.5680
 Charge=              0.0000 electrons
 Dipole moment (field-independent basis, Debye):
    X=              1.8139    Y=              0.3819    Z=              0.3140  Tot=              1.8801
 Quadrupole moment (field-independent basis, Debye-Ang):
   XX=            -57.9246   YY=            -61.4783   ZZ=            -59.7434
   XY=             11.1316   XZ=              7.9024   YZ=             -3.7938
 Traceless Quadrupole moment (field-independent basis, Debye-Ang):
   XX=              1.7908   YY=             -1.7629   ZZ=             -0.0279
   XY=             11.1316   XZ=              7.9024   YZ=             -3.7938
 Octapole moment (field-independent basis, Debye-Ang**2):
  XXX=             21.8398  YYY=              2.8810  ZZZ=              1.7014  XYY=             -0.9893
  XXY=            -12.0845  XXZ=              5.8993  XZZ=              3.6822  YZZ=              0.5635
  YYZ=              1.6711  XYZ=              2.1811
 Hexadecapole moment (field-independent basis, Debye-Ang**3):
 XXXX=          -1541.6962 YYYY=           -473.4676 ZZZZ=           -254.5244 XXXY=             31.1204
 XXXZ=             43.1500 YYYX=              5.9839 YYYZ=              3.9729 ZZZX=             -0.2124
 ZZZY=              1.3984 XXYY=           -360.3111 XXZZ=           -317.8284 YYZZ=           -122.5115
 XXYZ=            -17.9310 YYXZ=             14.5501 ZZXY=              7.3722
 N-N= 5.529317360988D+02 E-N=-2.261881611297D+03  KE= 4.912305527564D+02
 1\1\GINC-NODE007\FOpt\RB3LYP\6-31G(d)\C6H12N2O2\MANAGER\10-Feb-2017\0\
 \# b3lyp/6-31G* Opt=(ModRedundant, maxcycles=1000, calcfc) geom=nocrow
 d\\Phi Psi fixed scan\\0,1\H,1.5668126348,1.6538183019,-0.7895242619\C
 ,1.6442588798,2.7453512829,-0.7952610177\H,1.2777643541,3.1325341688,0
 .1603854013\H,0.9990507057,3.1128062303,-1.5993338977\C,3.0869587413,3
 .1262862253,-1.1174656392\O,3.6234248585,2.7435386251,-2.1504757017\N,
 3.6887138434,3.8923109727,-0.1565175248\H,3.1096151044,4.2320375659,0.
 6006270512\C,5.0202447346,4.5132459916,-0.1498433126\H,5.4898148987,4.
 2363493061,0.8042357868\C,5.9585157351,4.0718648378,-1.2742087142\H,5.
 573629434,4.3103797546,-2.2676485699\H,6.9327838603,4.552715805,-1.125
 0323799\H,6.1032007327,2.990618937,-1.2506958706\C,4.765181996,6.03424
 01943,-0.0096692569\O,4.1371817372,6.4399703102,0.9658259989\N,5.21835
 7345,6.8415503818,-1.0028500526\H,5.6863867348,6.4217136218,-1.7919854
 519\C,4.9923773283,8.2772535518,-1.0104409833\H,4.523522,8.5399984039,
 -0.0614944937\H,5.9386933492,8.820209732,-1.1113197791\H,4.3267109921,
 8.5695057991,-1.8314073305\\Version=EM64L-G09RevA.02\State=1-A\HF=-495
 .8412939\RMSD=6.797e-09\RMSF=3.521e-04\Dipole=0.3887281,0.6219369,-0.0
 960414\Quadrupole=5.024679,-0.0806342,-4.9440447,3.1248606,-1.6576758,
 -8.6805574\PG=C01 [X(C6H12N2O2)]\\@


 GOORD'S AXIOM:  A MEETING IS AN EVENT AT WHICH
 THE MINUTES ARE KEPT AND THE HOURS ARE LOST.
 Job cpu time:  0 days  1 hours 49 minutes 58.4 seconds.
 File lengths (MBytes):  RWF=    186 Int=      0 D2E=      0 Chk=      4 Scr=      2
 Normal termination of Gaussian 09 at Fri Feb 10 19:15:48 2017.
