 Entering Gaussian System, Link 0=g09
 Initial command:
 /home/steboss/Software/g09/l1.exe /home/steboss/projects/phi_psi_scan/alanine/120/4195/Gau-18282.inp -scrdir=/home/steboss/projects/phi_psi_scan/alanine/120/4195/
 Entering Link 1 = /home/steboss/Software/g09/l1.exe PID=     18286.
  
 Copyright (c) 1988,1990,1992,1993,1995,1998,2003,2009, Gaussian, Inc.
                  All Rights Reserved.
  
 This is part of the Gaussian(R) 09 program.  It is based on
 the Gaussian(R) 03 system (copyright 2003, Gaussian, Inc.),
 the Gaussian(R) 98 system (copyright 1998, Gaussian, Inc.),
 the Gaussian(R) 94 system (copyright 1995, Gaussian, Inc.),
 the Gaussian 92(TM) system (copyright 1992, Gaussian, Inc.),
 the Gaussian 90(TM) system (copyright 1990, Gaussian, Inc.),
 the Gaussian 88(TM) system (copyright 1988, Gaussian, Inc.),
 the Gaussian 86(TM) system (copyright 1986, Carnegie Mellon
 University), and the Gaussian 82(TM) system (copyright 1983,
 Carnegie Mellon University). Gaussian is a federally registered
 trademark of Gaussian, Inc.
  
 This software contains proprietary and confidential information,
 including trade secrets, belonging to Gaussian, Inc.
  
 This software is provided under written license and may be
 used, copied, transmitted, or stored only in accord with that
 written license.
  
 The following legend is applicable only to US Government
 contracts under FAR:
  
                    RESTRICTED RIGHTS LEGEND
  
 Use, reproduction and disclosure by the US Government is
 subject to restrictions as set forth in subparagraphs (a)
 and (c) of the Commercial Computer Software - Restricted
 Rights clause in FAR 52.227-19.
  
 Gaussian, Inc.
 340 Quinnipiac St., Bldg. 40, Wallingford CT 06492
  
  
 ---------------------------------------------------------------
 Warning -- This program may not be used in any manner that
 competes with the business of Gaussian, Inc. or will provide
 assistance to any competitor of Gaussian, Inc.  The licensee
 of this program is prohibited from giving any competitor of
 Gaussian, Inc. access to this program.  By using this program,
 the user acknowledges that Gaussian, Inc. is engaged in the
 business of creating and licensing software in the field of
 computational chemistry and represents and warrants to the
 licensee that it is not a competitor of Gaussian, Inc. and that
 it will not use this program in any manner prohibited above.
 ---------------------------------------------------------------
  

 Cite this work as:
 Gaussian 09, Revision A.02,
 M. J. Frisch, G. W. Trucks, H. B. Schlegel, G. E. Scuseria, 
 M. A. Robb, J. R. Cheeseman, G. Scalmani, V. Barone, B. Mennucci, 
 G. A. Petersson, H. Nakatsuji, M. Caricato, X. Li, H. P. Hratchian, 
 A. F. Izmaylov, J. Bloino, G. Zheng, J. L. Sonnenberg, M. Hada, 
 M. Ehara, K. Toyota, R. Fukuda, J. Hasegawa, M. Ishida, T. Nakajima, 
 Y. Honda, O. Kitao, H. Nakai, T. Vreven, J. A. Montgomery, Jr., 
 J. E. Peralta, F. Ogliaro, M. Bearpark, J. J. Heyd, E. Brothers, 
 K. N. Kudin, V. N. Staroverov, R. Kobayashi, J. Normand, 
 K. Raghavachari, A. Rendell, J. C. Burant, S. S. Iyengar, J. Tomasi, 
 M. Cossi, N. Rega, J. M. Millam, M. Klene, J. E. Knox, J. B. Cross, 
 V. Bakken, C. Adamo, J. Jaramillo, R. Gomperts, R. E. Stratmann, 
 O. Yazyev, A. J. Austin, R. Cammi, C. Pomelli, J. W. Ochterski, 
 R. L. Martin, K. Morokuma, V. G. Zakrzewski, G. A. Voth, 
 P. Salvador, J. J. Dannenberg, S. Dapprich, A. D. Daniels, 
 O. Farkas, J. B. Foresman, J. V. Ortiz, J. Cioslowski, 
 and D. J. Fox, Gaussian, Inc., Wallingford CT, 2009.
 
 ******************************************
 Gaussian 09:  EM64L-G09RevA.02 11-Jun-2009
                10-Feb-2017 
 ******************************************
 %chk=structure_45.chk
 %NProcShared=8
 Will use up to    8 processors via shared memory.
 ----------------------------------------------------------------------
 # b3lyp/6-31G* Opt=(ModRedundant, maxcycles=1000, calcfc) geom=nocrowd
 ----------------------------------------------------------------------
 1/6=1000,10=4,14=-1,18=120,19=15,26=3,38=1/1,3;
 2/9=110,12=1,17=6,18=5,40=1/2;
 3/5=1,6=6,7=1,11=2,16=1,25=1,30=1,71=2,74=-5/1,2,3;
 4//1;
 5/5=2,38=5/2;
 8/6=4,10=90,11=11/1;
 11/6=1,8=1,9=11,15=111,16=1/1,2,10;
 10/6=1,7=6,13=1/2;
 6/7=2,8=2,9=2,10=2,28=1/1;
 7/10=1,18=20,25=1/1,2,3,16;
 1/6=1000,10=4,14=-1,18=20,19=15/3(2);
 2/9=110,12=1/2;
 99//99;
 2/9=110,12=1/2;
 3/5=1,6=6,7=1,11=2,16=1,25=1,30=1,71=1,74=-5/1,2,3;
 4/5=5,16=3/1;
 5/5=2,38=5/2;
 7//1,2,3,16;
 1/6=1000,14=-1,18=20,19=15/3(-5);
 2/9=110,12=1/2;
 6/7=2,8=2,9=2,10=2,19=2,28=1/1;
 99/9=1/99;
 ------------------
 Phi Psi fixed scan
 ------------------
 Symbolic Z-matrix:
 Charge =  0 Multiplicity = 1
 H                     1.5624    1.8816   -1.7047 
 C                     1.7794    2.5343   -0.8591 
 H                     1.7316    1.9596    0.0658 
 H                     1.0463    3.3401   -0.824 
 C                     3.1755    3.1484   -0.9815 
 O                     3.8914    2.883    -1.9446 
 N                     3.5554    3.9697    0. 
 H                     2.9312    4.1571    0.7716 
 C                     4.8533    4.6139    0. 
 H                     5.4076    4.3155    0.8898 
 C                     5.6613    4.2208   -1.2322 
 H                     5.1233    4.5214   -2.1312 
 H                     6.6305    4.7189   -1.2058 
 H                     5.8085    3.1409   -1.2414 
 C                     4.7127    6.1294    0. 
 O                     5.4006    6.8197   -0.7488 
 N                     3.817     6.6467    0.8441 
 H                     3.2747    6.038     1.4403 
 C                     3.5895    8.0746    0.9387 
 H                     4.2439    8.5944    0.2391 
 H                     2.5501    8.2943    0.695 
 H                     3.8031    8.4106    1.9534 
 
 The following ModRedundant input section has been read:
 D    5    7    9   15 F                                                       
 D    7    9   15   17 F                                                       

 GradGradGradGradGradGradGradGradGradGradGradGradGradGradGradGradGradGrad
 Berny optimization.
 Initialization pass.
                           ----------------------------
                           !    Initial Parameters    !
                           ! (Angstroms and Degrees)  !
 --------------------------                            --------------------------
 ! Name  Definition              Value          Derivative Info.                !
 --------------------------------------------------------------------------------
 ! R1    R(1,2)                  1.09           calculate D2E/DX2 analytically  !
 ! R2    R(2,3)                  1.09           calculate D2E/DX2 analytically  !
 ! R3    R(2,4)                  1.0899         calculate D2E/DX2 analytically  !
 ! R4    R(2,5)                  1.5301         calculate D2E/DX2 analytically  !
 ! R5    R(5,6)                  1.229          calculate D2E/DX2 analytically  !
 ! R6    R(5,7)                  1.335          calculate D2E/DX2 analytically  !
 ! R7    R(7,8)                  1.01           calculate D2E/DX2 analytically  !
 ! R8    R(7,9)                  1.449          calculate D2E/DX2 analytically  !
 ! R9    R(9,10)                 1.09           calculate D2E/DX2 analytically  !
 ! R10   R(9,11)                 1.525          calculate D2E/DX2 analytically  !
 ! R11   R(9,15)                 1.522          calculate D2E/DX2 analytically  !
 ! R12   R(11,12)                1.09           calculate D2E/DX2 analytically  !
 ! R13   R(11,13)                1.09           calculate D2E/DX2 analytically  !
 ! R14   R(11,14)                1.0899         calculate D2E/DX2 analytically  !
 ! R15   R(15,16)                1.229          calculate D2E/DX2 analytically  !
 ! R16   R(15,17)                1.3351         calculate D2E/DX2 analytically  !
 ! R17   R(17,18)                1.01           calculate D2E/DX2 analytically  !
 ! R18   R(17,19)                1.449          calculate D2E/DX2 analytically  !
 ! R19   R(19,20)                1.0899         calculate D2E/DX2 analytically  !
 ! R20   R(19,21)                1.09           calculate D2E/DX2 analytically  !
 ! R21   R(19,22)                1.09           calculate D2E/DX2 analytically  !
 ! A1    A(1,2,3)              109.5015         calculate D2E/DX2 analytically  !
 ! A2    A(1,2,4)              109.4979         calculate D2E/DX2 analytically  !
 ! A3    A(1,2,5)              111.0948         calculate D2E/DX2 analytically  !
 ! A4    A(3,2,4)              109.4502         calculate D2E/DX2 analytically  !
 ! A5    A(3,2,5)              108.6335         calculate D2E/DX2 analytically  !
 ! A6    A(4,2,5)              108.6362         calculate D2E/DX2 analytically  !
 ! A7    A(2,5,6)              120.4974         calculate D2E/DX2 analytically  !
 ! A8    A(2,5,7)              116.5994         calculate D2E/DX2 analytically  !
 ! A9    A(6,5,7)              122.9032         calculate D2E/DX2 analytically  !
 ! A10   A(5,7,8)              119.9965         calculate D2E/DX2 analytically  !
 ! A11   A(5,7,9)              121.8985         calculate D2E/DX2 analytically  !
 ! A12   A(8,7,9)              118.105          calculate D2E/DX2 analytically  !
 ! A13   A(7,9,10)             109.5            calculate D2E/DX2 analytically  !
 ! A14   A(7,9,11)             111.0992         calculate D2E/DX2 analytically  !
 ! A15   A(7,9,15)             111.0966         calculate D2E/DX2 analytically  !
 ! A16   A(10,9,11)            108.6382         calculate D2E/DX2 analytically  !
 ! A17   A(10,9,15)            108.6373         calculate D2E/DX2 analytically  !
 ! A18   A(11,9,15)            107.7947         calculate D2E/DX2 analytically  !
 ! A19   A(9,11,12)            109.5007         calculate D2E/DX2 analytically  !
 ! A20   A(9,11,13)            109.4959         calculate D2E/DX2 analytically  !
 ! A21   A(9,11,14)            109.4978         calculate D2E/DX2 analytically  !
 ! A22   A(12,11,13)           109.441          calculate D2E/DX2 analytically  !
 ! A23   A(12,11,14)           109.4482         calculate D2E/DX2 analytically  !
 ! A24   A(13,11,14)           109.4436         calculate D2E/DX2 analytically  !
 ! A25   A(9,15,16)            120.5022         calculate D2E/DX2 analytically  !
 ! A26   A(9,15,17)            116.6022         calculate D2E/DX2 analytically  !
 ! A27   A(16,15,17)           122.8956         calculate D2E/DX2 analytically  !
 ! A28   A(15,17,18)           119.996          calculate D2E/DX2 analytically  !
 ! A29   A(15,17,19)           121.9004         calculate D2E/DX2 analytically  !
 ! A30   A(18,17,19)           118.1036         calculate D2E/DX2 analytically  !
 ! A31   A(17,19,20)           109.4999         calculate D2E/DX2 analytically  !
 ! A32   A(17,19,21)           109.497          calculate D2E/DX2 analytically  !
 ! A33   A(17,19,22)           109.4979         calculate D2E/DX2 analytically  !
 ! A34   A(20,19,21)           109.4462         calculate D2E/DX2 analytically  !
 ! A35   A(20,19,22)           109.4431         calculate D2E/DX2 analytically  !
 ! A36   A(21,19,22)           109.4433         calculate D2E/DX2 analytically  !
 ! D1    D(1,2,5,6)             -0.0016         calculate D2E/DX2 analytically  !
 ! D2    D(1,2,5,7)            179.9943         calculate D2E/DX2 analytically  !
 ! D3    D(3,2,5,6)            120.5076         calculate D2E/DX2 analytically  !
 ! D4    D(3,2,5,7)            -59.4965         calculate D2E/DX2 analytically  !
 ! D5    D(4,2,5,6)           -120.5083         calculate D2E/DX2 analytically  !
 ! D6    D(4,2,5,7)             59.4876         calculate D2E/DX2 analytically  !
 ! D7    D(2,5,7,8)              0.0085         calculate D2E/DX2 analytically  !
 ! D8    D(2,5,7,9)            179.9978         calculate D2E/DX2 analytically  !
 ! D9    D(6,5,7,8)           -179.9958         calculate D2E/DX2 analytically  !
 ! D10   D(6,5,7,9)             -0.0064         calculate D2E/DX2 analytically  !
 ! D11   D(5,7,9,10)          -119.9959         calculate D2E/DX2 analytically  !
 ! D12   D(5,7,9,11)             0.0067         calculate D2E/DX2 analytically  !
 ! D13   D(5,7,9,15)           120.0043         frozen, calculate D2E/DX2 analyt!
 ! D14   D(8,7,9,10)            59.9937         calculate D2E/DX2 analytically  !
 ! D15   D(8,7,9,11)           179.9963         calculate D2E/DX2 analytically  !
 ! D16   D(8,7,9,15)           -60.0061         calculate D2E/DX2 analytically  !
 ! D17   D(7,9,11,12)           60.0024         calculate D2E/DX2 analytically  !
 ! D18   D(7,9,11,13)          179.9986         calculate D2E/DX2 analytically  !
 ! D19   D(7,9,11,14)          -60.0038         calculate D2E/DX2 analytically  !
 ! D20   D(10,9,11,12)        -179.4843         calculate D2E/DX2 analytically  !
 ! D21   D(10,9,11,13)         -59.4881         calculate D2E/DX2 analytically  !
 ! D22   D(10,9,11,14)          60.5095         calculate D2E/DX2 analytically  !
 ! D23   D(15,9,11,12)         -61.938          calculate D2E/DX2 analytically  !
 ! D24   D(15,9,11,13)          58.0582         calculate D2E/DX2 analytically  !
 ! D25   D(15,9,11,14)         178.0558         calculate D2E/DX2 analytically  !
 ! D26   D(7,9,15,16)         -134.9972         calculate D2E/DX2 analytically  !
 ! D27   D(7,9,15,17)           45.0006         frozen, calculate D2E/DX2 analyt!
 ! D28   D(10,9,15,16)         104.4917         calculate D2E/DX2 analytically  !
 ! D29   D(10,9,15,17)         -75.5105         calculate D2E/DX2 analytically  !
 ! D30   D(11,9,15,16)         -13.0552         calculate D2E/DX2 analytically  !
 ! D31   D(11,9,15,17)         166.9426         calculate D2E/DX2 analytically  !
 ! D32   D(9,15,17,18)          -0.0011         calculate D2E/DX2 analytically  !
 ! D33   D(9,15,17,19)        -179.9993         calculate D2E/DX2 analytically  !
 ! D34   D(16,15,17,18)        179.9966         calculate D2E/DX2 analytically  !
 ! D35   D(16,15,17,19)         -0.0015         calculate D2E/DX2 analytically  !
 ! D36   D(15,17,19,20)         -0.002          calculate D2E/DX2 analytically  !
 ! D37   D(15,17,19,21)        120.0007         calculate D2E/DX2 analytically  !
 ! D38   D(15,17,19,22)       -120.0014         calculate D2E/DX2 analytically  !
 ! D39   D(18,17,19,20)        179.9998         calculate D2E/DX2 analytically  !
 ! D40   D(18,17,19,21)        -59.9975         calculate D2E/DX2 analytically  !
 ! D41   D(18,17,19,22)         60.0004         calculate D2E/DX2 analytically  !
 --------------------------------------------------------------------------------
 Trust Radius=3.00D-01 FncErr=1.00D-07 GrdErr=1.00D-06
 Number of steps in this run= 132 maximum allowed number of steps= 132.
 GradGradGradGradGradGradGradGradGradGradGradGradGradGradGradGradGradGrad

                          Input orientation:                          
 ---------------------------------------------------------------------
 Center     Atomic      Atomic             Coordinates (Angstroms)
 Number     Number       Type             X           Y           Z
 ---------------------------------------------------------------------
      1          1           0        1.562400    1.881600   -1.704700
      2          6           0        1.779400    2.534300   -0.859100
      3          1           0        1.731600    1.959600    0.065800
      4          1           0        1.046300    3.340100   -0.824000
      5          6           0        3.175500    3.148400   -0.981500
      6          8           0        3.891400    2.883000   -1.944600
      7          7           0        3.555400    3.969700    0.000000
      8          1           0        2.931200    4.157100    0.771600
      9          6           0        4.853300    4.613900    0.000000
     10          1           0        5.407600    4.315500    0.889800
     11          6           0        5.661300    4.220800   -1.232200
     12          1           0        5.123300    4.521400   -2.131200
     13          1           0        6.630500    4.718900   -1.205800
     14          1           0        5.808500    3.140900   -1.241400
     15          6           0        4.712700    6.129400    0.000000
     16          8           0        5.400600    6.819700   -0.748800
     17          7           0        3.817000    6.646700    0.844100
     18          1           0        3.274700    6.038000    1.440300
     19          6           0        3.589500    8.074600    0.938700
     20          1           0        4.243900    8.594400    0.239100
     21          1           0        2.550100    8.294300    0.695000
     22          1           0        3.803100    8.410600    1.953400
 ---------------------------------------------------------------------
                    Distance matrix (angstroms):
                    1          2          3          4          5
     1  H    0.000000
     2  C    1.090021   0.000000
     3  H    1.780276   1.089956   0.000000
     4  H    1.780229   1.089946   1.779652   0.000000
     5  C    2.174832   1.530097   2.143579   2.143606   0.000000
     6  O    2.546487   2.400093   3.091781   3.091808   1.229029
     7  N    3.352344   2.439795   2.714973   2.714950   1.334991
     8  H    3.630919   2.572801   2.601192   2.601207   2.037282
     9  C    4.604507   3.809416   4.098128   4.098145   2.434347
    10  H    5.238403   4.403994   4.443221   4.786382   3.137859
    11  C    4.743005   4.248839   4.715970   4.715982   2.718841
    12  H    4.453140   4.092490   4.784690   4.441415   2.645915
    13  H    5.829649   5.331590   5.764540   5.764560   3.801816
    14  H    4.453072   4.092403   4.441324   4.784606   2.645807
    15  C    5.556455   4.718797   5.126258   4.679921   3.494666
    16  O    6.326955   5.611587   6.143753   5.574334   4.299263
    17  N    5.855406   4.895359   5.188791   4.625250   3.997804
    18  H    5.486224   4.449615   4.572062   4.167911   3.771571
    19  C    7.032066   6.099465   6.450347   5.656012   5.303396
    20  H    7.485351   6.633597   7.096637   6.241995   5.682452
    21  H    6.917863   6.015547   6.418275   5.395635   5.448125
    22  H    7.812187   6.821761   7.033459   6.404988   6.057910
                    6          7          8          9         10
     6  O    0.000000
     7  N    2.252839   0.000000
     8  H    3.150088   1.010005   0.000000
     9  C    2.775380   1.448978   2.120967   0.000000
    10  H    3.519196   2.083739   2.484274   1.089970   0.000000
    11  C    2.330186   2.452791   3.387140   1.525027   2.139209
    12  H    2.058337   2.702720   3.655717   2.150225   3.041326
    13  H    3.379205   3.386959   4.232086   2.150214   2.459625
    14  H    2.058221   2.702673   3.655638   2.150165   2.466256
    15  C    3.872353   2.450234   2.767504   1.522008   2.136554
    16  O    4.382377   3.476775   3.936876   2.392863   2.992670
    17  N    4.684850   2.819090   2.643484   2.432838   2.822515
    18  H    4.668179   2.535966   2.025571   2.567976   2.796305
    19  C    5.946198   4.211000   3.975939   3.801946   4.175968
    20  H    6.124777   4.681779   4.657936   4.033970   4.481807
    21  H    6.168366   4.493976   4.155422   4.396942   4.902459
    22  H    6.764360   4.857851   4.499903   4.397002   4.524987
                   11         12         13         14         15
    11  C    0.000000
    12  H    1.089957   0.000000
    13  H    1.090023   1.779613   0.000000
    14  H    1.089925   1.779613   1.779617   0.000000
    15  C    2.461892   2.701161   2.668599   3.416575   0.000000
    16  O    2.656298   2.696314   2.476866   3.733980   1.228992
    17  N    3.687473   3.882748   3.979232   4.539385   1.335059
    18  H    4.017503   4.298024   4.472501   4.690932   2.037317
    19  C    4.884356   4.939844   5.010717   5.832512   2.434448
    20  H    4.827227   4.793850   4.775259   5.863490   2.520549
    21  H    5.476045   5.370618   5.748582   6.397214   3.137938
    22  H    5.581700   5.792475   5.621689   6.480595   3.137996
                   16         17         18         19         20
    16  O    0.000000
    17  N    2.252787   0.000000
    18  H    3.150026   1.009980   0.000000
    19  C    2.775340   1.449001   2.120953   0.000000
    20  H    2.337405   2.083700   2.986203   1.089895   0.000000
    21  H    3.519141   2.083711   2.484232   1.089959   1.779568
    22  H    3.519212   2.083767   2.484292   1.090017   1.779582
                   21         22
    21  H    0.000000
    22  H    1.779636   0.000000
 Stoichiometry    C6H12N2O2
 Framework group  C1[X(C6H12N2O2)]
 Deg. of freedom    60
 Full point group                 C1      NOp   1
 Largest Abelian subgroup         C1      NOp   1
 Largest concise Abelian subgroup C1      NOp   1
                         Standard orientation:                         
 ---------------------------------------------------------------------
 Center     Atomic      Atomic             Coordinates (Angstroms)
 Number     Number       Type             X           Y           Z
 ---------------------------------------------------------------------
      1          1           0        3.811086   -1.361273   -0.767777
      2          6           0        2.882703   -1.586394   -0.242828
      3          1           0        3.110872   -1.974197    0.749922
      4          1           0        2.319559   -2.332508   -0.803332
      5          6           0        2.017927   -0.333239   -0.091301
      6          8           0        2.401278    0.746610   -0.535690
      7          7           0        0.850591   -0.485088    0.538356
      8          1           0        0.578995   -1.393520    0.886347
      9          6           0       -0.057810    0.624664    0.745229
     10          1           0       -0.218888    0.768718    1.813563
     11          6           0        0.508170    1.913947    0.159461
     12          1           0        0.666252    1.788295   -0.911626
     13          1           0       -0.194446    2.729825    0.329238
     14          1           0        1.457590    2.146516    0.641592
     15          6           0       -1.402287    0.363143    0.081530
     16          8           0       -1.952919    1.240864   -0.579404
     17          7           0       -1.930824   -0.849892    0.259226
     18          1           0       -1.439979   -1.538608    0.811314
     19          6           0       -3.205384   -1.222260   -0.320813
     20          1           0       -3.608836   -0.380535   -0.883483
     21          1           0       -3.066597   -2.072199   -0.988909
     22          1           0       -3.900758   -1.494618    0.473172
 ---------------------------------------------------------------------
 Rotational constants (GHZ):      2.3103420      0.8138448      0.6547554
 Standard basis: 6-31G(d) (6D, 7F)
 There are   174 symmetry adapted basis functions of A   symmetry.
 Integral buffers will be    131072 words long.
 Raffenetti 2 integral format.
 Two-electron integral symmetry is turned on.
   174 basis functions,   328 primitive gaussians,   174 cartesian basis functions
    39 alpha electrons       39 beta electrons
       nuclear repulsion energy       563.7962308284 Hartrees.
 NAtoms=   22 NActive=   22 NUniq=   22 SFac= 7.50D-01 NAtFMM=   80 NAOKFM=F Big=F
 One-electron integrals computed using PRISM.
 NBasis=   174 RedAO= T  NBF=   174
 NBsUse=   174 1.00D-06 NBFU=   174
 Harris functional with IExCor=  402 diagonalized for initial guess.
 ExpMin= 1.61D-01 ExpMax= 5.48D+03 ExpMxC= 8.25D+02 IAcc=1 IRadAn=         1 AccDes= 0.00D+00
 HarFok:  IExCor=  402 AccDes= 0.00D+00 IRadAn=         1 IDoV= 1
 ScaDFX=  1.000000  1.000000  1.000000  1.000000
 FoFCou: FMM=F IPFlag=           0 FMFlag=      100000 FMFlg1=           0
         NFxFlg=           0 DoJE=T BraDBF=F KetDBF=T FulRan=T
         Omega=  0.000000  0.000000  1.000000  0.000000  0.000000 ICntrl=     500 IOpCl=  0
         NMat0=    1 NMatS0=    1 NMatT0=    0 NMatD0=    1 NMtDS0=    0 NMtDT0=    0
         I1Cent=           4 NGrid=           0.
 Petite list used in FoFCou.
 Initial guess orbital symmetries:
       Occupied  (A) (A) (A) (A) (A) (A) (A) (A) (A) (A) (A) (A)
                 (A) (A) (A) (A) (A) (A) (A) (A) (A) (A) (A) (A)
                 (A) (A) (A) (A) (A) (A) (A) (A) (A) (A) (A) (A)
                 (A) (A) (A)
       Virtual   (A) (A) (A) (A) (A) (A) (A) (A) (A) (A) (A) (A)
                 (A) (A) (A) (A) (A) (A) (A) (A) (A) (A) (A) (A)
                 (A) (A) (A) (A) (A) (A) (A) (A) (A) (A) (A) (A)
                 (A) (A) (A) (A) (A) (A) (A) (A) (A) (A) (A) (A)
                 (A) (A) (A) (A) (A) (A) (A) (A) (A) (A) (A) (A)
                 (A) (A) (A) (A) (A) (A) (A) (A) (A) (A) (A) (A)
                 (A) (A) (A) (A) (A) (A) (A) (A) (A) (A) (A) (A)
                 (A) (A) (A) (A) (A) (A) (A) (A) (A) (A) (A) (A)
                 (A) (A) (A) (A) (A) (A) (A) (A) (A) (A) (A) (A)
                 (A) (A) (A) (A) (A) (A) (A) (A) (A) (A) (A) (A)
                 (A) (A) (A) (A) (A) (A) (A) (A) (A) (A) (A) (A)
                 (A) (A) (A)
 The electronic state of the initial guess is 1-A.
 Requested convergence on RMS density matrix=1.00D-08 within 128 cycles.
 Requested convergence on MAX density matrix=1.00D-06.
 Requested convergence on             energy=1.00D-06.
 No special actions if energy rises.
 Integral accuracy reduced to 1.0D-05 until final iterations.
 Initial convergence to 1.0D-05 achieved.  Increase integral accuracy.
 SCF Done:  E(RB3LYP) =  -495.807379266     A.U. after   15 cycles
             Convg  =    0.8099D-08             -V/T =  2.0084
 Range of M.O.s used for correlation:     1   174
 NBasis=   174 NAE=    39 NBE=    39 NFC=     0 NFV=     0
 NROrb=    174 NOA=    39 NOB=    39 NVA=   135 NVB=   135
 Symmetrizing basis deriv contribution to polar:
 IMax=3 JMax=2 DiffMx= 0.00D+00
 G2DrvN: will do    23 centers at a time, making    1 passes doing MaxLOS=2.
 Calling FoFCou, ICntrl=  3107 FMM=F I1Cent=   0 AccDes= 0.00D+00.
 FoFDir/FoFCou used for L=0 through L=2.
 End of G2Drv Frequency-dependent properties file   721 does not exist.
 End of G2Drv Frequency-dependent properties file   722 does not exist.
          IDoAtm=1111111111111111111111
          Differentiating once with respect to nuclear coordinates.
          There are    69 degrees of freedom in the 1st order CPHF.  IDoFFX=5.
     63 vectors produced by pass  0 Test12= 7.63D-11 1.45D-07 XBig12= 1.73D-01 1.04D-01.
 AX will form    63 AO Fock derivatives at one time.
     63 vectors produced by pass  1 Test12= 7.63D-11 1.45D-07 XBig12= 3.34D-02 5.80D-02.
     63 vectors produced by pass  2 Test12= 7.63D-11 1.45D-07 XBig12= 4.70D-05 1.33D-03.
     63 vectors produced by pass  3 Test12= 7.63D-11 1.45D-07 XBig12= 1.28D-07 6.60D-05.
     29 vectors produced by pass  4 Test12= 7.63D-11 1.45D-07 XBig12= 1.07D-10 1.38D-06.
 Inverted reduced A of dimension   281 with in-core refinement.
 End of Minotr Frequency-dependent properties file   721 does not exist.
 End of Minotr Frequency-dependent properties file   722 does not exist.

 **********************************************************************

            Population analysis using the SCF density.

 **********************************************************************

 Orbital symmetries:
       Occupied  (A) (A) (A) (A) (A) (A) (A) (A) (A) (A) (A) (A)
                 (A) (A) (A) (A) (A) (A) (A) (A) (A) (A) (A) (A)
                 (A) (A) (A) (A) (A) (A) (A) (A) (A) (A) (A) (A)
                 (A) (A) (A)
       Virtual   (A) (A) (A) (A) (A) (A) (A) (A) (A) (A) (A) (A)
                 (A) (A) (A) (A) (A) (A) (A) (A) (A) (A) (A) (A)
                 (A) (A) (A) (A) (A) (A) (A) (A) (A) (A) (A) (A)
                 (A) (A) (A) (A) (A) (A) (A) (A) (A) (A) (A) (A)
                 (A) (A) (A) (A) (A) (A) (A) (A) (A) (A) (A) (A)
                 (A) (A) (A) (A) (A) (A) (A) (A) (A) (A) (A) (A)
                 (A) (A) (A) (A) (A) (A) (A) (A) (A) (A) (A) (A)
                 (A) (A) (A) (A) (A) (A) (A) (A) (A) (A) (A) (A)
                 (A) (A) (A) (A) (A) (A) (A) (A) (A) (A) (A) (A)
                 (A) (A) (A) (A) (A) (A) (A) (A) (A) (A) (A) (A)
                 (A) (A) (A) (A) (A) (A) (A) (A) (A) (A) (A) (A)
                 (A) (A) (A)
 The electronic state is 1-A.
 Alpha  occ. eigenvalues --  -19.10617 -19.09604 -14.37155 -14.37098 -10.28598
 Alpha  occ. eigenvalues --  -10.27999 -10.23178 -10.22285 -10.19168 -10.14785
 Alpha  occ. eigenvalues --   -1.03707  -1.02805  -0.94023  -0.92528  -0.78234
 Alpha  occ. eigenvalues --   -0.72818  -0.71442  -0.64077  -0.60596  -0.57565
 Alpha  occ. eigenvalues --   -0.54505  -0.51333  -0.47486  -0.46394  -0.45476
 Alpha  occ. eigenvalues --   -0.44527  -0.41901  -0.40939  -0.39709  -0.39591
 Alpha  occ. eigenvalues --   -0.37539  -0.36607  -0.35937  -0.35251  -0.35209
 Alpha  occ. eigenvalues --   -0.27056  -0.25718  -0.23401  -0.22312
 Alpha virt. eigenvalues --    0.02376   0.03152   0.03569   0.10169   0.11508
 Alpha virt. eigenvalues --    0.12518   0.14509   0.15584   0.16193   0.16551
 Alpha virt. eigenvalues --    0.17215   0.17427   0.18079   0.20122   0.20302
 Alpha virt. eigenvalues --    0.22022   0.24317   0.26550   0.29289   0.33343
 Alpha virt. eigenvalues --    0.35812   0.39958   0.41766   0.50222   0.50759
 Alpha virt. eigenvalues --    0.52993   0.53708   0.54074   0.55265   0.56719
 Alpha virt. eigenvalues --    0.58874   0.60103   0.63360   0.65561   0.65844
 Alpha virt. eigenvalues --    0.66766   0.68848   0.70534   0.71963   0.73898
 Alpha virt. eigenvalues --    0.75218   0.78310   0.79236   0.80319   0.84433
 Alpha virt. eigenvalues --    0.85698   0.86473   0.87580   0.88093   0.88994
 Alpha virt. eigenvalues --    0.89824   0.90898   0.91671   0.92254   0.94334
 Alpha virt. eigenvalues --    0.94499   0.95607   0.97021   0.99172   1.00753
 Alpha virt. eigenvalues --    1.04747   1.06810   1.09655   1.11148   1.17856
 Alpha virt. eigenvalues --    1.25850   1.29355   1.30870   1.33665   1.35422
 Alpha virt. eigenvalues --    1.38149   1.39798   1.43549   1.46574   1.48131
 Alpha virt. eigenvalues --    1.52214   1.55285   1.56461   1.66720   1.70046
 Alpha virt. eigenvalues --    1.75312   1.78160   1.82018   1.82774   1.83439
 Alpha virt. eigenvalues --    1.84595   1.86189   1.87969   1.90386   1.91798
 Alpha virt. eigenvalues --    1.94891   1.97651   1.98740   2.03140   2.03972
 Alpha virt. eigenvalues --    2.07359   2.10310   2.11334   2.13910   2.18667
 Alpha virt. eigenvalues --    2.19983   2.24811   2.25909   2.29639   2.31048
 Alpha virt. eigenvalues --    2.32316   2.35942   2.37876   2.42425   2.43905
 Alpha virt. eigenvalues --    2.45003   2.47883   2.53558   2.57836   2.63727
 Alpha virt. eigenvalues --    2.67883   2.69383   2.70558   2.76130   2.87081
 Alpha virt. eigenvalues --    2.94032   2.98389   3.04632   3.15080   3.21672
 Alpha virt. eigenvalues --    3.94383   4.00639   4.08386   4.10142   4.22369
 Alpha virt. eigenvalues --    4.23854   4.27976   4.44402   4.48236   4.66470
          Condensed to atoms (all electrons):
              1          2          3          4          5          6
     1  H    0.495489   0.360543  -0.020803  -0.020545  -0.017081   0.005228
     2  C    0.360543   5.336968   0.348588   0.348720   0.353270  -0.073040
     3  H   -0.020803   0.348588   0.559221  -0.027483  -0.027647   0.001221
     4  H   -0.020545   0.348720  -0.027483   0.558373  -0.027510   0.001205
     5  C   -0.017081   0.353270  -0.027647  -0.027510   4.357169   0.583244
     6  O    0.005228  -0.073040   0.001221   0.001205   0.583244   8.145522
     7  N    0.004724  -0.141146   0.005673   0.005703   0.240386  -0.098703
     8  H   -0.000170   0.001246   0.000895   0.000814  -0.015878   0.003842
     9  C   -0.000093   0.003315   0.000106   0.000009  -0.035767  -0.013578
    10  H    0.000003  -0.000253   0.000019   0.000003   0.000565  -0.000069
    11  C    0.000007   0.000425  -0.000007   0.000003  -0.000084  -0.038772
    12  H    0.000017  -0.000275   0.000010  -0.000005   0.001466  -0.010693
    13  H   -0.000001   0.000034  -0.000001  -0.000001   0.000933   0.005178
    14  H    0.000017  -0.000273   0.000000   0.000009  -0.000686  -0.010138
    15  C    0.000001  -0.000204  -0.000001   0.000039  -0.000855  -0.000568
    16  O    0.000000   0.000000   0.000000   0.000000   0.000075  -0.000007
    17  N    0.000000  -0.000042   0.000001   0.000009   0.000705   0.000001
    18  H    0.000000   0.000000  -0.000015  -0.000004   0.000440   0.000008
    19  C    0.000000   0.000000   0.000000   0.000000  -0.000009   0.000000
    20  H    0.000000   0.000000   0.000000   0.000000   0.000000   0.000000
    21  H    0.000000   0.000000   0.000000   0.000000  -0.000003   0.000000
    22  H    0.000000   0.000000   0.000000   0.000000   0.000001   0.000000
              7          8          9         10         11         12
     1  H    0.004724  -0.000170  -0.000093   0.000003   0.000007   0.000017
     2  C   -0.141146   0.001246   0.003315  -0.000253   0.000425  -0.000275
     3  H    0.005673   0.000895   0.000106   0.000019  -0.000007   0.000010
     4  H    0.005703   0.000814   0.000009   0.000003   0.000003  -0.000005
     5  C    0.240386  -0.015878  -0.035767   0.000565  -0.000084   0.001466
     6  O   -0.098703   0.003842  -0.013578  -0.000069  -0.038772  -0.010693
     7  N    7.198977   0.292414   0.220420  -0.050404  -0.042966  -0.004323
     8  H    0.292414   0.431746  -0.035504  -0.001174   0.005307  -0.000191
     9  C    0.220420  -0.035504   5.183670   0.366860   0.377059  -0.027044
    10  H   -0.050404  -0.001174   0.366860   0.598155  -0.034625   0.005034
    11  C   -0.042966   0.005307   0.377059  -0.034625   5.057984   0.395044
    12  H   -0.004323  -0.000191  -0.027044   0.005034   0.395044   0.520469
    13  H    0.004238  -0.000092  -0.022268  -0.003488   0.334787  -0.030222
    14  H   -0.002381  -0.000297  -0.026658  -0.002561   0.371137  -0.025766
    15  C   -0.045098  -0.003567   0.305451  -0.039526  -0.038825  -0.005552
    16  O    0.001449  -0.000069  -0.094769   0.001458   0.000093   0.001861
    17  N    0.001543   0.003589  -0.131977  -0.000461   0.004626   0.000133
    18  H    0.002981   0.006546   0.000260   0.001016   0.000088  -0.000008
    19  C   -0.000230  -0.000168   0.006883  -0.000254  -0.000163  -0.000006
    20  H   -0.000066   0.000006   0.001378  -0.000045  -0.000025  -0.000004
    21  H    0.000030  -0.000009  -0.000025  -0.000005   0.000008  -0.000001
    22  H   -0.000001   0.000008  -0.000245   0.000028  -0.000002   0.000000
             13         14         15         16         17         18
     1  H   -0.000001   0.000017   0.000001   0.000000   0.000000   0.000000
     2  C    0.000034  -0.000273  -0.000204   0.000000  -0.000042   0.000000
     3  H   -0.000001   0.000000  -0.000001   0.000000   0.000001  -0.000015
     4  H   -0.000001   0.000009   0.000039   0.000000   0.000009  -0.000004
     5  C    0.000933  -0.000686  -0.000855   0.000075   0.000705   0.000440
     6  O    0.005178  -0.010138  -0.000568  -0.000007   0.000001   0.000008
     7  N    0.004238  -0.002381  -0.045098   0.001449   0.001543   0.002981
     8  H   -0.000092  -0.000297  -0.003567  -0.000069   0.003589   0.006546
     9  C   -0.022268  -0.026658   0.305451  -0.094769  -0.131977   0.000260
    10  H   -0.003488  -0.002561  -0.039526   0.001458  -0.000461   0.001016
    11  C    0.334787   0.371137  -0.038825   0.000093   0.004626   0.000088
    12  H   -0.030222  -0.025766  -0.005552   0.001861   0.000133  -0.000008
    13  H    0.607381  -0.035568  -0.007679   0.006890   0.000393  -0.000008
    14  H   -0.035568   0.569259   0.006151   0.001007  -0.000060  -0.000021
    15  C   -0.007679   0.006151   4.358249   0.598930   0.285309  -0.025780
    16  O    0.006890   0.001007   0.598930   8.079086  -0.097239   0.003809
    17  N    0.000393  -0.000060   0.285309  -0.097239   7.090000   0.299035
    18  H   -0.000008  -0.000021  -0.025780   0.003809   0.299035   0.433595
    19  C    0.000000   0.000002  -0.023134  -0.009271   0.262036  -0.032561
    20  H   -0.000006   0.000000  -0.001112   0.022517  -0.037274   0.003937
    21  H    0.000000   0.000000   0.001321   0.000558  -0.044292  -0.000176
    22  H    0.000000   0.000000   0.001402   0.000589  -0.043946  -0.001291
             19         20         21         22
     1  H    0.000000   0.000000   0.000000   0.000000
     2  C    0.000000   0.000000   0.000000   0.000000
     3  H    0.000000   0.000000   0.000000   0.000000
     4  H    0.000000   0.000000   0.000000   0.000000
     5  C   -0.000009   0.000000  -0.000003   0.000001
     6  O    0.000000   0.000000   0.000000   0.000000
     7  N   -0.000230  -0.000066   0.000030  -0.000001
     8  H   -0.000168   0.000006  -0.000009   0.000008
     9  C    0.006883   0.001378  -0.000025  -0.000245
    10  H   -0.000254  -0.000045  -0.000005   0.000028
    11  C   -0.000163  -0.000025   0.000008  -0.000002
    12  H   -0.000006  -0.000004  -0.000001   0.000000
    13  H    0.000000  -0.000006   0.000000   0.000000
    14  H    0.000002   0.000000   0.000000   0.000000
    15  C   -0.023134  -0.001112   0.001321   0.001402
    16  O   -0.009271   0.022517   0.000558   0.000589
    17  N    0.262036  -0.037274  -0.044292  -0.043946
    18  H   -0.032561   0.003937  -0.000176  -0.001291
    19  C    4.967911   0.376560   0.382427   0.383172
    20  H    0.376560   0.467164  -0.024035  -0.023617
    21  H    0.382427  -0.024035   0.565237  -0.038994
    22  H    0.383172  -0.023617  -0.038994   0.564487
 Mulliken atomic charges:
              1
     1  H    0.192663
     2  C   -0.537876
     3  H    0.160222
     4  H    0.160662
     5  C    0.587266
     6  O   -0.499880
     7  N   -0.593219
     8  H    0.310707
     9  C   -0.077481
    10  H    0.159726
    11  C   -0.391099
    12  H    0.180056
    13  H    0.139499
    14  H    0.156828
    15  C    0.635048
    16  O   -0.516968
    17  N   -0.592092
    18  H    0.308149
    19  C   -0.313197
    20  H    0.214623
    21  H    0.157958
    22  H    0.158409
 Sum of Mulliken atomic charges =   0.00000
 Mulliken charges with hydrogens summed into heavy atoms:
              1
     2  C   -0.024329
     5  C    0.587266
     6  O   -0.499880
     7  N   -0.282513
     9  C    0.082244
    11  C    0.085283
    15  C    0.635048
    16  O   -0.516968
    17  N   -0.283943
    19  C    0.217793
 Sum of Mulliken charges with hydrogens summed into heavy atoms =   0.00000
 APT atomic charges:
              1
     1  H    0.691011
     2  C   -1.219092
     3  H    0.440490
     4  H    0.278932
     5  C   -0.054654
     6  O   -0.135846
     7  N   -0.621306
     8  H    0.511133
     9  C   -0.502512
    10  H    0.455521
    11  C   -1.116900
    12  H    0.300398
    13  H    0.475318
    14  H    0.451170
    15  C   -0.143951
    16  O   -0.045209
    17  N   -0.355749
    18  H    0.438399
    19  C   -1.389470
    20  H    0.487985
    21  H    0.435449
    22  H    0.618883
 Sum of APT charges=   0.00000
 APT Atomic charges with hydrogens summed into heavy atoms:
              1
     1  H    0.000000
     2  C    0.191341
     3  H    0.000000
     4  H    0.000000
     5  C   -0.054654
     6  O   -0.135846
     7  N   -0.110174
     8  H    0.000000
     9  C   -0.046991
    10  H    0.000000
    11  C    0.109987
    12  H    0.000000
    13  H    0.000000
    14  H    0.000000
    15  C   -0.143951
    16  O   -0.045209
    17  N    0.082651
    18  H    0.000000
    19  C    0.152847
    20  H    0.000000
    21  H    0.000000
    22  H    0.000000
 Sum of APT charges=   0.00000
 Electronic spatial extent (au):  <R**2>=           1786.4631
 Charge=              0.0000 electrons
 Dipole moment (field-independent basis, Debye):
    X=             -1.0466    Y=             -5.7627    Z=              2.9136  Tot=              6.5416
 Quadrupole moment (field-independent basis, Debye-Ang):
   XX=            -63.0065   YY=            -58.7224   ZZ=            -59.0158
   XY=              1.4560   XZ=              0.0543   YZ=              1.2206
 Traceless Quadrupole moment (field-independent basis, Debye-Ang):
   XX=             -2.7583   YY=              1.5258   ZZ=              1.2325
   XY=              1.4560   XZ=              0.0543   YZ=              1.2206
 Octapole moment (field-independent basis, Debye-Ang**2):
  XXX=            -19.1794  YYY=            -10.2777  ZZZ=             -0.2998  XYY=              0.6737
  XXY=            -29.8511  XXZ=              5.5023  XZZ=             -1.1346  YZZ=             -2.7124
  YYZ=              5.5836  XYZ=             -0.1522
 Hexadecapole moment (field-independent basis, Debye-Ang**3):
 XXXX=          -1523.7187 YYYY=           -571.1392 ZZZZ=           -148.8071 XXXY=              1.9790
 XXXZ=             10.5349 YYYX=             16.1619 YYYZ=             -6.5604 ZZZX=             -0.8837
 ZZZY=             -6.2955 XXYY=           -363.4187 XXZZ=           -285.5763 YYZZ=           -115.6230
 XXYZ=             12.5029 YYXZ=             -4.0018 ZZXY=              1.3869
 N-N= 5.637962308284D+02 E-N=-2.284091290223D+03  KE= 4.917003532535D+02
  Exact polarizability:   0.000   0.000   0.000   0.000   0.000   0.000
 Approx polarizability: 111.978   5.421 130.755  -3.965 -17.486  94.311
 Calling FoFJK, ICntrl=    100147 FMM=F ISym2X=0 I1Cent= 0 IOpClX= 0 NMat=1 NMatS=1 NMatT=0.
 ***** Axes restored to original set *****
 -------------------------------------------------------------------
 Center     Atomic                   Forces (Hartrees/Bohr)
 Number     Number              X              Y              Z
 -------------------------------------------------------------------
      1        1           0.003667164    0.001404267   -0.000715138
      2        6           0.006081652    0.006561500    0.005652556
      3        1          -0.005041992   -0.002612909    0.003885215
      4        1          -0.006550673    0.000571621    0.001822372
      5        6          -0.014996870   -0.030857242   -0.037477010
      6        8          -0.034104220   -0.019206314   -0.002889915
      7        7           0.002837607    0.010963762    0.020862556
      8        1          -0.002184473   -0.004775924   -0.001462178
      9        6           0.010209385    0.002249132   -0.008397134
     10        1           0.002045703   -0.001334651    0.008011039
     11        6           0.021229582    0.003515189    0.001618124
     12        1           0.010866856    0.001005470    0.001623316
     13        1           0.001480127    0.004375635    0.004182758
     14        1           0.005871763    0.005268321   -0.002113291
     15        6           0.019724800    0.002575590   -0.019495624
     16        8          -0.002074100    0.003040928    0.004519550
     17        7          -0.012931710    0.009687947    0.013498561
     18        1           0.000793868    0.002687969    0.000670969
     19        6          -0.004006046   -0.000090884    0.003841069
     20        1           0.000837025   -0.003526813   -0.000520197
     21        1          -0.003659168    0.004145858   -0.000288653
     22        1          -0.000096281    0.004351548    0.003171056
 -------------------------------------------------------------------
 Cartesian Forces:  Max     0.037477010 RMS     0.010477322

 GradGradGradGradGradGradGradGradGradGradGradGradGradGradGradGradGradGrad
 Berny optimization.
 Internal  Forces:  Max     0.129808326 RMS     0.023099653
 Search for a local minimum.
 Step number   1 out of a maximum of  132
 All quantities printed in internal units (Hartrees-Bohrs-Radians)
 Mixed Optimization -- RFO/linear search
 Second derivative matrix not updated -- analytic derivatives used.
     Eigenvalues ---   -0.01882  -0.00059  -0.00020   0.00161   0.01243
     Eigenvalues ---    0.01468   0.01694   0.02195   0.03934   0.04464
     Eigenvalues ---    0.04581   0.04729   0.05403   0.05797   0.05913
     Eigenvalues ---    0.05985   0.06406   0.06612   0.11514   0.12449
     Eigenvalues ---    0.12633   0.13295   0.13400   0.13564   0.14213
     Eigenvalues ---    0.14466   0.14820   0.17881   0.18451   0.18697
     Eigenvalues ---    0.19505   0.21301   0.22589   0.23586   0.24349
     Eigenvalues ---    0.29027   0.30857   0.31714   0.33784   0.34575
     Eigenvalues ---    0.34723   0.34801   0.35047   0.35128   0.35269
     Eigenvalues ---    0.35504   0.35818   0.35908   0.36008   0.39383
     Eigenvalues ---    0.41393   0.46498   0.47364   0.50759   0.54379
     Eigenvalues ---    0.80207   0.82560   1.851531000.000001000.00000
     Eigenvalues --- 1000.000001000.000001000.000001000.000001000.00000
     Eigenvalues --- 1000.000001000.000001000.000001000.000001000.00000
     Eigenvalues --- 1000.000001000.000001000.000001000.000001000.00000
     Eigenvalues --- 1000.000001000.000001000.000001000.000001000.00000
     Eigenvalues --- 1000.000001000.000001000.000001000.000001000.00000
     Eigenvalues --- 1000.000001000.000001000.000001000.000001000.00000
     Eigenvalues --- 1000.000001000.000001000.000001000.000001000.00000
     Eigenvalues --- 1000.000001000.000001000.00000
 RFO step:  Lambda=-3.46576770D-02 EMin=-1.88246568D-02
 Linear search not attempted -- first point.
 Maximum step size (   0.300) exceeded in Quadratic search.
    -- Step size scaled by   0.311
 Iteration  1 RMS(Cart)=  0.06292884 RMS(Int)=  0.00180922
 Iteration  2 RMS(Cart)=  0.00269255 RMS(Int)=  0.00008395
 Iteration  3 RMS(Cart)=  0.00000380 RMS(Int)=  0.00008391
 Iteration  4 RMS(Cart)=  0.00000000 RMS(Int)=  0.00008391
 Iteration  1 RMS(Cart)=  0.00002175 RMS(Int)=  0.00000807
 Iteration  2 RMS(Cart)=  0.00001126 RMS(Int)=  0.00000902
 Iteration  3 RMS(Cart)=  0.00000584 RMS(Int)=  0.00001014
 Iteration  4 RMS(Cart)=  0.00000304 RMS(Int)=  0.00001085
 Iteration  5 RMS(Cart)=  0.00000160 RMS(Int)=  0.00001125
 Iteration  6 RMS(Cart)=  0.00000086 RMS(Int)=  0.00001147
 Variable       Old X    -DE/DX   Delta X   Delta X   Delta X     New X
                                 (Linear)    (Quad)   (Total)
    R1        2.05984  -0.00102   0.00000  -0.00008  -0.00008   2.05976
    R2        2.05972   0.00490   0.00000   0.00331   0.00331   2.06303
    R3        2.05970   0.00489   0.00000   0.00386   0.00386   2.06356
    R4        2.89146   0.00016   0.00000  -0.00121  -0.00121   2.89026
    R5        2.32253  -0.01346   0.00000  -0.00327  -0.00327   2.31926
    R6        2.52277   0.06350   0.00000   0.01949   0.01949   2.54225
    R7        1.90863  -0.00065   0.00000   0.00021   0.00021   1.90884
    R8        2.73817   0.06193   0.00000   0.01132   0.01132   2.74949
    R9        2.05975   0.00795   0.00000   0.00640   0.00640   2.06614
   R10        2.88188   0.01296   0.00000   0.00411   0.00411   2.88599
   R11        2.87618   0.02291   0.00000   0.01199   0.01199   2.88817
   R12        2.05972  -0.00643   0.00000  -0.00552  -0.00552   2.05420
   R13        2.05984   0.00342   0.00000   0.00193   0.00193   2.06178
   R14        2.05966  -0.00441   0.00000   0.00376   0.00376   2.06342
   R15        2.32246  -0.00221   0.00000  -0.00277  -0.00277   2.31969
   R16        2.52290   0.03234   0.00000   0.01657   0.01657   2.53946
   R17        1.90859  -0.00165   0.00000  -0.00084  -0.00084   1.90774
   R18        2.73822   0.00630   0.00000   0.00244   0.00244   2.74065
   R19        2.05960  -0.00084   0.00000   0.00014   0.00014   2.05975
   R20        2.05972   0.00439   0.00000   0.00318   0.00318   2.06291
   R21        2.05983   0.00427   0.00000   0.00369   0.00369   2.06353
    A1        1.91116  -0.00018   0.00000   0.00148   0.00152   1.91268
    A2        1.91110  -0.00018   0.00000  -0.00426  -0.00427   1.90683
    A3        1.93897  -0.00813   0.00000  -0.01209  -0.01208   1.92689
    A4        1.91027  -0.00525   0.00000  -0.00710  -0.00717   1.90310
    A5        1.89601   0.00697   0.00000   0.01822   0.01821   1.91422
    A6        1.89606   0.00682   0.00000   0.00387   0.00382   1.89988
    A7        2.10308  -0.02201   0.00000   0.00861   0.00844   2.11152
    A8        2.03504  -0.04161   0.00000  -0.01419  -0.01435   2.02069
    A9        2.14506   0.06362   0.00000   0.00558   0.00542   2.15048
   A10        2.09433  -0.06965   0.00000  -0.01752  -0.01779   2.07655
   A11        2.12753   0.12981   0.00000   0.02138   0.02111   2.14864
   A12        2.06132  -0.06016   0.00000  -0.00386  -0.00414   2.05718
   A13        1.91114  -0.01805   0.00000  -0.01763  -0.01757   1.89356
   A14        1.93905   0.06774   0.00000   0.00973   0.00941   1.94846
   A15        1.93900  -0.02376   0.00000   0.00929   0.00900   1.94801
   A16        1.89609  -0.01745   0.00000  -0.01350  -0.01343   1.88266
   A17        1.89608   0.01069   0.00000  -0.00672  -0.00657   1.88951
   A18        1.88137  -0.02003   0.00000   0.01848   0.01824   1.89962
   A19        1.91115   0.01082   0.00000   0.01421   0.01421   1.92536
   A20        1.91106  -0.01240   0.00000  -0.00789  -0.00788   1.90319
   A21        1.91110   0.00856   0.00000   0.00206   0.00204   1.91314
   A22        1.91011  -0.00257   0.00000  -0.00019  -0.00017   1.90993
   A23        1.91023  -0.00346   0.00000  -0.00936  -0.00938   1.90085
   A24        1.91015  -0.00096   0.00000   0.00117   0.00117   1.91132
   A25        2.10316   0.00529   0.00000   0.00335   0.00333   2.10649
   A26        2.03509   0.00111   0.00000  -0.00245  -0.00247   2.03262
   A27        2.14493  -0.00640   0.00000  -0.00089  -0.00092   2.14402
   A28        2.09433  -0.00041   0.00000  -0.00193  -0.00194   2.09238
   A29        2.12756   0.00469   0.00000   0.00332   0.00331   2.13087
   A30        2.06130  -0.00428   0.00000  -0.00139  -0.00140   2.05990
   A31        1.91113  -0.00728   0.00000  -0.01051  -0.01049   1.90064
   A32        1.91108   0.00532   0.00000   0.00632   0.00630   1.91738
   A33        1.91110   0.00514   0.00000   0.00898   0.00897   1.92007
   A34        1.91020   0.00004   0.00000   0.00011   0.00012   1.91032
   A35        1.91014   0.00008   0.00000  -0.00184  -0.00182   1.90832
   A36        1.91015  -0.00329   0.00000  -0.00307  -0.00311   1.90703
    D1       -0.00003  -0.00008   0.00000   0.07319   0.07322   0.07320
    D2        3.14149   0.00002   0.00000   0.04065   0.04067  -3.10102
    D3        2.10326  -0.00083   0.00000   0.07933   0.07929   2.18255
    D4       -1.03841  -0.00073   0.00000   0.04679   0.04674  -0.99167
    D5       -2.10327   0.00076   0.00000   0.08344   0.08347  -2.01980
    D6        1.03825   0.00086   0.00000   0.05090   0.05091   1.08917
    D7        0.00015   0.00043   0.00000  -0.04632  -0.04646  -0.04631
    D8        3.14155  -0.00016   0.00000  -0.09071  -0.09060   3.05095
    D9       -3.14152   0.00053   0.00000  -0.07971  -0.07982   3.06185
   D10       -0.00011  -0.00006   0.00000  -0.12411  -0.12397  -0.12408
   D11       -2.09432  -0.00787   0.00000  -0.01395  -0.01391  -2.10824
   D12        0.00012   0.00147   0.00000  -0.03606  -0.03604  -0.03592
   D13        2.09447   0.00556   0.00000   0.00000   0.00000   2.09447
   D14        1.04709  -0.00846   0.00000  -0.05754  -0.05760   0.98949
   D15        3.14153   0.00089   0.00000  -0.07964  -0.07973   3.06180
   D16       -1.04730   0.00498   0.00000  -0.04359  -0.04368  -1.09099
   D17        1.04724   0.00112   0.00000   0.04314   0.04321   1.09045
   D18        3.14157  -0.00300   0.00000   0.04678   0.04683  -3.09479
   D19       -1.04726  -0.00653   0.00000   0.04464   0.04469  -1.00258
   D20       -3.13259   0.00942   0.00000   0.01862   0.01865  -3.11394
   D21       -1.03826   0.00530   0.00000   0.02225   0.02227  -1.01600
   D22        1.05609   0.00177   0.00000   0.02011   0.02013   1.07622
   D23       -1.08102   0.00172   0.00000   0.01352   0.01346  -1.06756
   D24        1.01331  -0.00240   0.00000   0.01716   0.01708   1.03039
   D25        3.10766  -0.00593   0.00000   0.01502   0.01494   3.12260
   D26       -2.35615  -0.02905   0.00000  -0.01161  -0.01165  -2.36780
   D27        0.78541  -0.02743   0.00000   0.00000   0.00000   0.78541
   D28        1.82372   0.00108   0.00000   0.00880   0.00879   1.83251
   D29       -1.31791   0.00270   0.00000   0.02041   0.02043  -1.29747
   D30       -0.22786   0.02697   0.00000   0.01828   0.01834  -0.20951
   D31        2.91370   0.02859   0.00000   0.02989   0.02999   2.94369
   D32       -0.00002  -0.00008   0.00000  -0.00053  -0.00054  -0.00056
   D33       -3.14158  -0.00045   0.00000  -0.00968  -0.00968   3.13192
   D34        3.14153   0.00158   0.00000   0.01138   0.01138  -3.13027
   D35       -0.00003   0.00122   0.00000   0.00224   0.00224   0.00221
   D36       -0.00003   0.00017   0.00000   0.03337   0.03337   0.03333
   D37        2.09441  -0.00099   0.00000   0.03093   0.03091   2.12532
   D38       -2.09442   0.00139   0.00000   0.03656   0.03659  -2.05783
   D39        3.14159  -0.00019   0.00000   0.02439   0.02439  -3.11721
   D40       -1.04715  -0.00135   0.00000   0.02195   0.02193  -1.02522
   D41        1.04720   0.00103   0.00000   0.02758   0.02761   1.07481
         Item               Value     Threshold  Converged?
 Maximum Force            0.129808     0.000450     NO 
 RMS     Force            0.022916     0.000300     NO 
 Maximum Displacement     0.222172     0.001800     NO 
 RMS     Displacement     0.062781     0.001200     NO 
 Predicted change in Energy=-1.013039D-02
 GradGradGradGradGradGradGradGradGradGradGradGradGradGradGradGradGradGrad

                          Input orientation:                          
 ---------------------------------------------------------------------
 Center     Atomic      Atomic             Coordinates (Angstroms)
 Number     Number       Type             X           Y           Z
 ---------------------------------------------------------------------
      1          1           0        1.564611    1.810760   -1.663552
      2          6           0        1.780163    2.483661   -0.833614
      3          1           0        1.787720    1.920587    0.101651
      4          1           0        1.004785    3.250791   -0.781315
      5          6           0        3.135155    3.163443   -1.036433
      6          8           0        3.784727    2.984046   -2.062168
      7          7           0        3.532015    3.983908   -0.046899
      8          1           0        2.915169    4.138039    0.738005
      9          6           0        4.837617    4.625565   -0.022083
     10          1           0        5.359026    4.315836    0.887657
     11          6           0        5.692580    4.209125   -1.217055
     12          1           0        5.222628    4.523944   -2.145323
     13          1           0        6.675286    4.675319   -1.131416
     14          1           0        5.803874    3.122948   -1.227364
     15          6           0        4.715988    6.149015   -0.009253
     16          8           0        5.429214    6.840616   -0.730236
     17          7           0        3.808276    6.670158    0.833562
     18          1           0        3.251709    6.059568    1.413710
     19          6           0        3.599952    8.100407    0.953289
     20          1           0        4.254328    8.612743    0.248064
     21          1           0        2.560103    8.343888    0.727202
     22          1           0        3.834373    8.428529    1.968072
 ---------------------------------------------------------------------
                    Distance matrix (angstroms):
                    1          2          3          4          5
     1  H    0.000000
     2  C    1.089980   0.000000
     3  H    1.782634   1.091710   0.000000
     4  H    1.779167   1.091986   1.778218   0.000000
     5  C    2.165557   1.529457   2.157662   2.147368   0.000000
     6  O    2.542520   2.403748   3.130670   3.072428   1.227298
     7  N    3.347659   2.436934   2.705906   2.731981   1.345302
     8  H    3.606620   2.548566   2.567718   2.597134   2.036384
     9  C    4.618454   3.820256   4.078490   4.142105   2.462739
    10  H    5.213603   4.373545   4.371412   4.783221   3.158438
    11  C    4.794960   4.293164   4.714268   4.804549   2.768845
    12  H    4.579799   4.211164   4.860551   4.612118   2.727297
    13  H    5.882845   5.371617   5.744328   5.857169   3.850626
    14  H    4.459086   4.093161   4.397891   4.821468   2.675847
    15  C    5.611447   4.767961   5.144575   4.771667   3.530973
    16  O    6.411372   5.684128   6.177313   5.697809   4.344890
    17  N    5.906214   4.941606   5.213134   4.707383   4.030760
    18  H    5.510736   4.472474   4.582132   4.213791   3.795303
    19  C    7.109862   6.168670   6.496126   5.767367   5.343093
    20  H    7.560147   6.697549   7.133761   6.353714   5.709409
    21  H    7.027693   6.114467   6.499745   5.534823   5.502554
    22  H    7.882600   6.885541   7.072880   6.509583   6.102220
                    6          7          8          9         10
     6  O    0.000000
     7  N    2.263823   0.000000
     8  H    3.151000   1.010114   0.000000
     9  C    2.822252   1.454969   2.123964   0.000000
    10  H    3.599104   2.078831   2.454882   1.093355   0.000000
    11  C    2.419698   2.467393   3.397252   1.527200   2.133648
    12  H    2.108497   2.748307   3.713068   2.160257   3.043170
    13  H    3.475922   3.396230   4.233425   2.147120   2.436888
    14  H    2.189325   2.701127   3.638365   2.155043   2.468640
    15  C    3.885709   2.467974   2.800959   1.528352   2.139741
    16  O    4.399036   3.496726   3.972415   2.399567   2.999503
    17  N    4.687561   2.840330   2.686708   2.443775   2.819679
    18  H    4.671688   2.553491   2.064489   2.575455   2.785340
    19  C    5.941740   4.236810   4.026865   3.815455   4.173923
    20  H    6.102453   4.694130   4.696421   4.038663   4.482505
    21  H    6.165078   4.533572   4.220824   4.424300   4.907639
    22  H    6.774045   4.889395   4.557007   4.407919   4.517313
                   11         12         13         14         15
    11  C    0.000000
    12  H    1.087036   0.000000
    13  H    1.091046   1.777958   0.000000
    14  H    1.091913   1.772931   1.782812   0.000000
    15  C    2.485093   2.731361   2.696271   3.438658   0.000000
    16  O    2.689070   2.722521   2.530248   3.769425   1.227526
    17  N    3.716492   3.934512   4.007527   4.562075   1.343826
    18  H    4.037686   4.348492   4.484940   4.702398   2.043755
    19  C    4.922556   5.002556   5.053207   5.864095   2.445395
    20  H    4.858703   4.835720   4.823621   5.892014   2.519782
    21  H    5.539748   5.471052   5.817868   6.449852   3.163491
    22  H    5.603689   5.838926   5.635974   6.499149   3.143763
                   16         17         18         19         20
    16  O    0.000000
    17  N    2.258752   0.000000
    18  H    3.154055   1.009534   0.000000
    19  C    2.787028   1.450291   2.120916   0.000000
    20  H    2.340483   2.077356   2.980382   1.089971   0.000000
    21  H    3.551866   2.090602   2.483491   1.091644   1.781082
    22  H    3.513666   2.092764   2.501757   1.091971   1.780091
                   21         22
    21  H    0.000000
    22  H    1.780643   0.000000
 Stoichiometry    C6H12N2O2
 Framework group  C1[X(C6H12N2O2)]
 Deg. of freedom    60
 Full point group                 C1      NOp   1
 Largest Abelian subgroup         C1      NOp   1
 Largest concise Abelian subgroup C1      NOp   1
                         Standard orientation:                         
 ---------------------------------------------------------------------
 Center     Atomic      Atomic             Coordinates (Angstroms)
 Number     Number       Type             X           Y           Z
 ---------------------------------------------------------------------
      1          1           0        3.886638   -1.323347   -0.654487
      2          6           0        2.943237   -1.557437   -0.161281
      3          1           0        3.137980   -1.905063    0.855115
      4          1           0        2.433056   -2.347412   -0.716339
      5          6           0        2.042582   -0.322002   -0.119321
      6          8           0        2.379278    0.724127   -0.665682
      7          7           0        0.864881   -0.477745    0.512028
      8          1           0        0.623182   -1.387021    0.879628
      9          6           0       -0.064607    0.617772    0.741877
     10          1           0       -0.224599    0.716647    1.818934
     11          6           0        0.489901    1.944249    0.226785
     12          1           0        0.638083    1.899006   -0.849153
     13          1           0       -0.216944    2.741198    0.462631
     14          1           0        1.447938    2.152450    0.707505
     15          6           0       -1.416764    0.357298    0.078789
     16          8           0       -1.987423    1.243785   -0.549947
     17          7           0       -1.934424   -0.872637    0.237396
     18          1           0       -1.430778   -1.565263    0.771968
     19          6           0       -3.215393   -1.248399   -0.329409
     20          1           0       -3.613664   -0.404247   -0.892281
     21          1           0       -3.089270   -2.103184   -0.996584
     22          1           0       -3.913393   -1.513264    0.467487
 ---------------------------------------------------------------------
 Rotational constants (GHZ):      2.2831677      0.8004372      0.6460917
 Standard basis: 6-31G(d) (6D, 7F)
 There are   174 symmetry adapted basis functions of A   symmetry.
 Integral buffers will be    131072 words long.
 Raffenetti 2 integral format.
 Two-electron integral symmetry is turned on.
   174 basis functions,   328 primitive gaussians,   174 cartesian basis functions
    39 alpha electrons       39 beta electrons
       nuclear repulsion energy       560.5714441402 Hartrees.
 NAtoms=   22 NActive=   22 NUniq=   22 SFac= 7.50D-01 NAtFMM=   80 NAOKFM=F Big=F
 One-electron integrals computed using PRISM.
 NBasis=   174 RedAO= T  NBF=   174
 NBsUse=   174 1.00D-06 NBFU=   174
 Initial guess read from the read-write file.
 B after Tr=     0.000000    0.000000    0.000000
         Rot=    1.000000    0.000000    0.000000    0.000000 Ang=   0.00 deg.
 Initial guess orbital symmetries:
       Occupied  (A) (A) (A) (A) (A) (A) (A) (A) (A) (A) (A) (A)
                 (A) (A) (A) (A) (A) (A) (A) (A) (A) (A) (A) (A)
                 (A) (A) (A) (A) (A) (A) (A) (A) (A) (A) (A) (A)
                 (A) (A) (A)
       Virtual   (A) (A) (A) (A) (A) (A) (A) (A) (A) (A) (A) (A)
                 (A) (A) (A) (A) (A) (A) (A) (A) (A) (A) (A) (A)
                 (A) (A) (A) (A) (A) (A) (A) (A) (A) (A) (A) (A)
                 (A) (A) (A) (A) (A) (A) (A) (A) (A) (A) (A) (A)
                 (A) (A) (A) (A) (A) (A) (A) (A) (A) (A) (A) (A)
                 (A) (A) (A) (A) (A) (A) (A) (A) (A) (A) (A) (A)
                 (A) (A) (A) (A) (A) (A) (A) (A) (A) (A) (A) (A)
                 (A) (A) (A) (A) (A) (A) (A) (A) (A) (A) (A) (A)
                 (A) (A) (A) (A) (A) (A) (A) (A) (A) (A) (A) (A)
                 (A) (A) (A) (A) (A) (A) (A) (A) (A) (A) (A) (A)
                 (A) (A) (A) (A) (A) (A) (A) (A) (A) (A) (A) (A)
                 (A) (A) (A)
 Harris functional with IExCor=  402 diagonalized for initial guess.
 ExpMin= 1.61D-01 ExpMax= 5.48D+03 ExpMxC= 8.25D+02 IAcc=1 IRadAn=         1 AccDes= 0.00D+00
 HarFok:  IExCor=  402 AccDes= 0.00D+00 IRadAn=         1 IDoV= 1
 ScaDFX=  1.000000  1.000000  1.000000  1.000000
 FoFCou: FMM=F IPFlag=           0 FMFlag=      100000 FMFlg1=           0
         NFxFlg=           0 DoJE=T BraDBF=F KetDBF=T FulRan=T
         Omega=  0.000000  0.000000  1.000000  0.000000  0.000000 ICntrl=     500 IOpCl=  0
         NMat0=    1 NMatS0=    1 NMatT0=    0 NMatD0=    1 NMtDS0=    0 NMtDT0=    0
         I1Cent=           4 NGrid=           0.
 Petite list used in FoFCou.
 Requested convergence on RMS density matrix=1.00D-08 within 128 cycles.
 Requested convergence on MAX density matrix=1.00D-06.
 Requested convergence on             energy=1.00D-06.
 No special actions if energy rises.
 Integral accuracy reduced to 1.0D-05 until final iterations.
 Initial convergence to 1.0D-05 achieved.  Increase integral accuracy.
 SCF Done:  E(RB3LYP) =  -495.817352553     A.U. after   13 cycles
             Convg  =    0.7244D-08             -V/T =  2.0087
 Calling FoFJK, ICntrl=      2127 FMM=F ISym2X=0 I1Cent= 0 IOpClX= 0 NMat=1 NMatS=1 NMatT=0.
 ***** Axes restored to original set *****
 -------------------------------------------------------------------
 Center     Atomic                   Forces (Hartrees/Bohr)
 Number     Number              X              Y              Z
 -------------------------------------------------------------------
      1        1           0.002536364    0.001148991   -0.000713948
      2        6           0.004963166    0.004676045    0.004439716
      3        1          -0.003538968   -0.002002910    0.002850555
      4        1          -0.004804784    0.000066278    0.001418683
      5        6          -0.014033653   -0.017390809   -0.030140981
      6        8          -0.023334516   -0.014016772   -0.000987965
      7        7           0.003112963    0.006918054    0.015174231
      8        1          -0.000798590   -0.005184774   -0.000166379
      9        6           0.007351255    0.000401464   -0.006581066
     10        1           0.000915893   -0.000069614    0.006290687
     11        6           0.015411774    0.001819242    0.002424553
     12        1           0.007600110    0.000856993    0.001207186
     13        1           0.001103328    0.002507115    0.003270996
     14        1           0.003930762    0.003746284   -0.001593032
     15        6           0.014898958    0.002106888   -0.014645634
     16        8          -0.001560624    0.002219342    0.003331046
     17        7          -0.009272185    0.006943435    0.009465969
     18        1           0.000498007    0.001854261    0.000395500
     19        6          -0.003096484   -0.000336834    0.002913624
     20        1           0.000579210   -0.002563510   -0.000429829
     21        1          -0.002529882    0.003103739   -0.000184837
     22        1           0.000067894    0.003197091    0.002260925
 -------------------------------------------------------------------
 Cartesian Forces:  Max     0.030140981 RMS     0.007615682

 GradGradGradGradGradGradGradGradGradGradGradGradGradGradGradGradGradGrad
 Berny optimization.
 Using GEDIIS/GDIIS optimizer.
 Internal  Forces:  Max     0.091127373 RMS     0.016251880
 Search for a local minimum.
 Step number   2 out of a maximum of  132
 All quantities printed in internal units (Hartrees-Bohrs-Radians)
 Mixed Optimization -- RFO/linear search
 Update second derivatives using D2CorX and points    1    2
 DE= -9.97D-03 DEPred=-1.01D-02 R= 9.84D-01
 SS=  1.41D+00  RLast= 3.00D-01 DXNew= 5.0454D-01 8.9999D-01
 Trust test= 9.84D-01 RLast= 3.00D-01 DXMaxT set to 5.05D-01
 Use linear search instead of GDIIS.
 Linear search step of   0.594 exceeds DXMaxT=   0.505 but not scaled.
 Quartic linear search produced a step of  2.00000.
 Iteration  1 RMS(Cart)=  0.11857738 RMS(Int)=  0.00745796
 Iteration  2 RMS(Cart)=  0.01325826 RMS(Int)=  0.00049619
 Iteration  3 RMS(Cart)=  0.00013391 RMS(Int)=  0.00048710
 Iteration  4 RMS(Cart)=  0.00000002 RMS(Int)=  0.00048710
 Iteration  1 RMS(Cart)=  0.00011477 RMS(Int)=  0.00004127
 Iteration  2 RMS(Cart)=  0.00005956 RMS(Int)=  0.00004612
 Iteration  3 RMS(Cart)=  0.00003090 RMS(Int)=  0.00005184
 Iteration  4 RMS(Cart)=  0.00001603 RMS(Int)=  0.00005544
 Iteration  5 RMS(Cart)=  0.00000834 RMS(Int)=  0.00005746
 Iteration  6 RMS(Cart)=  0.00000436 RMS(Int)=  0.00005855
 Iteration  7 RMS(Cart)=  0.00000231 RMS(Int)=  0.00005914
 Iteration  8 RMS(Cart)=  0.00000124 RMS(Int)=  0.00005945
 Iteration  9 RMS(Cart)=  0.00000069 RMS(Int)=  0.00005962
 Variable       Old X    -DE/DX   Delta X   Delta X   Delta X     New X
                                 (Linear)    (Quad)   (Total)
    R1        2.05976  -0.00067  -0.00016   0.00000  -0.00016   2.05961
    R2        2.06303   0.00345   0.00663   0.00000   0.00663   2.06966
    R3        2.06356   0.00353   0.00771   0.00000   0.00771   2.07127
    R4        2.89026   0.00008  -0.00242   0.00000  -0.00242   2.88784
    R5        2.31926  -0.00948  -0.00654   0.00000  -0.00654   2.31272
    R6        2.54225   0.04506   0.03897   0.00000   0.03897   2.58122
    R7        1.90884  -0.00043   0.00041   0.00000   0.00041   1.90925
    R8        2.74949   0.04373   0.02264   0.00000   0.02264   2.77213
    R9        2.06614   0.00569   0.01279   0.00000   0.01279   2.07893
   R10        2.88599   0.00911   0.00821   0.00000   0.00821   2.89420
   R11        2.88817   0.01654   0.02398   0.00000   0.02398   2.91214
   R12        2.05420  -0.00407  -0.01104   0.00000  -0.01104   2.04316
   R13        2.06178   0.00232   0.00387   0.00000   0.00387   2.06565
   R14        2.06342  -0.00331   0.00751   0.00000   0.00751   2.07093
   R15        2.31969  -0.00161  -0.00554   0.00000  -0.00554   2.31415
   R16        2.53946   0.02305   0.03314   0.00000   0.03314   2.57260
   R17        1.90774  -0.00117  -0.00169   0.00000  -0.00169   1.90605
   R18        2.74065   0.00445   0.00488   0.00000   0.00488   2.74553
   R19        2.05975  -0.00058   0.00029   0.00000   0.00029   2.06004
   R20        2.06291   0.00314   0.00637   0.00000   0.00637   2.06928
   R21        2.06353   0.00307   0.00739   0.00000   0.00739   2.07091
    A1        1.91268  -0.00012   0.00305   0.00000   0.00327   1.91596
    A2        1.90683  -0.00024  -0.00855   0.00000  -0.00865   1.89818
    A3        1.92689  -0.00593  -0.02416   0.00000  -0.02409   1.90280
    A4        1.90310  -0.00391  -0.01434   0.00000  -0.01473   1.88837
    A5        1.91422   0.00514   0.03642   0.00000   0.03633   1.95055
    A6        1.89988   0.00509   0.00765   0.00000   0.00739   1.90727
    A7        2.11152  -0.01508   0.01689   0.00000   0.01588   2.12740
    A8        2.02069  -0.02901  -0.02870   0.00000  -0.02970   1.99099
    A9        2.15048   0.04408   0.01083   0.00000   0.00984   2.16032
   A10        2.07655  -0.04900  -0.03557   0.00000  -0.03702   2.03953
   A11        2.14864   0.09113   0.04222   0.00000   0.04069   2.18933
   A12        2.05718  -0.04209  -0.00828   0.00000  -0.00991   2.04728
   A13        1.89356  -0.01273  -0.03514   0.00000  -0.03481   1.85875
   A14        1.94846   0.04806   0.01883   0.00000   0.01697   1.96543
   A15        1.94801  -0.01705   0.01801   0.00000   0.01629   1.96429
   A16        1.88266  -0.01194  -0.02687   0.00000  -0.02647   1.85619
   A17        1.88951   0.00755  -0.01315   0.00000  -0.01231   1.87720
   A18        1.89962  -0.01473   0.03649   0.00000   0.03513   1.93474
   A19        1.92536   0.00765   0.02842   0.00000   0.02842   1.95378
   A20        1.90319  -0.00863  -0.01576   0.00000  -0.01569   1.88749
   A21        1.91314   0.00604   0.00409   0.00000   0.00402   1.91716
   A22        1.90993  -0.00172  -0.00034   0.00000  -0.00021   1.90972
   A23        1.90085  -0.00262  -0.01877   0.00000  -0.01889   1.88196
   A24        1.91132  -0.00074   0.00234   0.00000   0.00234   1.91366
   A25        2.10649   0.00402   0.00665   0.00000   0.00653   2.11301
   A26        2.03262   0.00056  -0.00494   0.00000  -0.00507   2.02755
   A27        2.14402  -0.00460  -0.00183   0.00000  -0.00196   2.14206
   A28        2.09238  -0.00034  -0.00388   0.00000  -0.00395   2.08843
   A29        2.13087   0.00335   0.00661   0.00000   0.00654   2.13741
   A30        2.05990  -0.00301  -0.00280   0.00000  -0.00287   2.05703
   A31        1.90064  -0.00534  -0.02098   0.00000  -0.02088   1.87977
   A32        1.91738   0.00391   0.01260   0.00000   0.01249   1.92987
   A33        1.92007   0.00379   0.01794   0.00000   0.01786   1.93793
   A34        1.91032   0.00000   0.00024   0.00000   0.00032   1.91063
   A35        1.90832   0.00003  -0.00364   0.00000  -0.00352   1.90480
   A36        1.90703  -0.00241  -0.00622   0.00000  -0.00649   1.90054
    D1        0.07320  -0.00029   0.14645   0.00000   0.14662   0.21982
    D2       -3.10102   0.00025   0.08134   0.00000   0.08142  -3.01960
    D3        2.18255  -0.00090   0.15859   0.00000   0.15838   2.34093
    D4       -0.99167  -0.00037   0.09347   0.00000   0.09318  -0.89849
    D5       -2.01980   0.00043   0.16694   0.00000   0.16710  -1.85270
    D6        1.08917   0.00097   0.10183   0.00000   0.10190   1.19106
    D7       -0.04631  -0.00030  -0.09292   0.00000  -0.09373  -0.14004
    D8        3.05095  -0.00048  -0.18121   0.00000  -0.18062   2.87033
    D9        3.06185  -0.00102  -0.15964   0.00000  -0.16023   2.90161
   D10       -0.12408  -0.00120  -0.24793   0.00000  -0.24712  -0.37120
   D11       -2.10824  -0.00660  -0.02783   0.00000  -0.02765  -2.13589
   D12       -0.03592  -0.00062  -0.07208   0.00000  -0.07197  -0.10790
   D13        2.09447   0.00255   0.00001   0.00000   0.00000   2.09447
   D14        0.98949  -0.00700  -0.11520   0.00000  -0.11553   0.87396
   D15        3.06180  -0.00101  -0.15946   0.00000  -0.15985   2.90195
   D16       -1.09099   0.00215  -0.08737   0.00000  -0.08788  -1.17886
   D17        1.09045   0.00155   0.08641   0.00000   0.08676   1.17720
   D18       -3.09479  -0.00129   0.09366   0.00000   0.09390  -3.00089
   D19       -1.00258  -0.00381   0.08937   0.00000   0.08962  -0.91296
   D20       -3.11394   0.00672   0.03729   0.00000   0.03749  -3.07646
   D21       -1.01600   0.00387   0.04454   0.00000   0.04463  -0.97137
   D22        1.07622   0.00136   0.04025   0.00000   0.04035   1.11656
   D23       -1.06756   0.00117   0.02692   0.00000   0.02658  -1.04098
   D24        1.03039  -0.00167   0.03416   0.00000   0.03372   1.06411
   D25        3.12260  -0.00419   0.02988   0.00000   0.02945  -3.13114
   D26       -2.36780  -0.02042  -0.02330   0.00000  -0.02351  -2.39131
   D27        0.78541  -0.01930   0.00000   0.00000   0.00000   0.78541
   D28        1.83251   0.00069   0.01757   0.00000   0.01749   1.85000
   D29       -1.29747   0.00181   0.04087   0.00000   0.04100  -1.25647
   D30       -0.20951   0.01874   0.03668   0.00000   0.03702  -0.17250
   D31        2.94369   0.01986   0.05998   0.00000   0.06053   3.00421
   D32       -0.00056  -0.00007  -0.00108   0.00000  -0.00110  -0.00166
   D33        3.13192  -0.00027  -0.01937   0.00000  -0.01938   3.11255
   D34       -3.13027   0.00101   0.02277   0.00000   0.02278  -3.10749
   D35        0.00221   0.00081   0.00448   0.00000   0.00450   0.00672
   D36        0.03333   0.00008   0.06673   0.00000   0.06672   0.10005
   D37        2.12532  -0.00083   0.06182   0.00000   0.06169   2.18701
   D38       -2.05783   0.00105   0.07317   0.00000   0.07334  -1.98449
   D39       -3.11721  -0.00010   0.04877   0.00000   0.04875  -3.06846
   D40       -1.02522  -0.00101   0.04386   0.00000   0.04372  -0.98151
   D41        1.07481   0.00087   0.05521   0.00000   0.05537   1.13018
         Item               Value     Threshold  Converged?
 Maximum Force            0.091120     0.000450     NO 
 RMS     Force            0.016121     0.000300     NO 
 Maximum Displacement     0.467940     0.001800     NO 
 RMS     Displacement     0.123435     0.001200     NO 
 Predicted change in Energy=-1.205297D-02
 GradGradGradGradGradGradGradGradGradGradGradGradGradGradGradGradGradGrad

                          Input orientation:                          
 ---------------------------------------------------------------------
 Center     Atomic      Atomic             Coordinates (Angstroms)
 Number     Number       Type             X           Y           Z
 ---------------------------------------------------------------------
      1          1           0        1.601283    1.680000   -1.594933
      2          6           0        1.801649    2.389275   -0.792026
      3          1           0        1.918153    1.852915    0.155732
      4          1           0        0.945373    3.067099   -0.698685
      5          6           0        3.049848    3.198429   -1.142170
      6          8           0        3.537104    3.182139   -2.264708
      7          7           0        3.483652    4.016227   -0.137795
      8          1           0        2.884234    4.103435    0.670822
      9          6           0        4.805190    4.649062   -0.067066
     10          1           0        5.259956    4.317945    0.878357
     11          6           0        5.742829    4.180780   -1.183838
     12          1           0        5.412106    4.517217   -2.156678
     13          1           0        6.739979    4.579965   -0.980874
     14          1           0        5.781176    3.085726   -1.202678
     15          6           0        4.722392    6.187413   -0.029345
     16          8           0        5.483088    6.877739   -0.695994
     17          7           0        3.793011    6.718221    0.811962
     18          1           0        3.209724    6.105833    1.361610
     19          6           0        3.622406    8.151055    0.981424
     20          1           0        4.273035    8.649639    0.262768
     21          1           0        2.582834    8.439604    0.794116
     22          1           0        3.900278    8.463181    1.994497
 ---------------------------------------------------------------------
                    Distance matrix (angstroms):
                    1          2          3          4          5
     1  H    0.000000
     2  C    1.089898   0.000000
     3  H    1.787494   1.095217   0.000000
     4  H    1.776942   1.096068   1.774985   0.000000
     5  C    2.146849   1.528179   2.185335   2.154702   0.000000
     6  O    2.540163   2.410235   3.200996   3.030302   1.223837
     7  N    3.335344   2.429841   2.686423   2.767364   1.365924
     8  H    3.557056   2.500052   2.502693   2.590120   2.033078
     9  C    4.627605   3.827984   4.025303   4.218973   2.518216
    10  H    5.144104   4.297655   4.214998   4.761019   3.196940
    11  C    4.855441   4.346943   4.673495   4.948863   2.866862
    12  H    4.784113   4.407473   4.965225   4.917346   2.889411
    13  H    5.932374   5.405728   5.654970   5.995486   3.943568
    14  H    4.427351   4.060827   4.276453   4.862031   2.734322
    15  C    5.701680   4.851626   5.165838   4.944719   3.601362
    16  O    6.549274   5.805905   6.219571   5.925525   4.433628
    17  N    5.998374   5.027731   5.255182   4.870502   4.093881
    18  H    5.560237   4.520358   4.605390   4.313468   3.840245
    19  C    7.252387   6.297491   6.576688   5.986308   5.419039
    20  H    7.691891   6.812672   7.193913   6.569816   5.760706
    21  H    7.236245   6.303378   6.650850   5.811501   5.606891
    22  H    8.011300   7.004376   7.141813   6.715831   6.187045
                    6          7          8          9         10
     6  O    0.000000
     7  N    2.285239   0.000000
     8  H    3.145213   1.010332   0.000000
     9  C    2.930791   1.466951   2.128910   0.000000
    10  H    3.759938   2.068539   2.394397   1.100125   0.000000
    11  C    2.651563   2.495027   3.408418   1.531547   2.122412
    12  H    2.304287   2.836514   3.815247   2.179956   3.045373
    13  H    3.722977   3.410608   4.221605   2.140847   2.390788
[...]
    13  H    6.184929   5.502762   5.705540   5.968561   4.076093
    14  H    4.884921   4.230969   4.234054   4.900662   2.951632
    15  C    5.594701   4.878792   5.463313   4.881986   3.636418
    16  O    6.517770   5.892098   6.481507   5.995798   4.527811
    17  N    5.753197   5.010563   5.669037   4.709705   4.086129
    18  H    5.045433   4.283927   4.963733   3.840577   3.607392
    19  C    6.885327   6.246113   6.994361   5.857665   5.367577
    20  H    7.677881   7.018027   7.713618   6.731889   5.986700
    21  H    6.781459   6.298640   7.167038   5.927797   5.443465
    22  H    7.339020   6.656696   7.367877   6.108767   5.974297
                    6          7          8          9         10
     6  O    0.000000
     7  N    2.306369   0.000000
     8  H    3.131284   1.012659   0.000000
     9  C    3.007037   1.482569   2.096202   0.000000
    10  H    3.854041   2.066980   2.203154   1.099650   0.000000
    11  C    2.851485   2.551016   3.345942   1.527761   2.136754
    12  H    2.485354   2.887240   3.840459   2.181461   3.061834
    13  H    3.926747   3.453299   4.140430   2.133952   2.415773
    14  H    2.764715   2.798168   3.475922   2.168433   2.487261
    15  C    3.999694   2.505307   3.002594   1.552582   2.121261
    16  O    4.617188   3.570007   4.180135   2.431007   2.983331
    17  N    4.722813   2.854660   2.970981   2.467896   2.745640
    18  H    4.437214   2.420242   2.306597   2.577837   2.830905
    19  C    5.913435   4.237341   4.351823   3.837772   4.124405
    20  H    6.408607   4.828266   5.035627   4.107487   4.333404
    21  H    5.876155   4.518257   4.751412   4.305409   4.811075
    22  H    6.668244   4.797431   4.690034   4.544264   4.644332
                   11         12         13         14         15
    11  C    0.000000
    12  H    1.088443   0.000000
    13  H    1.092506   1.772275   0.000000
    14  H    1.093007   1.770002   1.782180   0.000000
    15  C    2.537087   2.821917   2.717132   3.491822   0.000000
    16  O    2.782346   2.859135   2.594964   3.858717   1.222455
    17  N    3.779727   4.080807   4.025787   4.615754   1.371659
    18  H    4.034673   4.347048   4.494031   4.707538   2.031867
    19  C    4.988075   5.140558   5.086722   5.921835   2.453969
    20  H    5.043360   5.211234   4.911879   6.042366   2.605305
    21  H    5.343904   5.277841   5.548450   6.303125   2.935562
    22  H    5.830887   6.084913   5.938650   6.690498   3.324376
                   16         17         18         19         20
    16  O    0.000000
    17  N    2.277547   0.000000
    18  H    3.128129   1.011206   0.000000
    19  C    2.785166   1.456183   2.113352   0.000000
    20  H    2.486265   2.074880   2.967589   1.090768   0.000000
    21  H    3.144335   2.133198   2.580025   1.098306   1.772736
    22  H    3.786155   2.091126   2.424886   1.093718   1.783266
                   21         22
    21  H    0.000000
    22  H    1.785591   0.000000
 Stoichiometry    C6H12N2O2
 Framework group  C1[X(C6H12N2O2)]
 Deg. of freedom    60
 Full point group                 C1      NOp   1
 Largest Abelian subgroup         C1      NOp   1
 Largest concise Abelian subgroup C1      NOp   1
                         Standard orientation:                         
 ---------------------------------------------------------------------
 Center     Atomic      Atomic             Coordinates (Angstroms)
 Number     Number       Type             X           Y           Z
 ---------------------------------------------------------------------
      1          1           0       -3.714410   -1.600931    0.773137
      2          6           0       -3.076016   -1.439114   -0.097169
      3          1           0       -3.717255   -1.144095   -0.936833
      4          1           0       -2.577137   -2.378217   -0.360350
      5          6           0       -2.100657   -0.308424    0.222045
      6          8           0       -2.380394    0.576781    1.011775
      7          7           0       -0.891336   -0.412535   -0.445379
      8          1           0       -0.911580   -1.107990   -1.181184
      9          6           0        0.091002    0.668577   -0.698795
     10          1           0        0.272167    0.649889   -1.783259
     11          6           0       -0.360797    2.079902   -0.327190
     12          1           0       -0.508190    2.189547    0.745640
     13          1           0        0.417472    2.776771   -0.646939
     14          1           0       -1.297478    2.328802   -0.832504
     15          6           0        1.466437    0.340544   -0.057636
     16          8           0        2.160435    1.204207    0.458936
     17          7           0        1.907333   -0.942855   -0.257502
     18          1           0        1.192218   -1.643163   -0.401433
     19          6           0        3.154396   -1.394986    0.343231
     20          1           0        3.879497   -0.582790    0.277337
     21          1           0        3.037571   -1.664408    1.401551
     22          1           0        3.528625   -2.262601   -0.207600
 ---------------------------------------------------------------------
 Rotational constants (GHZ):      2.1566181      0.7662294      0.6251356

 **********************************************************************

            Population analysis using the SCF density.

 **********************************************************************

 Orbital symmetries:
       Occupied  (A) (A) (A) (A) (A) (A) (A) (A) (A) (A) (A) (A)
                 (A) (A) (A) (A) (A) (A) (A) (A) (A) (A) (A) (A)
                 (A) (A) (A) (A) (A) (A) (A) (A) (A) (A) (A) (A)
                 (A) (A) (A)
       Virtual   (A) (A) (A) (A) (A) (A) (A) (A) (A) (A) (A) (A)
                 (A) (A) (A) (A) (A) (A) (A) (A) (A) (A) (A) (A)
                 (A) (A) (A) (A) (A) (A) (A) (A) (A) (A) (A) (A)
                 (A) (A) (A) (A) (A) (A) (A) (A) (A) (A) (A) (A)
                 (A) (A) (A) (A) (A) (A) (A) (A) (A) (A) (A) (A)
                 (A) (A) (A) (A) (A) (A) (A) (A) (A) (A) (A) (A)
                 (A) (A) (A) (A) (A) (A) (A) (A) (A) (A) (A) (A)
                 (A) (A) (A) (A) (A) (A) (A) (A) (A) (A) (A) (A)
                 (A) (A) (A) (A) (A) (A) (A) (A) (A) (A) (A) (A)
                 (A) (A) (A) (A) (A) (A) (A) (A) (A) (A) (A) (A)
                 (A) (A) (A) (A) (A) (A) (A) (A) (A) (A) (A) (A)
                 (A) (A) (A)
 The electronic state is 1-A.
 Alpha  occ. eigenvalues --  -19.11559 -19.11443 -14.37031 -14.36123 -10.29536
 Alpha  occ. eigenvalues --  -10.28389 -10.24276 -10.21865 -10.19861 -10.16891
 Alpha  occ. eigenvalues --   -1.03652  -1.03156  -0.93301  -0.91472  -0.78024
 Alpha  occ. eigenvalues --   -0.72965  -0.70973  -0.64294  -0.58897  -0.56132
 Alpha  occ. eigenvalues --   -0.53141  -0.51029  -0.47209  -0.46005  -0.44991
 Alpha  occ. eigenvalues --   -0.44543  -0.42117  -0.41345  -0.40433  -0.39405
 Alpha  occ. eigenvalues --   -0.37962  -0.37674  -0.36444  -0.36016  -0.35394
 Alpha  occ. eigenvalues --   -0.28388  -0.25599  -0.24958  -0.23788
 Alpha virt. eigenvalues --    0.01727   0.01859   0.04865   0.10167   0.11182
 Alpha virt. eigenvalues --    0.12137   0.13905   0.14343   0.15250   0.16471
 Alpha virt. eigenvalues --    0.16905   0.17725   0.18077   0.19068   0.19340
 Alpha virt. eigenvalues --    0.21129   0.23191   0.25989   0.26720   0.32331
 Alpha virt. eigenvalues --    0.34093   0.37547   0.39377   0.50060   0.51259
 Alpha virt. eigenvalues --    0.53277   0.53835   0.54195   0.54927   0.56789
 Alpha virt. eigenvalues --    0.57408   0.59194   0.61699   0.63949   0.65732
 Alpha virt. eigenvalues --    0.66660   0.67244   0.70865   0.72645   0.73315
 Alpha virt. eigenvalues --    0.76150   0.77311   0.78002   0.82224   0.83680
 Alpha virt. eigenvalues --    0.84193   0.85859   0.86492   0.87682   0.87771
 Alpha virt. eigenvalues --    0.89547   0.90056   0.90909   0.91484   0.93684
 Alpha virt. eigenvalues --    0.94585   0.95278   0.96813   0.97615   0.99642
 Alpha virt. eigenvalues --    1.00966   1.06570   1.08709   1.09596   1.13496
 Alpha virt. eigenvalues --    1.20998   1.24926   1.27200   1.28137   1.33896
 Alpha virt. eigenvalues --    1.36406   1.38410   1.42306   1.44163   1.45519
 Alpha virt. eigenvalues --    1.47575   1.54586   1.63380   1.65946   1.67755
 Alpha virt. eigenvalues --    1.72695   1.76857   1.78175   1.79909   1.81418
 Alpha virt. eigenvalues --    1.82253   1.84752   1.85868   1.87327   1.88559
 Alpha virt. eigenvalues --    1.90803   1.92688   1.96648   1.99157   2.02349
 Alpha virt. eigenvalues --    2.03879   2.05859   2.07018   2.10121   2.17480
 Alpha virt. eigenvalues --    2.18425   2.20298   2.23172   2.28133   2.29457
 Alpha virt. eigenvalues --    2.33153   2.34663   2.35517   2.38704   2.41906
 Alpha virt. eigenvalues --    2.43743   2.47707   2.50425   2.52690   2.59076
 Alpha virt. eigenvalues --    2.64531   2.67869   2.71962   2.73351   2.84200
 Alpha virt. eigenvalues --    2.93231   2.97639   3.01465   3.09117   3.15433
 Alpha virt. eigenvalues --    3.89990   3.96257   4.03861   4.06816   4.18824
 Alpha virt. eigenvalues --    4.24862   4.26244   4.42504   4.46865   4.60272
          Condensed to atoms (all electrons):
              1          2          3          4          5          6
     1  H    0.505168   0.359057  -0.021010  -0.024257  -0.019358   0.003822
     2  C    0.359057   5.347347   0.359565   0.341729   0.340000  -0.079590
     3  H   -0.021010   0.359565   0.528944  -0.027476  -0.020771  -0.000028
     4  H   -0.024257   0.341729  -0.027476   0.576626  -0.025562   0.002556
     5  C   -0.019358   0.340000  -0.020771  -0.025562   4.317265   0.599752
     6  O    0.003822  -0.079590  -0.000028   0.002556   0.599752   8.036038
     7  N    0.004131  -0.129330   0.000392   0.006829   0.256827  -0.086706
     8  H    0.000012   0.003622   0.000028   0.000633  -0.021118   0.003636
     9  C   -0.000104   0.004868  -0.000178   0.000141  -0.024038  -0.001551
    10  H   -0.000002  -0.000263   0.000045  -0.000005   0.002787   0.000071
    11  C    0.000000   0.000235   0.000009  -0.000008  -0.000608  -0.001964
    12  H   -0.000003   0.000144   0.000002  -0.000006   0.001632   0.006891
    13  H    0.000000   0.000012  -0.000001   0.000000   0.000443   0.000677
    14  H    0.000005  -0.000173   0.000005   0.000002   0.001768  -0.000653
    15  C    0.000004  -0.000189   0.000000   0.000007  -0.001543  -0.000479
    16  O    0.000000   0.000000   0.000000   0.000000   0.000047  -0.000005
    17  N    0.000000  -0.000008   0.000000  -0.000005   0.000396   0.000002
    18  H   -0.000005  -0.000031   0.000002   0.000087   0.000638  -0.000019
    19  C    0.000000   0.000000   0.000000   0.000000  -0.000013   0.000000
    20  H    0.000000   0.000000   0.000000   0.000000   0.000000   0.000000
    21  H    0.000000   0.000000   0.000000   0.000000  -0.000002   0.000000
    22  H    0.000000   0.000000   0.000000   0.000000   0.000000   0.000000
              7          8          9         10         11         12
     1  H    0.004131   0.000012  -0.000104  -0.000002   0.000000  -0.000003
     2  C   -0.129330   0.003622   0.004868  -0.000263   0.000235   0.000144
     3  H    0.000392   0.000028  -0.000178   0.000045   0.000009   0.000002
     4  H    0.006829   0.000633   0.000141  -0.000005  -0.000008  -0.000006
     5  C    0.256827  -0.021118  -0.024038   0.002787  -0.000608   0.001632
     6  O   -0.086706   0.003636  -0.001551   0.000071  -0.001964   0.006891
     7  N    7.182648   0.286955   0.212798  -0.045506  -0.040784  -0.004434
     8  H    0.286955   0.437998  -0.027522  -0.007340   0.004366  -0.000058
     9  C    0.212798  -0.027522   5.138210   0.373413   0.369387  -0.028326
    10  H   -0.045506  -0.007340   0.373413   0.594774  -0.036247   0.004611
    11  C   -0.040784   0.004366   0.369387  -0.036247   5.058860   0.382748
    12  H   -0.004434  -0.000058  -0.028326   0.004611   0.382748   0.496505
    13  H    0.003655  -0.000129  -0.025380  -0.003443   0.356137  -0.023391
    14  H   -0.001947  -0.000102  -0.027804  -0.003214   0.363317  -0.027847
    15  C   -0.046833  -0.000354   0.306566  -0.045153  -0.036489  -0.004646
    16  O    0.001214  -0.000062  -0.083278   0.000986   0.003033   0.001953
    17  N   -0.001328   0.000626  -0.121995   0.000765   0.004433   0.000161
    18  H    0.017795   0.000735  -0.005479   0.001117   0.000078  -0.000006
    19  C   -0.000309   0.000007   0.006857  -0.000150  -0.000141  -0.000005
    20  H   -0.000023   0.000002   0.000472  -0.000046  -0.000021  -0.000001
    21  H    0.000008   0.000005   0.000152  -0.000006   0.000013  -0.000001
    22  H   -0.000007  -0.000001  -0.000130   0.000005   0.000000   0.000000
             13         14         15         16         17         18
     1  H    0.000000   0.000005   0.000004   0.000000   0.000000  -0.000005
     2  C    0.000012  -0.000173  -0.000189   0.000000  -0.000008  -0.000031
     3  H   -0.000001   0.000005   0.000000   0.000000   0.000000   0.000002
     4  H    0.000000   0.000002   0.000007   0.000000  -0.000005   0.000087
     5  C    0.000443   0.001768  -0.001543   0.000047   0.000396   0.000638
     6  O    0.000677  -0.000653  -0.000479  -0.000005   0.000002  -0.000019
     7  N    0.003655  -0.001947  -0.046833   0.001214  -0.001328   0.017795
     8  H   -0.000129  -0.000102  -0.000354  -0.000062   0.000626   0.000735
     9  C   -0.025380  -0.027804   0.306566  -0.083278  -0.121995  -0.005479
    10  H   -0.003443  -0.003214  -0.045153   0.000986   0.000765   0.001117
    11  C    0.356137   0.363317  -0.036489   0.003033   0.004433   0.000078
    12  H   -0.023391  -0.027847  -0.004646   0.001953   0.000161  -0.000006
    13  H    0.559441  -0.030241  -0.005025   0.006485   0.000250  -0.000020
    14  H   -0.030241   0.577985   0.004980   0.000543  -0.000048  -0.000018
    15  C   -0.005025   0.004980   4.391243   0.592962   0.274532  -0.024620
    16  O    0.006485   0.000543   0.592962   8.060142  -0.097580   0.003548
    17  N    0.000250  -0.000048   0.274532  -0.097580   7.080716   0.294810
    18  H   -0.000020  -0.000018  -0.024620   0.003548   0.294810   0.425339
    19  C   -0.000006   0.000002  -0.022848   0.000325   0.273610  -0.034186
    20  H   -0.000001   0.000000  -0.003325   0.013500  -0.038944   0.004162
    21  H    0.000000   0.000000  -0.002448   0.001012  -0.044797  -0.000236
    22  H    0.000000   0.000000   0.004329   0.000544  -0.036812  -0.002027
             19         20         21         22
     1  H    0.000000   0.000000   0.000000   0.000000
     2  C    0.000000   0.000000   0.000000   0.000000
     3  H    0.000000   0.000000   0.000000   0.000000
     4  H    0.000000   0.000000   0.000000   0.000000
     5  C   -0.000013   0.000000  -0.000002   0.000000
     6  O    0.000000   0.000000   0.000000   0.000000
     7  N   -0.000309  -0.000023   0.000008  -0.000007
     8  H    0.000007   0.000002   0.000005  -0.000001
     9  C    0.006857   0.000472   0.000152  -0.000130
    10  H   -0.000150  -0.000046  -0.000006   0.000005
    11  C   -0.000141  -0.000021   0.000013   0.000000
    12  H   -0.000005  -0.000001  -0.000001   0.000000
    13  H   -0.000006  -0.000001   0.000000   0.000000
    14  H    0.000002   0.000000   0.000000   0.000000
    15  C   -0.022848  -0.003325  -0.002448   0.004329
    16  O    0.000325   0.013500   0.001012   0.000544
    17  N    0.273610  -0.038944  -0.044797  -0.036812
    18  H   -0.034186   0.004162  -0.000236  -0.002027
    19  C    4.941080   0.381896   0.385863   0.373593
    20  H    0.381896   0.501727  -0.033035  -0.022744
    21  H    0.385863  -0.033035   0.570453  -0.038761
    22  H    0.373593  -0.022744  -0.038761   0.571287
 Mulliken atomic charges:
              1
     1  H    0.192539
     2  C   -0.546993
     3  H    0.180475
     4  H    0.148709
     5  C    0.591459
     6  O   -0.482451
     7  N   -0.616045
     8  H    0.318064
     9  C   -0.067080
    10  H    0.162801
    11  C   -0.426354
    12  H    0.194078
    13  H    0.160537
    14  H    0.143443
    15  C    0.619328
    16  O   -0.505370
    17  N   -0.588785
    18  H    0.318338
    19  C   -0.305575
    20  H    0.196380
    21  H    0.161780
    22  H    0.150723
 Sum of Mulliken atomic charges =   0.00000
 Mulliken charges with hydrogens summed into heavy atoms:
              1
     2  C   -0.025270
     5  C    0.591459
     6  O   -0.482451
     7  N   -0.297981
     9  C    0.095721
    11  C    0.071704
    15  C    0.619328
    16  O   -0.505370
    17  N   -0.270447
    19  C    0.203307
 Sum of Mulliken charges with hydrogens summed into heavy atoms =   0.00000
 Electronic spatial extent (au):  <R**2>=           1877.2048
 Charge=              0.0000 electrons
 Dipole moment (field-independent basis, Debye):
    X=             -0.3740    Y=             -4.6515    Z=             -3.4825  Tot=              5.8227
 Quadrupole moment (field-independent basis, Debye-Ang):
   XX=            -63.0846   YY=            -57.6373   ZZ=            -60.2334
   XY=             -1.5903   XZ=              4.0400   YZ=             -2.0634
 Traceless Quadrupole moment (field-independent basis, Debye-Ang):
   XX=             -2.7662   YY=              2.6812   ZZ=              0.0850
   XY=             -1.5903   XZ=              4.0400   YZ=             -2.0634
 Octapole moment (field-independent basis, Debye-Ang**2):
  XXX=              4.0225  YYY=             -7.2986  ZZZ=             -0.1460  XYY=             -1.6656
  XXY=            -30.2340  XXZ=            -11.1582  XZZ=              1.4853  YZZ=             -2.2559
  YYZ=             -3.6766  XYZ=             -1.2460
 Hexadecapole moment (field-independent basis, Debye-Ang**3):
 XXXX=          -1596.7629 YYYY=           -582.2824 ZZZZ=           -166.2954 XXXY=             -6.6348
 XXXZ=             23.4264 YYYX=            -15.2249 YYYZ=              7.4950 ZZZX=              4.3061
 ZZZY=              3.7166 XXYY=           -372.8871 XXZZ=           -312.2660 YYZZ=           -124.6954
 XXYZ=            -20.3689 YYXZ=             -4.9720 ZZXY=              5.6001
 N-N= 5.507136771852D+02 E-N=-2.257418091113D+03  KE= 4.912154334530D+02
 1\1\GINC-NODE005\FOpt\RB3LYP\6-31G(d)\C6H12N2O2\MANAGER\10-Feb-2017\0\
 \# b3lyp/6-31G* Opt=(ModRedundant, maxcycles=1000, calcfc) geom=nocrow
 d\\Phi Psi fixed scan\\0,1\H,1.10987338,2.2262394941,-1.5386771565\C,1
 .758947888,2.4039101681,-0.6794326123\H,2.1110017567,1.4311658458,-0.3
 14624554\H,1.1804140746,2.8806138555,0.119386202\C,2.9519485201,3.2389
 090582,-1.1390069311\O,3.3675960879,3.1888704318,-2.2836672184\N,3.475
 5613205,4.0527518189,-0.1479262708\H,3.1137022586,3.8288442264,0.77098
 67288\C,4.8276894086,4.6592867581,-0.1046129918\H,5.2483581409,4.36525
 63573,0.8679171556\C,5.7995183138,4.1989283916,-1.1898185831\H,5.47379
 22884,4.5044219767,-2.1824338493\H,6.7716535256,4.653336989,-0.9847947
 799\H,5.9005309645,3.1106593781,-1.1783293341\C,4.7477280569,6.2089797
 566,-0.0539300764\O,5.5473227737,6.9165721825,-0.6492087992\N,3.825095
 8842,6.7128509395,0.8271553923\H,3.0323241732,6.119254623,1.0313448778
 \C,3.6093594368,8.1495703686,0.9259618084\H,4.5774719831,8.646376467,0
 .8503505085\H,2.9640797169,8.5336912178,0.1244992135\H,3.1553300468,8.
 3824096955,1.8933612698\\Version=EM64L-G09RevA.02\State=1-A\HF=-495.83
 45497\RMSD=2.997e-09\RMSF=1.548e-03\Dipole=-1.1801683,-0.433631,1.9149
 677\Quadrupole=0.9791647,1.2026595,-2.1818242,-2.9235537,-1.3790794,-1
 .6867437\PG=C01 [X(C6H12N2O2)]\\@


 IF YOU GIVE A BOY AND A PIG EVERYTHING THEY WANT,
 YOU'LL GET A BAD BOY AND A GOOD PIG.
 Job cpu time:  0 days  1 hours 37 minutes  5.2 seconds.
 File lengths (MBytes):  RWF=    186 Int=      0 D2E=      0 Chk=      4 Scr=      2
 Normal termination of Gaussian 09 at Fri Feb 10 19:22:16 2017.
