 Entering Gaussian System, Link 0=g09
 Initial command:
 /home/steboss/Software/g09/l1.exe /tmp/Gau-2851.inp -scrdir=/tmp/
 Entering Link 1 = /home/steboss/Software/g09/l1.exe PID=      2853.
  
 Copyright (c) 1988,1990,1992,1993,1995,1998,2003,2009, Gaussian, Inc.
                  All Rights Reserved.
  
 This is part of the Gaussian(R) 09 program.  It is based on
 the Gaussian(R) 03 system (copyright 2003, Gaussian, Inc.),
 the Gaussian(R) 98 system (copyright 1998, Gaussian, Inc.),
 the Gaussian(R) 94 system (copyright 1995, Gaussian, Inc.),
 the Gaussian 92(TM) system (copyright 1992, Gaussian, Inc.),
 the Gaussian 90(TM) system (copyright 1990, Gaussian, Inc.),
 the Gaussian 88(TM) system (copyright 1988, Gaussian, Inc.),
 the Gaussian 86(TM) system (copyright 1986, Carnegie Mellon
 University), and the Gaussian 82(TM) system (copyright 1983,
 Carnegie Mellon University). Gaussian is a federally registered
 trademark of Gaussian, Inc.
  
 This software contains proprietary and confidential information,
 including trade secrets, belonging to Gaussian, Inc.
  
 This software is provided under written license and may be
 used, copied, transmitted, or stored only in accord with that
 written license.
  
 The following legend is applicable only to US Government
 contracts under FAR:
  
                    RESTRICTED RIGHTS LEGEND
  
 Use, reproduction and disclosure by the US Government is
 subject to restrictions as set forth in subparagraphs (a)
 and (c) of the Commercial Computer Software - Restricted
 Rights clause in FAR 52.227-19.
  
 Gaussian, Inc.
 340 Quinnipiac St., Bldg. 40, Wallingford CT 06492
  
  
 ---------------------------------------------------------------
 Warning -- This program may not be used in any manner that
 competes with the business of Gaussian, Inc. or will provide
 assistance to any competitor of Gaussian, Inc.  The licensee
 of this program is prohibited from giving any competitor of
 Gaussian, Inc. access to this program.  By using this program,
 the user acknowledges that Gaussian, Inc. is engaged in the
 business of creating and licensing software in the field of
 computational chemistry and represents and warrants to the
 licensee that it is not a competitor of Gaussian, Inc. and that
 it will not use this program in any manner prohibited above.
 ---------------------------------------------------------------
  

 Cite this work as:
 Gaussian 09, Revision A.02,
 M. J. Frisch, G. W. Trucks, H. B. Schlegel, G. E. Scuseria, 
 M. A. Robb, J. R. Cheeseman, G. Scalmani, V. Barone, B. Mennucci, 
 G. A. Petersson, H. Nakatsuji, M. Caricato, X. Li, H. P. Hratchian, 
 A. F. Izmaylov, J. Bloino, G. Zheng, J. L. Sonnenberg, M. Hada, 
 M. Ehara, K. Toyota, R. Fukuda, J. Hasegawa, M. Ishida, T. Nakajima, 
 Y. Honda, O. Kitao, H. Nakai, T. Vreven, J. A. Montgomery, Jr., 
 J. E. Peralta, F. Ogliaro, M. Bearpark, J. J. Heyd, E. Brothers, 
 K. N. Kudin, V. N. Staroverov, R. Kobayashi, J. Normand, 
 K. Raghavachari, A. Rendell, J. C. Burant, S. S. Iyengar, J. Tomasi, 
 M. Cossi, N. Rega, J. M. Millam, M. Klene, J. E. Knox, J. B. Cross, 
 V. Bakken, C. Adamo, J. Jaramillo, R. Gomperts, R. E. Stratmann, 
 O. Yazyev, A. J. Austin, R. Cammi, C. Pomelli, J. W. Ochterski, 
 R. L. Martin, K. Morokuma, V. G. Zakrzewski, G. A. Voth, 
 P. Salvador, J. J. Dannenberg, S. Dapprich, A. D. Daniels, 
 O. Farkas, J. B. Foresman, J. V. Ortiz, J. Cioslowski, 
 and D. J. Fox, Gaussian, Inc., Wallingford CT, 2009.
 
 ******************************************
 Gaussian 09:  EM64L-G09RevA.02 11-Jun-2009
                30-Dec-2016 
 ******************************************
 %chk=structure_90.chk
 ----------------------------------------------------------------------
 # b3lyp/6-31G* Opt=(ModRedundant, maxcycles=1000, calcfc) geom=nocrowd
 ----------------------------------------------------------------------
 1/6=1000,10=4,14=-1,18=120,19=15,26=3,38=1/1,3;
 2/9=110,12=1,17=6,18=5,40=1/2;
 3/5=1,6=6,7=1,11=2,16=1,25=1,30=1,71=2,74=-5/1,2,3;
 4//1;
 5/5=2,38=5/2;
 8/6=4,10=90,11=11/1;
 11/6=1,8=1,9=11,15=111,16=1/1,2,10;
 10/6=1,7=6,13=1/2;
 6/7=2,8=2,9=2,10=2,28=1/1;
 7/10=1,18=20,25=1/1,2,3,16;
 1/6=1000,10=4,14=-1,18=20,19=15/3(2);
 2/9=110,12=1/2;
 99//99;
 2/9=110,12=1/2;
 3/5=1,6=6,7=1,11=2,16=1,25=1,30=1,71=1,74=-5/1,2,3;
 4/5=5,16=3/1;
 5/5=2,38=5/2;
 7//1,2,3,16;
 1/6=1000,14=-1,18=20,19=15/3(-5);
 2/9=110,12=1/2;
 6/7=2,8=2,9=2,10=2,19=2,28=1/1;
 99/9=1/99;
 ------------------
 Phi Psi fixed scan
 ------------------
 Symbolic Z-matrix:
 Charge =  0 Multiplicity = 1
 H                     7.7691    1.        3.3308 
 C                     7.7691    2.09      3.3308 
 H                     8.7966    2.4538    3.3308 
 H                     7.2553    2.4538    4.2206 
 C                     7.0554    2.6408    2.0946 
 O                     6.5738    1.8774    1.2605 
 N                     6.9914    3.9696    1.9838 
 H                     7.4025    4.5561    2.6959 
 C                     6.3424    4.6139    0.8598 
 H                     6.8359    4.3155   -0.0652 
 C                     4.8714    4.2208    0.7761 
 H                     4.3618    4.5213    1.6916 
 H                     4.4096    4.7189   -0.0764 
 H                     4.7897    3.1409    0.6532 
 C                     6.4127    6.1294    0.9815 
 O                     6.9688    6.6527    1.9446 
 N                     5.846     6.8349    0. 
 H                     5.4006    6.3592   -0.7716 
 C                     5.8461    8.2839    0. 
 H                     5.3323    8.6477   -0.8898 
 C                     5.1347    8.8329    1.2322 
 H                     5.6431    8.4846    2.1312 
 H                     5.1499    9.9224    1.2058 
 H                     4.1019    8.4846    1.2414 
 C                     7.266     8.8318    0. 
 O                     7.848     9.0564    1.0589 
 N                     7.8237    9.047    -1.1937 
 H                     7.305     8.8468   -2.0369 
 C                     9.1698    9.5664   -1.3276 
 H                     9.2317    10.5441  -0.8496 
 C                     10.1846   8.6373   -0.6699 
 H                     10.1409   7.6568   -1.144 
 H                     11.186    9.052    -0.7857 
 H                     9.9534    8.5382    0.3906 
 C                     9.5564    9.7156   -2.792 
 O                     8.7642    9.4099   -3.6806 
 N                     10.7798   10.1877  -3.0422 
 H                     11.3955   10.4253  -2.2776 
 C                     11.2665   10.3755  -4.3941 
 H                     10.4943   10.0775  -5.1034 
 H                     11.5155   11.4253  -4.5486 
 H                     12.1562   9.765    -4.5486 
 
 The following ModRedundant input section has been read:
 D   15   17   19   25 F                                                       
 D   17   19   25   27 F                                                       

 GradGradGradGradGradGradGradGradGradGradGradGradGradGradGradGradGradGrad
 Berny optimization.
 Initialization pass.
                           ----------------------------
                           !    Initial Parameters    !
                           ! (Angstroms and Degrees)  !
 --------------------------                            --------------------------
 ! Name  Definition              Value          Derivative Info.                !
 --------------------------------------------------------------------------------
 ! R1    R(1,2)                  1.09           calculate D2E/DX2 analytically  !
 ! R2    R(2,3)                  1.09           calculate D2E/DX2 analytically  !
 ! R3    R(2,4)                  1.09           calculate D2E/DX2 analytically  !
 ! R4    R(2,5)                  1.53           calculate D2E/DX2 analytically  !
 ! R5    R(5,6)                  1.229          calculate D2E/DX2 analytically  !
 ! R6    R(5,7)                  1.3349         calculate D2E/DX2 analytically  !
 ! R7    R(7,8)                  1.01           calculate D2E/DX2 analytically  !
 ! R8    R(7,9)                  1.449          calculate D2E/DX2 analytically  !
 ! R9    R(9,10)                 1.0901         calculate D2E/DX2 analytically  !
 ! R10   R(9,11)                 1.5249         calculate D2E/DX2 analytically  !
 ! R11   R(9,15)                 1.522          calculate D2E/DX2 analytically  !
 ! R12   R(11,12)                1.09           calculate D2E/DX2 analytically  !
 ! R13   R(11,13)                1.09           calculate D2E/DX2 analytically  !
 ! R14   R(11,14)                1.0899         calculate D2E/DX2 analytically  !
 ! R15   R(15,16)                1.2291         calculate D2E/DX2 analytically  !
 ! R16   R(15,17)                1.335          calculate D2E/DX2 analytically  !
 ! R17   R(17,18)                1.01           calculate D2E/DX2 analytically  !
 ! R18   R(17,19)                1.449          calculate D2E/DX2 analytically  !
 ! R19   R(19,20)                1.09           calculate D2E/DX2 analytically  !
 ! R20   R(19,21)                1.5251         calculate D2E/DX2 analytically  !
 ! R21   R(19,25)                1.5219         calculate D2E/DX2 analytically  !
 ! R22   R(21,22)                1.0899         calculate D2E/DX2 analytically  !
 ! R23   R(21,23)                1.0899         calculate D2E/DX2 analytically  !
 ! R24   R(21,24)                1.09           calculate D2E/DX2 analytically  !
 ! R25   R(25,26)                1.229          calculate D2E/DX2 analytically  !
 ! R26   R(25,27)                1.335          calculate D2E/DX2 analytically  !
 ! R27   R(27,28)                1.01           calculate D2E/DX2 analytically  !
 ! R28   R(27,29)                1.449          calculate D2E/DX2 analytically  !
 ! R29   R(29,30)                1.0901         calculate D2E/DX2 analytically  !
 ! R30   R(29,31)                1.525          calculate D2E/DX2 analytically  !
 ! R31   R(29,35)                1.5219         calculate D2E/DX2 analytically  !
 ! R32   R(31,32)                1.09           calculate D2E/DX2 analytically  !
 ! R33   R(31,33)                1.09           calculate D2E/DX2 analytically  !
 ! R34   R(31,34)                1.0899         calculate D2E/DX2 analytically  !
 ! R35   R(35,36)                1.2291         calculate D2E/DX2 analytically  !
 ! R36   R(35,37)                1.335          calculate D2E/DX2 analytically  !
 ! R37   R(37,38)                1.01           calculate D2E/DX2 analytically  !
 ! R38   R(37,39)                1.4491         calculate D2E/DX2 analytically  !
 ! R39   R(39,40)                1.09           calculate D2E/DX2 analytically  !
 ! R40   R(39,41)                1.0899         calculate D2E/DX2 analytically  !
 ! R41   R(39,42)                1.09           calculate D2E/DX2 analytically  !
 ! A1    A(1,2,3)              109.4972         calculate D2E/DX2 analytically  !
 ! A2    A(1,2,4)              109.4974         calculate D2E/DX2 analytically  !
 ! A3    A(1,2,5)              111.1            calculate D2E/DX2 analytically  !
 ! A4    A(3,2,4)              109.4481         calculate D2E/DX2 analytically  !
 ! A5    A(3,2,5)              108.6367         calculate D2E/DX2 analytically  !
 ! A6    A(4,2,5)              108.6348         calculate D2E/DX2 analytically  !
 ! A7    A(2,5,6)              120.4994         calculate D2E/DX2 analytically  !
 ! A8    A(2,5,7)              116.6003         calculate D2E/DX2 analytically  !
 ! A9    A(6,5,7)              122.9003         calculate D2E/DX2 analytically  !
 ! A10   A(5,7,8)              119.9996         calculate D2E/DX2 analytically  !
 ! A11   A(5,7,9)              121.9007         calculate D2E/DX2 analytically  !
 ! A12   A(8,7,9)              118.0998         calculate D2E/DX2 analytically  !
 ! A13   A(7,9,10)             109.4963         calculate D2E/DX2 analytically  !
 ! A14   A(7,9,11)             111.1004         calculate D2E/DX2 analytically  !
 ! A15   A(7,9,15)             111.102          calculate D2E/DX2 analytically  !
 ! A16   A(10,9,11)            108.6374         calculate D2E/DX2 analytically  !
 ! A17   A(10,9,15)            108.634          calculate D2E/DX2 analytically  !
 ! A18   A(11,9,15)            107.7959         calculate D2E/DX2 analytically  !
 ! A19   A(9,11,12)            109.5007         calculate D2E/DX2 analytically  !
 ! A20   A(9,11,13)            109.5005         calculate D2E/DX2 analytically  !
 ! A21   A(9,11,14)            109.5061         calculate D2E/DX2 analytically  !
 ! A22   A(12,11,13)           109.441          calculate D2E/DX2 analytically  !
 ! A23   A(12,11,14)           109.4392         calculate D2E/DX2 analytically  !
 ! A24   A(13,11,14)           109.4397         calculate D2E/DX2 analytically  !
 ! A25   A(9,15,16)            120.4974         calculate D2E/DX2 analytically  !
 ! A26   A(9,15,17)            116.6034         calculate D2E/DX2 analytically  !
 ! A27   A(16,15,17)           122.8992         calculate D2E/DX2 analytically  !
 ! A28   A(15,17,18)           119.9987         calculate D2E/DX2 analytically  !
 ! A29   A(15,17,19)           121.8998         calculate D2E/DX2 analytically  !
 ! A30   A(18,17,19)           118.1015         calculate D2E/DX2 analytically  !
 ! A31   A(17,19,20)           109.4954         calculate D2E/DX2 analytically  !
 ! A32   A(17,19,21)           111.0974         calculate D2E/DX2 analytically  !
 ! A33   A(17,19,25)           111.1042         calculate D2E/DX2 analytically  !
 ! A34   A(20,19,21)           108.6349         calculate D2E/DX2 analytically  !
 ! A35   A(20,19,25)           108.6399         calculate D2E/DX2 analytically  !
 ! A36   A(21,19,25)           107.7944         calculate D2E/DX2 analytically  !
 ! A37   A(19,21,22)           109.4996         calculate D2E/DX2 analytically  !
 ! A38   A(19,21,23)           109.4977         calculate D2E/DX2 analytically  !
 ! A39   A(19,21,24)           109.4988         calculate D2E/DX2 analytically  !
 ! A40   A(22,21,23)           109.4452         calculate D2E/DX2 analytically  !
 ! A41   A(22,21,24)           109.4447         calculate D2E/DX2 analytically  !
 ! A42   A(23,21,24)           109.4412         calculate D2E/DX2 analytically  !
 ! A43   A(19,25,26)           120.5038         calculate D2E/DX2 analytically  !
 ! A44   A(19,25,27)           116.6007         calculate D2E/DX2 analytically  !
 ! A45   A(26,25,27)           122.8955         calculate D2E/DX2 analytically  !
 ! A46   A(25,27,28)           119.999          calculate D2E/DX2 analytically  !
 ! A47   A(25,27,29)           121.9028         calculate D2E/DX2 analytically  !
 ! A48   A(28,27,29)           118.0982         calculate D2E/DX2 analytically  !
 ! A49   A(27,29,30)           109.4955         calculate D2E/DX2 analytically  !
 ! A50   A(27,29,31)           111.0965         calculate D2E/DX2 analytically  !
 ! A51   A(27,29,35)           111.1024         calculate D2E/DX2 analytically  !
 ! A52   A(30,29,31)           108.6353         calculate D2E/DX2 analytically  !
 ! A53   A(30,29,35)           108.638          calculate D2E/DX2 analytically  !
 ! A54   A(31,29,35)           107.7987         calculate D2E/DX2 analytically  !
 ! A55   A(29,31,32)           109.4985         calculate D2E/DX2 analytically  !
 ! A56   A(29,31,33)           109.4953         calculate D2E/DX2 analytically  !
 ! A57   A(29,31,34)           109.5041         calculate D2E/DX2 analytically  !
 ! A58   A(32,31,33)           109.4422         calculate D2E/DX2 analytically  !
 ! A59   A(32,31,34)           109.4463         calculate D2E/DX2 analytically  !
 ! A60   A(33,31,34)           109.4408         calculate D2E/DX2 analytically  !
 ! A61   A(29,35,36)           120.5006         calculate D2E/DX2 analytically  !
 ! A62   A(29,35,37)           116.6024         calculate D2E/DX2 analytically  !
 ! A63   A(36,35,37)           122.8969         calculate D2E/DX2 analytically  !
 ! A64   A(35,37,38)           119.9966         calculate D2E/DX2 analytically  !
 ! A65   A(35,37,39)           121.9029         calculate D2E/DX2 analytically  !
 ! A66   A(38,37,39)           118.1005         calculate D2E/DX2 analytically  !
 ! A67   A(37,39,40)           109.494          calculate D2E/DX2 analytically  !
 ! A68   A(37,39,41)           109.5001         calculate D2E/DX2 analytically  !
 ! A69   A(37,39,42)           109.4993         calculate D2E/DX2 analytically  !
 ! A70   A(40,39,41)           109.4459         calculate D2E/DX2 analytically  !
 ! A71   A(40,39,42)           109.4432         calculate D2E/DX2 analytically  !
 ! A72   A(41,39,42)           109.4447         calculate D2E/DX2 analytically  !
 ! D1    D(1,2,5,6)              0.0022         calculate D2E/DX2 analytically  !
 ! D2    D(1,2,5,7)            179.9987         calculate D2E/DX2 analytically  !
 ! D3    D(3,2,5,6)            120.5114         calculate D2E/DX2 analytically  !
 ! D4    D(3,2,5,7)            -59.4921         calculate D2E/DX2 analytically  !
 ! D5    D(4,2,5,6)           -120.5061         calculate D2E/DX2 analytically  !
 ! D6    D(4,2,5,7)             59.4904         calculate D2E/DX2 analytically  !
 ! D7    D(2,5,7,8)              0.0002         calculate D2E/DX2 analytically  !
 ! D8    D(2,5,7,9)           -179.997          calculate D2E/DX2 analytically  !
 ! D9    D(6,5,7,8)            179.9966         calculate D2E/DX2 analytically  !
 ! D10   D(6,5,7,9)             -0.0006         calculate D2E/DX2 analytically  !
 ! D11   D(5,7,9,10)           -60.0013         calculate D2E/DX2 analytically  !
 ! D12   D(5,7,9,11)            59.9987         calculate D2E/DX2 analytically  !
 ! D13   D(5,7,9,15)          -179.9979         calculate D2E/DX2 analytically  !
 ! D14   D(8,7,9,10)           120.0015         calculate D2E/DX2 analytically  !
 ! D15   D(8,7,9,11)          -119.9986         calculate D2E/DX2 analytically  !
 ! D16   D(8,7,9,15)             0.0048         calculate D2E/DX2 analytically  !
 ! D17   D(7,9,11,12)           60.0013         calculate D2E/DX2 analytically  !
 ! D18   D(7,9,11,13)         -179.9997         calculate D2E/DX2 analytically  !
 ! D19   D(7,9,11,14)          -59.999          calculate D2E/DX2 analytically  !
 ! D20   D(10,9,11,12)        -179.4899         calculate D2E/DX2 analytically  !
 ! D21   D(10,9,11,13)         -59.4908         calculate D2E/DX2 analytically  !
 ! D22   D(10,9,11,14)          60.5099         calculate D2E/DX2 analytically  !
 ! D23   D(15,9,11,12)         -61.9473         calculate D2E/DX2 analytically  !
 ! D24   D(15,9,11,13)          58.0517         calculate D2E/DX2 analytically  !
 ! D25   D(15,9,11,14)         178.0524         calculate D2E/DX2 analytically  !
 ! D26   D(7,9,15,16)           -0.0008         calculate D2E/DX2 analytically  !
 ! D27   D(7,9,15,17)          179.9993         calculate D2E/DX2 analytically  !
 ! D28   D(10,9,15,16)        -120.5084         calculate D2E/DX2 analytically  !
 ! D29   D(10,9,15,17)          59.4916         calculate D2E/DX2 analytically  !
 ! D30   D(11,9,15,16)         121.9468         calculate D2E/DX2 analytically  !
 ! D31   D(11,9,15,17)         -58.0532         calculate D2E/DX2 analytically  !
 ! D32   D(9,15,17,18)          -0.0073         calculate D2E/DX2 analytically  !
 ! D33   D(9,15,17,19)        -179.9972         calculate D2E/DX2 analytically  !
 ! D34   D(16,15,17,18)        179.9928         calculate D2E/DX2 analytically  !
 ! D35   D(16,15,17,19)          0.0029         calculate D2E/DX2 analytically  !
 ! D36   D(15,17,19,20)       -179.9987         calculate D2E/DX2 analytically  !
 ! D37   D(15,17,19,21)        -60.0044         calculate D2E/DX2 analytically  !
 ! D38   D(15,17,19,25)         59.9965         frozen, calculate D2E/DX2 analyt!
 ! D39   D(18,17,19,20)          0.0113         calculate D2E/DX2 analytically  !
 ! D40   D(18,17,19,21)        120.0055         calculate D2E/DX2 analytically  !
 ! D41   D(18,17,19,25)       -119.9935         calculate D2E/DX2 analytically  !
 ! D42   D(17,19,21,22)         60.0039         calculate D2E/DX2 analytically  !
 ! D43   D(17,19,21,23)       -179.9943         calculate D2E/DX2 analytically  !
 ! D44   D(17,19,21,24)        -59.998          calculate D2E/DX2 analytically  !
 ! D45   D(20,19,21,22)       -179.4919         calculate D2E/DX2 analytically  !
 ! D46   D(20,19,21,23)        -59.4901         calculate D2E/DX2 analytically  !
 ! D47   D(20,19,21,24)         60.5062         calculate D2E/DX2 analytically  !
 ! D48   D(25,19,21,22)        -61.9445         calculate D2E/DX2 analytically  !
 ! D49   D(25,19,21,23)         58.0573         calculate D2E/DX2 analytically  !
 ! D50   D(25,19,21,24)        178.0536         calculate D2E/DX2 analytically  !
 ! D51   D(17,19,25,26)        -90.0011         calculate D2E/DX2 analytically  !
 ! D52   D(17,19,25,27)         90.0            frozen, calculate D2E/DX2 analyt!
 ! D53   D(20,19,25,26)        149.4872         calculate D2E/DX2 analytically  !
 ! D54   D(20,19,25,27)        -30.5117         calculate D2E/DX2 analytically  !
 ! D55   D(21,19,25,26)         31.943          calculate D2E/DX2 analytically  !
 ! D56   D(21,19,25,27)       -148.0559         calculate D2E/DX2 analytically  !
 ! D57   D(19,25,27,28)         -0.0029         calculate D2E/DX2 analytically  !
 ! D58   D(19,25,27,29)       -179.999          calculate D2E/DX2 analytically  !
 ! D59   D(26,25,27,28)        179.9982         calculate D2E/DX2 analytically  !
 ! D60   D(26,25,27,29)          0.0021         calculate D2E/DX2 analytically  !
 ! D61   D(25,27,29,30)        -59.9981         calculate D2E/DX2 analytically  !
 ! D62   D(25,27,29,31)         59.9962         calculate D2E/DX2 analytically  !
 ! D63   D(25,27,29,35)       -179.9993         calculate D2E/DX2 analytically  !
 ! D64   D(28,27,29,30)        120.0057         calculate D2E/DX2 analytically  !
 ! D65   D(28,27,29,31)       -120.0            calculate D2E/DX2 analytically  !
 ! D66   D(28,27,29,35)          0.0045         calculate D2E/DX2 analytically  !
 ! D67   D(27,29,31,32)         60.0075         calculate D2E/DX2 analytically  !
 ! D68   D(27,29,31,33)       -179.9966         calculate D2E/DX2 analytically  !
 ! D69   D(27,29,31,34)        -59.9989         calculate D2E/DX2 analytically  !
 ! D70   D(30,29,31,32)       -179.4885         calculate D2E/DX2 analytically  !
 ! D71   D(30,29,31,33)        -59.4926         calculate D2E/DX2 analytically  !
 ! D72   D(30,29,31,34)         60.5051         calculate D2E/DX2 analytically  !
 ! D73   D(35,29,31,32)        -61.9409         calculate D2E/DX2 analytically  !
 ! D74   D(35,29,31,33)         58.055          calculate D2E/DX2 analytically  !
 ! D75   D(35,29,31,34)        178.0527         calculate D2E/DX2 analytically  !
 ! D76   D(27,29,35,36)         -0.0022         calculate D2E/DX2 analytically  !
 ! D77   D(27,29,35,37)        179.9981         calculate D2E/DX2 analytically  !
 ! D78   D(30,29,35,36)       -120.5116         calculate D2E/DX2 analytically  !
 ! D79   D(30,29,35,37)         59.4887         calculate D2E/DX2 analytically  !
 ! D80   D(31,29,35,36)        121.9425         calculate D2E/DX2 analytically  !
 ! D81   D(31,29,35,37)        -58.0572         calculate D2E/DX2 analytically  !
 ! D82   D(29,35,37,38)         -0.001          calculate D2E/DX2 analytically  !
 ! D83   D(29,35,37,39)        179.9989         calculate D2E/DX2 analytically  !
 ! D84   D(36,35,37,38)        179.9994         calculate D2E/DX2 analytically  !
 ! D85   D(36,35,37,39)         -0.0008         calculate D2E/DX2 analytically  !
 ! D86   D(35,37,39,40)         -0.0003         calculate D2E/DX2 analytically  !
 ! D87   D(35,37,39,41)        120.0004         calculate D2E/DX2 analytically  !
 ! D88   D(35,37,39,42)       -119.9972         calculate D2E/DX2 analytically  !
 ! D89   D(38,37,39,40)        179.9995         calculate D2E/DX2 analytically  !
 ! D90   D(38,37,39,41)        -59.9998         calculate D2E/DX2 analytically  !
 ! D91   D(38,37,39,42)         60.0026         calculate D2E/DX2 analytically  !
 --------------------------------------------------------------------------------
 Trust Radius=3.00D-01 FncErr=1.00D-07 GrdErr=1.00D-06
 Number of steps in this run= 252 maximum allowed number of steps= 252.
 GradGradGradGradGradGradGradGradGradGradGradGradGradGradGradGradGradGrad

                          Input orientation:                          
 ---------------------------------------------------------------------
 Center     Atomic      Atomic             Coordinates (Angstroms)
 Number     Number       Type             X           Y           Z
 ---------------------------------------------------------------------
      1          1           0        7.769100    1.000000    3.330800
      2          6           0        7.769100    2.090000    3.330800
      3          1           0        8.796600    2.453800    3.330800
      4          1           0        7.255300    2.453800    4.220600
      5          6           0        7.055400    2.640800    2.094600
      6          8           0        6.573800    1.877400    1.260500
      7          7           0        6.991400    3.969600    1.983800
      8          1           0        7.402500    4.556100    2.695900
      9          6           0        6.342400    4.613900    0.859800
     10          1           0        6.835900    4.315500   -0.065200
     11          6           0        4.871400    4.220800    0.776100
     12          1           0        4.361800    4.521300    1.691600
     13          1           0        4.409600    4.718900   -0.076400
     14          1           0        4.789700    3.140900    0.653200
     15          6           0        6.412700    6.129400    0.981500
     16          8           0        6.968800    6.652700    1.944600
     17          7           0        5.846000    6.834900    0.000000
     18          1           0        5.400600    6.359200   -0.771600
     19          6           0        5.846100    8.283900    0.000000
     20          1           0        5.332300    8.647700   -0.889800
     21          6           0        5.134700    8.832900    1.232200
     22          1           0        5.643100    8.484600    2.131200
     23          1           0        5.149900    9.922400    1.205800
     24          1           0        4.101900    8.484600    1.241400
     25          6           0        7.266000    8.831800    0.000000
     26          8           0        7.848000    9.056400    1.058900
     27          7           0        7.823700    9.047000   -1.193700
     28          1           0        7.305000    8.846800   -2.036900
     29          6           0        9.169800    9.566400   -1.327600
     30          1           0        9.231700   10.544100   -0.849600
     31          6           0       10.184600    8.637300   -0.669900
     32          1           0       10.140900    7.656800   -1.144000
     33          1           0       11.186000    9.052000   -0.785700
     34          1           0        9.953400    8.538200    0.390600
     35          6           0        9.556400    9.715600   -2.792000
     36          8           0        8.764200    9.409900   -3.680600
     37          7           0       10.779800   10.187700   -3.042200
     38          1           0       11.395500   10.425300   -2.277600
     39          6           0       11.266500   10.375500   -4.394100
     40          1           0       10.494300   10.077500   -5.103400
     41          1           0       11.515500   11.425300   -4.548600
     42          1           0       12.156200    9.765000   -4.548600
 ---------------------------------------------------------------------
                    Distance matrix (angstroms):
                    1          2          3          4          5
     1  H    0.000000
     2  C    1.090000   0.000000
     3  H    1.780250   1.090003   0.000000
     4  H    1.780244   1.089993   1.779705   0.000000
     5  C    2.174806   1.530013   2.143580   2.143550   0.000000
     6  O    2.546510   2.400017   3.091799   3.091742   1.229000
     7  N    3.352275   2.439697   2.714923   2.714879   1.334946
     8  H    3.630887   2.572769   2.601207   2.601162   2.037257
     9  C    4.604518   3.809381   4.098167   4.098097   2.434384
    10  H    4.836964   4.166117   4.340863   4.691472   2.741813
    11  C    5.029583   4.411742   5.005594   4.546411   3.000783
    12  H    5.166839   4.495319   5.160328   4.363799   3.309708
    13  H    6.060154   5.459521   5.998788   5.629644   4.003998
    14  H    4.542006   4.141347   4.867946   4.390630   2.731507
    15  C    5.802566   4.865777   4.971139   4.971094   3.717847
    16  O    5.874951   4.835314   4.784680   4.784665   4.015637
    17  N    6.988462   6.107914   6.244542   6.244488   4.841536
    18  H    7.152657   6.376954   6.604139   6.604099   4.977948
    19  C    8.236951   7.290854   7.334149   7.334124   6.139571
    20  H    9.068560   8.170366   8.257072   8.257028   6.925212
    21  C    8.526342   7.537300   7.648957   7.356657   6.540254
    22  H    7.872620   6.844693   6.910438   6.582958   6.012148
    23  H    9.538609   8.527738   8.578696   8.324765   7.579089
    24  H    8.592624   7.661910   7.923153   7.429005   6.603114
    25  C    8.525516   7.536525   7.356348   7.648037   6.539127
    26  O    8.370982   7.327925   7.046680   7.344520   6.546817
    27  N    9.231917   8.299032   8.055304   8.550322   7.241726
    28  H    9.518396   8.641871   8.479830   8.945906   7.459627
    29  C    9.851186   8.919597   8.510526   9.221546   8.009125
    30  H   10.521634   9.543938   9.116908   9.750181   8.710152
    31  C    8.953692   8.044090   7.494519   8.410319   7.307008
    32  H    8.364344   7.525858   6.993010   8.011044   6.720796
    33  H    9.667238   8.780104   8.135788   9.167862   8.152390
    34  H    8.380955   7.415877   6.855865   7.679099   6.788324
    35  C   10.800222   9.941474   9.528888  10.354002   8.954700
    36  O   10.994379  10.184836   9.876645  10.634522   9.060554
    37  N   11.579865  10.735557  10.215744  11.179605   9.859694
    38  H   11.551676  10.680925  10.087281  11.086599   9.927288
    39  C   12.641435  11.855606  11.337011  12.371585  10.939021
    40  H   12.687137  11.931580  11.495161  12.471924  10.906042
    41  H   13.594386  12.777648  12.246027  13.248999  11.882426
    42  H   12.576041  11.842180  11.261683  12.424626  10.995658
                    6          7          8          9         10
     6  O    0.000000
     7  N    2.252744   0.000000
     8  H    3.150008   1.009986   0.000000
     9  C    2.775345   1.449034   2.120947   0.000000
    10  H    2.787563   2.083801   2.828886   1.090050   0.000000
    11  C    2.936721   2.452762   3.194452   1.524918   2.139162
    12  H    3.474046   2.702693   3.202450   2.150173   3.041360
    13  H    3.813815   3.386970   4.082842   2.150165   2.459632
    14  H    2.268977   2.702725   3.605848   2.150184   2.466317
    15  C    4.264188   2.450354   2.528665   1.522003   2.136566
    16  O    4.840197   2.683482   2.268982   2.392880   3.085363
    17  N    5.166755   3.668426   3.857914   2.432799   2.707680
    18  H    5.058889   3.979078   4.391165   2.567981   2.595341
    19  C    6.569753   4.884707   4.856619   3.801903   4.090496
    20  H    7.211246   5.735400   5.821010   4.511424   4.659263
    21  C    7.102872   5.259651   5.057307   4.404223   4.998423
    22  H    6.728998   4.714325   4.341369   4.133739   4.860899
    23  H    8.170221   6.279509   6.007644   5.451784   5.991274
    24  H    7.054484   5.411616   5.333164   4.488628   5.153965
    25  C    7.101527   5.258503   5.056493   4.402610   4.537202
    26  O    7.293989   5.240681   4.809464   4.694920   4.976352
    27  N    7.680398   6.047249   5.956054   5.105241   4.963502
    28  H    7.744678   6.328622   6.388976   5.218708   4.963903
    29  C    8.518110   6.858204   6.664459   6.107877   5.883255
    30  H    9.307451   7.501410   7.195324   6.814497   6.719420
    31  C    7.903200   6.247085   5.977030   5.769769   5.500674
    32  H    7.204671   5.770436   5.644290   5.263369   4.821942
    33  H    8.771215   7.148118   6.830046   6.772360   6.471238
    34  H    7.519620   5.673080   5.261047   5.353466   5.268563
    35  C    9.314292   7.899621   7.834333   7.049311   6.633072
    36  O    9.270970   8.051404   8.128552   7.034342   6.537765
    37  N   10.259861   8.847453   8.720485   8.123015   7.674608
    38  H   10.432331   8.901218   8.667598   8.315616   7.938156
    39  C   11.234484   9.999482   9.953091   9.222053   8.665633
    40  H   11.095548   9.990253  10.043613   9.091147   8.483395
    41  H   12.220001  10.896201  10.797475  10.119631   9.620228
    42  H   11.274887  10.145643  10.110049   9.464930   8.837619
                   11         12         13         14         15
    11  C    0.000000
    12  H    1.090015   0.000000
    13  H    1.090009   1.779650   0.000000
    14  H    1.089937   1.779572   1.779572   0.000000
    15  C    2.461818   2.701188   2.668534   3.416583   0.000000
    16  O    3.417399   3.376881   3.791244   4.330003   1.229086
    17  N    2.895806   3.227554   2.558620   3.897188   1.334999
    18  H    2.692245   3.244123   2.038619   3.572213   2.037281
    19  C    4.249842   4.384269   3.844294   5.290851   2.434389
    20  H    4.752378   4.963131   4.116851   5.744572   3.318262
    21  C    4.642071   4.404352   4.377579   5.731765   3.000841
    22  H    4.540023   4.188404   4.536024   5.609626   2.731494
    23  H    5.724548   5.479871   5.410036   6.813505   4.003976
    24  H    4.357594   3.997246   4.001471   5.419795   3.309730
    25  C    5.253357   5.465922   5.008074   6.240599   2.999071
    26  O    5.685345   5.755087   5.650257   6.671651   3.260890
    27  N    5.990692   6.386836   5.624668   6.891895   3.903179
    28  H    5.935929   6.424491   5.409848   6.791220   4.158269
    29  C    7.174764   7.595095   6.908202   8.024705   4.974587
    30  H    7.851066   8.151549   7.601542   8.763398   5.548807
    31  C    7.058788   7.511534   7.004051   7.814471   4.821194
    32  H    6.577272   7.160306   6.528310   7.229013   4.555236
    33  H    8.102709   8.557684   8.074556   8.827468   5.869325
    34  H    6.679467   7.006717   6.748249   7.474196   4.322966
    35  C    8.054402   8.606236   7.670140   8.821423   6.081364
    36  O    7.870376   8.493531   7.345630   8.595280   6.166556
    37  N    9.224560   9.783030   8.904111   9.959652   7.192463
    38  H    9.507091  10.004234   9.284992  10.261027   7.341988
    39  C   10.271738  10.907900   9.882142  10.943656   8.395583
    40  H   10.024293  10.707518   9.539858  10.667583   8.323038
    41  H   11.153534  11.738004  10.745706  11.871242   9.201474
    42  H   10.590510  11.277817  10.270030  11.189403   8.762841
                   16         17         18         19         20
    16  O    0.000000
    17  N    2.252853   0.000000
    18  H    3.150101   1.009969   0.000000
    19  C    2.775381   1.449000   2.120921   0.000000
    20  H    3.833012   2.083717   2.292568   1.089993   0.000000
    21  C    2.936785   2.452808   3.194544   1.525060   2.139212
    22  H    2.268955   2.702719   3.605881   2.150233   3.041322
    23  H    3.813812   3.386911   4.082812   2.150193   2.459608
    24  H    3.474113   2.702678   3.202517   2.150253   2.466272
    25  C    2.935690   2.450308   3.191995   1.521943   2.136547
    26  O    2.708363   3.172434   4.076197   2.392829   3.208304
    27  N    4.038868   3.198375   3.643330   2.432723   2.541431
    28  H    4.558448   3.213314   3.378739   2.567919   2.290638
    29  C    4.903197   4.502362   4.980174   3.801882   3.970149
    30  H    5.298232   5.093422   5.674222   4.158439   4.336274
    31  C    4.595173   4.745615   5.299692   4.404116   4.857291
    32  H    4.539811   4.520002   4.928782   4.488574   4.916211
    33  H    5.567401   5.835106   6.381397   5.451773   5.868569
    34  H    3.857183   4.463691   5.179453   4.133661   4.796455
    35  C    6.205837   5.464500   5.711227   4.859152   4.754135
    36  O    6.516785   5.356616   5.392852   4.830114   4.488591
    37  N    7.203341   6.696165   6.982036   6.100888   6.056375
    38  H    7.187152   6.991093   7.398651   6.369372   6.469022
    39  C    8.515197   7.824691   7.978844   7.284479   7.104938
    40  H    8.592596   7.626653   7.650884   7.132142   6.815057
    41  H    9.252667   8.596788   8.793355   7.918349   7.702846
    42  H    8.874524   8.312272   8.455964   7.918382   7.823093
                   21         22         23         24         25
    21  C    0.000000
    22  H    1.089947   0.000000
    23  H    1.089926   1.779573   0.000000
    24  H    1.089988   1.779618   1.779562   0.000000
    25  C    2.461861   2.701179   2.668565   3.416599   0.000000
    26  O    2.728000   2.517611   2.837478   3.793880   1.228999
    27  N    3.627885   4.015753   3.697720   4.483057   1.335013
    28  H    3.923953   4.501795   4.039366   4.597640   2.037329
    29  C    4.834525   5.056798   4.764918   5.783914   2.434464
    30  H    4.903826   5.099486   4.612187   5.910048   2.741855
    31  C    5.399790   5.338043   5.524304   6.377744   3.000804
    32  H    5.664943   5.625157   5.963605   6.545602   3.309745
    33  H    6.382645   6.289196   6.415463   7.390233   4.004025
    34  H    4.900511   4.648790   5.064995   5.913272   2.731463
    35  C    6.043573   6.408368   5.953353   6.894581   3.717835
    36  O    6.135292   6.661416   6.099404   6.842463   4.015672
    37  N    7.209239   7.486675   7.057738   8.114439   4.841512
    38  H    7.352010   7.502929   7.168996   8.327441   4.977899
    39  C    8.463678   8.819165   8.305238   9.309450   6.139636
    40  H    8.391315   8.854993   8.269986   9.146398   6.165905
    41  H    8.991818   9.367632   8.711641   9.855622   6.743460
    42  H    9.142643   9.416986   9.067863  10.001763   6.743492
                   26         27         28         29         30
    26  O    0.000000
    27  N    2.252751   0.000000
    28  H    3.150041   1.010008   0.000000
    29  C    2.775363   1.449031   2.120945   0.000000
    30  H    2.787517   2.083789   2.828901   1.090052   0.000000
    31  C    2.936681   2.452768   3.194476   1.524997   2.139205
    32  H    3.474052   2.702692   3.202452   2.150190   3.041351
    33  H    3.813766   3.386968   4.082863   2.150192   2.459621
    34  H    2.268891   2.702685   3.605830   2.150218   2.466289
    35  C    4.264107   2.450273   2.528595   1.521903   2.136530
    36  O    4.840170   2.683451   2.268942   2.392825   3.085373
    37  N    5.166654   3.668334   3.857833   2.432687   2.707606
    38  H    5.058743   3.978983   4.391103   2.567869   2.595251
    39  C    6.569732   4.884705   4.856624   3.801870   4.090516
    40  H    6.783767   4.845595   4.592350   4.033880   4.461691
    41  H    7.106778   5.526396   5.539459   4.396892   4.435635
    42  H    7.106811   5.526431   5.539483   4.396916   4.779362
                   31         32         33         34         35
    31  C    0.000000
    32  H    1.089982   0.000000
    33  H    1.090040   1.779662   0.000000
    34  H    1.089924   1.779612   1.779600   0.000000
    35  C    2.461844   2.701148   2.668558   3.416551   0.000000
    36  O    3.417420   3.376833   3.791260   4.329980   1.229082
    37  N    2.895826   3.227509   2.558633   3.897166   1.334985
    38  H    2.692197   3.244019   2.038531   3.572127   2.037295
    39  C    4.249884   4.384228   3.844305   5.290865   2.434468
    40  H    4.671832   4.654195   4.491395   5.731148   2.520555
    41  H    4.958685   5.261408   4.461002   5.930531   3.137960
    42  H    4.494800   4.482995   3.950832   5.545544   3.138000
                   36         37         38         39         40
    36  O    0.000000
    37  N    2.252814   0.000000
    38  H    3.150109   1.010026   0.000000
    39  C    2.775423   1.449062   2.121012   0.000000
    40  H    2.337369   2.083795   2.986348   1.090047   0.000000
    41  H    3.519220   2.083782   2.484319   1.089932   1.779668
    42  H    3.519259   2.083841   2.484371   1.090021   1.779711
                   41         42
    41  H    0.000000
    42  H    1.779633   0.000000
 Stoichiometry    C12H22N4O4
 Framework group  C1[X(C12H22N4O4)]
 Deg. of freedom   120
 Full point group                 C1      NOp   1
 Largest Abelian subgroup         C1      NOp   1
 Largest concise Abelian subgroup C1      NOp   1
                         Standard orientation:                         
 ---------------------------------------------------------------------
 Center     Atomic      Atomic             Coordinates (Angstroms)
 Number     Number       Type             X           Y           Z
 ---------------------------------------------------------------------
      1          1           0        6.316987   -2.764324   -0.831234
      2          6           0        5.502274   -2.134299   -1.188180
      3          1           0        4.833586   -2.724571   -1.814713
      4          1           0        5.909757   -1.307800   -1.770366
      5          6           0        4.697922   -1.559835   -0.020298
      6          8           0        5.003600   -1.828250    1.139424
      7          7           0        3.669537   -0.768804   -0.334586
      8          1           0        3.457357   -0.577313   -1.303287
      9          6           0        2.830968   -0.163481    0.680345
     10          1           0        2.363413   -0.944904    1.279494
     11          6           0        3.647567    0.735086    1.602905
     12          1           0        4.114635    1.527962    1.018671
     13          1           0        2.992752    1.175932    2.354564
     14          1           0        4.419844    0.144732    2.095890
     15          6           0        1.736859    0.687243    0.051308
     16          8           0        1.651608    0.790136   -1.170492
     17          7           0        0.897797    1.298395    0.890766
     18          1           0        1.008242    1.183233    1.888051
     19          6           0       -0.185287    2.135846    0.416208
     20          1           0       -0.739804    2.530530    1.267572
     21          6           0        0.345164    3.306429   -0.404868
     22          1           0        0.895154    2.927144   -1.266052
     23          1           0       -0.489316    3.917916   -0.747890
     24          1           0        1.009286    3.912021    0.211796
     25          6           0       -1.143104    1.346257   -0.464387
     26          8           0       -0.963308    1.279567   -1.678333
     27          7           0       -2.164589    0.746479    0.151319
     28          1           0       -2.270465    0.830293    1.152259
     29          6           0       -3.144989   -0.034574   -0.575636
     30          1           0       -3.641274    0.598299   -1.311425
     31          6           0       -2.486869   -1.202663   -1.302315
     32          1           0       -1.993411   -1.850388   -0.577738
     33          1           0       -3.246121   -1.771277   -1.839345
     34          1           0       -1.750244   -0.822482   -2.009973
     35          6           0       -4.197405   -0.604878    0.364237
     36          8           0       -4.143356   -0.379969    1.571357
     37          7           0       -5.157938   -1.345892   -0.192952
     38          1           0       -5.159962   -1.502736   -1.190724
     39          6           0       -6.217045   -1.944577    0.594225
     40          1           0       -6.079550   -1.687293    1.644513
     41          1           0       -7.181381   -1.569279    0.251940
     42          1           0       -6.187805   -3.028124    0.479255
 ---------------------------------------------------------------------
 Rotational constants (GHZ):      0.5629756      0.1326782      0.1215503
 Standard basis: 6-31G(d) (6D, 7F)
 There are   344 symmetry adapted basis functions of A   symmetry.
 Integral buffers will be    131072 words long.
 Raffenetti 2 integral format.
 Two-electron integral symmetry is turned on.
   344 basis functions,   648 primitive gaussians,   344 cartesian basis functions
    77 alpha electrons       77 beta electrons
       nuclear repulsion energy      1628.8408496825 Hartrees.
 NAtoms=   42 NActive=   42 NUniq=   42 SFac= 7.50D-01 NAtFMM=   80 NAOKFM=F Big=F
 One-electron integrals computed using PRISM.
 NBasis=   344 RedAO= T  NBF=   344
 NBsUse=   344 1.00D-06 NBFU=   344
 Harris functional with IExCor=  402 diagonalized for initial guess.
 ExpMin= 1.61D-01 ExpMax= 5.48D+03 ExpMxC= 8.25D+02 IAcc=1 IRadAn=         1 AccDes= 0.00D+00
 HarFok:  IExCor=  402 AccDes= 0.00D+00 IRadAn=         1 IDoV= 1
 ScaDFX=  1.000000  1.000000  1.000000  1.000000
 FoFCou: FMM=F IPFlag=           0 FMFlag=      100000 FMFlg1=           0
         NFxFlg=           0 DoJE=T BraDBF=F KetDBF=T FulRan=T
         Omega=  0.000000  0.000000  1.000000  0.000000  0.000000 ICntrl=     500 IOpCl=  0
         NMat0=    1 NMatS0=    1 NMatT0=    0 NMatD0=    1 NMtDS0=    0 NMtDT0=    0
         I1Cent=           4 NGrid=           0.
 Petite list used in FoFCou.
 Initial guess orbital symmetries:
       Occupied  (A) (A) (A) (A) (A) (A) (A) (A) (A) (A) (A) (A)
                 (A) (A) (A) (A) (A) (A) (A) (A) (A) (A) (A) (A)
                 (A) (A) (A) (A) (A) (A) (A) (A) (A) (A) (A) (A)
                 (A) (A) (A) (A) (A) (A) (A) (A) (A) (A) (A) (A)
                 (A) (A) (A) (A) (A) (A) (A) (A) (A) (A) (A) (A)
                 (A) (A) (A) (A) (A) (A) (A) (A) (A) (A) (A) (A)
                 (A) (A) (A) (A) (A)
       Virtual   (A) (A) (A) (A) (A) (A) (A) (A) (A) (A) (A) (A)
                 (A) (A) (A) (A) (A) (A) (A) (A) (A) (A) (A) (A)
                 (A) (A) (A) (A) (A) (A) (A) (A) (A) (A) (A) (A)
                 (A) (A) (A) (A) (A) (A) (A) (A) (A) (A) (A) (A)
                 (A) (A) (A) (A) (A) (A) (A) (A) (A) (A) (A) (A)
                 (A) (A) (A) (A) (A) (A) (A) (A) (A) (A) (A) (A)
                 (A) (A) (A) (A) (A) (A) (A) (A) (A) (A) (A) (A)
                 (A) (A) (A) (A) (A) (A) (A) (A) (A) (A) (A) (A)
                 (A) (A) (A) (A) (A) (A) (A) (A) (A) (A) (A) (A)
                 (A) (A) (A) (A) (A) (A) (A) (A) (A) (A) (A) (A)
                 (A) (A) (A) (A) (A) (A) (A) (A) (A) (A) (A) (A)
                 (A) (A) (A) (A) (A) (A) (A) (A) (A) (A) (A) (A)
                 (A) (A) (A) (A) (A) (A) (A) (A) (A) (A) (A) (A)
                 (A) (A) (A) (A) (A) (A) (A) (A) (A) (A) (A) (A)
                 (A) (A) (A) (A) (A) (A) (A) (A) (A) (A) (A) (A)
                 (A) (A) (A) (A) (A) (A) (A) (A) (A) (A) (A) (A)
                 (A) (A) (A) (A) (A) (A) (A) (A) (A) (A) (A) (A)
                 (A) (A) (A) (A) (A) (A) (A) (A) (A) (A) (A) (A)
                 (A) (A) (A) (A) (A) (A) (A) (A) (A) (A) (A) (A)
                 (A) (A) (A) (A) (A) (A) (A) (A) (A) (A) (A) (A)
                 (A) (A) (A) (A) (A) (A) (A) (A) (A) (A) (A) (A)
                 (A) (A) (A) (A) (A) (A) (A) (A) (A) (A) (A) (A)
                 (A) (A) (A)
 The electronic state of the initial guess is 1-A.
 Requested convergence on RMS density matrix=1.00D-08 within 128 cycles.
 Requested convergence on MAX density matrix=1.00D-06.
 Requested convergence on             energy=1.00D-06.
 No special actions if energy rises.
 Integral accuracy reduced to 1.0D-05 until final iterations.
 Initial convergence to 1.0D-05 achieved.  Increase integral accuracy.
 SCF Done:  E(RB3LYP) =  -990.474643893     A.U. after   15 cycles
             Convg  =    0.8551D-08             -V/T =  2.0086
 Range of M.O.s used for correlation:     1   344
 NBasis=   344 NAE=    77 NBE=    77 NFC=     0 NFV=     0
 NROrb=    344 NOA=    77 NOB=    77 NVA=   267 NVB=   267
 Symmetrizing basis deriv contribution to polar:
 IMax=3 JMax=2 DiffMx= 0.00D+00
 G2DrvN: will do    43 centers at a time, making    1 passes doing MaxLOS=2.
 Calling FoFCou, ICntrl=  3107 FMM=F I1Cent=   0 AccDes= 0.00D+00.
 FoFDir/FoFCou used for L=0 through L=2.
 End of G2Drv Frequency-dependent properties file   721 does not exist.
 End of G2Drv Frequency-dependent properties file   722 does not exist.
          IDoAtm=111111111111111111111111111111111111111111
          Differentiating once with respect to nuclear coordinates.
          There are   129 degrees of freedom in the 1st order CPHF.  IDoFFX=5.
    123 vectors produced by pass  0 Test12= 2.06D-10 1.00D-07 XBig12= 1.96D-01 8.32D-02.
 AX will form   123 AO Fock derivatives at one time.
    123 vectors produced by pass  1 Test12= 2.06D-10 1.00D-07 XBig12= 2.30D-02 5.57D-02.
    123 vectors produced by pass  2 Test12= 2.06D-10 1.00D-07 XBig12= 3.65D-05 1.13D-03.
    123 vectors produced by pass  3 Test12= 2.06D-10 1.00D-07 XBig12= 8.76D-08 7.52D-05.
     69 vectors produced by pass  4 Test12= 2.06D-10 1.00D-07 XBig12= 7.68D-11 1.51D-06.
 Inverted reduced A of dimension   561 with in-core refinement.
 End of Minotr Frequency-dependent properties file   721 does not exist.
 End of Minotr Frequency-dependent properties file   722 does not exist.

 **********************************************************************

            Population analysis using the SCF density.

 **********************************************************************

 Orbital symmetries:
       Occupied  (A) (A) (A) (A) (A) (A) (A) (A) (A) (A) (A) (A)
                 (A) (A) (A) (A) (A) (A) (A) (A) (A) (A) (A) (A)
                 (A) (A) (A) (A) (A) (A) (A) (A) (A) (A) (A) (A)
                 (A) (A) (A) (A) (A) (A) (A) (A) (A) (A) (A) (A)
                 (A) (A) (A) (A) (A) (A) (A) (A) (A) (A) (A) (A)
                 (A) (A) (A) (A) (A) (A) (A) (A) (A) (A) (A) (A)
                 (A) (A) (A) (A) (A)
       Virtual   (A) (A) (A) (A) (A) (A) (A) (A) (A) (A) (A) (A)
                 (A) (A) (A) (A) (A) (A) (A) (A) (A) (A) (A) (A)
                 (A) (A) (A) (A) (A) (A) (A) (A) (A) (A) (A) (A)
                 (A) (A) (A) (A) (A) (A) (A) (A) (A) (A) (A) (A)
                 (A) (A) (A) (A) (A) (A) (A) (A) (A) (A) (A) (A)
                 (A) (A) (A) (A) (A) (A) (A) (A) (A) (A) (A) (A)
                 (A) (A) (A) (A) (A) (A) (A) (A) (A) (A) (A) (A)
                 (A) (A) (A) (A) (A) (A) (A) (A) (A) (A) (A) (A)
                 (A) (A) (A) (A) (A) (A) (A) (A) (A) (A) (A) (A)
                 (A) (A) (A) (A) (A) (A) (A) (A) (A) (A) (A) (A)
                 (A) (A) (A) (A) (A) (A) (A) (A) (A) (A) (A) (A)
                 (A) (A) (A) (A) (A) (A) (A) (A) (A) (A) (A) (A)
                 (A) (A) (A) (A) (A) (A) (A) (A) (A) (A) (A) (A)
                 (A) (A) (A) (A) (A) (A) (A) (A) (A) (A) (A) (A)
                 (A) (A) (A) (A) (A) (A) (A) (A) (A) (A) (A) (A)
                 (A) (A) (A) (A) (A) (A) (A) (A) (A) (A) (A) (A)
                 (A) (A) (A) (A) (A) (A) (A) (A) (A) (A) (A) (A)
                 (A) (A) (A) (A) (A) (A) (A) (A) (A) (A) (A) (A)
                 (A) (A) (A) (A) (A) (A) (A) (A) (A) (A) (A) (A)
                 (A) (A) (A) (A) (A) (A) (A) (A) (A) (A) (A) (A)
                 (A) (A) (A) (A) (A) (A) (A) (A) (A) (A) (A) (A)
                 (A) (A) (A) (A) (A) (A) (A) (A) (A) (A) (A) (A)
                 (A) (A) (A)
 The electronic state is 1-A.
 Alpha  occ. eigenvalues --  -19.12203 -19.11321 -19.10061 -19.09377 -14.37742
 Alpha  occ. eigenvalues --  -14.37420 -14.36112 -14.35013 -10.29572 -10.28878
 Alpha  occ. eigenvalues --  -10.27676 -10.27345 -10.24039 -10.23951 -10.23313
 Alpha  occ. eigenvalues --  -10.22822 -10.18129 -10.18076 -10.17638 -10.16678
 Alpha  occ. eigenvalues --   -1.04898  -1.04482  -1.02574  -1.01840  -0.94118
 Alpha  occ. eigenvalues --   -0.94012  -0.92622  -0.91754  -0.80159  -0.78468
 Alpha  occ. eigenvalues --   -0.75781  -0.71935  -0.71811  -0.67197  -0.65925
 Alpha  occ. eigenvalues --   -0.63708  -0.61168  -0.59860  -0.58012  -0.57199
 Alpha  occ. eigenvalues --   -0.56127  -0.53320  -0.50006  -0.49862  -0.48926
 Alpha  occ. eigenvalues --   -0.47422  -0.46651  -0.46056  -0.44834  -0.44526
 Alpha  occ. eigenvalues --   -0.44247  -0.43772  -0.42814  -0.41452  -0.40839
 Alpha  occ. eigenvalues --   -0.40555  -0.40233  -0.40113  -0.39396  -0.38739
 Alpha  occ. eigenvalues --   -0.38035  -0.37745  -0.37500  -0.37098  -0.36713
 Alpha  occ. eigenvalues --   -0.36272  -0.35278  -0.34947  -0.33804  -0.27784
 Alpha  occ. eigenvalues --   -0.26882  -0.26239  -0.25522  -0.24815  -0.24591
 Alpha  occ. eigenvalues --   -0.23139  -0.22648
 Alpha virt. eigenvalues --    0.01580   0.02203   0.02865   0.04259   0.05475
 Alpha virt. eigenvalues --    0.06283   0.09822   0.10303   0.11242   0.13073
 Alpha virt. eigenvalues --    0.13600   0.13830   0.14128   0.14636   0.14797
 Alpha virt. eigenvalues --    0.15473   0.15763   0.16363   0.16588   0.17316
 Alpha virt. eigenvalues --    0.17754   0.17958   0.18538   0.19319   0.19804
 Alpha virt. eigenvalues --    0.19966   0.20233   0.20636   0.21701   0.22597
 Alpha virt. eigenvalues --    0.23659   0.24075   0.24725   0.25683   0.26469
 Alpha virt. eigenvalues --    0.28366   0.30326   0.34085   0.34618   0.35551
 Alpha virt. eigenvalues --    0.36703   0.40270   0.42274   0.43263   0.43974
 Alpha virt. eigenvalues --    0.49310   0.50047   0.50233   0.51808   0.52113
 Alpha virt. eigenvalues --    0.52407   0.53498   0.53838   0.54662   0.55214
 Alpha virt. eigenvalues --    0.55738   0.56606   0.57293   0.57996   0.58254
 Alpha virt. eigenvalues --    0.58830   0.59891   0.61602   0.62718   0.63212
 Alpha virt. eigenvalues --    0.63932   0.65354   0.66457   0.67430   0.68128
 Alpha virt. eigenvalues --    0.69141   0.69619   0.70696   0.71549   0.72751
 Alpha virt. eigenvalues --    0.73131   0.74234   0.75097   0.76207   0.77279
 Alpha virt. eigenvalues --    0.78163   0.79214   0.79674   0.81197   0.82171
 Alpha virt. eigenvalues --    0.83209   0.83362   0.84089   0.85003   0.85802
 Alpha virt. eigenvalues --    0.86542   0.87186   0.87284   0.88147   0.88708
 Alpha virt. eigenvalues --    0.89659   0.89706   0.90059   0.90981   0.91213
 Alpha virt. eigenvalues --    0.91599   0.92027   0.92571   0.93090   0.93935
 Alpha virt. eigenvalues --    0.94109   0.94553   0.94860   0.96252   0.97050
 Alpha virt. eigenvalues --    0.97376   0.98769   0.99950   1.01158   1.02177
 Alpha virt. eigenvalues --    1.02654   1.05023   1.07403   1.08130   1.09962
 Alpha virt. eigenvalues --    1.10740   1.11645   1.13459   1.17086   1.17775
 Alpha virt. eigenvalues --    1.19883   1.23745   1.25607   1.26133   1.28038
 Alpha virt. eigenvalues --    1.29071   1.29927   1.31054   1.31383   1.34142
 Alpha virt. eigenvalues --    1.35004   1.37433   1.37612   1.39355   1.39658
 Alpha virt. eigenvalues --    1.42133   1.45140   1.46054   1.47184   1.47807
 Alpha virt. eigenvalues --    1.49151   1.51032   1.51448   1.56750   1.57979
 Alpha virt. eigenvalues --    1.63346   1.66235   1.68131   1.68499   1.70971
 Alpha virt. eigenvalues --    1.72326   1.73591   1.75517   1.75774   1.77163
 Alpha virt. eigenvalues --    1.78026   1.79616   1.80648   1.82281   1.83029
 Alpha virt. eigenvalues --    1.83632   1.83942   1.84437   1.84621   1.84891
 Alpha virt. eigenvalues --    1.85666   1.86987   1.88162   1.89435   1.90330
 Alpha virt. eigenvalues --    1.91604   1.92728   1.93781   1.94283   1.95511
 Alpha virt. eigenvalues --    1.96760   1.97328   2.00247   2.01390   2.01934
 Alpha virt. eigenvalues --    2.03969   2.04860   2.05667   2.07259   2.07693
 Alpha virt. eigenvalues --    2.08689   2.11637   2.14101   2.14808   2.16984
 Alpha virt. eigenvalues --    2.17453   2.19784   2.20717   2.21268   2.24483
 Alpha virt. eigenvalues --    2.24713   2.26451   2.27631   2.28170   2.29324
 Alpha virt. eigenvalues --    2.30004   2.32015   2.32610   2.33052   2.34014
 Alpha virt. eigenvalues --    2.36147   2.37451   2.39263   2.42118   2.44330
 Alpha virt. eigenvalues --    2.44741   2.45641   2.46628   2.47878   2.51036
 Alpha virt. eigenvalues --    2.52662   2.57467   2.57710   2.60864   2.62722
 Alpha virt. eigenvalues --    2.63861   2.64530   2.66554   2.69729   2.71889
 Alpha virt. eigenvalues --    2.73337   2.76042   2.78550   2.83038   2.83259
 Alpha virt. eigenvalues --    2.88389   2.90604   2.94180   2.96561   2.98020
 Alpha virt. eigenvalues --    2.99219   3.02608   3.05328   3.15328   3.17307
 Alpha virt. eigenvalues --    3.23578   3.24561   3.96342   3.99672   4.01551
 Alpha virt. eigenvalues --    4.02824   4.06020   4.07997   4.15862   4.20849
 Alpha virt. eigenvalues --    4.21948   4.22984   4.27904   4.29618   4.32864
 Alpha virt. eigenvalues --    4.42342   4.44641   4.46450   4.51332   4.57905
 Alpha virt. eigenvalues --    4.63454   4.68201
          Condensed to atoms (all electrons):
              1          2          3          4          5          6
     1  H    0.507121   0.360181  -0.021755  -0.021660  -0.018291   0.005070
     2  C    0.360181   5.325549   0.351167   0.351852   0.357787  -0.079443
     3  H   -0.021755   0.351167   0.550059  -0.026507  -0.025017   0.001471
     4  H   -0.021660   0.351852  -0.026507   0.550802  -0.026510   0.001294
     5  C   -0.018291   0.357787  -0.025017  -0.026510   4.336984   0.592943
     6  O    0.005070  -0.079443   0.001471   0.001294   0.592943   8.086200
     7  N    0.004613  -0.135049   0.004177   0.004586   0.228483  -0.108143
     8  H   -0.000144  -0.001232   0.001157   0.000851  -0.015904   0.003060
     9  C   -0.000147   0.007429  -0.000277   0.000006  -0.021753   0.013381
    10  H    0.000002   0.000149  -0.000020  -0.000002  -0.001437   0.004981
    11  C    0.000014  -0.000752   0.000017   0.000031  -0.006260  -0.018473
    12  H    0.000000  -0.000004  -0.000001   0.000002   0.000890  -0.000160
    13  H    0.000000   0.000007   0.000000  -0.000001   0.000336   0.000332
    14  H    0.000000   0.000616  -0.000008  -0.000055   0.003086   0.023657
    15  C    0.000000  -0.000053  -0.000016  -0.000014   0.006696   0.000812
    16  O    0.000000  -0.000048   0.000000  -0.000001   0.000506  -0.000005
    17  N    0.000000   0.000000   0.000000   0.000000  -0.000070  -0.000003
    18  H    0.000000   0.000000   0.000000   0.000000   0.000001   0.000003
    19  C    0.000000   0.000000   0.000000   0.000000   0.000001   0.000000
    20  H    0.000000   0.000000   0.000000   0.000000   0.000000   0.000000
    21  C    0.000000   0.000000   0.000000   0.000000   0.000000   0.000000
    22  H    0.000000   0.000000   0.000000   0.000000   0.000000   0.000000
    23  H    0.000000   0.000000   0.000000   0.000000   0.000000   0.000000
    24  H    0.000000   0.000000   0.000000   0.000000   0.000000   0.000000
    25  C    0.000000   0.000000   0.000000   0.000000   0.000000   0.000000
    26  O    0.000000   0.000000   0.000000   0.000000   0.000000   0.000000
    27  N    0.000000   0.000000   0.000000   0.000000   0.000000   0.000000
    28  H    0.000000   0.000000   0.000000   0.000000   0.000000   0.000000
    29  C    0.000000   0.000000   0.000000   0.000000   0.000000   0.000000
    30  H    0.000000   0.000000   0.000000   0.000000   0.000000   0.000000
    31  C    0.000000   0.000000   0.000000   0.000000   0.000000   0.000000
    32  H    0.000000   0.000000   0.000000   0.000000   0.000000   0.000000
    33  H    0.000000   0.000000   0.000000   0.000000   0.000000   0.000000
    34  H    0.000000   0.000000   0.000000   0.000000   0.000000   0.000000
    35  C    0.000000   0.000000   0.000000   0.000000   0.000000   0.000000
    36  O    0.000000   0.000000   0.000000   0.000000   0.000000   0.000000
    37  N    0.000000   0.000000   0.000000   0.000000   0.000000   0.000000
    38  H    0.000000   0.000000   0.000000   0.000000   0.000000   0.000000
    39  C    0.000000   0.000000   0.000000   0.000000   0.000000   0.000000
    40  H    0.000000   0.000000   0.000000   0.000000   0.000000   0.000000
    41  H    0.000000   0.000000   0.000000   0.000000   0.000000   0.000000
    42  H    0.000000   0.000000   0.000000   0.000000   0.000000   0.000000
              7          8          9         10         11         12
     1  H    0.004613  -0.000144  -0.000147   0.000002   0.000014   0.000000
     2  C   -0.135049  -0.001232   0.007429   0.000149  -0.000752  -0.000004
     3  H    0.004177   0.001157  -0.000277  -0.000020   0.000017  -0.000001
     4  H    0.004586   0.000851   0.000006  -0.000002   0.000031   0.000002
     5  C    0.228483  -0.015904  -0.021753  -0.001437  -0.006260   0.000890
     6  O   -0.108143   0.003060   0.013381   0.004981  -0.018473  -0.000160
     7  N    7.194161   0.290703   0.250103  -0.048972  -0.054876   0.000162
     8  H    0.290703   0.386760  -0.052439   0.004151   0.004513   0.000628
     9  C    0.250103  -0.052439   5.093570   0.370578   0.345104  -0.037197
    10  H   -0.048972   0.004151   0.370578   0.586515  -0.051757   0.006263
    11  C   -0.054876   0.004513   0.345104  -0.051757   5.207853   0.367982
    12  H    0.000162   0.000628  -0.037197   0.006263   0.367982   0.561227
    13  H    0.005243  -0.000126  -0.036307  -0.000024   0.350508  -0.027016
    14  H   -0.010718  -0.000305  -0.020793  -0.005972   0.359430  -0.025609
    15  C   -0.026256   0.001610   0.307531  -0.035055  -0.046378  -0.002691
    16  O   -0.009053   0.030802  -0.082571   0.001007  -0.000754   0.000937
    17  N    0.003383   0.001368  -0.128233   0.001151   0.003641  -0.000452
    18  H    0.000054  -0.000053   0.001369   0.000990   0.000753  -0.000115
    19  C   -0.000068  -0.000038   0.006292  -0.000298   0.000154  -0.000103
    20  H    0.000001   0.000000  -0.000153   0.000003   0.000006   0.000002
    21  C    0.000006   0.000016  -0.000373   0.000003  -0.000043   0.000045
    22  H   -0.000001  -0.000012   0.000468  -0.000004  -0.000055  -0.000001
    23  H    0.000000   0.000000   0.000005   0.000000   0.000000   0.000000
    24  H    0.000000  -0.000001  -0.000076   0.000000   0.000055   0.000037
    25  C    0.000002   0.000004  -0.000544   0.000036   0.000014   0.000002
    26  O    0.000000   0.000007  -0.000018   0.000005  -0.000001   0.000000
    27  N    0.000000   0.000000  -0.000031   0.000002   0.000000   0.000000
    28  H    0.000000   0.000000   0.000001   0.000001   0.000000   0.000000
    29  C    0.000000   0.000000   0.000001   0.000000   0.000000   0.000000
    30  H    0.000000   0.000000   0.000000   0.000000   0.000000   0.000000
    31  C    0.000000   0.000000  -0.000002   0.000001   0.000000   0.000000
    32  H    0.000000   0.000000   0.000000   0.000002   0.000000   0.000000
    33  H    0.000000   0.000000   0.000000   0.000000   0.000000   0.000000
    34  H    0.000000   0.000000   0.000001  -0.000001   0.000000   0.000000
    35  C    0.000000   0.000000   0.000000   0.000000   0.000000   0.000000
    36  O    0.000000   0.000000   0.000000   0.000000   0.000000   0.000000
    37  N    0.000000   0.000000   0.000000   0.000000   0.000000   0.000000
    38  H    0.000000   0.000000   0.000000   0.000000   0.000000   0.000000
    39  C    0.000000   0.000000   0.000000   0.000000   0.000000   0.000000
    40  H    0.000000   0.000000   0.000000   0.000000   0.000000   0.000000
    41  H    0.000000   0.000000   0.000000   0.000000   0.000000   0.000000
    42  H    0.000000   0.000000   0.000000   0.000000   0.000000   0.000000
             13         14         15         16         17         18
     1  H    0.000000   0.000000   0.000000   0.000000   0.000000   0.000000
     2  C    0.000007   0.000616  -0.000053  -0.000048   0.000000   0.000000
     3  H    0.000000  -0.000008  -0.000016   0.000000   0.000000   0.000000
     4  H   -0.000001  -0.000055  -0.000014  -0.000001   0.000000   0.000000
     5  C    0.000336   0.003086   0.006696   0.000506  -0.000070   0.000001
     6  O    0.000332   0.023657   0.000812  -0.000005  -0.000003   0.000003
     7  N    0.005243  -0.010718  -0.026256  -0.009053   0.003383   0.000054
     8  H   -0.000126  -0.000305   0.001610   0.030802   0.001368  -0.000053
     9  C   -0.036307  -0.020793   0.307531  -0.082571  -0.128233   0.001369
    10  H   -0.000024  -0.005972  -0.035055   0.001007   0.001151   0.000990
    11  C    0.350508   0.359430  -0.046378  -0.000754   0.003641   0.000753
    12  H   -0.027016  -0.025609  -0.002691   0.000937  -0.000452  -0.000115
    13  H    0.606230  -0.021528  -0.008459  -0.000032   0.003580   0.007414
    14  H   -0.021528   0.483899   0.003999  -0.000082   0.000165  -0.000193
    15  C   -0.008459   0.003999   4.424121   0.570092   0.232563  -0.021394
    16  O   -0.000032  -0.000082   0.570092   8.099572  -0.105049   0.003782
    17  N    0.003580   0.000165   0.232563  -0.105049   7.191959   0.302848
    18  H    0.007414  -0.000193  -0.021394   0.003782   0.302848   0.401793
    19  C    0.000121   0.000003  -0.020041   0.011918   0.241545  -0.028899
    20  H   -0.000018   0.000000   0.006000   0.000153  -0.037936  -0.006637
    21  C   -0.000016  -0.000001  -0.007152  -0.014825  -0.056450   0.004458
    22  H   -0.000006   0.000000   0.004818   0.015372  -0.009567  -0.000135
    23  H    0.000000   0.000000   0.000276   0.000365   0.004580  -0.000143
    24  H    0.000041   0.000001   0.000137  -0.000025   0.000051   0.000029
    25  C    0.000007   0.000000  -0.003620   0.000386  -0.047845   0.001873
    26  O    0.000000   0.000000   0.004242  -0.008447  -0.001280  -0.000111
    27  N   -0.000001   0.000000  -0.000262  -0.000240   0.002863   0.000086
    28  H    0.000000   0.000000   0.000123  -0.000010   0.000908   0.000034
    29  C    0.000000   0.000000  -0.000031   0.000029  -0.000130   0.000004
    30  H    0.000000   0.000000   0.000000   0.000001  -0.000013   0.000000
    31  C    0.000000   0.000000   0.000049  -0.000071   0.000064  -0.000002
    32  H    0.000000   0.000000   0.000024   0.000003  -0.000002   0.000002
    33  H    0.000000   0.000000   0.000000   0.000000  -0.000001   0.000000
    34  H    0.000000   0.000000   0.000038   0.000184  -0.000054   0.000001
    35  C    0.000000   0.000000  -0.000001   0.000000  -0.000001   0.000001
    36  O    0.000000   0.000000   0.000000   0.000000   0.000000   0.000000
    37  N    0.000000   0.000000   0.000000   0.000000   0.000000   0.000000
    38  H    0.000000   0.000000   0.000000   0.000000   0.000000   0.000000
    39  C    0.000000   0.000000   0.000000   0.000000   0.000000   0.000000
    40  H    0.000000   0.000000   0.000000   0.000000   0.000000   0.000000
    41  H    0.000000   0.000000   0.000000   0.000000   0.000000   0.000000
    42  H    0.000000   0.000000   0.000000   0.000000   0.000000   0.000000
             19         20         21         22         23         24
     1  H    0.000000   0.000000   0.000000   0.000000   0.000000   0.000000
     2  C    0.000000   0.000000   0.000000   0.000000   0.000000   0.000000
     3  H    0.000000   0.000000   0.000000   0.000000   0.000000   0.000000
     4  H    0.000000   0.000000   0.000000   0.000000   0.000000   0.000000
     5  C    0.000001   0.000000   0.000000   0.000000   0.000000   0.000000
     6  O    0.000000   0.000000   0.000000   0.000000   0.000000   0.000000
     7  N   -0.000068   0.000001   0.000006  -0.000001   0.000000   0.000000
     8  H   -0.000038   0.000000   0.000016  -0.000012   0.000000  -0.000001
     9  C    0.006292  -0.000153  -0.000373   0.000468   0.000005  -0.000076
    10  H   -0.000298   0.000003   0.000003  -0.000004   0.000000   0.000000
    11  C    0.000154   0.000006  -0.000043  -0.000055   0.000000   0.000055
    12  H   -0.000103   0.000002   0.000045  -0.000001   0.000000   0.000037
    13  H    0.000121  -0.000018  -0.000016  -0.000006   0.000000   0.000041
    14  H    0.000003   0.000000  -0.000001   0.000000   0.000000   0.000001
    15  C   -0.020041   0.006000  -0.007152   0.004818   0.000276   0.000137
    16  O    0.011918   0.000153  -0.014825   0.015372   0.000365  -0.000025
    17  N    0.241545  -0.037936  -0.056450  -0.009567   0.004580   0.000051
    18  H   -0.028899  -0.006637   0.004458  -0.000135  -0.000143   0.000029
    19  C    5.109312   0.359545   0.360347  -0.023924  -0.029167  -0.033320
    20  H    0.359545   0.611088  -0.041990   0.004582  -0.001975  -0.003611
    21  C    0.360347  -0.041990   5.140831   0.374177   0.365196   0.355425
    22  H   -0.023924   0.004582   0.374177   0.460107  -0.020276  -0.026330
    23  H   -0.029167  -0.001975   0.365196  -0.020276   0.565197  -0.028497
    24  H   -0.033320  -0.003611   0.355425  -0.026330  -0.028497   0.598585
    25  C    0.311038  -0.042536  -0.043246  -0.009193  -0.001038   0.006137
    26  O   -0.092978   0.003231   0.003813   0.007126  -0.000799   0.000668
    27  N   -0.114980   0.003948   0.004367   0.000353   0.000050  -0.000082
    28  H    0.000092   0.003092   0.000030   0.000003  -0.000027  -0.000021
    29  C    0.008456  -0.000075  -0.000274  -0.000007   0.000001   0.000003
    30  H   -0.000007  -0.000048   0.000036  -0.000002   0.000001   0.000000
    31  C   -0.000888   0.000034   0.000009   0.000002   0.000000   0.000000
    32  H    0.000016  -0.000004   0.000002   0.000000   0.000000   0.000000
    33  H    0.000008   0.000000   0.000000   0.000000   0.000000   0.000000
    34  H    0.000626  -0.000016  -0.000011  -0.000007   0.000001   0.000000
    35  C   -0.000023  -0.000059  -0.000001   0.000000   0.000000   0.000000
    36  O   -0.000070  -0.000013   0.000000   0.000000   0.000000   0.000000
    37  N    0.000000   0.000000   0.000000   0.000000   0.000000   0.000000
    38  H    0.000000   0.000000   0.000000   0.000000   0.000000   0.000000
    39  C    0.000000   0.000000   0.000000   0.000000   0.000000   0.000000
    40  H    0.000000   0.000000   0.000000   0.000000   0.000000   0.000000
    41  H    0.000000   0.000000   0.000000   0.000000   0.000000   0.000000
    42  H    0.000000   0.000000   0.000000   0.000000   0.000000   0.000000
             25         26         27         28         29         30
     1  H    0.000000   0.000000   0.000000   0.000000   0.000000   0.000000
     2  C    0.000000   0.000000   0.000000   0.000000   0.000000   0.000000
     3  H    0.000000   0.000000   0.000000   0.000000   0.000000   0.000000
     4  H    0.000000   0.000000   0.000000   0.000000   0.000000   0.000000
     5  C    0.000000   0.000000   0.000000   0.000000   0.000000   0.000000
     6  O    0.000000   0.000000   0.000000   0.000000   0.000000   0.000000
     7  N    0.000002   0.000000   0.000000   0.000000   0.000000   0.000000
     8  H    0.000004   0.000007   0.000000   0.000000   0.000000   0.000000
     9  C   -0.000544  -0.000018  -0.000031   0.000001   0.000001   0.000000
    10  H    0.000036   0.000005   0.000002   0.000001   0.000000   0.000000
    11  C    0.000014  -0.000001   0.000000   0.000000   0.000000   0.000000
    12  H    0.000002   0.000000   0.000000   0.000000   0.000000   0.000000
    13  H    0.000007   0.000000  -0.000001   0.000000   0.000000   0.000000
    14  H    0.000000   0.000000   0.000000   0.000000   0.000000   0.000000
    15  C   -0.003620   0.004242  -0.000262   0.000123  -0.000031   0.000000
    16  O    0.000386  -0.008447  -0.000240  -0.000010   0.000029   0.000001
    17  N   -0.047845  -0.001280   0.002863   0.000908  -0.000130  -0.000013
    18  H    0.001873  -0.000111   0.000086   0.000034   0.000004   0.000000
    19  C    0.311038  -0.092978  -0.114980   0.000092   0.008456  -0.000007
    20  H   -0.042536   0.003231   0.003948   0.003092  -0.000075  -0.000048
    21  C   -0.043246   0.003813   0.004367   0.000030  -0.000274   0.000036
    22  H   -0.009193   0.007126   0.000353   0.000003  -0.000007  -0.000002
    23  H   -0.001038  -0.000799   0.000050  -0.000027   0.000001   0.000001
    24  H    0.006137   0.000668  -0.000082  -0.000021   0.000003   0.000000
    25  C    4.406716   0.539479   0.263538  -0.019473  -0.022616  -0.001183
    26  O    0.539479   8.131045  -0.098750   0.003009   0.012262   0.005000
    27  N    0.263538  -0.098750   7.172373   0.288951   0.244218  -0.049046
    28  H   -0.019473   0.003009   0.288951   0.392592  -0.051415   0.004222
    29  C   -0.022616   0.012262   0.244218  -0.051415   5.100818   0.369895
    30  H   -0.001183   0.005000  -0.049046   0.004222   0.369895   0.579938
    31  C   -0.005235  -0.017267  -0.055229   0.004439   0.348182  -0.049997
    32  H    0.000639  -0.000152  -0.000120   0.000675  -0.037634   0.006190
    33  H    0.000247   0.000299   0.005256  -0.000123  -0.036161  -0.000157
    34  H    0.002984   0.022229  -0.010029  -0.000303  -0.020932  -0.005860
    35  C    0.005862   0.000663  -0.025164   0.000175   0.307433  -0.033060
    36  O    0.000726  -0.000004  -0.008994   0.032258  -0.090072   0.001299
    37  N   -0.000069  -0.000001   0.003330   0.001283  -0.121936   0.000693
    38  H    0.000003   0.000003   0.000052  -0.000051   0.000772   0.001071
    39  C    0.000002   0.000000  -0.000068  -0.000012   0.005787  -0.000274
    40  H    0.000000   0.000000   0.000000  -0.000033   0.001191  -0.000035
    41  H    0.000000   0.000000   0.000000   0.000000  -0.000195   0.000021
    42  H    0.000000   0.000000   0.000001   0.000000  -0.000029  -0.000006
             31         32         33         34         35         36
     1  H    0.000000   0.000000   0.000000   0.000000   0.000000   0.000000
     2  C    0.000000   0.000000   0.000000   0.000000   0.000000   0.000000
     3  H    0.000000   0.000000   0.000000   0.000000   0.000000   0.000000
     4  H    0.000000   0.000000   0.000000   0.000000   0.000000   0.000000
     5  C    0.000000   0.000000   0.000000   0.000000   0.000000   0.000000
     6  O    0.000000   0.000000   0.000000   0.000000   0.000000   0.000000
     7  N    0.000000   0.000000   0.000000   0.000000   0.000000   0.000000
     8  H    0.000000   0.000000   0.000000   0.000000   0.000000   0.000000
     9  C   -0.000002   0.000000   0.000000   0.000001   0.000000   0.000000
    10  H    0.000001   0.000002   0.000000  -0.000001   0.000000   0.000000
    11  C    0.000000   0.000000   0.000000   0.000000   0.000000   0.000000
    12  H    0.000000   0.000000   0.000000   0.000000   0.000000   0.000000
    13  H    0.000000   0.000000   0.000000   0.000000   0.000000   0.000000
    14  H    0.000000   0.000000   0.000000   0.000000   0.000000   0.000000
    15  C    0.000049   0.000024   0.000000   0.000038  -0.000001   0.000000
    16  O   -0.000071   0.000003   0.000000   0.000184   0.000000   0.000000
    17  N    0.000064  -0.000002  -0.000001  -0.000054  -0.000001   0.000000
    18  H   -0.000002   0.000002   0.000000   0.000001   0.000001   0.000000
    19  C   -0.000888   0.000016   0.000008   0.000626  -0.000023  -0.000070
    20  H    0.000034  -0.000004   0.000000  -0.000016  -0.000059  -0.000013
    21  C    0.000009   0.000002   0.000000  -0.000011  -0.000001   0.000000
    22  H    0.000002   0.000000   0.000000  -0.000007   0.000000   0.000000
    23  H    0.000000   0.000000   0.000000   0.000001   0.000000   0.000000
    24  H    0.000000   0.000000   0.000000   0.000000   0.000000   0.000000
    25  C   -0.005235   0.000639   0.000247   0.002984   0.005862   0.000726
    26  O   -0.017267  -0.000152   0.000299   0.022229   0.000663  -0.000004
    27  N   -0.055229  -0.000120   0.005256  -0.010029  -0.025164  -0.008994
    28  H    0.004439   0.000675  -0.000123  -0.000303   0.000175   0.032258
    29  C    0.348182  -0.037634  -0.036161  -0.020932   0.307433  -0.090072
    30  H   -0.049997   0.006190  -0.000157  -0.005860  -0.033060   0.001299
    31  C    5.198730   0.368735   0.352099   0.361256  -0.045849  -0.000654
    32  H    0.368735   0.561356  -0.027011  -0.025276  -0.002657   0.000977
    33  H    0.352099  -0.027011   0.602388  -0.021318  -0.008150  -0.000026
    34  H    0.361256  -0.025276  -0.021318   0.475277   0.003778  -0.000088
    35  C   -0.045849  -0.002657  -0.008150   0.003778   4.364816   0.598480
    36  O   -0.000654   0.000977  -0.000026  -0.000088   0.598480   8.091965
    37  N    0.002527  -0.000498   0.003430   0.000219   0.273470  -0.101593
    38  H    0.000692  -0.000106   0.007093  -0.000193  -0.021268   0.003605
    39  C    0.000022  -0.000073   0.000083   0.000005  -0.024595  -0.009093
    40  H   -0.000071  -0.000007  -0.000006   0.000001  -0.001315   0.020970
    41  H   -0.000005   0.000001   0.000004   0.000000   0.001314   0.000569
    42  H    0.000013   0.000002   0.000002  -0.000002   0.001368   0.000569
             37         38         39         40         41         42
     1  H    0.000000   0.000000   0.000000   0.000000   0.000000   0.000000
     2  C    0.000000   0.000000   0.000000   0.000000   0.000000   0.000000
     3  H    0.000000   0.000000   0.000000   0.000000   0.000000   0.000000
     4  H    0.000000   0.000000   0.000000   0.000000   0.000000   0.000000
     5  C    0.000000   0.000000   0.000000   0.000000   0.000000   0.000000
     6  O    0.000000   0.000000   0.000000   0.000000   0.000000   0.000000
     7  N    0.000000   0.000000   0.000000   0.000000   0.000000   0.000000
     8  H    0.000000   0.000000   0.000000   0.000000   0.000000   0.000000
     9  C    0.000000   0.000000   0.000000   0.000000   0.000000   0.000000
    10  H    0.000000   0.000000   0.000000   0.000000   0.000000   0.000000
    11  C    0.000000   0.000000   0.000000   0.000000   0.000000   0.000000
    12  H    0.000000   0.000000   0.000000   0.000000   0.000000   0.000000
    13  H    0.000000   0.000000   0.000000   0.000000   0.000000   0.000000
    14  H    0.000000   0.000000   0.000000   0.000000   0.000000   0.000000
    15  C    0.000000   0.000000   0.000000   0.000000   0.000000   0.000000
    16  O    0.000000   0.000000   0.000000   0.000000   0.000000   0.000000
    17  N    0.000000   0.000000   0.000000   0.000000   0.000000   0.000000
    18  H    0.000000   0.000000   0.000000   0.000000   0.000000   0.000000
    19  C    0.000000   0.000000   0.000000   0.000000   0.000000   0.000000
    20  H    0.000000   0.000000   0.000000   0.000000   0.000000   0.000000
    21  C    0.000000   0.000000   0.000000   0.000000   0.000000   0.000000
    22  H    0.000000   0.000000   0.000000   0.000000   0.000000   0.000000
    23  H    0.000000   0.000000   0.000000   0.000000   0.000000   0.000000
    24  H    0.000000   0.000000   0.000000   0.000000   0.000000   0.000000
    25  C   -0.000069   0.000003   0.000002   0.000000   0.000000   0.000000
    26  O   -0.000001   0.000003   0.000000   0.000000   0.000000   0.000000
    27  N    0.003330   0.000052  -0.000068   0.000000   0.000000   0.000001
    28  H    0.001283  -0.000051  -0.000012  -0.000033   0.000000   0.000000
    29  C   -0.121936   0.000772   0.005787   0.001191  -0.000195  -0.000029
    30  H    0.000693   0.001071  -0.000274  -0.000035   0.000021  -0.000006
    31  C    0.002527   0.000692   0.000022  -0.000071  -0.000005   0.000013
    32  H   -0.000498  -0.000106  -0.000073  -0.000007   0.000001   0.000002
    33  H    0.003430   0.007093   0.000083  -0.000006   0.000004   0.000002
    34  H    0.000219  -0.000193   0.000005   0.000001   0.000000  -0.000002
    35  C    0.273470  -0.021268  -0.024595  -0.001315   0.001314   0.001368
    36  O   -0.101593   0.003605  -0.009093   0.020970   0.000569   0.000569
    37  N    7.082673   0.303199   0.265822  -0.036690  -0.043220  -0.044231
[...]
    33  H    0.000000   0.000000   0.000000   0.000000   0.000000   0.000000
    34  H    0.000000   0.000000   0.000024   0.000018  -0.000034   0.000001
    35  C    0.000000   0.000000   0.000000   0.000000  -0.000001   0.000001
    36  O    0.000000   0.000000   0.000000   0.000000   0.000000   0.000000
    37  N    0.000000   0.000000   0.000000   0.000000   0.000000   0.000000
    38  H    0.000000   0.000000   0.000000   0.000000   0.000000   0.000000
    39  C    0.000000   0.000000   0.000000   0.000000   0.000000   0.000000
    40  H    0.000000   0.000000   0.000000   0.000000   0.000000   0.000000
    41  H    0.000000   0.000000   0.000000   0.000000   0.000000   0.000000
    42  H    0.000000   0.000000   0.000000   0.000000   0.000000   0.000000
             19         20         21         22         23         24
     1  H    0.000000   0.000000   0.000000   0.000000   0.000000   0.000000
     2  C    0.000000   0.000000   0.000000   0.000000   0.000000   0.000000
     3  H    0.000000   0.000000   0.000000   0.000000   0.000000   0.000000
     4  H    0.000000   0.000000   0.000000   0.000000   0.000000   0.000000
     5  C    0.000001   0.000000   0.000000   0.000000   0.000000   0.000000
     6  O    0.000000   0.000000   0.000000   0.000000   0.000000   0.000000
     7  N   -0.000074   0.000001   0.000002   0.000000   0.000000   0.000000
     8  H   -0.000042   0.000000   0.000004  -0.000008   0.000000   0.000000
     9  C    0.005137  -0.000196  -0.000133   0.000196   0.000006  -0.000060
    10  H   -0.000204  -0.000005   0.000001  -0.000003   0.000000   0.000000
    11  C   -0.000073   0.000011  -0.000017  -0.000010   0.000000   0.000024
    12  H   -0.000025   0.000000   0.000007  -0.000004   0.000000   0.000008
    13  H    0.000002  -0.000010  -0.000015  -0.000002   0.000000   0.000028
    14  H    0.000003   0.000000   0.000000   0.000000   0.000000   0.000000
    15  C   -0.017671   0.005346  -0.005152   0.003523   0.000204   0.000078
    16  O    0.007453   0.000036  -0.004513   0.009466   0.000171  -0.000245
    17  N    0.242383  -0.039869  -0.053588  -0.006305   0.003989   0.000177
    18  H   -0.029130  -0.007401   0.004690  -0.000071  -0.000139  -0.000017
    19  C    5.076871   0.360718   0.354504  -0.027543  -0.027898  -0.029763
    20  H    0.360718   0.613755  -0.039989   0.004616  -0.002858  -0.003160
    21  C    0.354504  -0.039989   5.123122   0.374333   0.363205   0.361575
    22  H   -0.027543   0.004616   0.374333   0.475799  -0.022345  -0.025647
    23  H   -0.027898  -0.002858   0.363205  -0.022345   0.567605  -0.028985
    24  H   -0.029763  -0.003160   0.361575  -0.025647  -0.028985   0.578204
    25  C    0.315663  -0.043681  -0.038986  -0.007021  -0.000971   0.004936
    26  O   -0.081279   0.002830   0.003078   0.007901  -0.000406   0.000316
    27  N   -0.106441   0.004345   0.003567   0.000406   0.000102  -0.000088
    28  H   -0.000182   0.003016   0.000002  -0.000002  -0.000032  -0.000014
    29  C    0.007908  -0.000004  -0.000225  -0.000006  -0.000004   0.000002
    30  H    0.000312  -0.000064   0.000030  -0.000004  -0.000002   0.000000
    31  C   -0.000536   0.000021   0.000001   0.000001   0.000000   0.000000
    32  H    0.000015  -0.000002   0.000000   0.000000   0.000000   0.000000
    33  H    0.000004   0.000000   0.000000   0.000000   0.000000   0.000000
    34  H    0.000232  -0.000008  -0.000002  -0.000002   0.000000   0.000000
    35  C   -0.000069  -0.000060   0.000000   0.000000   0.000000   0.000000
    36  O   -0.000090  -0.000030   0.000000   0.000000   0.000000   0.000000
    37  N    0.000000   0.000000   0.000000   0.000000   0.000000   0.000000
    38  H    0.000000   0.000000   0.000000   0.000000   0.000000   0.000000
    39  C    0.000000   0.000000   0.000000   0.000000   0.000000   0.000000
    40  H    0.000000   0.000000   0.000000   0.000000   0.000000   0.000000
    41  H    0.000000   0.000000   0.000000   0.000000   0.000000   0.000000
    42  H    0.000000   0.000000   0.000000   0.000000   0.000000   0.000000
             25         26         27         28         29         30
     1  H    0.000000   0.000000   0.000000   0.000000   0.000000   0.000000
     2  C    0.000000   0.000000   0.000000   0.000000   0.000000   0.000000
     3  H    0.000000   0.000000   0.000000   0.000000   0.000000   0.000000
     4  H    0.000000   0.000000   0.000000   0.000000   0.000000   0.000000
     5  C    0.000000   0.000000   0.000000   0.000000   0.000000   0.000000
     6  O    0.000000   0.000000   0.000000   0.000000   0.000000   0.000000
     7  N    0.000000   0.000000   0.000000   0.000000   0.000000   0.000000
     8  H    0.000004   0.000003   0.000000   0.000000   0.000000   0.000000
     9  C   -0.000262   0.000007  -0.000029  -0.000002   0.000000   0.000000
    10  H    0.000038   0.000002   0.000001   0.000002   0.000000   0.000000
    11  C   -0.000001   0.000000   0.000000   0.000000   0.000000   0.000000
    12  H    0.000000   0.000000   0.000000   0.000000   0.000000   0.000000
    13  H    0.000004   0.000000   0.000000   0.000000   0.000000   0.000000
    14  H    0.000000   0.000000   0.000000   0.000000   0.000000   0.000000
    15  C   -0.002444   0.002908  -0.000065   0.000057  -0.000016  -0.000002
    16  O    0.000798  -0.001697  -0.000016  -0.000004   0.000005   0.000001
    17  N   -0.047475  -0.001015   0.002223   0.000689  -0.000217  -0.000015
    18  H    0.001038  -0.000097   0.000541   0.000110  -0.000001   0.000001
    19  C    0.315663  -0.081279  -0.106441  -0.000182   0.007908   0.000312
    20  H   -0.043681   0.002830   0.004345   0.003016  -0.000004  -0.000064
    21  C   -0.038986   0.003078   0.003567   0.000002  -0.000225   0.000030
    22  H   -0.007021   0.007901   0.000406  -0.000002  -0.000006  -0.000004
    23  H   -0.000971  -0.000406   0.000102  -0.000032  -0.000004  -0.000002
    24  H    0.004936   0.000316  -0.000088  -0.000014   0.000002   0.000000
    25  C    4.392158   0.559606   0.254276  -0.015772  -0.020970  -0.000793
    26  O    0.559606   8.094417  -0.099320   0.002659   0.010109   0.009557
    27  N    0.254276  -0.099320   7.189879   0.279969   0.250574  -0.052027
    28  H   -0.015772   0.002659   0.279969   0.388888  -0.052423   0.004928
    29  C   -0.020970   0.010109   0.250574  -0.052423   5.081248   0.370148
    30  H   -0.000793   0.009557  -0.052027   0.004928   0.370148   0.574804
    31  C   -0.003994  -0.006552  -0.054231   0.003357   0.351856  -0.047947
    32  H    0.000306  -0.000013  -0.000516   0.001036  -0.034464   0.005473
    33  H    0.000011   0.000012   0.004963  -0.000105  -0.030140  -0.000090
    34  H    0.004191   0.009598  -0.009156  -0.000259  -0.022127  -0.004920
    35  C    0.005561   0.000544  -0.027974  -0.003481   0.303773  -0.034558
    36  O    0.000807  -0.000005  -0.015929   0.041620  -0.083118   0.001923
    37  N   -0.000078  -0.000001   0.002681   0.001767  -0.110771   0.001392
    38  H   -0.000002   0.000001   0.000057  -0.000073   0.001602   0.001943
    39  C    0.000001   0.000000  -0.000091  -0.000015   0.005682  -0.000112
    40  H    0.000000   0.000000   0.000007  -0.000047   0.001071  -0.000034
    41  H    0.000000   0.000000   0.000002   0.000000  -0.000152   0.000004
    42  H    0.000000   0.000000   0.000000   0.000000  -0.000092  -0.000006
             31         32         33         34         35         36
     1  H    0.000000   0.000000   0.000000   0.000000   0.000000   0.000000
     2  C    0.000000   0.000000   0.000000   0.000000   0.000000   0.000000
     3  H    0.000000   0.000000   0.000000   0.000000   0.000000   0.000000
     4  H    0.000000   0.000000   0.000000   0.000000   0.000000   0.000000
     5  C    0.000000   0.000000   0.000000   0.000000   0.000000   0.000000
     6  O    0.000000   0.000000   0.000000   0.000000   0.000000   0.000000
     7  N    0.000000   0.000000   0.000000   0.000000   0.000000   0.000000
     8  H    0.000000   0.000000   0.000000   0.000000   0.000000   0.000000
     9  C    0.000000  -0.000001   0.000000  -0.000001   0.000000   0.000000
    10  H    0.000000   0.000001   0.000000   0.000000   0.000000   0.000000
    11  C    0.000000   0.000000   0.000000   0.000000   0.000000   0.000000
    12  H    0.000000   0.000000   0.000000   0.000000   0.000000   0.000000
    13  H    0.000000   0.000000   0.000000   0.000000   0.000000   0.000000
    14  H    0.000000   0.000000   0.000000   0.000000   0.000000   0.000000
    15  C    0.000018   0.000002   0.000000   0.000024   0.000000   0.000000
    16  O   -0.000006   0.000000   0.000000   0.000018   0.000000   0.000000
    17  N    0.000068  -0.000005   0.000000  -0.000034  -0.000001   0.000000
    18  H   -0.000003   0.000003   0.000000   0.000001   0.000001   0.000000
    19  C   -0.000536   0.000015   0.000004   0.000232  -0.000069  -0.000090
    20  H    0.000021  -0.000002   0.000000  -0.000008  -0.000060  -0.000030
    21  C    0.000001   0.000000   0.000000  -0.000002   0.000000   0.000000
    22  H    0.000001   0.000000   0.000000  -0.000002   0.000000   0.000000
    23  H    0.000000   0.000000   0.000000   0.000000   0.000000   0.000000
    24  H    0.000000   0.000000   0.000000   0.000000   0.000000   0.000000
    25  C   -0.003994   0.000306   0.000011   0.004191   0.005561   0.000807
    26  O   -0.006552  -0.000013   0.000012   0.009598   0.000544  -0.000005
    27  N   -0.054231  -0.000516   0.004963  -0.009156  -0.027974  -0.015929
    28  H    0.003357   0.001036  -0.000105  -0.000259  -0.003481   0.041620
    29  C    0.351856  -0.034464  -0.030140  -0.022127   0.303773  -0.083118
    30  H   -0.047947   0.005473  -0.000090  -0.004920  -0.034558   0.001923
    31  C    5.146176   0.370440   0.355805   0.369968  -0.036168  -0.001727
    32  H    0.370440   0.555791  -0.027756  -0.026679  -0.004004   0.001534
    33  H    0.355805  -0.027756   0.584710  -0.025428  -0.003246  -0.000015
    34  H    0.369968  -0.026679  -0.025428   0.503198   0.003612  -0.000079
    35  C   -0.036168  -0.004004  -0.003246   0.003612   4.372139   0.574859
    36  O   -0.001727   0.001534  -0.000015  -0.000079   0.574859   8.089016
    37  N    0.000548  -0.000026   0.003239   0.000036   0.287283  -0.092273
    38  H    0.000360  -0.000028   0.002322  -0.000086  -0.022002   0.003308
    39  C   -0.000229  -0.000007  -0.000059   0.000005  -0.023016  -0.007557
    40  H   -0.000039  -0.000008  -0.000001   0.000001  -0.001407   0.019537
    41  H   -0.000005   0.000000   0.000004   0.000000   0.000960   0.000417
    42  H    0.000037  -0.000001  -0.000012  -0.000001   0.001293   0.000446
             37         38         39         40         41         42
     1  H    0.000000   0.000000   0.000000   0.000000   0.000000   0.000000
     2  C    0.000000   0.000000   0.000000   0.000000   0.000000   0.000000
     3  H    0.000000   0.000000   0.000000   0.000000   0.000000   0.000000
     4  H    0.000000   0.000000   0.000000   0.000000   0.000000   0.000000
     5  C    0.000000   0.000000   0.000000   0.000000   0.000000   0.000000
     6  O    0.000000   0.000000   0.000000   0.000000   0.000000   0.000000
     7  N    0.000000   0.000000   0.000000   0.000000   0.000000   0.000000
     8  H    0.000000   0.000000   0.000000   0.000000   0.000000   0.000000
     9  C    0.000000   0.000000   0.000000   0.000000   0.000000   0.000000
    10  H    0.000000   0.000000   0.000000   0.000000   0.000000   0.000000
    11  C    0.000000   0.000000   0.000000   0.000000   0.000000   0.000000
    12  H    0.000000   0.000000   0.000000   0.000000   0.000000   0.000000
    13  H    0.000000   0.000000   0.000000   0.000000   0.000000   0.000000
    14  H    0.000000   0.000000   0.000000   0.000000   0.000000   0.000000
    15  C    0.000000   0.000000   0.000000   0.000000   0.000000   0.000000
    16  O    0.000000   0.000000   0.000000   0.000000   0.000000   0.000000
    17  N    0.000000   0.000000   0.000000   0.000000   0.000000   0.000000
    18  H    0.000000   0.000000   0.000000   0.000000   0.000000   0.000000
    19  C    0.000000   0.000000   0.000000   0.000000   0.000000   0.000000
    20  H    0.000000   0.000000   0.000000   0.000000   0.000000   0.000000
    21  C    0.000000   0.000000   0.000000   0.000000   0.000000   0.000000
    22  H    0.000000   0.000000   0.000000   0.000000   0.000000   0.000000
    23  H    0.000000   0.000000   0.000000   0.000000   0.000000   0.000000
    24  H    0.000000   0.000000   0.000000   0.000000   0.000000   0.000000
    25  C   -0.000078  -0.000002   0.000001   0.000000   0.000000   0.000000
    26  O   -0.000001   0.000001   0.000000   0.000000   0.000000   0.000000
    27  N    0.002681   0.000057  -0.000091   0.000007   0.000002   0.000000
    28  H    0.001767  -0.000073  -0.000015  -0.000047   0.000000   0.000000
    29  C   -0.110771   0.001602   0.005682   0.001071  -0.000152  -0.000092
    30  H    0.001392   0.001943  -0.000112  -0.000034   0.000004  -0.000006
    31  C    0.000548   0.000360  -0.000229  -0.000039  -0.000005   0.000037
    32  H   -0.000026  -0.000028  -0.000007  -0.000008   0.000000  -0.000001
    33  H    0.003239   0.002322  -0.000059  -0.000001   0.000004  -0.000012
    34  H    0.000036  -0.000086   0.000005   0.000001   0.000000  -0.000001
    35  C    0.287283  -0.022002  -0.023016  -0.001407   0.000960   0.001293
    36  O   -0.092273   0.003308  -0.007557   0.019537   0.000417   0.000446
    37  N    7.047133   0.306415   0.265248  -0.038982  -0.040028  -0.041431
    38  H    0.306415   0.402459  -0.031502   0.003984  -0.001141  -0.000645
    39  C    0.265248  -0.031502   4.963681   0.378212   0.381909   0.381897
    40  H   -0.038982   0.003984   0.378212   0.478431  -0.023843  -0.024705
    41  H   -0.040028  -0.001141   0.381909  -0.023843   0.556861  -0.039243
    42  H   -0.041431  -0.000645   0.381897  -0.024705  -0.039243   0.557954
 Mulliken atomic charges:
              1
     1  H    0.181358
     2  C   -0.532926
     3  H    0.180606
     4  H    0.149541
     5  C    0.594990
     6  O   -0.526185
     7  N   -0.603881
     8  H    0.348419
     9  C   -0.034852
    10  H    0.165929
    11  C   -0.441806
    12  H    0.157802
    13  H    0.134174
    14  H    0.189680
    15  C    0.609766
    16  O   -0.509165
    17  N   -0.613294
    18  H    0.329753
    19  C   -0.050184
    20  H    0.142642
    21  C   -0.445501
    22  H    0.212733
    23  H    0.148360
    24  H    0.142630
    25  C    0.643052
    26  O   -0.513162
    27  N   -0.627710
    28  H    0.344312
    29  C   -0.029247
    30  H    0.170058
    31  C   -0.447218
    32  H    0.158907
    33  H    0.135784
    34  H    0.197899
    35  C    0.605962
    36  O   -0.532644
    37  N   -0.592152
    38  H    0.333028
    39  C   -0.314049
    40  H    0.207825
    41  H    0.164255
    42  H    0.164509
 Sum of Mulliken atomic charges =   0.00000
 Mulliken charges with hydrogens summed into heavy atoms:
              1
     2  C   -0.021421
     5  C    0.594990
     6  O   -0.526185
     7  N   -0.255461
     9  C    0.131077
    11  C    0.039851
    15  C    0.609766
    16  O   -0.509165
    17  N   -0.283541
    19  C    0.092459
    21  C    0.058222
    25  C    0.643052
    26  O   -0.513162
    27  N   -0.283398
    29  C    0.140811
    31  C    0.045371
    35  C    0.605962
    36  O   -0.532644
    37  N   -0.259124
    39  C    0.222540
 Sum of Mulliken charges with hydrogens summed into heavy atoms =   0.00000
 Electronic spatial extent (au):  <R**2>=           9094.0446
 Charge=              0.0000 electrons
 Dipole moment (field-independent basis, Debye):
    X=             -5.2091    Y=             -0.1023    Z=              0.0757  Tot=              5.2106
 Quadrupole moment (field-independent basis, Debye-Ang):
   XX=           -100.2194   YY=           -118.9163   ZZ=           -125.8090
   XY=             14.6679   XZ=              0.7811   YZ=             15.5177
 Traceless Quadrupole moment (field-independent basis, Debye-Ang):
   XX=             14.7622   YY=             -3.9348   ZZ=            -10.8275
   XY=             14.6679   XZ=              0.7811   YZ=             15.5177
 Octapole moment (field-independent basis, Debye-Ang**2):
  XXX=           -204.0509  YYY=              9.8856  ZZZ=              6.8792  XYY=            -37.5985
  XXY=            -25.3837  XXZ=            -99.8499  XZZ=             -0.7464  YZZ=             -2.9535
  YYZ=            -10.9268  XYZ=             24.9922
 Hexadecapole moment (field-independent basis, Debye-Ang**3):
 XXXX=          -7803.1554 YYYY=          -1963.1695 ZZZZ=           -831.5802 XXXY=            442.6947
 XXXZ=            -99.3752 YYYX=             43.6836 YYYZ=             20.9577 ZZZX=              9.8462
 ZZZY=             23.1261 XXYY=          -1819.3338 XXZZ=          -1672.7664 YYZZ=           -486.1695
 XXYZ=            174.9484 YYXZ=            -74.2907 ZZXY=             35.6277
 N-N= 1.606286673351D+03 E-N=-5.522112314661D+03  KE= 9.813150197777D+02
 1\1\GINC-NODE004\FOpt\RB3LYP\6-31G(d)\C12H22N4O4\STEBOSS\30-Dec-2016\0
 \\# b3lyp/6-31G* Opt=(ModRedundant, maxcycles=1000, calcfc) geom=nocro
 wd\\Phi Psi fixed scan\\0,1\H,7.5610200432,1.3728638073,3.6511718969\C
 ,8.0598030775,2.2456455122,3.2177915077\H,9.0516222126,1.9224922513,2.
 8871401253\H,8.1713466358,3.0113962073,3.9914481182\C,7.2674410864,2.7
 13102791,2.0056341376\O,7.0821654455,1.9906608458,1.0293955737\N,6.769
 8922605,3.9785623758,2.0825307951\H,6.9983751104,4.6068108451,2.844895
 1272\C,6.0562094755,4.5912379823,0.9805964835\H,6.5544179248,4.3010607
 944,0.0460855827\C,4.5883457544,4.1251050273,0.9138024648\H,4.05439531
 43,4.4126374248,1.825429234\H,4.0667864876,4.5609175418,0.0541477251\H
 ,4.5706681566,3.0368809648,0.816392776\C,6.1589089425,6.1173262154,1.1
 794458611\O,6.5087108738,6.5978438313,2.2503302484\N,5.7748260134,6.85
 0467474,0.0925423355\H,5.6270240818,6.3306957989,-0.7617733862\C,5.881
 9388994,8.3140977094,-0.0541392306\H,5.5228133978,8.5204459471,-1.0684
 601695\C,5.0058340998,9.0583031558,0.9555964714\H,5.3902104652,8.90053
 88914,1.9638362453\H,5.0185698694,10.1324428272,0.7424144667\H,3.97392
 19592,8.6989569544,0.8941295978\C,7.3518715407,8.7992759078,0.05464557
 89\O,7.8644517989,9.1489774396,1.1093746768\N,8.0134856807,8.840155819
 9,-1.13497621\H,7.5734543955,8.6077977694,-2.0187146926\C,9.388292604,
 9.288039776,-1.2443910857\H,9.5025077791,10.1961342196,-0.6384277812\C
 ,10.387606846,8.2304181957,-0.735185867\H,10.3156752606,7.3161671661,-
 1.3334432572\H,11.4187065671,8.5982101444,-0.786777655\H,10.1552099192
 ,7.9966013158,0.3065725409\C,9.6243403779,9.6142512463,-2.7290886472\O
 ,8.8622395474,9.2034173479,-3.6023531033\N,10.7333724852,10.3547245002
 ,-2.9873386598\H,11.2945265018,10.6669204519,-2.207390939\C,11.1519666
 37,10.713310836,-4.3326542868\H,10.4086657351,10.3145770811,-5.0236666
 622\H,11.204370825,11.8015514273,-4.4492195437\H,12.1316079115,10.2826
 761788,-4.5701483938\\Version=EM64L-G09RevA.02\State=1-A\HF=-990.49615
 65\RMSD=8.297e-09\RMSF=9.074e-04\Dipole=0.830845,1.4896819,-1.1371544\
 Quadrupole=13.6470753,-9.4260101,-4.2210651,7.9471798,-3.7680092,-11.2
 009729\PG=C01 [X(C12H22N4O4)]\\@


 SATCHEL PAIGE'S GUIDE TO LONGEVITY

    1.  AVOID FRIED MEATS, WHICH ANGRY UP THE BLOOD.

    2.  IF YOUR STOMACH DISPUTES YOU, LIE DOWN AND PACIFY IT WITH COOL
        THOUGHTS.

    3.  KEEP THE JUICES FLOWING BY JANGLING AROUND GENTLY AS YOU MOVE.

    4.  GO VERY LIGHT ON THE VICES, SUCH AS CARRYING ON IN SOCIETY.
        THE SOCIAL RUMBLE AIN'T RESTFUL.

    5.  AVOID RUNNING AT ALL TIMES.

    6.  DON'T LOOK BACK.  SOMETHING MAY BE GAINING ON YOU.
 Job cpu time:  0 days  3 hours 58 minutes 53.6 seconds.
 File lengths (MBytes):  RWF=    608 Int=      0 D2E=      0 Chk=     11 Scr=      1
 Normal termination of Gaussian 09 at Fri Dec 30 08:22:40 2016.
