 Entering Gaussian System, Link 0=g09
 Initial command:
 /home/steboss/Software/g09/l1.exe /tmp/Gau-13537.inp -scrdir=/tmp/
 Entering Link 1 = /home/steboss/Software/g09/l1.exe PID=     13539.
  
 Copyright (c) 1988,1990,1992,1993,1995,1998,2003,2009, Gaussian, Inc.
                  All Rights Reserved.
  
 This is part of the Gaussian(R) 09 program.  It is based on
 the Gaussian(R) 03 system (copyright 2003, Gaussian, Inc.),
 the Gaussian(R) 98 system (copyright 1998, Gaussian, Inc.),
 the Gaussian(R) 94 system (copyright 1995, Gaussian, Inc.),
 the Gaussian 92(TM) system (copyright 1992, Gaussian, Inc.),
 the Gaussian 90(TM) system (copyright 1990, Gaussian, Inc.),
 the Gaussian 88(TM) system (copyright 1988, Gaussian, Inc.),
 the Gaussian 86(TM) system (copyright 1986, Carnegie Mellon
 University), and the Gaussian 82(TM) system (copyright 1983,
 Carnegie Mellon University). Gaussian is a federally registered
 trademark of Gaussian, Inc.
  
 This software contains proprietary and confidential information,
 including trade secrets, belonging to Gaussian, Inc.
  
 This software is provided under written license and may be
 used, copied, transmitted, or stored only in accord with that
 written license.
  
 The following legend is applicable only to US Government
 contracts under FAR:
  
                    RESTRICTED RIGHTS LEGEND
  
 Use, reproduction and disclosure by the US Government is
 subject to restrictions as set forth in subparagraphs (a)
 and (c) of the Commercial Computer Software - Restricted
 Rights clause in FAR 52.227-19.
  
 Gaussian, Inc.
 340 Quinnipiac St., Bldg. 40, Wallingford CT 06492
  
  
 ---------------------------------------------------------------
 Warning -- This program may not be used in any manner that
 competes with the business of Gaussian, Inc. or will provide
 assistance to any competitor of Gaussian, Inc.  The licensee
 of this program is prohibited from giving any competitor of
 Gaussian, Inc. access to this program.  By using this program,
 the user acknowledges that Gaussian, Inc. is engaged in the
 business of creating and licensing software in the field of
 computational chemistry and represents and warrants to the
 licensee that it is not a competitor of Gaussian, Inc. and that
 it will not use this program in any manner prohibited above.
 ---------------------------------------------------------------
  

 Cite this work as:
 Gaussian 09, Revision A.02,
 M. J. Frisch, G. W. Trucks, H. B. Schlegel, G. E. Scuseria, 
 M. A. Robb, J. R. Cheeseman, G. Scalmani, V. Barone, B. Mennucci, 
 G. A. Petersson, H. Nakatsuji, M. Caricato, X. Li, H. P. Hratchian, 
 A. F. Izmaylov, J. Bloino, G. Zheng, J. L. Sonnenberg, M. Hada, 
 M. Ehara, K. Toyota, R. Fukuda, J. Hasegawa, M. Ishida, T. Nakajima, 
 Y. Honda, O. Kitao, H. Nakai, T. Vreven, J. A. Montgomery, Jr., 
 J. E. Peralta, F. Ogliaro, M. Bearpark, J. J. Heyd, E. Brothers, 
 K. N. Kudin, V. N. Staroverov, R. Kobayashi, J. Normand, 
 K. Raghavachari, A. Rendell, J. C. Burant, S. S. Iyengar, J. Tomasi, 
 M. Cossi, N. Rega, J. M. Millam, M. Klene, J. E. Knox, J. B. Cross, 
 V. Bakken, C. Adamo, J. Jaramillo, R. Gomperts, R. E. Stratmann, 
 O. Yazyev, A. J. Austin, R. Cammi, C. Pomelli, J. W. Ochterski, 
 R. L. Martin, K. Morokuma, V. G. Zakrzewski, G. A. Voth, 
 P. Salvador, J. J. Dannenberg, S. Dapprich, A. D. Daniels, 
 O. Farkas, J. B. Foresman, J. V. Ortiz, J. Cioslowski, 
 and D. J. Fox, Gaussian, Inc., Wallingford CT, 2009.
 
 ******************************************
 Gaussian 09:  EM64L-G09RevA.02 11-Jun-2009
                 9-Feb-2017 
 ******************************************
 %chk=structure_225.chk
 %NProcShared=8
 Will use up to    8 processors via shared memory.
 -------------------------------------------
 # HF/6-31G* Opt=(ModRedundant) geom=nocrowd
 -------------------------------------------
 1/18=120,19=15,38=1/1,3;
 2/9=110,12=1,17=6,18=5,40=1/2;
 3/5=1,6=6,7=1,11=9,16=1,25=1,30=1,71=1/1,2,3;
 4//1;
 5/5=2,38=5/2;
 6/7=2,8=2,9=2,10=2,28=1/1;
 7//1,2,3,16;
 1/18=20,19=15/3(2);
 2/9=110,12=1/2;
 99//99;
 2/9=110,12=1/2;
 3/5=1,6=6,7=1,11=9,16=1,25=1,30=1,71=1/1,2,3;
 4/5=5,16=3/1;
 5/5=2,38=5/2;
 7//1,2,3,16;
 1/18=20,19=15/3(-5);
 2/9=110,12=1/2;
 6/7=2,8=2,9=2,10=2,19=2,28=1/1;
 99/9=1/99;
 ------------------
 Phi Psi fixed scan
 ------------------
 Symbolic Z-matrix:
 Charge =  0 Multiplicity = 1
 H                     0.3668    4.29     -0.9842 
 C                     1.1769    3.7481   -0.496 
 H                     1.3209    2.787    -0.9895 
 H                     0.9253    3.584     0.5517 
 C                     2.4871    4.5351   -0.5667 
 O                     2.5276    5.6304   -1.1227 
 N                     3.5554    3.9697    0. 
 H                     3.4723    3.067     0.4455 
 C                     4.8533    4.6139    0. 
 H                     5.4076    4.3155    0.8898 
 C                     5.6613    4.2208   -1.2322 
 H                     5.1233    4.5214   -2.1312 
 H                     6.6305    4.7189   -1.2058 
 H                     5.8085    3.1409   -1.2414 
 C                     4.7127    6.1294    0. 
 O                     3.9095    6.6814    0.7488 
 N                     5.4979    6.8026   -0.8441 
 H                     6.143     6.3041   -1.4403 
 C                     5.4589    8.248    -0.9387 
 H                     4.72      8.6386   -0.239 
 H                     6.4402    8.6552   -0.695 
 H                     5.1871    8.539    -1.9534 
 
 The following ModRedundant input section has been read:
 D    5    7    9   15 F                                                       
 D    7    9   15   17 F                                                       

 GradGradGradGradGradGradGradGradGradGradGradGradGradGradGradGradGradGrad
 Berny optimization.
 Initialization pass.
                           ----------------------------
                           !    Initial Parameters    !
                           ! (Angstroms and Degrees)  !
 --------------------------                            --------------------------
 ! Name  Definition              Value          Derivative Info.                !
 --------------------------------------------------------------------------------
 ! R1    R(1,2)                  1.0901         estimate D2E/DX2                !
 ! R2    R(2,3)                  1.09           estimate D2E/DX2                !
 ! R3    R(2,4)                  1.0899         estimate D2E/DX2                !
 ! R4    R(2,5)                  1.53           estimate D2E/DX2                !
 ! R5    R(5,6)                  1.229          estimate D2E/DX2                !
 ! R6    R(5,7)                  1.3349         estimate D2E/DX2                !
 ! R7    R(7,8)                  1.0101         estimate D2E/DX2                !
 ! R8    R(7,9)                  1.449          estimate D2E/DX2                !
 ! R9    R(9,10)                 1.09           estimate D2E/DX2                !
 ! R10   R(9,11)                 1.525          estimate D2E/DX2                !
 ! R11   R(9,15)                 1.522          estimate D2E/DX2                !
 ! R12   R(11,12)                1.09           estimate D2E/DX2                !
 ! R13   R(11,13)                1.09           estimate D2E/DX2                !
 ! R14   R(11,14)                1.0899         estimate D2E/DX2                !
 ! R15   R(15,16)                1.229          estimate D2E/DX2                !
 ! R16   R(15,17)                1.335          estimate D2E/DX2                !
 ! R17   R(17,18)                1.01           estimate D2E/DX2                !
 ! R18   R(17,19)                1.449          estimate D2E/DX2                !
 ! R19   R(19,20)                1.09           estimate D2E/DX2                !
 ! R20   R(19,21)                1.09           estimate D2E/DX2                !
 ! R21   R(19,22)                1.09           estimate D2E/DX2                !
 ! A1    A(1,2,3)              109.4971         estimate D2E/DX2                !
 ! A2    A(1,2,4)              109.5001         estimate D2E/DX2                !
 ! A3    A(1,2,5)              111.0994         estimate D2E/DX2                !
 ! A4    A(3,2,4)              109.4493         estimate D2E/DX2                !
 ! A5    A(3,2,5)              108.6331         estimate D2E/DX2                !
 ! A6    A(4,2,5)              108.6352         estimate D2E/DX2                !
 ! A7    A(2,5,6)              120.4996         estimate D2E/DX2                !
 ! A8    A(2,5,7)              116.6031         estimate D2E/DX2                !
 ! A9    A(6,5,7)              122.8973         estimate D2E/DX2                !
 ! A10   A(5,7,8)              119.9941         estimate D2E/DX2                !
 ! A11   A(5,7,9)              121.9053         estimate D2E/DX2                !
 ! A12   A(8,7,9)              118.1007         estimate D2E/DX2                !
 ! A13   A(7,9,10)             109.5            estimate D2E/DX2                !
 ! A14   A(7,9,11)             111.0992         estimate D2E/DX2                !
 ! A15   A(7,9,15)             111.0966         estimate D2E/DX2                !
 ! A16   A(10,9,11)            108.6382         estimate D2E/DX2                !
 ! A17   A(10,9,15)            108.6373         estimate D2E/DX2                !
 ! A18   A(11,9,15)            107.7947         estimate D2E/DX2                !
 ! A19   A(9,11,12)            109.5007         estimate D2E/DX2                !
 ! A20   A(9,11,13)            109.4959         estimate D2E/DX2                !
 ! A21   A(9,11,14)            109.4978         estimate D2E/DX2                !
 ! A22   A(12,11,13)           109.441          estimate D2E/DX2                !
 ! A23   A(12,11,14)           109.4482         estimate D2E/DX2                !
 ! A24   A(13,11,14)           109.4436         estimate D2E/DX2                !
 ! A25   A(9,15,16)            120.5029         estimate D2E/DX2                !
 ! A26   A(9,15,17)            116.6012         estimate D2E/DX2                !
 ! A27   A(16,15,17)           122.8959         estimate D2E/DX2                !
 ! A28   A(15,17,18)           120.0006         estimate D2E/DX2                !
 ! A29   A(15,17,19)           121.9013         estimate D2E/DX2                !
 ! A30   A(18,17,19)           118.0981         estimate D2E/DX2                !
 ! A31   A(17,19,20)           109.4988         estimate D2E/DX2                !
 ! A32   A(17,19,21)           109.5003         estimate D2E/DX2                !
 ! A33   A(17,19,22)           109.4985         estimate D2E/DX2                !
 ! A34   A(20,19,21)           109.444          estimate D2E/DX2                !
 ! A35   A(20,19,22)           109.4425         estimate D2E/DX2                !
 ! A36   A(21,19,22)           109.4431         estimate D2E/DX2                !
 ! D1    D(1,2,5,6)              0.003          estimate D2E/DX2                !
 ! D2    D(1,2,5,7)            179.9971         estimate D2E/DX2                !
 ! D3    D(3,2,5,6)            120.5094         estimate D2E/DX2                !
 ! D4    D(3,2,5,7)            -59.4964         estimate D2E/DX2                !
 ! D5    D(4,2,5,6)           -120.5085         estimate D2E/DX2                !
 ! D6    D(4,2,5,7)             59.4856         estimate D2E/DX2                !
 ! D7    D(2,5,7,8)              0.0039         estimate D2E/DX2                !
 ! D8    D(2,5,7,9)            179.9999         estimate D2E/DX2                !
 ! D9    D(6,5,7,8)            179.998          estimate D2E/DX2                !
 ! D10   D(6,5,7,9)             -0.0061         estimate D2E/DX2                !
 ! D11   D(5,7,9,10)           150.0036         estimate D2E/DX2                !
 ! D12   D(5,7,9,11)           -89.9938         estimate D2E/DX2                !
 ! D13   D(5,7,9,15)            30.0038         Frozen                          !
 ! D14   D(8,7,9,10)           -30.0003         estimate D2E/DX2                !
 ! D15   D(8,7,9,11)            90.0022         estimate D2E/DX2                !
 ! D16   D(8,7,9,15)          -150.0002         estimate D2E/DX2                !
 ! D17   D(7,9,11,12)           60.0024         estimate D2E/DX2                !
 ! D18   D(7,9,11,13)          179.9986         estimate D2E/DX2                !
 ! D19   D(7,9,11,14)          -60.0038         estimate D2E/DX2                !
 ! D20   D(10,9,11,12)        -179.4843         estimate D2E/DX2                !
 ! D21   D(10,9,11,13)         -59.4881         estimate D2E/DX2                !
 ! D22   D(10,9,11,14)          60.5095         estimate D2E/DX2                !
 ! D23   D(15,9,11,12)         -61.938          estimate D2E/DX2                !
 ! D24   D(15,9,11,13)          58.0582         estimate D2E/DX2                !
 ! D25   D(15,9,11,14)         178.0558         estimate D2E/DX2                !
 ! D26   D(7,9,15,16)           45.001          estimate D2E/DX2                !
 ! D27   D(7,9,15,17)         -134.9977         Frozen                          !
 ! D28   D(10,9,15,16)         -75.5101         estimate D2E/DX2                !
 ! D29   D(10,9,15,17)         104.4912         estimate D2E/DX2                !
 ! D30   D(11,9,15,16)         166.9431         estimate D2E/DX2                !
 ! D31   D(11,9,15,17)         -13.0557         estimate D2E/DX2                !
 ! D32   D(9,15,17,18)          -0.0065         estimate D2E/DX2                !
 ! D33   D(9,15,17,19)        -179.9968         estimate D2E/DX2                !
 ! D34   D(16,15,17,18)        179.9949         estimate D2E/DX2                !
 ! D35   D(16,15,17,19)          0.0045         estimate D2E/DX2                !
 ! D36   D(15,17,19,20)         -0.0032         estimate D2E/DX2                !
 ! D37   D(15,17,19,21)        119.9981         estimate D2E/DX2                !
 ! D38   D(15,17,19,22)       -120.0017         estimate D2E/DX2                !
 ! D39   D(18,17,19,20)       -179.9937         estimate D2E/DX2                !
 ! D40   D(18,17,19,21)        -59.9924         estimate D2E/DX2                !
 ! D41   D(18,17,19,22)         60.0078         estimate D2E/DX2                !
 --------------------------------------------------------------------------------
 Trust Radius=3.00D-01 FncErr=1.00D-07 GrdErr=1.00D-07
 Number of steps in this run= 108 maximum allowed number of steps= 132.
 GradGradGradGradGradGradGradGradGradGradGradGradGradGradGradGradGradGrad

                          Input orientation:                          
 ---------------------------------------------------------------------
 Center     Atomic      Atomic             Coordinates (Angstroms)
 Number     Number       Type             X           Y           Z
 ---------------------------------------------------------------------
      1          1           0        0.366800    4.290000   -0.984200
      2          6           0        1.176900    3.748100   -0.496000
      3          1           0        1.320900    2.787000   -0.989500
      4          1           0        0.925300    3.584000    0.551700
      5          6           0        2.487100    4.535100   -0.566700
      6          8           0        2.527600    5.630400   -1.122700
      7          7           0        3.555400    3.969700    0.000000
      8          1           0        3.472300    3.067000    0.445500
      9          6           0        4.853300    4.613900    0.000000
     10          1           0        5.407600    4.315500    0.889800
     11          6           0        5.661300    4.220800   -1.232200
     12          1           0        5.123300    4.521400   -2.131200
     13          1           0        6.630500    4.718900   -1.205800
     14          1           0        5.808500    3.140900   -1.241400
     15          6           0        4.712700    6.129400    0.000000
     16          8           0        3.909500    6.681400    0.748800
     17          7           0        5.497900    6.802600   -0.844100
     18          1           0        6.143000    6.304100   -1.440300
     19          6           0        5.458900    8.248000   -0.938700
     20          1           0        4.720000    8.638600   -0.239000
     21          1           0        6.440200    8.655200   -0.695000
     22          1           0        5.187100    8.539000   -1.953400
 ---------------------------------------------------------------------
                    Distance matrix (angstroms):
                    1          2          3          4          5
     1  H    0.000000
     2  C    1.090072   0.000000
     3  H    1.780265   1.089950   0.000000
     4  H    1.780266   1.089911   1.779608   0.000000
     5  C    2.174868   1.530030   2.143510   2.143509   0.000000
     6  O    2.546549   2.400041   3.091729   3.091720   1.229007
     7  N    3.352374   2.439751   2.714936   2.714878   1.334950
     8  H    3.630964   2.572777   2.601182   2.601111   2.037274
     9  C    4.604589   3.809402   4.098112   4.098079   2.434391
    10  H    5.377936   4.487896   4.750705   4.554165   3.270923
    11  C    5.300757   4.568947   4.577527   5.100736   3.258408
    12  H    4.898311   4.341192   4.332421   5.069504   3.065518
    13  H    6.282277   5.584624   5.654279   6.076686   4.196426
    14  H    5.567646   4.730331   4.508575   5.220842   3.664794
    15  C    4.820673   4.291677   4.863646   4.596502   2.795753
    16  O    4.612245   4.197723   4.988876   4.305599   2.891430
    17  N    5.714978   5.303035   5.795991   5.763360   3.779342
    18  H    6.134257   5.664538   5.985471   6.212198   4.154292
    19  C    6.449598   6.227408   6.851872   6.672909   4.770284
    20  H    6.198064   6.044551   6.808697   6.369767   4.683155
    21  H    7.484971   7.198719   7.792928   7.595094   5.711277
    22  H    6.498357   6.415485   6.997293   6.999321   5.024356
                    6          7          8          9         10
     6  O    0.000000
     7  N    2.252721   0.000000
     8  H    3.150036   1.010071   0.000000
     9  C    2.775357   1.448978   2.120974   0.000000
    10  H    3.751469   2.083739   2.345536   1.089970   0.000000
    11  C    3.437883   2.452791   2.989591   1.525027   2.139209
    12  H    2.997434   2.702720   3.388283   2.150225   3.041326
    13  H    4.203751   3.386959   3.928077   2.150214   2.459625
    14  H    4.120195   2.702673   2.882520   2.150165   2.466256
    15  C    2.506814   2.450234   3.333970   1.522008   2.136554
    16  O    2.552795   2.835384   3.653358   2.392910   2.803867
    17  N    3.205363   3.537108   4.440814   2.432781   3.033188
    18  H    3.691322   3.770883   4.600837   2.567989   3.150351
    19  C    3.934235   4.775806   5.718859   3.801919   4.337119
    20  H    3.825809   4.817888   5.750480   4.033993   4.520639
    21  H    4.963948   5.546080   6.429397   4.396974   4.734010
    22  H    4.027773   5.230365   6.215951   4.396999   5.096112
                   11         12         13         14         15
    11  C    0.000000
    12  H    1.089957   0.000000
    13  H    1.090023   1.779613   0.000000
    14  H    1.089925   1.779613   1.779617   0.000000
    15  C    2.461892   2.701161   2.668599   3.416575   0.000000
    16  O    3.612162   3.799120   3.882745   4.483552   1.229039
    17  N    2.615915   2.645907   2.399045   3.696264   1.335006
    18  H    2.148367   2.166830   1.674964   3.187050   2.037337
    19  C    4.042950   3.927115   3.728074   5.127994   2.434428
    20  H    4.624873   4.549111   4.466404   5.693360   2.520567
    21  H    4.534222   4.570033   3.973863   5.577195   3.137985
    22  H    4.403617   4.022038   4.151563   5.480198   3.137993
                   16         17         18         19         20
    16  O    0.000000
    17  N    2.252784   0.000000
    18  H    3.150085   1.010005   0.000000
    19  C    2.775344   1.449017   2.120930   0.000000
    20  H    2.337368   2.083788   2.986292   1.090010   0.000000
    21  H    3.519217   2.083815   2.484245   1.090023   1.779691
    22  H    3.519208   2.083801   2.484310   1.090033   1.779683
                   21         22
    21  H    0.000000
    22  H    1.779700   0.000000
 Stoichiometry    C6H12N2O2
 Framework group  C1[X(C6H12N2O2)]
 Deg. of freedom    60
 Full point group                 C1      NOp   1
 Largest Abelian subgroup         C1      NOp   1
 Largest concise Abelian subgroup C1      NOp   1
                         Standard orientation:                         
 ---------------------------------------------------------------------
 Center     Atomic      Atomic             Coordinates (Angstroms)
 Number     Number       Type             X           Y           Z
 ---------------------------------------------------------------------
      1          1           0        3.401395   -1.615700   -0.824617
      2          6           0        3.217574   -0.711585   -0.244063
      3          1           0        3.754131    0.124289   -0.692855
      4          1           0        3.565035   -0.858856    0.778429
      5          6           0        1.725886   -0.372963   -0.209534
      6          8           0        0.910791   -1.085933   -0.790699
      7          7           0        1.376338    0.718515    0.474997
      8          1           0        2.083271    1.273087    0.936451
      9          6           0       -0.004117    1.145427    0.582831
     10          1           0       -0.152023    1.662614    1.530817
     11          6           0       -0.375959    2.093160   -0.552618
     12          1           0       -0.241776    1.586398   -1.508229
     13          1           0       -1.417275    2.397319   -0.446328
     14          1           0        0.264871    2.974024   -0.515845
     15          6           0       -0.951601   -0.044287    0.524820
     16          8           0       -0.717498   -1.060518    1.175208
     17          7           0       -2.025381    0.084284   -0.257936
     18          1           0       -2.174975    0.939805   -0.773511
     19          6           0       -3.002281   -0.976694   -0.398091
     20          1           0       -2.705264   -1.827988    0.214445
     21          1           0       -3.978474   -0.617904   -0.071795
     22          1           0       -3.058977   -1.283421   -1.442541
 ---------------------------------------------------------------------
 Rotational constants (GHZ):      2.2592594      0.9539403      0.7997511
 Standard basis: 6-31G(d) (6D, 7F)
 There are   174 symmetry adapted basis functions of A   symmetry.
 Integral buffers will be    131072 words long.
 Raffenetti 1 integral format.
 Two-electron integral symmetry is turned on.
   174 basis functions,   328 primitive gaussians,   174 cartesian basis functions
    39 alpha electrons       39 beta electrons
       nuclear repulsion energy       578.5381926103 Hartrees.
 NAtoms=   22 NActive=   22 NUniq=   22 SFac= 7.50D-01 NAtFMM=   80 NAOKFM=F Big=F
 One-electron integrals computed using PRISM.
 NBasis=   174 RedAO= T  NBF=   174
 NBsUse=   174 1.00D-06 NBFU=   174
 Harris functional with IExCor=  205 diagonalized for initial guess.
 ExpMin= 1.61D-01 ExpMax= 5.48D+03 ExpMxC= 8.25D+02 IAcc=1 IRadAn=         1 AccDes= 0.00D+00
 HarFok:  IExCor=  205 AccDes= 0.00D+00 IRadAn=         1 IDoV= 1
 ScaDFX=  1.000000  1.000000  1.000000  1.000000
 FoFCou: FMM=F IPFlag=           0 FMFlag=      100000 FMFlg1=           0
         NFxFlg=           0 DoJE=T BraDBF=F KetDBF=T FulRan=T
         Omega=  0.000000  0.000000  1.000000  0.000000  0.000000 ICntrl=     500 IOpCl=  0
         NMat0=    1 NMatS0=    1 NMatT0=    0 NMatD0=    1 NMtDS0=    0 NMtDT0=    0
         I1Cent=           4 NGrid=           0.
 Petite list used in FoFCou.
 Initial guess orbital symmetries:
       Occupied  (A) (A) (A) (A) (A) (A) (A) (A) (A) (A) (A) (A)
                 (A) (A) (A) (A) (A) (A) (A) (A) (A) (A) (A) (A)
                 (A) (A) (A) (A) (A) (A) (A) (A) (A) (A) (A) (A)
                 (A) (A) (A)
       Virtual   (A) (A) (A) (A) (A) (A) (A) (A) (A) (A) (A) (A)
                 (A) (A) (A) (A) (A) (A) (A) (A) (A) (A) (A) (A)
                 (A) (A) (A) (A) (A) (A) (A) (A) (A) (A) (A) (A)
                 (A) (A) (A) (A) (A) (A) (A) (A) (A) (A) (A) (A)
                 (A) (A) (A) (A) (A) (A) (A) (A) (A) (A) (A) (A)
                 (A) (A) (A) (A) (A) (A) (A) (A) (A) (A) (A) (A)
                 (A) (A) (A) (A) (A) (A) (A) (A) (A) (A) (A) (A)
                 (A) (A) (A) (A) (A) (A) (A) (A) (A) (A) (A) (A)
                 (A) (A) (A) (A) (A) (A) (A) (A) (A) (A) (A) (A)
                 (A) (A) (A) (A) (A) (A) (A) (A) (A) (A) (A) (A)
                 (A) (A) (A) (A) (A) (A) (A) (A) (A) (A) (A) (A)
                 (A) (A) (A)
 The electronic state of the initial guess is 1-A.
 Requested convergence on RMS density matrix=1.00D-08 within 128 cycles.
 Requested convergence on MAX density matrix=1.00D-06.
 Requested convergence on             energy=1.00D-06.
 No special actions if energy rises.
 Integral accuracy reduced to 1.0D-05 until final iterations.
 Initial convergence to 1.0D-05 achieved.  Increase integral accuracy.
 SCF Done:  E(RHF) =  -492.820992745     A.U. after   15 cycles
             Convg  =    0.4848D-08             -V/T =  2.0018

 **********************************************************************

            Population analysis using the SCF density.

 **********************************************************************

 Orbital symmetries:
       Occupied  (A) (A) (A) (A) (A) (A) (A) (A) (A) (A) (A) (A)
                 (A) (A) (A) (A) (A) (A) (A) (A) (A) (A) (A) (A)
                 (A) (A) (A) (A) (A) (A) (A) (A) (A) (A) (A) (A)
                 (A) (A) (A)
       Virtual   (A) (A) (A) (A) (A) (A) (A) (A) (A) (A) (A) (A)
                 (A) (A) (A) (A) (A) (A) (A) (A) (A) (A) (A) (A)
                 (A) (A) (A) (A) (A) (A) (A) (A) (A) (A) (A) (A)
                 (A) (A) (A) (A) (A) (A) (A) (A) (A) (A) (A) (A)
                 (A) (A) (A) (A) (A) (A) (A) (A) (A) (A) (A) (A)
                 (A) (A) (A) (A) (A) (A) (A) (A) (A) (A) (A) (A)
                 (A) (A) (A) (A) (A) (A) (A) (A) (A) (A) (A) (A)
                 (A) (A) (A) (A) (A) (A) (A) (A) (A) (A) (A) (A)
                 (A) (A) (A) (A) (A) (A) (A) (A) (A) (A) (A) (A)
                 (A) (A) (A) (A) (A) (A) (A) (A) (A) (A) (A) (A)
                 (A) (A) (A) (A) (A) (A) (A) (A) (A) (A) (A) (A)
                 (A) (A) (A)
 The electronic state is 1-A.
 Alpha  occ. eigenvalues --  -20.50750 -20.48857 -15.59422 -15.57745 -11.34320
 Alpha  occ. eigenvalues --  -11.33327 -11.28698 -11.24648 -11.23446 -11.23163
 Alpha  occ. eigenvalues --   -1.37471  -1.34455  -1.24017  -1.22075  -1.06325
 Alpha  occ. eigenvalues --   -0.98849  -0.94235  -0.88965  -0.80931  -0.77381
 Alpha  occ. eigenvalues --   -0.71311  -0.69340  -0.63889  -0.62962  -0.61398
 Alpha  occ. eigenvalues --   -0.61069  -0.59035  -0.57291  -0.55898  -0.55713
 Alpha  occ. eigenvalues --   -0.55050  -0.53490  -0.52629  -0.51641  -0.48249
 Alpha  occ. eigenvalues --   -0.40330  -0.39760  -0.38362  -0.36138
 Alpha virt. eigenvalues --    0.18951   0.20847   0.23133   0.24031   0.26393
 Alpha virt. eigenvalues --    0.27774   0.28552   0.29219   0.30537   0.31784
 Alpha virt. eigenvalues --    0.32768   0.33116   0.34003   0.35243   0.37903
 Alpha virt. eigenvalues --    0.38769   0.39848   0.45148   0.47139   0.51635
 Alpha virt. eigenvalues --    0.56250   0.60040   0.62298   0.72185   0.72928
 Alpha virt. eigenvalues --    0.74195   0.75834   0.76234   0.78228   0.80742
 Alpha virt. eigenvalues --    0.81778   0.82530   0.85374   0.88874   0.91321
 Alpha virt. eigenvalues --    0.92530   0.95725   0.97452   0.97667   0.99232
 Alpha virt. eigenvalues --    1.00480   1.02715   1.03961   1.07815   1.09258
 Alpha virt. eigenvalues --    1.12547   1.13107   1.14556   1.15547   1.15959
 Alpha virt. eigenvalues --    1.16634   1.17460   1.18319   1.20466   1.20550
 Alpha virt. eigenvalues --    1.21656   1.22810   1.23058   1.24106   1.28531
 Alpha virt. eigenvalues --    1.31279   1.33530   1.40927   1.44199   1.48946
 Alpha virt. eigenvalues --    1.52404   1.55178   1.57157   1.59718   1.63188
 Alpha virt. eigenvalues --    1.63684   1.67768   1.71688   1.74585   1.77610
 Alpha virt. eigenvalues --    1.81123   1.84099   1.92697   1.96954   2.02807
 Alpha virt. eigenvalues --    2.04389   2.05381   2.10797   2.12406   2.14487
 Alpha virt. eigenvalues --    2.16493   2.18701   2.20535   2.20940   2.25315
 Alpha virt. eigenvalues --    2.28143   2.29626   2.30547   2.32988   2.36750
 Alpha virt. eigenvalues --    2.39035   2.41337   2.43928   2.49802   2.50811
 Alpha virt. eigenvalues --    2.54713   2.57286   2.59647   2.61523   2.64929
 Alpha virt. eigenvalues --    2.65689   2.70048   2.70752   2.74446   2.77244
 Alpha virt. eigenvalues --    2.80427   2.84824   2.87587   2.93691   3.00922
 Alpha virt. eigenvalues --    3.03558   3.04931   3.06227   3.14355   3.26043
 Alpha virt. eigenvalues --    3.31736   3.36998   3.40644   3.57637   3.59945
 Alpha virt. eigenvalues --    4.41249   4.44397   4.50472   4.62128   4.67673
 Alpha virt. eigenvalues --    4.69797   4.72404   4.85133   4.88592   5.15199
          Condensed to atoms (all electrons):
              1          2          3          4          5          6
     1  H    0.452188   0.385564  -0.019125  -0.017442  -0.029338   0.003642
     2  C    0.385564   5.256489   0.371818   0.374537   0.372643  -0.065881
     3  H   -0.019125   0.371818   0.527860  -0.025288  -0.035252   0.001242
     4  H   -0.017442   0.374537  -0.025288   0.511903  -0.036211   0.000915
     5  C   -0.029338   0.372643  -0.035252  -0.036211   4.184489   0.585451
     6  O    0.003642  -0.065881   0.001242   0.000915   0.585451   8.208829
     7  N    0.003690  -0.121939   0.003753   0.004095   0.236425  -0.104546
     8  H   -0.000029  -0.000363   0.000555   0.000406  -0.017207   0.002419
     9  C   -0.000073   0.003994  -0.000214  -0.000127  -0.029600   0.010445
    10  H    0.000001  -0.000022  -0.000005   0.000001   0.003324   0.000344
    11  C    0.000003  -0.000272   0.000035   0.000003  -0.002501  -0.002106
    12  H    0.000000   0.000072  -0.000023   0.000000   0.002773   0.002814
    13  H    0.000000   0.000004   0.000000   0.000000   0.000057   0.000023
    14  H    0.000000  -0.000007   0.000002   0.000000   0.000069  -0.000016
    15  C   -0.000004   0.000119   0.000000  -0.000003  -0.002985   0.008516
    16  O    0.000009  -0.000370  -0.000001   0.000058   0.005247  -0.026698
    17  N    0.000000  -0.000021   0.000000   0.000000   0.000426  -0.003594
    18  H    0.000000   0.000000   0.000000   0.000000  -0.000078  -0.000042
    19  C    0.000000   0.000000   0.000000   0.000000  -0.000004   0.000079
    20  H    0.000000   0.000000   0.000000   0.000000  -0.000001   0.000007
    21  H    0.000000   0.000000   0.000000   0.000000   0.000000   0.000000
    22  H    0.000000   0.000000   0.000000   0.000000   0.000002   0.000080
              7          8          9         10         11         12
     1  H    0.003690  -0.000029  -0.000073   0.000001   0.000003   0.000000
     2  C   -0.121939  -0.000363   0.003994  -0.000022  -0.000272   0.000072
     3  H    0.003753   0.000555  -0.000214  -0.000005   0.000035  -0.000023
     4  H    0.004095   0.000406  -0.000127   0.000001   0.000003   0.000000
     5  C    0.236425  -0.017207  -0.029600   0.003324  -0.002501   0.002773
     6  O   -0.104546   0.002419   0.010445   0.000344  -0.002106   0.002814
     7  N    7.391485   0.327090   0.190108  -0.036518  -0.074053  -0.004669
     8  H    0.327090   0.321390  -0.024246  -0.002723   0.000710  -0.000064
     9  C    0.190108  -0.024246   5.048534   0.405878   0.319217  -0.033978
    10  H   -0.036518  -0.002723   0.405878   0.484976  -0.045321   0.003708
    11  C   -0.074053   0.000710   0.319217  -0.045321   5.254651   0.390827
    12  H   -0.004669  -0.000064  -0.033978   0.003708   0.390827   0.485297
    13  H    0.005727  -0.000073  -0.042244  -0.001426   0.382193  -0.029346
    14  H   -0.000712   0.000643  -0.030622  -0.002187   0.385762  -0.019668
    15  C   -0.035814   0.002444   0.382129  -0.022971  -0.074824  -0.002238
    16  O    0.003056  -0.000173  -0.078737   0.000229   0.003079  -0.000050
    17  N    0.001074  -0.000082  -0.103159   0.000144  -0.011568  -0.001286
    18  H    0.000170   0.000001  -0.002010   0.000065  -0.003166  -0.000765
    19  C   -0.000057   0.000002   0.004298  -0.000132   0.000135  -0.000182
    20  H   -0.000007   0.000000   0.000564  -0.000010  -0.000067  -0.000010
    21  H   -0.000001   0.000000  -0.000148   0.000018   0.000044   0.000008
    22  H    0.000005   0.000000  -0.000022  -0.000002  -0.000068   0.000011
             13         14         15         16         17         18
     1  H    0.000000   0.000000  -0.000004   0.000009   0.000000   0.000000
     2  C    0.000004  -0.000007   0.000119  -0.000370  -0.000021   0.000000
     3  H    0.000000   0.000002   0.000000  -0.000001   0.000000   0.000000
     4  H    0.000000   0.000000  -0.000003   0.000058   0.000000   0.000000
     5  C    0.000057   0.000069  -0.002985   0.005247   0.000426  -0.000078
     6  O    0.000023  -0.000016   0.008516  -0.026698  -0.003594  -0.000042
     7  N    0.005727  -0.000712  -0.035814   0.003056   0.001074   0.000170
     8  H   -0.000073   0.000643   0.002444  -0.000173  -0.000082   0.000001
     9  C   -0.042244  -0.030622   0.382129  -0.078737  -0.103159  -0.002010
    10  H   -0.001426  -0.002187  -0.022971   0.000229   0.000144   0.000065
    11  C    0.382193   0.385762  -0.074824   0.003079  -0.011568  -0.003166
    12  H   -0.029346  -0.019668  -0.002238  -0.000050  -0.001286  -0.000765
    13  H    0.563241  -0.022026  -0.001405  -0.000091  -0.008349   0.000814
    14  H   -0.022026   0.509566   0.003577  -0.000059   0.000616   0.000477
    15  C   -0.001405   0.003577   4.093556   0.564818   0.293837  -0.014848
    16  O   -0.000091  -0.000059   0.564818   8.260034  -0.089657   0.002649
    17  N   -0.008349   0.000616   0.293837  -0.089657   7.356778   0.318163
    18  H    0.000814   0.000477  -0.014848   0.002649   0.318163   0.323260
    19  C    0.000322   0.000003  -0.025963  -0.005311   0.191606  -0.022308
    20  H   -0.000018   0.000001  -0.002212   0.011746  -0.031001   0.002353
    21  H   -0.000063   0.000000   0.000674   0.000353  -0.048981  -0.000961
    22  H    0.000046  -0.000001   0.001443   0.000401  -0.047757  -0.001037
             19         20         21         22
     1  H    0.000000   0.000000   0.000000   0.000000
     2  C    0.000000   0.000000   0.000000   0.000000
     3  H    0.000000   0.000000   0.000000   0.000000
     4  H    0.000000   0.000000   0.000000   0.000000
     5  C   -0.000004  -0.000001   0.000000   0.000002
     6  O    0.000079   0.000007   0.000000   0.000080
     7  N   -0.000057  -0.000007  -0.000001   0.000005
     8  H    0.000002   0.000000   0.000000   0.000000
     9  C    0.004298   0.000564  -0.000148  -0.000022
    10  H   -0.000132  -0.000010   0.000018  -0.000002
    11  C    0.000135  -0.000067   0.000044  -0.000068
    12  H   -0.000182  -0.000010   0.000008   0.000011
    13  H    0.000322  -0.000018  -0.000063   0.000046
    14  H    0.000003   0.000001   0.000000  -0.000001
    15  C   -0.025963  -0.002212   0.000674   0.001443
    16  O   -0.005311   0.011746   0.000353   0.000401
    17  N    0.191606  -0.031001  -0.048981  -0.047757
    18  H   -0.022308   0.002353  -0.000961  -0.001037
    19  C    4.939166   0.396167   0.401225   0.403130
    20  H    0.396167   0.427558  -0.023325  -0.021224
    21  H    0.401225  -0.023325   0.551483  -0.038278
    22  H    0.403130  -0.021224  -0.038278   0.531749
 Mulliken atomic charges:
              1
     1  H    0.220914
     2  C   -0.576366
     3  H    0.174643
     4  H    0.187154
     5  C    0.762271
     6  O   -0.621921
     7  N   -0.788363
     8  H    0.389300
     9  C   -0.019985
    10  H    0.212631
    11  C   -0.522712
    12  H    0.206766
    13  H    0.152616
    14  H    0.174581
    15  C    0.832154
    16  O   -0.650535
    17  N   -0.817189
    18  H    0.397262
    19  C   -0.282176
    20  H    0.239480
    21  H    0.157953
    22  H    0.171524
 Sum of Mulliken atomic charges =   0.00000
 Mulliken charges with hydrogens summed into heavy atoms:
              1
     2  C    0.006344
     5  C    0.762271
     6  O   -0.621921
     7  N   -0.399063
     9  C    0.192646
    11  C    0.011251
    15  C    0.832154
    16  O   -0.650535
    17  N   -0.419927
    19  C    0.286781
 Sum of Mulliken charges with hydrogens summed into heavy atoms =   0.00000
 Electronic spatial extent (au):  <R**2>=           1582.6047
 Charge=              0.0000 electrons
 Dipole moment (field-independent basis, Debye):
    X=              0.7734    Y=              5.3952    Z=             -0.4256  Tot=              5.4669
 Quadrupole moment (field-independent basis, Debye-Ang):
   XX=            -45.4930   YY=            -60.9678   ZZ=            -63.3962
   XY=              0.7020   XZ=              5.2754   YZ=              2.7565
 Traceless Quadrupole moment (field-independent basis, Debye-Ang):
   XX=             11.1260   YY=             -4.3488   ZZ=             -6.7772
   XY=              0.7020   XZ=              5.2754   YZ=              2.7565
 Octapole moment (field-independent basis, Debye-Ang**2):
  XXX=              6.5217  YYY=              1.9750  ZZZ=             -0.9947  XYY=              0.1915
  XXY=             -2.9625  XXZ=             -2.4387  XZZ=              1.7535  YZZ=              7.2351
  YYZ=              2.3005  XYZ=              0.4603
 Hexadecapole moment (field-independent basis, Debye-Ang**3):
 XXXX=          -1255.5477 YYYY=           -508.2664 ZZZZ=           -215.7350 XXXY=              6.9008
 XXXZ=             14.0299 YYYX=             10.3828 YYYZ=              9.4543 ZZZX=              8.3289
 ZZZY=              9.2098 XXYY=           -283.5214 XXZZ=           -252.9703 YYZZ=           -121.8819
 XXYZ=              5.2516 YYXZ=              8.1584 ZZXY=              0.0534
 N-N= 5.785381926103D+02 E-N=-2.312984788378D+03  KE= 4.919191328742D+02
 Calling FoFJK, ICntrl=      2127 FMM=F ISym2X=0 I1Cent= 0 IOpClX= 0 NMat=1 NMatS=1 NMatT=0.
 ***** Axes restored to original set *****
 -------------------------------------------------------------------
 Center     Atomic                   Forces (Hartrees/Bohr)
 Number     Number              X              Y              Z
 -------------------------------------------------------------------
      1        1           0.009245830   -0.001169690    0.003008843
      2        6           0.009667230    0.000525391    0.003470998
      3        1          -0.003625620    0.000835583    0.003242311
      4        1          -0.001787228   -0.002542414   -0.003986754
      5        6          -0.033480073    0.051204709   -0.033106209
      6        8          -0.003339889   -0.054243253    0.007042740
      7        7           0.014473354   -0.014518709    0.016174414
      8        1           0.000303084    0.015026691   -0.005912565
      9        6           0.009690336    0.000846418   -0.016667845
     10        1          -0.006486757    0.003309328   -0.000762207
     11        6           0.001474684   -0.018506011   -0.001470094
     12        1           0.003944285   -0.004167861    0.002868057
     13        1          -0.000575240   -0.014860040   -0.001784373
     14        1           0.002318502    0.004260622   -0.003556750
     15        6          -0.050228872    0.030659665    0.046049893
     16        8           0.044811479   -0.018863128   -0.014257236
     17        7           0.017219853    0.003844422   -0.008195039
     18        1          -0.016578485    0.019272239    0.011275971
     19        6          -0.000501831    0.002294790   -0.000163346
     20        1           0.006267027   -0.005579346   -0.006328531
     21        1          -0.004012055    0.001239683   -0.001579146
     22        1           0.001200385    0.001130911    0.004636870
 -------------------------------------------------------------------
 Cartesian Forces:  Max     0.054243253 RMS     0.017221252

 GradGradGradGradGradGradGradGradGradGradGradGradGradGradGradGradGradGrad
 Berny optimization.
 Internal  Forces:  Max     0.051731627 RMS     0.015102311
 Search for a local minimum.
 Step number   1 out of a maximum of  108
 All quantities printed in internal units (Hartrees-Bohrs-Radians)
 Mixed Optimization -- RFO/linear search
 Second derivative matrix not updated -- first step.
     Eigenvalues ---    0.00369   0.00435   0.00999   0.01043   0.01269
     Eigenvalues ---    0.01422   0.01660   0.02552   0.02552   0.03503
     Eigenvalues ---    0.05232   0.05841   0.05844   0.05844   0.07165
     Eigenvalues ---    0.07464   0.07685   0.07686   0.15421   0.16000
     Eigenvalues ---    0.16000   0.16000   0.16000   0.16000   0.16000
     Eigenvalues ---    0.16000   0.16000   0.16000   0.16000   0.16000
     Eigenvalues ---    0.16180   0.22000   0.22000   0.25000   0.25000
     Eigenvalues ---    0.25000   0.25000   0.29421   0.29887   0.30174
     Eigenvalues ---    0.34804   0.34809   0.34810   0.34810   0.34811
     Eigenvalues ---    0.34816   0.34818   0.34818   0.34821   0.34823
     Eigenvalues ---    0.38374   0.38379   0.45961   0.45972   0.58339
     Eigenvalues ---    0.58352   0.91488   0.915011000.000001000.00000
     Eigenvalues --- 1000.000001000.000001000.000001000.000001000.00000
     Eigenvalues --- 1000.000001000.000001000.000001000.000001000.00000
     Eigenvalues --- 1000.000001000.000001000.000001000.000001000.00000
     Eigenvalues --- 1000.000001000.000001000.000001000.000001000.00000
     Eigenvalues --- 1000.000001000.000001000.000001000.000001000.00000
     Eigenvalues --- 1000.000001000.000001000.000001000.000001000.00000
     Eigenvalues --- 1000.000001000.000001000.000001000.000001000.00000
     Eigenvalues --- 1000.000001000.000001000.00000
 RFO step:  Lambda=-6.40002708D-02 EMin= 3.68709279D-03
 Linear search not attempted -- first point.
 Maximum step size (   0.300) exceeded in Quadratic search.
    -- Step size scaled by   0.494
 Iteration  1 RMS(Cart)=  0.12233424 RMS(Int)=  0.00382934
 Iteration  2 RMS(Cart)=  0.00571037 RMS(Int)=  0.00037336
 Iteration  3 RMS(Cart)=  0.00001089 RMS(Int)=  0.00037326
 Iteration  4 RMS(Cart)=  0.00000001 RMS(Int)=  0.00037326
 Iteration  1 RMS(Cart)=  0.00017680 RMS(Int)=  0.00007625
 Iteration  2 RMS(Cart)=  0.00011384 RMS(Int)=  0.00008434
 Iteration  3 RMS(Cart)=  0.00007458 RMS(Int)=  0.00009669
 Iteration  4 RMS(Cart)=  0.00004946 RMS(Int)=  0.00010686
 Iteration  5 RMS(Cart)=  0.00003307 RMS(Int)=  0.00011428
 Iteration  6 RMS(Cart)=  0.00002223 RMS(Int)=  0.00011948
 Iteration  7 RMS(Cart)=  0.00001500 RMS(Int)=  0.00012306
 Iteration  8 RMS(Cart)=  0.00001014 RMS(Int)=  0.00012552
 Iteration  9 RMS(Cart)=  0.00000687 RMS(Int)=  0.00012719
 Iteration 10 RMS(Cart)=  0.00000466 RMS(Int)=  0.00012833
 Iteration 11 RMS(Cart)=  0.00000316 RMS(Int)=  0.00012910
 Iteration 12 RMS(Cart)=  0.00000214 RMS(Int)=  0.00012963
 Iteration 13 RMS(Cart)=  0.00000146 RMS(Int)=  0.00012998
 Iteration 14 RMS(Cart)=  0.00000099 RMS(Int)=  0.00013023
 Variable       Old X    -DE/DX   Delta X   Delta X   Delta X     New X
                                 (Linear)    (Quad)   (Total)
    R1        2.05994  -0.00880   0.00000  -0.01055  -0.01055   2.04939
    R2        2.05971  -0.00268   0.00000  -0.00322  -0.00322   2.05649
    R3        2.05963  -0.00304   0.00000  -0.00364  -0.00364   2.05600
    R4        2.89134  -0.01009   0.00000  -0.01391  -0.01391   2.87743
    R5        2.32249  -0.05164   0.00000  -0.02605  -0.02605   2.29644
    R6        2.52269   0.02501   0.00000   0.01907   0.01907   2.54176
    R7        1.90876  -0.01606   0.00000  -0.01515  -0.01515   1.89361
    R8        2.73817   0.00982   0.00000   0.01083   0.01083   2.74901
    R9        2.05975  -0.00483   0.00000  -0.00578  -0.00578   2.05396
   R10        2.88188   0.01556   0.00000   0.02117   0.02117   2.90306
   R11        2.87618   0.03402   0.00000   0.04594   0.04594   2.92212
   R12        2.05972  -0.00546   0.00000  -0.00654  -0.00654   2.05317
   R13        2.05984  -0.00735   0.00000  -0.00880  -0.00880   2.05104
   R14        2.05966  -0.00388   0.00000  -0.00465  -0.00465   2.05501
   R15        2.32255  -0.04644   0.00000  -0.02343  -0.02343   2.29911
   R16        2.52280   0.01353   0.00000   0.01032   0.01032   2.53312
   R17        1.90863  -0.02676   0.00000  -0.02523  -0.02523   1.88340
   R18        2.73825  -0.00077   0.00000  -0.00085  -0.00085   2.73740
   R19        2.05982  -0.01031   0.00000  -0.01236  -0.01236   2.04746
   R20        2.05985  -0.00350   0.00000  -0.00420  -0.00420   2.05565
   R21        2.05986  -0.00431   0.00000  -0.00517  -0.00517   2.05469
    A1        1.91109   0.00047   0.00000   0.00046   0.00052   1.91160
    A2        1.91114   0.00044   0.00000   0.00026   0.00032   1.91145
    A3        1.93905  -0.00839   0.00000  -0.01915  -0.01910   1.91995
    A4        1.91025  -0.00452   0.00000  -0.00861  -0.00873   1.90152
    A5        1.89600   0.00610   0.00000   0.01378   0.01376   1.90976
    A6        1.89604   0.00595   0.00000   0.01340   0.01337   1.90941
    A7        2.10312   0.00097   0.00000   0.00153   0.00128   2.10439
    A8        2.03511  -0.01509   0.00000  -0.02374  -0.02399   2.01111
    A9        2.14496   0.01412   0.00000   0.02221   0.02194   2.16691
   A10        2.09429  -0.02015   0.00000  -0.03535  -0.03582   2.05847
   A11        2.12765   0.03898   0.00000   0.06778   0.06730   2.19495
   A12        2.06125  -0.01882   0.00000  -0.03242  -0.03291   2.02833
   A13        1.91114   0.00681   0.00000  -0.00480  -0.00553   1.90561
   A14        1.93905  -0.02978   0.00000  -0.05401  -0.05588   1.88317
   A15        1.93900  -0.00123   0.00000   0.01624   0.01724   1.95624
   A16        1.89609  -0.00309   0.00000  -0.01506  -0.01571   1.88038
   A17        1.89608  -0.02416   0.00000  -0.02736  -0.02730   1.86878
   A18        1.88137   0.05173   0.00000   0.08560   0.08626   1.96764
   A19        1.91115   0.00271   0.00000   0.00817   0.00801   1.91916
   A20        1.91106   0.01039   0.00000   0.02394   0.02379   1.93486
   A21        1.91110   0.00260   0.00000   0.00251   0.00253   1.91363
   A22        1.91011  -0.00215   0.00000   0.00169   0.00139   1.91150
   A23        1.91023  -0.00408   0.00000  -0.01108  -0.01107   1.89916
   A24        1.91015  -0.00948   0.00000  -0.02527  -0.02526   1.88490
   A25        2.10317  -0.01709   0.00000  -0.02688  -0.02753   2.07564
   A26        2.03507   0.03594   0.00000   0.05653   0.05591   2.09098
   A27        2.14494  -0.01885   0.00000  -0.02965  -0.03025   2.11469
   A28        2.09441   0.00805   0.00000   0.01719   0.01718   2.11159
   A29        2.12758  -0.00240   0.00000  -0.00418  -0.00418   2.12340
   A30        2.06120  -0.00565   0.00000  -0.01302  -0.01302   2.04818
   A31        1.91112  -0.00442   0.00000  -0.01039  -0.01037   1.90074
   A32        1.91114   0.00432   0.00000   0.01003   0.01002   1.92116
   A33        1.91111   0.00335   0.00000   0.00751   0.00749   1.91860
   A34        1.91016  -0.00019   0.00000  -0.00066  -0.00064   1.90952
   A35        1.91013  -0.00045   0.00000  -0.00201  -0.00200   1.90814
   A36        1.91014  -0.00261   0.00000  -0.00448  -0.00454   1.90561
    D1        0.00005  -0.00319   0.00000  -0.02038  -0.02026  -0.02021
    D2        3.14154   0.00317   0.00000   0.02054   0.02042  -3.12122
    D3        2.10329  -0.00385   0.00000  -0.02275  -0.02270   2.08059
    D4       -1.03841   0.00250   0.00000   0.01818   0.01799  -1.02042
    D5       -2.10327  -0.00239   0.00000  -0.01752  -0.01733  -2.12060
    D6        1.03822   0.00397   0.00000   0.02340   0.02335   1.06157
    D7        0.00007   0.00881   0.00000  -0.00054  -0.00054  -0.00047
    D8        3.14159   0.00299   0.00000   0.05959   0.05925  -3.08234
    D9        3.14156   0.01533   0.00000   0.04145   0.04179  -3.09984
   D10       -0.00011   0.00951   0.00000   0.10159   0.10158   0.10148
   D11        2.61806   0.01205   0.00000  -0.02690  -0.02678   2.59128
   D12       -1.57069  -0.00618   0.00000  -0.08288  -0.08216  -1.65285
   D13        0.52367   0.03845   0.00000   0.00000   0.00000   0.52366
   D14       -0.52360   0.00633   0.00000   0.03214   0.03209  -0.49151
   D15        1.57084  -0.01189   0.00000  -0.02384  -0.02329   1.54754
   D16       -2.61800   0.03274   0.00000   0.05904   0.05887  -2.55913
   D17        1.04724   0.00799   0.00000   0.03350   0.03261   1.07985
   D18        3.14157   0.01339   0.00000   0.05527   0.05454  -3.08707
   D19       -1.04726   0.00973   0.00000   0.04052   0.03971  -1.00755
   D20       -3.13259  -0.00400   0.00000  -0.01560  -0.01537   3.13522
   D21       -1.03826   0.00139   0.00000   0.00616   0.00657  -1.03170
   D22        1.05609  -0.00226   0.00000  -0.00858  -0.00827   1.04782
   D23       -1.08102  -0.00594   0.00000  -0.00922  -0.00881  -1.08983
   D24        1.01331  -0.00054   0.00000   0.01255   0.01313   1.02643
   D25        3.10766  -0.00420   0.00000  -0.00220  -0.00171   3.10595
   D26        0.78542   0.00922   0.00000   0.06538   0.06496   0.85038
   D27       -2.35615   0.00002   0.00000   0.00000   0.00000  -2.35616
   D28       -1.31790   0.01717   0.00000   0.07896   0.07899  -1.23891
   D29        1.82372   0.00797   0.00000   0.01358   0.01402   1.83774
   D30        2.91371   0.00548   0.00000   0.06463   0.06564   2.97934
   D31       -0.22786  -0.00372   0.00000  -0.00075   0.00067  -0.22719
   D32       -0.00011   0.00585   0.00000   0.04015   0.03987   0.03976
   D33       -3.14154   0.00463   0.00000   0.03269   0.03233  -3.10920
   D34        3.14150  -0.00359   0.00000  -0.02694  -0.02658   3.11492
   D35        0.00008  -0.00481   0.00000  -0.03440  -0.03412  -0.03404
   D36       -0.00006   0.00029   0.00000   0.00258   0.00255   0.00250
   D37        2.09436   0.00000   0.00000   0.00154   0.00149   2.09585
   D38       -2.09443   0.00150   0.00000   0.00681   0.00681  -2.08761
   D39       -3.14148  -0.00091   0.00000  -0.00475  -0.00472   3.13698
   D40       -1.04706  -0.00120   0.00000  -0.00579  -0.00579  -1.05286
   D41        1.04733   0.00030   0.00000  -0.00052  -0.00047   1.04687
         Item               Value     Threshold  Converged?
 Maximum Force            0.051638     0.000450     NO 
 RMS     Force            0.013892     0.000300     NO 
 Maximum Displacement     0.407647     0.001800     NO 
 RMS     Displacement     0.121769     0.001200     NO 
 Predicted change in Energy=-2.667555D-02
 GradGradGradGradGradGradGradGradGradGradGradGradGradGradGradGradGradGrad

                          Input orientation:                          
 ---------------------------------------------------------------------
 Center     Atomic      Atomic             Coordinates (Angstroms)
 Number     Number       Type             X           Y           Z
 ---------------------------------------------------------------------
      1          1           0        0.329713    4.160832   -0.963580
      2          6           0        1.163558    3.687319   -0.457017
      3          1           0        1.321424    2.692230   -0.868308
      4          1           0        0.941724    3.599754    0.604508
      5          6           0        2.425918    4.518194   -0.643087
      6          8           0        2.402667    5.538530   -1.302739
      7          7           0        3.534744    4.011397   -0.074929
      8          1           0        3.454297    3.143551    0.419524
      9          6           0        4.843559    4.645903   -0.050625
     10          1           0        5.360788    4.362845    0.862460
     11          6           0        5.654522    4.100908   -1.236091
     12          1           0        5.164241    4.358906   -2.170719
     13          1           0        6.662578    4.503182   -1.232246
     14          1           0        5.724603    3.018096   -1.164065
     15          6           0        4.741804    6.188865   -0.055080
     16          8           0        3.986765    6.731070    0.729866
     17          7           0        5.534385    6.906520   -0.863564
     18          1           0        6.168168    6.459654   -1.489621
     19          6           0        5.500758    8.354676   -0.871740
     20          1           0        4.767692    8.692868   -0.149139
     21          1           0        6.478339    8.752343   -0.608093
     22          1           0        5.223853    8.713356   -1.860116
 ---------------------------------------------------------------------
                    Distance matrix (angstroms):
                    1          2          3          4          5
     1  H    0.000000
     2  C    1.084490   0.000000
     3  H    1.774644   1.088249   0.000000
     4  H    1.774335   1.087986   1.771146   0.000000
     5  C    2.150465   1.522671   2.145875   2.145427   0.000000
     6  O    2.512016   2.382775   3.075588   3.087199   1.215222
     7  N    3.329303   2.423538   2.696004   2.711981   1.345044
     8  H    3.565230   2.512268   2.532065   2.560345   2.018997
     9  C    4.630722   3.824453   4.109852   4.092425   2.492450
    10  H    5.356020   4.451302   4.701380   4.491879   3.302161
    11  C    5.332114   4.576763   4.571146   5.084233   3.309027
    12  H    4.986891   4.403778   4.386493   5.109583   3.139656
    13  H    6.347800   5.613005   5.651542   6.076020   4.277455
    14  H    5.518232   4.663786   4.425115   5.132457   3.661016
    15  C    4.940126   4.384418   4.958508   4.645338   2.915514
    16  O    4.779950   4.317825   5.096120   4.369569   3.036127
    17  N    5.885356   5.443588   5.958968   5.846577   3.926229
    18  H    6.296735   5.813625   6.170125   6.315071   4.300037
    19  C    6.658563   6.384944   7.037765   6.750806   4.921942
    20  H    6.395180   6.175766   6.957128   6.414502   4.812047
    21  H    7.682054   7.343309   7.961562   7.659875   5.861003
    22  H    6.744025   6.611787   7.243383   7.110551   5.187387
                    6          7          8          9         10
     6  O    0.000000
     7  N    2.263017   0.000000
     8  H    3.131778   1.002054   0.000000
     9  C    2.884878   1.454711   2.099559   0.000000
    10  H    3.849779   2.082463   2.305987   1.086909   0.000000
    11  C    3.556087   2.418629   2.915232   1.536232   2.135136
    12  H    3.125890   2.677378   3.333219   2.163331   3.039543
    13  H    4.384490   3.371139   3.856164   2.173805   2.470252
    14  H    4.172179   2.639763   2.770881   2.160033   2.459169
    15  C    2.729679   2.489729   3.340188   1.546319   2.135267
    16  O    2.839543   2.872045   3.640072   2.385620   2.741170
    17  N    3.445566   3.605862   4.486982   2.499699   3.078892
    18  H    3.881030   3.863966   4.691105   2.667394   3.252807
    19  C    4.208872   4.833651   5.745535   3.855014   4.354509
    20  H    4.107796   4.841677   5.730907   4.048875   4.486000
    21  H    5.236624   5.605853   6.454407   4.454899   4.762262
    22  H    4.283606   5.305506   6.273022   4.468003   5.134016
                   11         12         13         14         15
    11  C    0.000000
    12  H    1.086493   0.000000
    13  H    1.085364   1.773855   0.000000
    14  H    1.087466   1.767804   1.757819   0.000000
    15  C    2.566593   2.828981   2.813648   3.499931   0.000000
    16  O    3.682954   3.927723   3.996666   4.515887   1.216639
    17  N    2.832783   2.887213   2.680443   3.904654   1.340470
    18  H    2.427301   2.425883   2.034321   3.485263   2.041017
    19  C    4.272111   4.215065   4.039034   5.349266   2.435915
    20  H    4.801461   4.798673   4.724106   5.843697   2.505903
    21  H    4.765386   4.844683   4.298707   5.810234   3.145282
    22  H    4.674351   4.365921   4.493296   5.759447   3.140635
                   16         17         18         19         20
    16  O    0.000000
    17  N    2.228212   0.000000
    18  H    3.123829   0.996653   0.000000
    19  C    2.737409   1.448570   2.101980   0.000000
    20  H    2.287170   2.071053   2.957274   1.083472   0.000000
    21  H    3.476150   2.088871   2.475827   1.087803   1.772142
    22  H    3.488245   2.086673   2.471471   1.087297   1.770860
                   21         22
    21  H    0.000000
    22  H    1.772800   0.000000
 Stoichiometry    C6H12N2O2
 Framework group  C1[X(C6H12N2O2)]
 Deg. of freedom    60
 Full point group                 C1      NOp   1
 Largest Abelian subgroup         C1      NOp   1
 Largest concise Abelian subgroup C1      NOp   1
                         Standard orientation:                         
 ---------------------------------------------------------------------
 Center     Atomic      Atomic             Coordinates (Angstroms)
 Number     Number       Type             X           Y           Z
 ---------------------------------------------------------------------
      1          1           0        3.505062   -1.614039   -0.704759
      2          6           0        3.263168   -0.741303   -0.108154
      3          1           0        3.842414    0.110756   -0.458517
      4          1           0        3.511463   -0.932955    0.933639
      5          6           0        1.778017   -0.426135   -0.224445
      6          8           0        1.055937   -1.102790   -0.929785
      7          7           0        1.366697    0.657290    0.458306
      8          1           0        2.049949    1.168679    0.983433
      9          6           0       -0.006884    1.124425    0.564352
     10          1           0       -0.147826    1.602972    1.530013
     11          6           0       -0.229100    2.187807   -0.521856
     12          1           0       -0.090139    1.747862   -1.505526
     13          1           0       -1.226446    2.610060   -0.451021
     14          1           0        0.487620    2.995702   -0.394572
     15          6           0       -1.024113   -0.037179    0.480539
     16          8           0       -0.850631   -1.022403    1.172961
     17          7           0       -2.114116    0.086004   -0.289902
     18          1           0       -2.264661    0.904135   -0.838825
     19          6           0       -3.112750   -0.960464   -0.367296
     20          1           0       -2.812544   -1.780315    0.274289
     21          1           0       -4.078062   -0.580304   -0.040240
     22          1           0       -3.197378   -1.316973   -1.390993
 ---------------------------------------------------------------------
 Rotational constants (GHZ):      2.2016572      0.8996960      0.7581583
 Standard basis: 6-31G(d) (6D, 7F)
 There are   174 symmetry adapted basis functions of A   symmetry.
 Integral buffers will be    131072 words long.
 Raffenetti 1 integral format.
 Two-electron integral symmetry is turned on.
   174 basis functions,   328 primitive gaussians,   174 cartesian basis functions
    39 alpha electrons       39 beta electrons
       nuclear repulsion energy       569.7629602727 Hartrees.
 NAtoms=   22 NActive=   22 NUniq=   22 SFac= 7.50D-01 NAtFMM=   80 NAOKFM=F Big=F
 One-electron integrals computed using PRISM.
 NBasis=   174 RedAO= T  NBF=   174
 NBsUse=   174 1.00D-06 NBFU=   174
 Initial guess read from the read-write file.
 B after Tr=     0.000000    0.000000    0.000000
         Rot=    1.000000    0.000000    0.000000    0.000000 Ang=   0.00 deg.
 Initial guess orbital symmetries:
       Occupied  (A) (A) (A) (A) (A) (A) (A) (A) (A) (A) (A) (A)
                 (A) (A) (A) (A) (A) (A) (A) (A) (A) (A) (A) (A)
                 (A) (A) (A) (A) (A) (A) (A) (A) (A) (A) (A) (A)
                 (A) (A) (A)
       Virtual   (A) (A) (A) (A) (A) (A) (A) (A) (A) (A) (A) (A)
                 (A) (A) (A) (A) (A) (A) (A) (A) (A) (A) (A) (A)
                 (A) (A) (A) (A) (A) (A) (A) (A) (A) (A) (A) (A)
                 (A) (A) (A) (A) (A) (A) (A) (A) (A) (A) (A) (A)
                 (A) (A) (A) (A) (A) (A) (A) (A) (A) (A) (A) (A)
                 (A) (A) (A) (A) (A) (A) (A) (A) (A) (A) (A) (A)
                 (A) (A) (A) (A) (A) (A) (A) (A) (A) (A) (A) (A)
                 (A) (A) (A) (A) (A) (A) (A) (A) (A) (A) (A) (A)
                 (A) (A) (A) (A) (A) (A) (A) (A) (A) (A) (A) (A)
                 (A) (A) (A) (A) (A) (A) (A) (A) (A) (A) (A) (A)
                 (A) (A) (A) (A) (A) (A) (A) (A) (A) (A) (A) (A)
                 (A) (A) (A)
 Harris functional with IExCor=  205 diagonalized for initial guess.
 ExpMin= 1.61D-01 ExpMax= 5.48D+03 ExpMxC= 8.25D+02 IAcc=1 IRadAn=         1 AccDes= 0.00D+00
 HarFok:  IExCor=  205 AccDes= 0.00D+00 IRadAn=         1 IDoV= 1
 ScaDFX=  1.000000  1.000000  1.000000  1.000000
 FoFCou: FMM=F IPFlag=           0 FMFlag=      100000 FMFlg1=           0
         NFxFlg=           0 DoJE=T BraDBF=F KetDBF=T FulRan=T
         Omega=  0.000000  0.000000  1.000000  0.000000  0.000000 ICntrl=     500 IOpCl=  0
         NMat0=    1 NMatS0=    1 NMatT0=    0 NMatD0=    1 NMtDS0=    0 NMtDT0=    0
         I1Cent=           4 NGrid=           0.
 Petite list used in FoFCou.
 Requested convergence on RMS density matrix=1.00D-08 within 128 cycles.
 Requested convergence on MAX density matrix=1.00D-06.
 Requested convergence on             energy=1.00D-06.
 No special actions if energy rises.
 Integral accuracy reduced to 1.0D-05 until final iterations.
 Initial convergence to 1.0D-05 achieved.  Increase integral accuracy.
 SCF Done:  E(RHF) =  -492.837949487     A.U. after   14 cycles
             Convg  =    0.5959D-08             -V/T =  2.0019
 Calling FoFJK, ICntrl=      2127 FMM=F ISym2X=0 I1Cent= 0 IOpClX= 0 NMat=1 NMatS=1 NMatT=0.
 ***** Axes restored to original set *****
 -------------------------------------------------------------------
 Center     Atomic                   Forces (Hartrees/Bohr)
 Number     Number              X              Y              Z
 -------------------------------------------------------------------
      1        1           0.004862617   -0.000264146    0.001293482
      2        6           0.005840976   -0.000007134    0.003726042
      3        1          -0.002322783    0.000544283    0.001931259
      4        1          -0.001408130   -0.001940208   -0.002254917
      5        6          -0.019685930    0.026111421   -0.026780023
      6        8           0.006801006   -0.025876099    0.012437482
      7        7           0.007366232   -0.003229812    0.018748376
      8        1          -0.000246489    0.008294725   -0.001765488
      9        6           0.007293362    0.000352360   -0.028384818
     10        1          -0.006446703    0.003628798    0.001266846
     11        6           0.001352656   -0.000411796    0.002704175
     12        1           0.001795601   -0.001445444    0.001263754
     13        1           0.001652526   -0.003222343   -0.001526496
     14        1           0.000413071    0.002523434   -0.001439787
     15        6          -0.031786362    0.014747769    0.034992896
     16        8           0.018919867   -0.016705901   -0.010650584
     17        7           0.009607553   -0.005092172   -0.005274282
     18        1          -0.005886648    0.001847817    0.002452166
     19        6          -0.000317815    0.001828422   -0.000575700
     20        1           0.003703041   -0.002515225   -0.003904948
     21        1          -0.002216032    0.000426038   -0.000779594
     22        1           0.000708386    0.000405216    0.002520159
 -------------------------------------------------------------------
 Cartesian Forces:  Max     0.034992896 RMS     0.010758535

 GradGradGradGradGradGradGradGradGradGradGradGradGradGradGradGradGradGrad
 Berny optimization.
 Using GEDIIS/GDIIS optimizer.
 Internal  Forces:  Max     0.028607797 RMS     0.005721799
 Search for a local minimum.
 Step number   2 out of a maximum of  108
 All quantities printed in internal units (Hartrees-Bohrs-Radians)
 Mixed Optimization -- RFO/linear search
 Update second derivatives using D2CorX and points    1    2
 DE= -1.70D-02 DEPred=-2.67D-02 R= 6.36D-01
 SS=  1.41D+00  RLast= 3.00D-01 DXNew= 5.0454D-01 8.9976D-01
 Trust test= 6.36D-01 RLast= 3.00D-01 DXMaxT set to 5.05D-01
 Use linear search instead of GDIIS.
     Eigenvalues ---    0.00369   0.00438   0.01043   0.01093   0.01330
     Eigenvalues ---    0.01462   0.01672   0.02551   0.02693   0.03411
     Eigenvalues ---    0.05200   0.05674   0.05798   0.06115   0.07237
     Eigenvalues ---    0.07337   0.07600   0.07719   0.15686   0.15940
     Eigenvalues ---    0.16000   0.16000   0.16000   0.16000   0.16000
     Eigenvalues ---    0.16000   0.16000   0.16000   0.16004   0.16190
     Eigenvalues ---    0.18016   0.21890   0.22595   0.24717   0.24970
     Eigenvalues ---    0.24989   0.28793   0.29389   0.29875   0.34460
     Eigenvalues ---    0.34741   0.34806   0.34809   0.34810   0.34815
     Eigenvalues ---    0.34817   0.34818   0.34821   0.34823   0.37987
     Eigenvalues ---    0.38374   0.44242   0.45827   0.54150   0.58336
     Eigenvalues ---    0.59884   0.85101   0.914951000.000001000.00000
     Eigenvalues --- 1000.000001000.000001000.000001000.000001000.00000
     Eigenvalues --- 1000.000001000.000001000.000001000.000001000.00000
     Eigenvalues --- 1000.000001000.000001000.000001000.000001000.00000
     Eigenvalues --- 1000.000001000.000001000.000001000.000001000.00000
     Eigenvalues --- 1000.000001000.000001000.000001000.000001000.00000
     Eigenvalues --- 1000.000001000.000001000.000001000.000001000.00000
     Eigenvalues --- 1000.000001000.000001000.000001000.000001000.00000
     Eigenvalues --- 1000.000001000.000001000.00000
 RFO step:  Lambda=-1.55593404D-02 EMin= 3.68708729D-03
 Quartic linear search produced a step of  0.29970.
 Maximum step size (   0.505) exceeded in Quadratic search.
    -- Step size scaled by   0.976
 Iteration  1 RMS(Cart)=  0.10141174 RMS(Int)=  0.00522958
 Iteration  2 RMS(Cart)=  0.00922744 RMS(Int)=  0.00105263
 Iteration  3 RMS(Cart)=  0.00003633 RMS(Int)=  0.00105234
 Iteration  4 RMS(Cart)=  0.00000006 RMS(Int)=  0.00105234
 Iteration  1 RMS(Cart)=  0.00037590 RMS(Int)=  0.00015160
 Iteration  2 RMS(Cart)=  0.00021042 RMS(Int)=  0.00016907
 Iteration  3 RMS(Cart)=  0.00012003 RMS(Int)=  0.00019115
 Iteration  4 RMS(Cart)=  0.00007005 RMS(Int)=  0.00020626
 Iteration  5 RMS(Cart)=  0.00004193 RMS(Int)=  0.00021558
 Iteration  6 RMS(Cart)=  0.00002576 RMS(Int)=  0.00022120
 Iteration  7 RMS(Cart)=  0.00001621 RMS(Int)=  0.00022457
 Iteration  8 RMS(Cart)=  0.00001041 RMS(Int)=  0.00022663
 Iteration  9 RMS(Cart)=  0.00000679 RMS(Int)=  0.00022788
 Iteration 10 RMS(Cart)=  0.00000448 RMS(Int)=  0.00022867
 Iteration 11 RMS(Cart)=  0.00000298 RMS(Int)=  0.00022916
 Iteration 12 RMS(Cart)=  0.00000200 RMS(Int)=  0.00022947
 Iteration 13 RMS(Cart)=  0.00000134 RMS(Int)=  0.00022967
 Iteration 14 RMS(Cart)=  0.00000091 RMS(Int)=  0.00022980
 Variable       Old X    -DE/DX   Delta X   Delta X   Delta X     New X
                                 (Linear)    (Quad)   (Total)
    R1        2.04939  -0.00446  -0.00316  -0.00966  -0.01282   2.03657
    R2        2.05649  -0.00156  -0.00096  -0.00363  -0.00459   2.05190
    R3        2.05600  -0.00176  -0.00109  -0.00406  -0.00515   2.05084
    R4        2.87743  -0.00430  -0.00417  -0.00999  -0.01416   2.86327
    R5        2.29644  -0.02861  -0.00781  -0.02403  -0.03184   2.26460
    R6        2.54176   0.00841   0.00572   0.00737   0.01308   2.55485
    R7        1.89361  -0.00804  -0.00454  -0.01293  -0.01747   1.87614
    R8        2.74901  -0.00279   0.00325  -0.01398  -0.01073   2.73827
    R9        2.05396  -0.00295  -0.00173  -0.00698  -0.00871   2.04525
   R10        2.90306   0.00289   0.00635   0.00065   0.00700   2.91005
   R11        2.92212  -0.00462   0.01377  -0.04063  -0.02686   2.89526
   R12        2.05317  -0.00224  -0.00196  -0.00423  -0.00619   2.04699
   R13        2.05104   0.00034  -0.00264   0.00554   0.00290   2.05394
   R14        2.05501  -0.00258  -0.00139  -0.00632  -0.00771   2.04730
   R15        2.29911  -0.02606  -0.00702  -0.02205  -0.02907   2.27004
   R16        2.53312   0.00501   0.00309   0.00491   0.00801   2.54113
   R17        1.88340  -0.00611  -0.00756  -0.00288  -0.01045   1.87296
   R18        2.73740   0.00012  -0.00025   0.00078   0.00053   2.73793
   R19        2.04746  -0.00589  -0.00370  -0.01356  -0.01726   2.03020
   R20        2.05565  -0.00202  -0.00126  -0.00468  -0.00594   2.04971
   R21        2.05469  -0.00234  -0.00155  -0.00524  -0.00679   2.04790
    A1        1.91160   0.00002   0.00016  -0.00279  -0.00245   1.90915
    A2        1.91145   0.00001   0.00009  -0.00201  -0.00170   1.90975
    A3        1.91995  -0.00479  -0.00572  -0.02649  -0.03201   1.88794
    A4        1.90152  -0.00300  -0.00262  -0.01191  -0.01501   1.88651
    A5        1.90976   0.00373   0.00412   0.02031   0.02427   1.93403
    A6        1.90941   0.00405   0.00401   0.02308   0.02694   1.93635
    A7        2.10439   0.00796   0.00038   0.03542   0.03522   2.13961
    A8        2.01111  -0.00343  -0.00719  -0.00448  -0.01218   1.99893
    A9        2.16691  -0.00458   0.00658  -0.03247  -0.02634   2.14057
   A10        2.05847  -0.00087  -0.01073   0.00940  -0.00469   2.05378
   A11        2.19495   0.00196   0.02017  -0.02476  -0.00792   2.18703
   A12        2.02833  -0.00099  -0.00986   0.00877  -0.00449   2.02384
   A13        1.90561  -0.00098  -0.00166  -0.04463  -0.04876   1.85685
   A14        1.88317   0.00190  -0.01675   0.06418   0.04746   1.93063
   A15        1.95624  -0.00628   0.00517  -0.02728  -0.02523   1.93102
   A16        1.88038  -0.00012  -0.00471   0.01873   0.01526   1.89565
   A17        1.86878  -0.00679  -0.00818  -0.03741  -0.04735   1.82143
   A18        1.96764   0.01213   0.02585   0.02429   0.05032   2.01795
   A19        1.91916   0.00105   0.00240   0.00555   0.00772   1.92688
   A20        1.93486   0.00436   0.00713   0.02165   0.02856   1.96341
   A21        1.91363   0.00059   0.00076  -0.00176  -0.00098   1.91264
   A22        1.91150  -0.00177   0.00042  -0.00377  -0.00377   1.90772
   A23        1.89916  -0.00148  -0.00332  -0.01034  -0.01364   1.88553
   A24        1.88490  -0.00292  -0.00757  -0.01221  -0.01975   1.86514
   A25        2.07564  -0.00123  -0.00825   0.00588  -0.00496   2.07068
   A26        2.09098  -0.01147   0.01676  -0.08251  -0.06880   2.02218
   A27        2.11469   0.01256  -0.00907   0.06995   0.05720   2.17189
   A28        2.11159  -0.00289   0.00515  -0.02483  -0.01993   2.09166
   A29        2.12340   0.00397  -0.00125   0.02255   0.02105   2.14444
   A30        2.04818  -0.00109  -0.00390   0.00203  -0.00213   2.04605
   A31        1.90074  -0.00172  -0.00311  -0.00836  -0.01143   1.88931
   A32        1.92116   0.00182   0.00300   0.00891   0.01187   1.93302
   A33        1.91860   0.00171   0.00224   0.00872   0.01092   1.92952
   A34        1.90952  -0.00017  -0.00019  -0.00164  -0.00179   1.90773
   A35        1.90814  -0.00036  -0.00060  -0.00357  -0.00414   1.90399
   A36        1.90561  -0.00130  -0.00136  -0.00416  -0.00564   1.89997
    D1       -0.02021  -0.00053  -0.00607  -0.01684  -0.02330  -0.04351
    D2       -3.12122   0.00074   0.00612   0.02419   0.03068  -3.09054
    D3        2.08059  -0.00114  -0.00680  -0.02399  -0.03143   2.04916
    D4       -1.02042   0.00014   0.00539   0.01704   0.02254  -0.99788
    D5       -2.12060  -0.00011  -0.00520  -0.01240  -0.01770  -2.13830
    D6        1.06157   0.00117   0.00700   0.02863   0.03628   1.09785
    D7       -0.00047   0.00370  -0.00016  -0.00905  -0.00836  -0.00883
    D8       -3.08234   0.00178   0.01776   0.12852   0.14659  -2.93575
    D9       -3.09984   0.00470   0.01253   0.03182   0.04403  -3.05580
   D10        0.10148   0.00278   0.03044   0.16939   0.19898   0.30046
   D11        2.59128   0.00181  -0.00803  -0.09231  -0.09940   2.49188
   D12       -1.65285   0.00219  -0.02462  -0.05856  -0.08278  -1.73563
   D13        0.52366   0.01475   0.00000   0.00000   0.00000   0.52367
   D14       -0.49151  -0.00008   0.00962   0.04311   0.05320  -0.43832
   D15        1.54754   0.00030  -0.00698   0.07686   0.06982   1.61736
   D16       -2.55913   0.01286   0.01764   0.13541   0.15260  -2.40653
   D17        1.07985   0.00029   0.00977   0.02891   0.03933   1.11918
   D18       -3.08707   0.00163   0.01635   0.04208   0.05931  -3.02776
   D19       -1.00755   0.00110   0.01190   0.03930   0.05197  -0.95558
   D20        3.13522   0.00009  -0.00461   0.02046   0.01573  -3.13223
   D21       -1.03170   0.00142   0.00197   0.03363   0.03570  -0.99600
   D22        1.04782   0.00090  -0.00248   0.03085   0.02836   1.07618
   D23       -1.08983  -0.00126  -0.00264   0.00063  -0.00289  -1.09272
   D24        1.02643   0.00007   0.00393   0.01380   0.01709   1.04352
   D25        3.10595  -0.00046  -0.00051   0.01102   0.00975   3.11570
   D26        0.85038  -0.00160   0.01947   0.11314   0.13093   0.98131
   D27       -2.35616  -0.00352   0.00000   0.00000   0.00001  -2.35615
   D28       -1.23891   0.00764   0.02367   0.20793   0.22951  -1.00940
   D29        1.83774   0.00572   0.00420   0.09478   0.09859   1.93633
   D30        2.97934   0.00517   0.01967   0.19498   0.21367  -3.09017
   D31       -0.22719   0.00325   0.00020   0.08184   0.08275  -0.14444
   D32        0.03976   0.00238   0.01195   0.09529   0.10908   0.14884
   D33       -3.10920   0.00126   0.00969   0.05454   0.06631  -3.04289
   D34        3.11492  -0.00013  -0.00797  -0.02305  -0.03310   3.08182
   D35       -0.03404  -0.00126  -0.01023  -0.06380  -0.07587  -0.10991
   D36        0.00250   0.00043   0.00077   0.01814   0.01899   0.02149
   D37        2.09585   0.00026   0.00045   0.01636   0.01683   2.11268
   D38       -2.08761   0.00090   0.00204   0.02239   0.02457  -2.06304
   D39        3.13698  -0.00066  -0.00142  -0.02131  -0.02280   3.11418
   D40       -1.05286  -0.00083  -0.00174  -0.02309  -0.02497  -1.07782
   D41        1.04687  -0.00020  -0.00014  -0.01706  -0.01723   1.02964
         Item               Value     Threshold  Converged?
 Maximum Force            0.028608     0.000450     NO 
 RMS     Force            0.005270     0.000300     NO 
 Maximum Displacement     0.343708     0.001800     NO 
 RMS     Displacement     0.104972     0.001200     NO 
 Predicted change in Energy=-7.191053D-03
 GradGradGradGradGradGradGradGradGradGradGradGradGradGradGradGradGradGrad

                          Input orientation:                          
 ---------------------------------------------------------------------
 Center     Atomic      Atomic             Coordinates (Angstroms)
 Number     Number       Type             X           Y           Z
 ---------------------------------------------------------------------
      1          1           0        0.335587    4.197632   -0.929207
      2          6           0        1.152246    3.733597   -0.400819
      3          1           0        1.239260    2.696629   -0.710862
      4          1           0        0.948544    3.750672    0.665015
      5          6           0        2.419247    4.499773   -0.722450
      6          8           0        2.438587    5.424338   -1.484621
      7          7           0        3.541483    3.985378   -0.171268
      8          1           0        3.448069    3.172995    0.391739
      9          6           0        4.828823    4.648509   -0.119252
     10          1           0        5.266772    4.390684    0.836309
     11          6           0        5.751166    4.130626   -1.238393
     12          1           0        5.343788    4.382059   -2.210087
     13          1           0        6.761507    4.523531   -1.159749
     14          1           0        5.827724    3.051764   -1.175788
     15          6           0        4.650970    6.169017   -0.057869
     16          8           0        3.985895    6.635688    0.826952
     17          7           0        5.448337    6.886090   -0.869196
     18          1           0        6.007003    6.424655   -1.545436
     19          6           0        5.492897    8.334109   -0.848814
     20          1           0        4.819312    8.680744   -0.087022
     21          1           0        6.495240    8.684732   -0.627776
     22          1           0        5.183641    8.737777   -1.805803
 ---------------------------------------------------------------------
                    Distance matrix (angstroms):
                    1          2          3          4          5
     1  H    0.000000
     2  C    1.077708   0.000000
     3  H    1.765591   1.085818   0.000000
     4  H    1.765512   1.085260   1.757431   0.000000
     5  C    2.115580   1.515178   2.154955   2.156195   0.000000
     6  O    2.497179   2.384934   3.078552   3.105209   1.198374
     7  N    3.301105   2.413409   2.693003   2.734554   1.351967
     8  H    3.533033   2.492634   2.514257   2.579925   2.015001
     9  C    4.587863   3.799153   4.128535   4.059279   2.488378
    10  H    5.241269   4.346444   4.635128   4.368758   3.248080
    11  C    5.424812   4.691400   4.763605   5.180010   3.391777
    12  H    5.172693   4.611180   4.683535   5.289899   3.283270
    13  H    6.438308   5.715223   5.833890   6.141466   4.364288
    14  H    5.615816   4.788065   4.625610   5.261504   3.730946
    15  C    4.823704   4.276676   4.911583   4.480950   2.865071
    16  O    4.727892   4.237821   5.042327   4.192259   3.068740
    17  N    5.776818   5.349204   5.940789   5.694978   3.858941
    18  H    6.124078   5.667505   6.109506   6.133863   4.153850
    19  C    6.611714   6.340873   7.063543   6.629533   4.915834
    20  H    6.396199   6.166045   7.001112   6.313003   4.862571
    21  H    7.626681   7.287856   7.968037   7.535389   5.842651
    22  H    6.699624   6.577837   7.297431   6.993725   5.174573
                    6          7          8          9         10
     6  O    0.000000
     7  N    2.238723   0.000000
     8  H    3.099730   0.992809   0.000000
     9  C    2.859960   1.449032   2.084403   0.000000
    10  H    3.801814   2.038653   2.233403   1.082298   0.000000
    11  C    3.564758   2.458160   2.979705   1.539934   2.146312
    12  H    3.170621   2.749989   3.438762   2.169741   3.047381
    13  H    4.427711   3.411049   3.899991   2.198527   2.497224
    14  H    4.148582   2.666007   2.852121   2.159553   2.481111
    15  C    2.735837   2.451958   3.259643   1.532104   2.083563
    16  O    3.033958   2.866721   3.531135   2.356843   2.584720
    17  N    3.402067   3.540808   4.402056   2.439873   3.027996
    18  H    3.706471   3.730576   4.568816   2.564527   3.218336
    19  C    4.266125   4.814410   5.688356   3.815351   4.294342
    20  H    4.269111   4.866868   5.696035   4.032374   4.411051
    21  H    5.274542   5.569292   6.379962   4.396207   4.700163
    22  H    4.314783   5.287124   6.229622   4.437618   5.087718
                   11         12         13         14         15
    11  C    0.000000
    12  H    1.083219   0.000000
    13  H    1.086898   1.770070   0.000000
    14  H    1.083385   1.753183   1.743074   0.000000
    15  C    2.599828   2.881884   2.894154   3.514507   0.000000
[...]
    13  H    6.382917   5.720655   5.938879   6.152997   4.303856
    14  H    5.623160   4.920175   4.850993   5.515408   3.730066
    15  C    4.762448   4.110484   4.737507   4.154516   2.799259
    16  O    4.616937   3.943953   4.663154   3.677842   2.965031
    17  N    5.694917   5.199993   5.876849   5.334836   3.792885
    18  H    5.863533   5.435704   6.041621   5.753855   3.947640
    19  C    6.325809   5.968906   6.796684   5.957521   4.701175
    20  H    6.723479   6.277523   7.099335   6.086784   5.128597
    21  H    7.228006   6.913197   7.717198   6.977092   5.581198
    22  H    5.817464   5.624721   6.552314   5.612896   4.478956
                    6          7          8          9         10
     6  O    0.000000
     7  N    2.243531   0.000000
     8  H    3.079246   0.995805   0.000000
     9  C    2.801522   1.459544   2.074415   0.000000
    10  H    3.772202   2.051715   2.178210   1.083391   0.000000
    11  C    3.435579   2.451963   3.134482   1.528931   2.137954
    12  H    3.007609   2.732930   3.594863   2.166347   3.045356
    13  H    4.269425   3.401756   4.019155   2.177159   2.486113
    14  H    4.048391   2.659680   3.104193   2.145726   2.459908
    15  C    2.692320   2.468034   3.115197   1.540261   2.084166
    16  O    3.009278   2.859091   3.255192   2.366240   2.609930
    17  N    3.312417   3.578864   4.343152   2.476802   3.054294
    18  H    3.368001   3.708835   4.569575   2.618820   3.340545
    19  C    4.037873   4.765788   5.499751   3.823065   4.329032
    20  H    4.643154   5.107086   5.693531   4.147095   4.419764
    21  H    4.836555   5.594676   6.373201   4.542825   5.043767
    22  H    3.654355   4.854479   5.625835   4.201161   4.853115
                   11         12         13         14         15
    11  C    0.000000
    12  H    1.084560   0.000000
    13  H    1.085036   1.770690   0.000000
    14  H    1.083423   1.749273   1.754054   0.000000
    15  C    2.605269   2.909205   2.871132   3.516167   0.000000
    16  O    3.698843   4.026509   4.007116   4.497853   1.200682
    17  N    2.855966   2.932350   2.742354   3.921013   1.349871
    18  H    2.444556   2.287988   2.266416   3.520594   2.009751
    19  C    4.295293   4.250894   4.120942   5.366377   2.417564
    20  H    4.853301   5.002748   4.636755   5.877563   2.671258
    21  H    4.709359   4.592936   4.341593   5.783671   3.296835
    22  H    4.754863   4.527238   4.784325   5.812349   2.785317
                   16         17         18         19         20
    16  O    0.000000
    17  N    2.241111   0.000000
    18  H    3.085392   0.993195   0.000000
    19  C    2.733797   1.450015   2.090215   0.000000
    20  H    2.606677   2.076439   2.922982   1.079516   0.000000
    21  H    3.771073   2.067254   2.319240   1.082251   1.760023
    22  H    2.908027   2.108759   2.624154   1.084344   1.756867
                   21         22
    21  H    0.000000
    22  H    1.767849   0.000000
 Stoichiometry    C6H12N2O2
 Framework group  C1[X(C6H12N2O2)]
 Deg. of freedom    60
 Full point group                 C1      NOp   1
 Largest Abelian subgroup         C1      NOp   1
 Largest concise Abelian subgroup C1      NOp   1
                         Standard orientation:                         
 ---------------------------------------------------------------------
 Center     Atomic      Atomic             Coordinates (Angstroms)
 Number     Number       Type             X           Y           Z
 ---------------------------------------------------------------------
      1          1           0        3.376706   -1.578198   -0.821453
      2          6           0        3.038757   -0.979724    0.011734
      3          1           0        3.790515   -0.238928    0.260802
      4          1           0        2.895809   -1.626721    0.871907
      5          6           0        1.714226   -0.345964   -0.339703
      6          8           0        1.007273   -0.763914   -1.212832
      7          7           0        1.382973    0.767253    0.383354
      8          1           0        1.941164    0.912916    1.195039
      9          6           0       -0.011779    1.166491    0.543185
     10          1           0       -0.113058    1.541914    1.554391
     11          6           0       -0.355031    2.292084   -0.432954
     12          1           0       -0.245815    1.959085   -1.459333
     13          1           0       -1.363472    2.661912   -0.279410
     14          1           0        0.330400    3.117429   -0.281977
     15          6           0       -0.937050   -0.064515    0.513156
     16          8           0       -0.705054   -0.981957    1.252152
     17          7           0       -2.060371    0.010015   -0.231657
     18          1           0       -2.052197    0.629337   -1.008065
     19          6           0       -2.916903   -1.154458   -0.345226
     20          1           0       -3.185308   -1.501375    0.641163
     21          1           0       -3.816354   -0.870377   -0.875843
     22          1           0       -2.427680   -1.964395   -0.874817
 ---------------------------------------------------------------------
 Rotational constants (GHZ):      2.0091371      0.9721759      0.8097554

 **********************************************************************

            Population analysis using the SCF density.

 **********************************************************************

 Orbital symmetries:
       Occupied  (A) (A) (A) (A) (A) (A) (A) (A) (A) (A) (A) (A)
                 (A) (A) (A) (A) (A) (A) (A) (A) (A) (A) (A) (A)
                 (A) (A) (A) (A) (A) (A) (A) (A) (A) (A) (A) (A)
                 (A) (A) (A)
       Virtual   (A) (A) (A) (A) (A) (A) (A) (A) (A) (A) (A) (A)
                 (A) (A) (A) (A) (A) (A) (A) (A) (A) (A) (A) (A)
                 (A) (A) (A) (A) (A) (A) (A) (A) (A) (A) (A) (A)
                 (A) (A) (A) (A) (A) (A) (A) (A) (A) (A) (A) (A)
                 (A) (A) (A) (A) (A) (A) (A) (A) (A) (A) (A) (A)
                 (A) (A) (A) (A) (A) (A) (A) (A) (A) (A) (A) (A)
                 (A) (A) (A) (A) (A) (A) (A) (A) (A) (A) (A) (A)
                 (A) (A) (A) (A) (A) (A) (A) (A) (A) (A) (A) (A)
                 (A) (A) (A) (A) (A) (A) (A) (A) (A) (A) (A) (A)
                 (A) (A) (A) (A) (A) (A) (A) (A) (A) (A) (A) (A)
                 (A) (A) (A) (A) (A) (A) (A) (A) (A) (A) (A) (A)
                 (A) (A) (A)
 The electronic state is 1-A.
 Alpha  occ. eigenvalues --  -20.52585 -20.51390 -15.58419 -15.57795 -11.34802
 Alpha  occ. eigenvalues --  -11.34027 -11.28342 -11.24774 -11.23035 -11.22599
 Alpha  occ. eigenvalues --   -1.39870  -1.38094  -1.23675  -1.22604  -1.05440
 Alpha  occ. eigenvalues --   -0.99271  -0.94659  -0.88417  -0.79953  -0.77122
 Alpha  occ. eigenvalues --   -0.71188  -0.69593  -0.64508  -0.64068  -0.62006
 Alpha  occ. eigenvalues --   -0.61253  -0.59854  -0.57810  -0.56849  -0.56002
 Alpha  occ. eigenvalues --   -0.54717  -0.54313  -0.52999  -0.51772  -0.49226
 Alpha  occ. eigenvalues --   -0.41998  -0.41717  -0.39398  -0.38457
 Alpha virt. eigenvalues --    0.18653   0.20108   0.23154   0.23965   0.26480
 Alpha virt. eigenvalues --    0.27778   0.30087   0.30215   0.31069   0.31451
 Alpha virt. eigenvalues --    0.32774   0.33602   0.34753   0.34857   0.37945
 Alpha virt. eigenvalues --    0.38665   0.39992   0.45577   0.46910   0.50512
 Alpha virt. eigenvalues --    0.53723   0.59951   0.63226   0.70898   0.73966
 Alpha virt. eigenvalues --    0.74250   0.76265   0.77019   0.78810   0.82035
 Alpha virt. eigenvalues --    0.82143   0.83836   0.84069   0.89200   0.90911
 Alpha virt. eigenvalues --    0.92570   0.94389   0.95312   0.97177   0.98301
 Alpha virt. eigenvalues --    1.01556   1.04376   1.05237   1.06572   1.09775
 Alpha virt. eigenvalues --    1.11735   1.12906   1.13607   1.14512   1.15467
 Alpha virt. eigenvalues --    1.16707   1.17861   1.19789   1.20070   1.21015
 Alpha virt. eigenvalues --    1.22606   1.22971   1.23486   1.24176   1.27041
 Alpha virt. eigenvalues --    1.28689   1.35009   1.37866   1.38930   1.42324
 Alpha virt. eigenvalues --    1.44152   1.49514   1.53734   1.57377   1.61261
 Alpha virt. eigenvalues --    1.63435   1.65410   1.71976   1.74360   1.77384
 Alpha virt. eigenvalues --    1.79913   1.84795   1.90911   1.93727   1.99549
 Alpha virt. eigenvalues --    2.01009   2.06917   2.08237   2.12358   2.12645
 Alpha virt. eigenvalues --    2.15407   2.17301   2.19978   2.21483   2.24482
 Alpha virt. eigenvalues --    2.27586   2.31902   2.32203   2.33510   2.36960
 Alpha virt. eigenvalues --    2.39279   2.40935   2.42806   2.44770   2.49305
 Alpha virt. eigenvalues --    2.53641   2.55212   2.57592   2.62723   2.64338
 Alpha virt. eigenvalues --    2.68224   2.70441   2.72025   2.76573   2.78095
 Alpha virt. eigenvalues --    2.84556   2.86022   2.87204   2.93003   2.97896
 Alpha virt. eigenvalues --    3.01592   3.05548   3.06813   3.11991   3.25872
 Alpha virt. eigenvalues --    3.33988   3.38793   3.40043   3.54215   3.55913
 Alpha virt. eigenvalues --    4.38968   4.42622   4.49655   4.58386   4.64081
 Alpha virt. eigenvalues --    4.68582   4.77817   4.81506   4.92492   5.11678
          Condensed to atoms (all electrons):
              1          2          3          4          5          6
     1  H    0.465360   0.382606  -0.021098  -0.016679  -0.031534   0.003392
     2  C    0.382606   5.276138   0.375199   0.374775   0.370064  -0.069874
     3  H   -0.021098   0.375199   0.521470  -0.024031  -0.035911   0.001964
     4  H   -0.016679   0.374775  -0.024031   0.481381  -0.026863   0.000057
     5  C   -0.031534   0.370064  -0.035911  -0.026863   4.133749   0.601157
     6  O    0.003392  -0.069874   0.001964   0.000057   0.601157   8.164230
     7  N    0.004215  -0.116981   0.004549   0.000490   0.269032  -0.105275
     8  H    0.000096   0.000695  -0.000158  -0.000012  -0.021948   0.002840
     9  C   -0.000117   0.005517   0.000061  -0.000320  -0.031566   0.010722
    10  H    0.000000  -0.000048  -0.000014   0.000011   0.003583   0.000330
    11  C    0.000007  -0.000210  -0.000010   0.000001  -0.001765  -0.001903
    12  H   -0.000001   0.000061  -0.000006   0.000000   0.001551   0.002852
    13  H    0.000000   0.000003   0.000000   0.000000   0.000027   0.000044
    14  H    0.000000   0.000000   0.000001   0.000000   0.000255  -0.000038
    15  C   -0.000002  -0.000327   0.000024   0.000060   0.002048   0.005186
    16  O    0.000004  -0.000771   0.000000   0.000493   0.007784  -0.005188
    17  N    0.000000  -0.000041   0.000000   0.000002  -0.000609  -0.002248
    18  H    0.000000   0.000002   0.000000   0.000000  -0.000063   0.000275
    19  C    0.000000   0.000000   0.000000   0.000000   0.000006  -0.000225
    20  H    0.000000   0.000000   0.000000   0.000000  -0.000005   0.000005
    21  H    0.000000   0.000000   0.000000   0.000000   0.000000  -0.000003
    22  H    0.000000   0.000002   0.000000   0.000000   0.000044   0.000374
              7          8          9         10         11         12
     1  H    0.004215   0.000096  -0.000117   0.000000   0.000007  -0.000001
     2  C   -0.116981   0.000695   0.005517  -0.000048  -0.000210   0.000061
     3  H    0.004549  -0.000158   0.000061  -0.000014  -0.000010  -0.000006
     4  H    0.000490  -0.000012  -0.000320   0.000011   0.000001   0.000000
     5  C    0.269032  -0.021948  -0.031566   0.003583  -0.001765   0.001551
     6  O   -0.105275   0.002840   0.010722   0.000330  -0.001903   0.002852
     7  N    7.346273   0.328431   0.196955  -0.039924  -0.070566  -0.002972
     8  H    0.328431   0.338373  -0.028431  -0.005244   0.003423  -0.000068
     9  C    0.196955  -0.028431   5.030906   0.414036   0.316484  -0.034107
    10  H   -0.039924  -0.005244   0.414036   0.493877  -0.040825   0.003720
    11  C   -0.070566   0.003423   0.316484  -0.040825   5.187911   0.388583
    12  H   -0.002972  -0.000068  -0.034107   0.003720   0.388583   0.501128
    13  H    0.004648  -0.000093  -0.038519  -0.001445   0.382620  -0.026120
    14  H   -0.000983   0.000013  -0.028700  -0.003016   0.389437  -0.022996
    15  C   -0.044611   0.001503   0.396219  -0.035726  -0.055522  -0.002062
    16  O    0.000027   0.000167  -0.076618   0.001089   0.003019  -0.000020
    17  N    0.002426  -0.000068  -0.099267   0.000881   0.001428  -0.000434
    18  H   -0.000027  -0.000006  -0.003073   0.000235   0.000644   0.001631
    19  C   -0.000077   0.000002   0.004627  -0.000156  -0.000195  -0.000090
    20  H   -0.000005   0.000000   0.000000   0.000019  -0.000009   0.000000
    21  H    0.000000   0.000000   0.000018   0.000004  -0.000019   0.000007
    22  H    0.000007   0.000000  -0.000168  -0.000008   0.000001  -0.000005
             13         14         15         16         17         18
     1  H    0.000000   0.000000  -0.000002   0.000004   0.000000   0.000000
     2  C    0.000003   0.000000  -0.000327  -0.000771  -0.000041   0.000002
     3  H    0.000000   0.000001   0.000024   0.000000   0.000000   0.000000
     4  H    0.000000   0.000000   0.000060   0.000493   0.000002   0.000000
     5  C    0.000027   0.000255   0.002048   0.007784  -0.000609  -0.000063
     6  O    0.000044  -0.000038   0.005186  -0.005188  -0.002248   0.000275
     7  N    0.004648  -0.000983  -0.044611   0.000027   0.002426  -0.000027
     8  H   -0.000093   0.000013   0.001503   0.000167  -0.000068  -0.000006
     9  C   -0.038519  -0.028700   0.396219  -0.076618  -0.099267  -0.003073
    10  H   -0.001445  -0.003016  -0.035726   0.001089   0.000881   0.000235
    11  C    0.382620   0.389437  -0.055522   0.003019   0.001428   0.000644
    12  H   -0.026120  -0.022996  -0.002062  -0.000020  -0.000434   0.001631
    13  H    0.536104  -0.023719  -0.000166  -0.000051   0.000494  -0.001405
    14  H   -0.023719   0.504511   0.003082  -0.000054   0.000052   0.000117
    15  C   -0.000166   0.003082   4.127065   0.567750   0.299742  -0.016355
    16  O   -0.000051  -0.000054   0.567750   8.215833  -0.098541   0.002620
    17  N    0.000494   0.000052   0.299742  -0.098541   7.284004   0.320853
    18  H   -0.001405   0.000117  -0.016355   0.002620   0.320853   0.328028
    19  C    0.000017   0.000004  -0.033135   0.006947   0.209467  -0.025348
    20  H   -0.000013   0.000000  -0.004138   0.003752  -0.037741   0.003107
    21  H   -0.000006   0.000000   0.004553   0.000414  -0.039405  -0.003777
    22  H    0.000009   0.000000  -0.002281   0.001435  -0.047103   0.000322
             19         20         21         22
     1  H    0.000000   0.000000   0.000000   0.000000
     2  C    0.000000   0.000000   0.000000   0.000002
     3  H    0.000000   0.000000   0.000000   0.000000
     4  H    0.000000   0.000000   0.000000   0.000000
     5  C    0.000006  -0.000005   0.000000   0.000044
     6  O   -0.000225   0.000005  -0.000003   0.000374
     7  N   -0.000077  -0.000005   0.000000   0.000007
     8  H    0.000002   0.000000   0.000000   0.000000
     9  C    0.004627   0.000000   0.000018  -0.000168
    10  H   -0.000156   0.000019   0.000004  -0.000008
    11  C   -0.000195  -0.000009  -0.000019   0.000001
    12  H   -0.000090   0.000000   0.000007  -0.000005
    13  H    0.000017  -0.000013  -0.000006   0.000009
    14  H    0.000004   0.000000   0.000000   0.000000
    15  C   -0.033135  -0.004138   0.004553  -0.002281
    16  O    0.006947   0.003752   0.000414   0.001435
    17  N    0.209467  -0.037741  -0.039405  -0.047103
    18  H   -0.025348   0.003107  -0.003777   0.000322
    19  C    4.914262   0.402807   0.397310   0.405358
    20  H    0.402807   0.488054  -0.025392  -0.031045
    21  H    0.397310  -0.025392   0.533832  -0.032010
    22  H    0.405358  -0.031045  -0.032010   0.516950
 Mulliken atomic charges:
              1
     1  H    0.213750
     2  C   -0.596808
     3  H    0.177959
     4  H    0.210635
     5  C    0.760964
     6  O   -0.608673
     7  N   -0.775632
     8  H    0.380485
     9  C   -0.034659
    10  H    0.208621
    11  C   -0.502533
    12  H    0.189347
    13  H    0.167569
    14  H    0.182033
    15  C    0.787090
    16  O   -0.630090
    17  N   -0.793893
    18  H    0.392221
    19  C   -0.281582
    20  H    0.200602
    21  H    0.164474
    22  H    0.188120
 Sum of Mulliken atomic charges =   0.00000
 Mulliken charges with hydrogens summed into heavy atoms:
              1
     2  C    0.005536
     5  C    0.760964
     6  O   -0.608673
     7  N   -0.395147
     9  C    0.173962
    11  C    0.036416
    15  C    0.787090
    16  O   -0.630090
    17  N   -0.401672
    19  C    0.271615
 Sum of Mulliken charges with hydrogens summed into heavy atoms =   0.00000
 Electronic spatial extent (au):  <R**2>=           1589.9148
 Charge=              0.0000 electrons
 Dipole moment (field-independent basis, Debye):
    X=              0.5497    Y=              3.1093    Z=              0.3985  Tot=              3.1826
 Quadrupole moment (field-independent basis, Debye-Ang):
   XX=            -48.4549   YY=            -60.7403   ZZ=            -63.4132
   XY=             -0.6026   XZ=              7.5885   YZ=              2.1320
 Traceless Quadrupole moment (field-independent basis, Debye-Ang):
   XX=              9.0813   YY=             -3.2042   ZZ=             -5.8771
   XY=             -0.6026   XZ=              7.5885   YZ=              2.1320
 Octapole moment (field-independent basis, Debye-Ang**2):
  XXX=              6.7999  YYY=             -2.2124  ZZZ=              2.2019  XYY=             -0.6822
  XXY=            -11.7345  XXZ=             -1.9625  XZZ=             -0.3346  YZZ=              8.8186
  YYZ=              0.5466  XYZ=              0.0780
 Hexadecapole moment (field-independent basis, Debye-Ang**3):
 XXXX=          -1187.4452 YYYY=           -561.3420 ZZZZ=           -240.2144 XXXY=             11.1047
 XXXZ=             21.0675 YYYX=              1.5368 YYYZ=              7.1936 ZZZX=             11.7106
 ZZZY=              5.0593 XXYY=           -292.9109 XXZZ=           -238.7894 YYZZ=           -134.2208
 XXYZ=              3.3718 YYXZ=              6.6911 ZZXY=              0.6179
 N-N= 5.744638445031D+02 E-N=-2.304661487758D+03  KE= 4.921282983144D+02
 1\1\GINC-RODAN\FOpt\RHF\6-31G(d)\C6H12N2O2\STEBOSS\09-Feb-2017\0\\# HF
 /6-31G* Opt=(ModRedundant) geom=nocrowd\\Phi Psi fixed scan\\0,1\H,0.4
 715126064,4.2197617226,-1.2320866381\C,1.187770117,3.9606816373,-0.466
 2967384\H,1.1844763849,2.8878907993,-0.3079862052\H,0.8989711926,4.445
 6808699,0.4612307016\C,2.550528075,4.4688204793,-0.8715484063\O,2.7033
 016257,5.3348720386,-1.6860631567\N,3.6129534701,3.8495942562,-0.27187
 94617\H,3.3724149437,3.2859792564,0.5130454871\C,4.8980584892,4.529321
 6944,-0.1424772871\H,5.3023360856,4.2474137674,0.8223152136\C,5.859354
 8327,4.0553698861,-1.2328477841\H,5.4779104345,4.3029478368,-2.2174676
 976\H,6.8477130742,4.4860343086,-1.1104617973\H,5.9554916377,2.9774846
 406,-1.1806367664\C,4.698965667,6.0523193516,-0.0273945038\O,3.9456079
 714,6.4769298148,0.805548934\N,5.5010600284,6.8497483981,-0.7642137587
 \H,5.8726370667,6.4715417009,-1.6040508652\C,5.2934237458,8.2846186749
 ,-0.7401871399\H,5.31205151,8.6339041773,0.2810904514\H,6.0965862616,8
 .7584093621,-1.2894780715\H,4.3429747799,8.5616753269,-1.1825545098\\V
 ersion=EM64L-G09RevA.02\State=1-A\HF=-492.8487324\RMSD=4.905e-09\RMSF=
 2.953e-03\Dipole=0.7087627,-1.032036,0.0190888\Quadrupole=2.3029065,2.
 5049176,-4.8078241,4.466573,-3.024124,-4.8247027\PG=C01 [X(C6H12N2O2)]
 \\@


 DEMOCRATS BUY MOST OF THE BOOKS THAT HAVE BEEN
 BANNED; REPUBLICANS FORM CENSORSHIP COMMITTEES AND
 READ THEM AS A GROUP.
 Job cpu time:  0 days  0 hours 20 minutes 38.1 seconds.
 File lengths (MBytes):  RWF=     25 Int=      0 D2E=      0 Chk=      3 Scr=      1
 Normal termination of Gaussian 09 at Thu Feb  9 16:22:15 2017.
