 Entering Gaussian System, Link 0=g09
 Initial command:
 /home/steboss/Software/g09/l1.exe /tmp/Gau-11301.inp -scrdir=/tmp/
 Entering Link 1 = /home/steboss/Software/g09/l1.exe PID=     11303.
  
 Copyright (c) 1988,1990,1992,1993,1995,1998,2003,2009, Gaussian, Inc.
                  All Rights Reserved.
  
 This is part of the Gaussian(R) 09 program.  It is based on
 the Gaussian(R) 03 system (copyright 2003, Gaussian, Inc.),
 the Gaussian(R) 98 system (copyright 1998, Gaussian, Inc.),
 the Gaussian(R) 94 system (copyright 1995, Gaussian, Inc.),
 the Gaussian 92(TM) system (copyright 1992, Gaussian, Inc.),
 the Gaussian 90(TM) system (copyright 1990, Gaussian, Inc.),
 the Gaussian 88(TM) system (copyright 1988, Gaussian, Inc.),
 the Gaussian 86(TM) system (copyright 1986, Carnegie Mellon
 University), and the Gaussian 82(TM) system (copyright 1983,
 Carnegie Mellon University). Gaussian is a federally registered
 trademark of Gaussian, Inc.
  
 This software contains proprietary and confidential information,
 including trade secrets, belonging to Gaussian, Inc.
  
 This software is provided under written license and may be
 used, copied, transmitted, or stored only in accord with that
 written license.
  
 The following legend is applicable only to US Government
 contracts under FAR:
  
                    RESTRICTED RIGHTS LEGEND
  
 Use, reproduction and disclosure by the US Government is
 subject to restrictions as set forth in subparagraphs (a)
 and (c) of the Commercial Computer Software - Restricted
 Rights clause in FAR 52.227-19.
  
 Gaussian, Inc.
 340 Quinnipiac St., Bldg. 40, Wallingford CT 06492
  
  
 ---------------------------------------------------------------
 Warning -- This program may not be used in any manner that
 competes with the business of Gaussian, Inc. or will provide
 assistance to any competitor of Gaussian, Inc.  The licensee
 of this program is prohibited from giving any competitor of
 Gaussian, Inc. access to this program.  By using this program,
 the user acknowledges that Gaussian, Inc. is engaged in the
 business of creating and licensing software in the field of
 computational chemistry and represents and warrants to the
 licensee that it is not a competitor of Gaussian, Inc. and that
 it will not use this program in any manner prohibited above.
 ---------------------------------------------------------------
  

 Cite this work as:
 Gaussian 09, Revision A.02,
 M. J. Frisch, G. W. Trucks, H. B. Schlegel, G. E. Scuseria, 
 M. A. Robb, J. R. Cheeseman, G. Scalmani, V. Barone, B. Mennucci, 
 G. A. Petersson, H. Nakatsuji, M. Caricato, X. Li, H. P. Hratchian, 
 A. F. Izmaylov, J. Bloino, G. Zheng, J. L. Sonnenberg, M. Hada, 
 M. Ehara, K. Toyota, R. Fukuda, J. Hasegawa, M. Ishida, T. Nakajima, 
 Y. Honda, O. Kitao, H. Nakai, T. Vreven, J. A. Montgomery, Jr., 
 J. E. Peralta, F. Ogliaro, M. Bearpark, J. J. Heyd, E. Brothers, 
 K. N. Kudin, V. N. Staroverov, R. Kobayashi, J. Normand, 
 K. Raghavachari, A. Rendell, J. C. Burant, S. S. Iyengar, J. Tomasi, 
 M. Cossi, N. Rega, J. M. Millam, M. Klene, J. E. Knox, J. B. Cross, 
 V. Bakken, C. Adamo, J. Jaramillo, R. Gomperts, R. E. Stratmann, 
 O. Yazyev, A. J. Austin, R. Cammi, C. Pomelli, J. W. Ochterski, 
 R. L. Martin, K. Morokuma, V. G. Zakrzewski, G. A. Voth, 
 P. Salvador, J. J. Dannenberg, S. Dapprich, A. D. Daniels, 
 O. Farkas, J. B. Foresman, J. V. Ortiz, J. Cioslowski, 
 and D. J. Fox, Gaussian, Inc., Wallingford CT, 2009.
 
 ******************************************
 Gaussian 09:  EM64L-G09RevA.02 11-Jun-2009
                 9-Feb-2017 
 ******************************************
 %chk=structure_15.chk
 %NProcShared=8
 Will use up to    8 processors via shared memory.
 -------------------------------------------
 # HF/6-31G* Opt=(ModRedundant) geom=nocrowd
 -------------------------------------------
 1/18=120,19=15,38=1/1,3;
 2/9=110,12=1,17=6,18=5,40=1/2;
 3/5=1,6=6,7=1,11=9,16=1,25=1,30=1,71=1/1,2,3;
 4//1;
 5/5=2,38=5/2;
 6/7=2,8=2,9=2,10=2,28=1/1;
 7//1,2,3,16;
 1/18=20,19=15/3(2);
 2/9=110,12=1/2;
 99//99;
 2/9=110,12=1/2;
 3/5=1,6=6,7=1,11=9,16=1,25=1,30=1,71=1/1,2,3;
 4/5=5,16=3/1;
 5/5=2,38=5/2;
 7//1,2,3,16;
 1/18=20,19=15/3(-5);
 2/9=110,12=1/2;
 6/7=2,8=2,9=2,10=2,19=2,28=1/1;
 99/9=1/99;
 ------------------
 Phi Psi fixed scan
 ------------------
 Symbolic Z-matrix:
 Charge =  0 Multiplicity = 1
 H                     0.3668    4.29     -0.9842 
 C                     1.1769    3.7481   -0.496 
 H                     1.3209    2.787    -0.9895 
 H                     0.9253    3.584     0.5517 
 C                     2.4871    4.5351   -0.5667 
 O                     2.5276    5.6304   -1.1227 
 N                     3.5554    3.9697    0. 
 H                     3.4723    3.067     0.4455 
 C                     4.8533    4.6139    0. 
 H                     5.4076    4.3155    0.8898 
 C                     5.6613    4.2208   -1.2322 
 H                     5.1233    4.5214   -2.1312 
 H                     6.6305    4.7189   -1.2058 
 H                     5.8085    3.1409   -1.2414 
 C                     4.7127    6.1294    0. 
 O                     5.6735    6.845    -0.2741 
 N                     3.5094    6.6181    0.309 
 H                     2.7497    5.9893    0.5272 
 C                     3.2474    8.0428    0.3436 
 H                     4.1568    8.5863    0.0875 
 H                     2.4646    8.2864   -0.3748 
 H                     2.9233    8.3289    1.3442 
 
 The following ModRedundant input section has been read:
 D    5    7    9   15 F                                                       
 D    7    9   15   17 F                                                       

 GradGradGradGradGradGradGradGradGradGradGradGradGradGradGradGradGradGrad
 Berny optimization.
 Initialization pass.
                           ----------------------------
                           !    Initial Parameters    !
                           ! (Angstroms and Degrees)  !
 --------------------------                            --------------------------
 ! Name  Definition              Value          Derivative Info.                !
 --------------------------------------------------------------------------------
 ! R1    R(1,2)                  1.0901         estimate D2E/DX2                !
 ! R2    R(2,3)                  1.09           estimate D2E/DX2                !
 ! R3    R(2,4)                  1.0899         estimate D2E/DX2                !
 ! R4    R(2,5)                  1.53           estimate D2E/DX2                !
 ! R5    R(5,6)                  1.229          estimate D2E/DX2                !
 ! R6    R(5,7)                  1.3349         estimate D2E/DX2                !
 ! R7    R(6,18)                 1.703          estimate D2E/DX2                !
 ! R8    R(7,8)                  1.0101         estimate D2E/DX2                !
 ! R9    R(7,9)                  1.449          estimate D2E/DX2                !
 ! R10   R(9,10)                 1.09           estimate D2E/DX2                !
 ! R11   R(9,11)                 1.525          estimate D2E/DX2                !
 ! R12   R(9,15)                 1.522          estimate D2E/DX2                !
 ! R13   R(11,12)                1.09           estimate D2E/DX2                !
 ! R14   R(11,13)                1.09           estimate D2E/DX2                !
 ! R15   R(11,14)                1.0899         estimate D2E/DX2                !
 ! R16   R(15,16)                1.229          estimate D2E/DX2                !
 ! R17   R(15,17)                1.335          estimate D2E/DX2                !
 ! R18   R(17,18)                1.01           estimate D2E/DX2                !
 ! R19   R(17,19)                1.449          estimate D2E/DX2                !
 ! R20   R(19,20)                1.0899         estimate D2E/DX2                !
 ! R21   R(19,21)                1.0901         estimate D2E/DX2                !
 ! R22   R(19,22)                1.09           estimate D2E/DX2                !
 ! A1    A(1,2,3)              109.4971         estimate D2E/DX2                !
 ! A2    A(1,2,4)              109.5001         estimate D2E/DX2                !
 ! A3    A(1,2,5)              111.0994         estimate D2E/DX2                !
 ! A4    A(3,2,4)              109.4493         estimate D2E/DX2                !
 ! A5    A(3,2,5)              108.6331         estimate D2E/DX2                !
 ! A6    A(4,2,5)              108.6352         estimate D2E/DX2                !
 ! A7    A(2,5,6)              120.4996         estimate D2E/DX2                !
 ! A8    A(2,5,7)              116.6031         estimate D2E/DX2                !
 ! A9    A(6,5,7)              122.8973         estimate D2E/DX2                !
 ! A10   A(5,7,8)              119.9941         estimate D2E/DX2                !
 ! A11   A(5,7,9)              121.9053         estimate D2E/DX2                !
 ! A12   A(8,7,9)              118.1007         estimate D2E/DX2                !
 ! A13   A(7,9,10)             109.5            estimate D2E/DX2                !
 ! A14   A(7,9,11)             111.0992         estimate D2E/DX2                !
 ! A15   A(7,9,15)             111.0966         estimate D2E/DX2                !
 ! A16   A(10,9,11)            108.6382         estimate D2E/DX2                !
 ! A17   A(10,9,15)            108.6373         estimate D2E/DX2                !
 ! A18   A(11,9,15)            107.7947         estimate D2E/DX2                !
 ! A19   A(9,11,12)            109.5007         estimate D2E/DX2                !
 ! A20   A(9,11,13)            109.4959         estimate D2E/DX2                !
 ! A21   A(9,11,14)            109.4978         estimate D2E/DX2                !
 ! A22   A(12,11,13)           109.441          estimate D2E/DX2                !
 ! A23   A(12,11,14)           109.4482         estimate D2E/DX2                !
 ! A24   A(13,11,14)           109.4436         estimate D2E/DX2                !
 ! A25   A(9,15,16)            120.502          estimate D2E/DX2                !
 ! A26   A(9,15,17)            116.6004         estimate D2E/DX2                !
 ! A27   A(16,15,17)           122.8976         estimate D2E/DX2                !
 ! A28   A(15,17,18)           120.0041         estimate D2E/DX2                !
 ! A29   A(15,17,19)           121.8993         estimate D2E/DX2                !
 ! A30   A(18,17,19)           118.0965         estimate D2E/DX2                !
 ! A31   A(17,19,20)           109.5002         estimate D2E/DX2                !
 ! A32   A(17,19,21)           109.5019         estimate D2E/DX2                !
 ! A33   A(17,19,22)           109.4971         estimate D2E/DX2                !
 ! A34   A(20,19,21)           109.4439         estimate D2E/DX2                !
 ! A35   A(20,19,22)           109.4447         estimate D2E/DX2                !
 ! A36   A(21,19,22)           109.4395         estimate D2E/DX2                !
 ! D1    D(1,2,5,6)              0.003          estimate D2E/DX2                !
 ! D2    D(1,2,5,7)            179.9971         estimate D2E/DX2                !
 ! D3    D(3,2,5,6)            120.5094         estimate D2E/DX2                !
 ! D4    D(3,2,5,7)            -59.4964         estimate D2E/DX2                !
 ! D5    D(4,2,5,6)           -120.5085         estimate D2E/DX2                !
 ! D6    D(4,2,5,7)             59.4856         estimate D2E/DX2                !
 ! D7    D(2,5,7,8)              0.0039         estimate D2E/DX2                !
 ! D8    D(2,5,7,9)            179.9999         estimate D2E/DX2                !
 ! D9    D(6,5,7,8)            179.998          estimate D2E/DX2                !
 ! D10   D(6,5,7,9)             -0.0061         estimate D2E/DX2                !
 ! D11   D(5,7,9,10)           150.0036         estimate D2E/DX2                !
 ! D12   D(5,7,9,11)           -89.9938         estimate D2E/DX2                !
 ! D13   D(5,7,9,15)            30.0038         Frozen                          !
 ! D14   D(8,7,9,10)           -30.0003         estimate D2E/DX2                !
 ! D15   D(8,7,9,11)            90.0022         estimate D2E/DX2                !
 ! D16   D(8,7,9,15)          -150.0002         estimate D2E/DX2                !
 ! D17   D(7,9,11,12)           60.0024         estimate D2E/DX2                !
 ! D18   D(7,9,11,13)          179.9986         estimate D2E/DX2                !
 ! D19   D(7,9,11,14)          -60.0038         estimate D2E/DX2                !
 ! D20   D(10,9,11,12)        -179.4843         estimate D2E/DX2                !
 ! D21   D(10,9,11,13)         -59.4881         estimate D2E/DX2                !
 ! D22   D(10,9,11,14)          60.5095         estimate D2E/DX2                !
 ! D23   D(15,9,11,12)         -61.938          estimate D2E/DX2                !
 ! D24   D(15,9,11,13)          58.0582         estimate D2E/DX2                !
 ! D25   D(15,9,11,14)         178.0558         estimate D2E/DX2                !
 ! D26   D(7,9,15,16)         -164.9978         estimate D2E/DX2                !
 ! D27   D(7,9,15,17)           15.0024         Frozen                          !
 ! D28   D(10,9,15,16)          74.4911         estimate D2E/DX2                !
 ! D29   D(10,9,15,17)        -105.5087         estimate D2E/DX2                !
 ! D30   D(11,9,15,16)         -43.0558         estimate D2E/DX2                !
 ! D31   D(11,9,15,17)         136.9444         estimate D2E/DX2                !
 ! D32   D(9,15,17,18)          -0.0058         estimate D2E/DX2                !
 ! D33   D(9,15,17,19)        -179.9981         estimate D2E/DX2                !
 ! D34   D(16,15,17,18)        179.9944         estimate D2E/DX2                !
 ! D35   D(16,15,17,19)          0.0022         estimate D2E/DX2                !
 ! D36   D(15,17,19,20)         -0.0031         estimate D2E/DX2                !
 ! D37   D(15,17,19,21)        120.0            estimate D2E/DX2                !
 ! D38   D(15,17,19,22)       -120.0042         estimate D2E/DX2                !
 ! D39   D(18,17,19,20)       -179.9955         estimate D2E/DX2                !
 ! D40   D(18,17,19,21)        -59.9924         estimate D2E/DX2                !
 ! D41   D(18,17,19,22)         60.0034         estimate D2E/DX2                !
 --------------------------------------------------------------------------------
 Trust Radius=3.00D-01 FncErr=1.00D-07 GrdErr=1.00D-07
 Number of steps in this run= 109 maximum allowed number of steps= 132.
 GradGradGradGradGradGradGradGradGradGradGradGradGradGradGradGradGradGrad

                          Input orientation:                          
 ---------------------------------------------------------------------
 Center     Atomic      Atomic             Coordinates (Angstroms)
 Number     Number       Type             X           Y           Z
 ---------------------------------------------------------------------
      1          1           0        0.366800    4.290000   -0.984200
      2          6           0        1.176900    3.748100   -0.496000
      3          1           0        1.320900    2.787000   -0.989500
      4          1           0        0.925300    3.584000    0.551700
      5          6           0        2.487100    4.535100   -0.566700
      6          8           0        2.527600    5.630400   -1.122700
      7          7           0        3.555400    3.969700    0.000000
      8          1           0        3.472300    3.067000    0.445500
      9          6           0        4.853300    4.613900    0.000000
     10          1           0        5.407600    4.315500    0.889800
     11          6           0        5.661300    4.220800   -1.232200
     12          1           0        5.123300    4.521400   -2.131200
     13          1           0        6.630500    4.718900   -1.205800
     14          1           0        5.808500    3.140900   -1.241400
     15          6           0        4.712700    6.129400    0.000000
     16          8           0        5.673500    6.845000   -0.274100
     17          7           0        3.509400    6.618100    0.309000
     18          1           0        2.749700    5.989300    0.527200
     19          6           0        3.247400    8.042800    0.343600
     20          1           0        4.156800    8.586300    0.087500
     21          1           0        2.464600    8.286400   -0.374800
     22          1           0        2.923300    8.328900    1.344200
 ---------------------------------------------------------------------
                    Distance matrix (angstroms):
                    1          2          3          4          5
     1  H    0.000000
     2  C    1.090072   0.000000
     3  H    1.780265   1.089950   0.000000
     4  H    1.780266   1.089911   1.779608   0.000000
     5  C    2.174868   1.530030   2.143510   2.143509   0.000000
     6  O    2.546549   2.400041   3.091729   3.091720   1.229007
     7  N    3.352374   2.439751   2.714936   2.714878   1.334950
     8  H    3.630964   2.572777   2.601182   2.601111   2.037274
     9  C    4.604589   3.809402   4.098112   4.098079   2.434391
    10  H    5.377936   4.487896   4.750705   4.554165   3.270923
    11  C    5.300757   4.568947   4.577527   5.100736   3.258408
    12  H    4.898311   4.341192   4.332421   5.069504   3.065518
    13  H    6.282277   5.584624   5.654279   6.076686   4.196426
    14  H    5.567646   4.730331   4.508575   5.220842   3.664794
    15  C    4.820673   4.291677   4.863646   4.596502   2.795753
    16  O    5.932397   5.464379   5.993687   5.819061   3.946441
    17  N    4.119266   3.784902   4.599235   3.992773   2.480088
    18  H    3.293959   2.922946   3.820546   3.019024   1.838552
    19  C    4.913697   4.841110   5.754302   5.031536   3.702791
    20  H    5.828450   5.712132   6.544779   5.973364   4.430361
    21  H    4.554486   4.719007   5.650602   5.033926   3.756273
    22  H    5.316940   5.236409   6.223062   5.209044   4.270214
                    6          7          8          9         10
     6  O    0.000000
     7  N    2.252721   0.000000
     8  H    3.150036   1.010071   0.000000
     9  C    2.775357   1.448978   2.120974   0.000000
    10  H    3.751469   2.083739   2.345536   1.089970   0.000000
    11  C    3.437883   2.452791   2.989591   1.525027   2.139209
    12  H    2.997434   2.702720   3.388283   2.150225   3.041326
    13  H    4.203751   3.386959   3.928077   2.150214   2.459625
    14  H    4.120195   2.702673   2.882520   2.150165   2.466256
    15  C    2.506814   2.450234   3.333970   1.522008   2.136554
    16  O    3.477364   3.581735   4.431297   2.392836   2.797094
    17  N    1.997310   2.666762   3.553916   2.432769   3.040141
    18  H    1.703029   2.237382   3.011422   2.568034   3.161885
    19  C    2.913387   4.099155   4.981922   3.801885   4.342530
    20  H    3.585557   4.656429   5.573094   4.033947   4.521937
    21  H    2.760011   4.468134   5.378707   4.397001   5.101814
    22  H    3.677510   4.605328   5.366251   4.396931   4.741899
                   11         12         13         14         15
    11  C    0.000000
    12  H    1.089957   0.000000
    13  H    1.090023   1.779613   0.000000
    14  H    1.089925   1.779613   1.779617   0.000000
    15  C    2.461892   2.701161   2.668599   3.416575   0.000000
    16  O    2.793659   3.025005   2.510820   3.830699   1.228963
    17  N    3.571137   3.599361   3.955104   4.447530   1.335005
    18  H    3.834122   3.854322   4.435968   4.538456   2.037385
    19  C    4.787248   4.695093   4.989421   5.753267   2.434392
    20  H    4.802366   4.730768   4.769549   5.843498   2.520523
    21  H    5.242435   4.932429   5.547282   6.197486   3.138005
    22  H    5.568749   5.604950   5.768703   6.474956   3.137933
                   16         17         18         19         20
    16  O    0.000000
    17  N    2.252736   0.000000
    18  H    3.150065   1.010022   0.000000
    19  C    2.775291   1.449004   2.120914   0.000000
    20  H    2.337362   2.083747   2.986248   1.089949   0.000000
    21  H    3.519206   2.083846   2.484261   1.090053   1.779663
    22  H    3.519155   2.083744   2.484221   1.089997   1.779627
                   21         22
    21  H    0.000000
    22  H    1.779655   0.000000
 Stoichiometry    C6H12N2O2
 Framework group  C1[X(C6H12N2O2)]
 Deg. of freedom    60
 Full point group                 C1      NOp   1
 Largest Abelian subgroup         C1      NOp   1
 Largest concise Abelian subgroup C1      NOp   1
                         Standard orientation:                         
 ---------------------------------------------------------------------
 Center     Atomic      Atomic             Coordinates (Angstroms)
 Number     Number       Type             X           Y           Z
 ---------------------------------------------------------------------
      1          1           0       -3.186096   -1.542742    0.622142
      2          6           0       -2.964864   -0.686223   -0.014795
      3          1           0       -3.612038    0.147130    0.258482
      4          1           0       -3.138051   -0.953569   -1.057118
      5          6           0       -1.508042   -0.245438    0.141318
      6          8           0       -0.755419   -0.839920    0.909830
      7          7           0       -1.117703    0.799338   -0.592281
      8          1           0       -1.773533    1.255593   -1.210312
      9          6           0        0.235977    1.312870   -0.534205
     10          1           0        0.501655    1.748093   -1.497549
     11          6           0        0.369904    2.387408    0.539638
     12          1           0        0.115963    1.964245    1.511468
     13          1           0        1.395967    2.754691    0.560780
     14          1           0       -0.306176    3.212308    0.315156
     15          6           0        1.228600    0.205449   -0.210434
     16          8           0        2.371528    0.477928    0.149871
     17          7           0        0.788629   -1.048311   -0.339865
     18          1           0       -0.160174   -1.222247   -0.639305
     19          6           0        1.636560   -2.189901   -0.061666
     20          1           0        2.622552   -1.843832    0.248245
     21          1           0        1.193893   -2.786130    0.736314
     22          1           0        1.731875   -2.799789   -0.960024
 ---------------------------------------------------------------------
 Rotational constants (GHZ):      1.7979258      1.2677772      0.8365461
 Standard basis: 6-31G(d) (6D, 7F)
 There are   174 symmetry adapted basis functions of A   symmetry.
 Integral buffers will be    131072 words long.
 Raffenetti 1 integral format.
 Two-electron integral symmetry is turned on.
   174 basis functions,   328 primitive gaussians,   174 cartesian basis functions
    39 alpha electrons       39 beta electrons
       nuclear repulsion energy       590.5101259007 Hartrees.
 NAtoms=   22 NActive=   22 NUniq=   22 SFac= 7.50D-01 NAtFMM=   80 NAOKFM=F Big=F
 One-electron integrals computed using PRISM.
 NBasis=   174 RedAO= T  NBF=   174
 NBsUse=   174 1.00D-06 NBFU=   174
 Harris functional with IExCor=  205 diagonalized for initial guess.
 ExpMin= 1.61D-01 ExpMax= 5.48D+03 ExpMxC= 8.25D+02 IAcc=1 IRadAn=         1 AccDes= 0.00D+00
 HarFok:  IExCor=  205 AccDes= 0.00D+00 IRadAn=         1 IDoV= 1
 ScaDFX=  1.000000  1.000000  1.000000  1.000000
 FoFCou: FMM=F IPFlag=           0 FMFlag=      100000 FMFlg1=           0
         NFxFlg=           0 DoJE=T BraDBF=F KetDBF=T FulRan=T
         Omega=  0.000000  0.000000  1.000000  0.000000  0.000000 ICntrl=     500 IOpCl=  0
         NMat0=    1 NMatS0=    1 NMatT0=    0 NMatD0=    1 NMtDS0=    0 NMtDT0=    0
         I1Cent=           4 NGrid=           0.
 Petite list used in FoFCou.
 Initial guess orbital symmetries:
       Occupied  (A) (A) (A) (A) (A) (A) (A) (A) (A) (A) (A) (A)
                 (A) (A) (A) (A) (A) (A) (A) (A) (A) (A) (A) (A)
                 (A) (A) (A) (A) (A) (A) (A) (A) (A) (A) (A) (A)
                 (A) (A) (A)
       Virtual   (A) (A) (A) (A) (A) (A) (A) (A) (A) (A) (A) (A)
                 (A) (A) (A) (A) (A) (A) (A) (A) (A) (A) (A) (A)
                 (A) (A) (A) (A) (A) (A) (A) (A) (A) (A) (A) (A)
                 (A) (A) (A) (A) (A) (A) (A) (A) (A) (A) (A) (A)
                 (A) (A) (A) (A) (A) (A) (A) (A) (A) (A) (A) (A)
                 (A) (A) (A) (A) (A) (A) (A) (A) (A) (A) (A) (A)
                 (A) (A) (A) (A) (A) (A) (A) (A) (A) (A) (A) (A)
                 (A) (A) (A) (A) (A) (A) (A) (A) (A) (A) (A) (A)
                 (A) (A) (A) (A) (A) (A) (A) (A) (A) (A) (A) (A)
                 (A) (A) (A) (A) (A) (A) (A) (A) (A) (A) (A) (A)
                 (A) (A) (A) (A) (A) (A) (A) (A) (A) (A) (A) (A)
                 (A) (A) (A)
 The electronic state of the initial guess is 1-A.
 Requested convergence on RMS density matrix=1.00D-08 within 128 cycles.
 Requested convergence on MAX density matrix=1.00D-06.
 Requested convergence on             energy=1.00D-06.
 No special actions if energy rises.
 Integral accuracy reduced to 1.0D-05 until final iterations.
 Initial convergence to 1.0D-05 achieved.  Increase integral accuracy.
 SCF Done:  E(RHF) =  -492.754213547     A.U. after   15 cycles
             Convg  =    0.7530D-08             -V/T =  2.0010

 **********************************************************************

            Population analysis using the SCF density.

 **********************************************************************

 Orbital symmetries:
       Occupied  (A) (A) (A) (A) (A) (A) (A) (A) (A) (A) (A) (A)
                 (A) (A) (A) (A) (A) (A) (A) (A) (A) (A) (A) (A)
                 (A) (A) (A) (A) (A) (A) (A) (A) (A) (A) (A) (A)
                 (A) (A) (A)
       Virtual   (A) (A) (A) (A) (A) (A) (A) (A) (A) (A) (A) (A)
                 (A) (A) (A) (A) (A) (A) (A) (A) (A) (A) (A) (A)
                 (A) (A) (A) (A) (A) (A) (A) (A) (A) (A) (A) (A)
                 (A) (A) (A) (A) (A) (A) (A) (A) (A) (A) (A) (A)
                 (A) (A) (A) (A) (A) (A) (A) (A) (A) (A) (A) (A)
                 (A) (A) (A) (A) (A) (A) (A) (A) (A) (A) (A) (A)
                 (A) (A) (A) (A) (A) (A) (A) (A) (A) (A) (A) (A)
                 (A) (A) (A) (A) (A) (A) (A) (A) (A) (A) (A) (A)
                 (A) (A) (A) (A) (A) (A) (A) (A) (A) (A) (A) (A)
                 (A) (A) (A) (A) (A) (A) (A) (A) (A) (A) (A) (A)
                 (A) (A) (A) (A) (A) (A) (A) (A) (A) (A) (A) (A)
                 (A) (A) (A)
 The electronic state is 1-A.
 Alpha  occ. eigenvalues --  -20.52704 -20.49398 -15.61392 -15.55073 -11.36371
 Alpha  occ. eigenvalues --  -11.32746 -11.28592 -11.25100 -11.23578 -11.21727
 Alpha  occ. eigenvalues --   -1.41479  -1.34951  -1.26312  -1.20501  -1.06063
 Alpha  occ. eigenvalues --   -0.99828  -0.94427  -0.87608  -0.82345  -0.78010
 Alpha  occ. eigenvalues --   -0.72423  -0.70466  -0.65379  -0.64187  -0.61508
 Alpha  occ. eigenvalues --   -0.60507  -0.58790  -0.58167  -0.57997  -0.56309
 Alpha  occ. eigenvalues --   -0.54161  -0.53061  -0.51569  -0.50540  -0.48369
 Alpha  occ. eigenvalues --   -0.43796  -0.41550  -0.39349  -0.31602
 Alpha virt. eigenvalues --    0.16407   0.19152   0.22209   0.24815   0.26620
 Alpha virt. eigenvalues --    0.28606   0.29273   0.30089   0.30497   0.31981
 Alpha virt. eigenvalues --    0.32825   0.33929   0.34524   0.34895   0.36415
 Alpha virt. eigenvalues --    0.39177   0.41613   0.43365   0.46671   0.52165
 Alpha virt. eigenvalues --    0.53719   0.57086   0.67161   0.71559   0.72405
 Alpha virt. eigenvalues --    0.74240   0.75467   0.75902   0.77500   0.77866
 Alpha virt. eigenvalues --    0.81366   0.84019   0.84941   0.89071   0.90471
 Alpha virt. eigenvalues --    0.91356   0.94228   0.97647   0.99207   0.99876
 Alpha virt. eigenvalues --    1.02285   1.03603   1.05536   1.06763   1.10651
 Alpha virt. eigenvalues --    1.11441   1.13365   1.14043   1.15034   1.15432
 Alpha virt. eigenvalues --    1.16532   1.17877   1.19321   1.19658   1.22077
 Alpha virt. eigenvalues --    1.23997   1.24653   1.26443   1.27705   1.29659
 Alpha virt. eigenvalues --    1.31637   1.36151   1.39143   1.45069   1.46869
 Alpha virt. eigenvalues --    1.47684   1.52392   1.55171   1.57919   1.59217
 Alpha virt. eigenvalues --    1.67060   1.67579   1.70375   1.75306   1.77983
 Alpha virt. eigenvalues --    1.83462   1.85795   1.90960   1.97958   2.00637
 Alpha virt. eigenvalues --    2.04020   2.06199   2.09376   2.10727   2.13359
 Alpha virt. eigenvalues --    2.14798   2.17142   2.19964   2.21772   2.23755
 Alpha virt. eigenvalues --    2.27821   2.29785   2.35012   2.36565   2.37773
 Alpha virt. eigenvalues --    2.44096   2.44561   2.47170   2.48588   2.53124
 Alpha virt. eigenvalues --    2.54560   2.56457   2.57504   2.64857   2.66164
 Alpha virt. eigenvalues --    2.66902   2.68346   2.72366   2.74797   2.79003
 Alpha virt. eigenvalues --    2.83635   2.85635   2.91814   2.96156   3.02057
 Alpha virt. eigenvalues --    3.05276   3.06616   3.09018   3.10422   3.24108
 Alpha virt. eigenvalues --    3.32441   3.35697   3.40185   3.57965   3.59888
 Alpha virt. eigenvalues --    4.42961   4.50488   4.57414   4.62005   4.66407
 Alpha virt. eigenvalues --    4.70525   4.77520   4.87807   4.90867   5.14514
          Condensed to atoms (all electrons):
              1          2          3          4          5          6
     1  H    0.449898   0.385837  -0.017324  -0.018919  -0.030682   0.003688
     2  C    0.385837   5.241468   0.377854   0.371205   0.380141  -0.065025
     3  H   -0.017324   0.377854   0.501515  -0.024317  -0.035339   0.001239
     4  H   -0.018919   0.371205  -0.024317   0.527001  -0.038628   0.000709
     5  C   -0.030682   0.380141  -0.035339  -0.038628   4.339111   0.548536
     6  O    0.003688  -0.065025   0.001239   0.000709   0.548536   8.493199
     7  N    0.003918  -0.122751   0.003686   0.004401   0.230681  -0.112190
     8  H   -0.000004  -0.000770   0.000519   0.000490  -0.019737   0.002332
     9  C   -0.000055   0.003239  -0.000140  -0.000135  -0.025433   0.010658
    10  H    0.000001  -0.000044  -0.000005   0.000009   0.003061   0.000076
    11  C    0.000003  -0.000227   0.000041  -0.000002  -0.001228  -0.000997
    12  H    0.000000   0.000052  -0.000018   0.000000   0.003212   0.001879
    13  H    0.000000   0.000003   0.000000   0.000000  -0.000038   0.000011
    14  H    0.000000  -0.000008   0.000002  -0.000001  -0.000210   0.000011
    15  C   -0.000004   0.000253  -0.000001  -0.000033  -0.011300   0.001535
    16  O    0.000000  -0.000002   0.000000   0.000000  -0.000111  -0.000276
    17  N    0.000039  -0.000583  -0.000045   0.000431  -0.005529  -0.265181
    18  H    0.000182  -0.004178   0.000104   0.000506  -0.006407  -0.025722
    19  C   -0.000003   0.000009   0.000001  -0.000011   0.000571   0.006770
    20  H    0.000000   0.000000   0.000000   0.000000  -0.000005  -0.000358
    21  H    0.000001   0.000021   0.000000  -0.000005  -0.000325   0.006038
    22  H    0.000000  -0.000002   0.000000   0.000002   0.000010  -0.000346
              7          8          9         10         11         12
     1  H    0.003918  -0.000004  -0.000055   0.000001   0.000003   0.000000
     2  C   -0.122751  -0.000770   0.003239  -0.000044  -0.000227   0.000052
     3  H    0.003686   0.000519  -0.000140  -0.000005   0.000041  -0.000018
     4  H    0.004401   0.000490  -0.000135   0.000009  -0.000002   0.000000
     5  C    0.230681  -0.019737  -0.025433   0.003061  -0.001228   0.003212
     6  O   -0.112190   0.002332   0.010658   0.000076  -0.000997   0.001879
     7  N    7.482889   0.325240   0.113925  -0.039388  -0.076346  -0.003728
     8  H    0.325240   0.312330  -0.017676  -0.003070   0.001185  -0.000102
     9  C    0.113925  -0.017676   5.134119   0.410003   0.346987  -0.032978
    10  H   -0.039388  -0.003070   0.410003   0.479286  -0.038930   0.003630
    11  C   -0.076346   0.001185   0.346987  -0.038930   5.130353   0.393187
    12  H   -0.003728  -0.000102  -0.032978   0.003630   0.393187   0.494829
    13  H    0.004657  -0.000093  -0.033603  -0.000350   0.387494  -0.017815
    14  H   -0.000821   0.000791  -0.043535  -0.003405   0.384646  -0.026025
    15  C   -0.032655   0.001795   0.371028  -0.027889  -0.057678  -0.006138
    16  O    0.002449  -0.000040  -0.078692   0.000358   0.001032   0.000243
    17  N    0.004491  -0.000180  -0.116725   0.000759   0.001521   0.000174
    18  H    0.003294  -0.000242  -0.001233  -0.000379   0.000480  -0.000049
    19  C   -0.000165   0.000015   0.004287  -0.000133  -0.000095  -0.000022
    20  H   -0.000036   0.000000   0.000628  -0.000008  -0.000020  -0.000002
    21  H   -0.000021   0.000000  -0.000089  -0.000004   0.000017  -0.000001
    22  H    0.000018   0.000000  -0.000084   0.000017  -0.000004   0.000000
             13         14         15         16         17         18
     1  H    0.000000   0.000000  -0.000004   0.000000   0.000039   0.000182
     2  C    0.000003  -0.000008   0.000253  -0.000002  -0.000583  -0.004178
     3  H    0.000000   0.000002  -0.000001   0.000000  -0.000045   0.000104
     4  H    0.000000  -0.000001  -0.000033   0.000000   0.000431   0.000506
     5  C   -0.000038  -0.000210  -0.011300  -0.000111  -0.005529  -0.006407
     6  O    0.000011   0.000011   0.001535  -0.000276  -0.265181  -0.025722
     7  N    0.004657  -0.000821  -0.032655   0.002449   0.004491   0.003294
     8  H   -0.000093   0.000791   0.001795  -0.000040  -0.000180  -0.000242
     9  C   -0.033603  -0.043535   0.371028  -0.078692  -0.116725  -0.001233
    10  H   -0.000350  -0.003405  -0.027889   0.000358   0.000759  -0.000379
    11  C    0.387494   0.384646  -0.057678   0.001032   0.001521   0.000480
    12  H   -0.017815  -0.026025  -0.006138   0.000243   0.000174  -0.000049
    13  H    0.469802  -0.024253  -0.004762   0.006700   0.000249  -0.000022
    14  H   -0.024253   0.557996   0.006355   0.000286  -0.000078  -0.000004
    15  C   -0.004762   0.006355   4.097830   0.581437   0.323295  -0.019438
    16  O    0.006700   0.000286   0.581437   8.246069  -0.095213   0.002511
    17  N    0.000249  -0.000078   0.323295  -0.095213   7.491535   0.336147
    18  H   -0.000022  -0.000004  -0.019438   0.002511   0.336147   0.337686
    19  C   -0.000003   0.000003  -0.025486  -0.006281   0.202209  -0.023835
    20  H   -0.000002   0.000000  -0.002620   0.010618  -0.031869   0.002419
    21  H    0.000000   0.000000   0.001925   0.000407  -0.056159   0.000904
    22  H    0.000000   0.000000  -0.000099   0.000457  -0.046310  -0.002868
             19         20         21         22
     1  H   -0.000003   0.000000   0.000001   0.000000
     2  C    0.000009   0.000000   0.000021  -0.000002
     3  H    0.000001   0.000000   0.000000   0.000000
     4  H   -0.000011   0.000000  -0.000005   0.000002
     5  C    0.000571  -0.000005  -0.000325   0.000010
     6  O    0.006770  -0.000358   0.006038  -0.000346
     7  N   -0.000165  -0.000036  -0.000021   0.000018
     8  H    0.000015   0.000000   0.000000   0.000000
     9  C    0.004287   0.000628  -0.000089  -0.000084
    10  H   -0.000133  -0.000008  -0.000004   0.000017
    11  C   -0.000095  -0.000020   0.000017  -0.000004
    12  H   -0.000022  -0.000002  -0.000001   0.000000
    13  H   -0.000003  -0.000002   0.000000   0.000000
    14  H    0.000003   0.000000   0.000000   0.000000
    15  C   -0.025486  -0.002620   0.001925  -0.000099
    16  O   -0.006281   0.010618   0.000407   0.000457
    17  N    0.202209  -0.031869  -0.056159  -0.046310
    18  H   -0.023835   0.002419   0.000904  -0.002868
    19  C    4.923622   0.398076   0.400373   0.401908
    20  H    0.398076   0.444207  -0.023818  -0.023083
    21  H    0.400373  -0.023818   0.541000  -0.040261
    22  H    0.401908  -0.023083  -0.040261   0.558202
 Mulliken atomic charges:
              1
     1  H    0.223423
     2  C   -0.566492
     3  H    0.192229
     4  H    0.177296
     5  C    0.669647
     6  O   -0.606586
     7  N   -0.791547
     8  H    0.397220
     9  C   -0.044494
    10  H    0.216406
    11  C   -0.471420
    12  H    0.189673
    13  H    0.212027
    14  H    0.148249
    15  C    0.802649
    16  O   -0.671953
    17  N   -0.742975
    18  H    0.400143
    19  C   -0.281808
    20  H    0.225871
    21  H    0.169997
    22  H    0.152443
 Sum of Mulliken atomic charges =   0.00000
 Mulliken charges with hydrogens summed into heavy atoms:
              1
     2  C    0.026456
     5  C    0.669647
     6  O   -0.606586
     7  N   -0.394327
     9  C    0.171913
    11  C    0.078530
    15  C    0.802649
    16  O   -0.671953
    17  N   -0.342833
    19  C    0.266504
 Sum of Mulliken charges with hydrogens summed into heavy atoms =   0.00000
 Electronic spatial extent (au):  <R**2>=           1474.9043
 Charge=              0.0000 electrons
 Dipole moment (field-independent basis, Debye):
    X=             -5.6998    Y=              0.6426    Z=             -3.3586  Tot=              6.6469
 Quadrupole moment (field-independent basis, Debye-Ang):
   XX=            -63.3099   YY=            -55.6990   ZZ=            -60.7342
   XY=             -4.2707   XZ=              2.0759   YZ=             -0.6228
 Traceless Quadrupole moment (field-independent basis, Debye-Ang):
   XX=             -3.3956   YY=              4.2154   ZZ=             -0.8198
   XY=             -4.2707   XZ=              2.0759   YZ=             -0.6228
 Octapole moment (field-independent basis, Debye-Ang**2):
  XXX=            -44.6593  YYY=             -3.2934  ZZZ=             -3.5298  XYY=              1.8067
  XXY=            -10.0176  XXZ=             -4.2072  XZZ=             -0.9831  YZZ=              4.6134
  YYZ=             -5.3177  XYZ=             -0.1803
 Hexadecapole moment (field-independent basis, Debye-Ang**3):
 XXXX=          -1035.9348 YYYY=           -742.8690 ZZZZ=           -157.9007 XXXY=            -24.5232
 XXXZ=             -2.1068 YYYX=             -2.9333 YYYZ=            -11.7518 ZZZX=              6.9087
 ZZZY=             -7.1925 XXYY=           -275.8585 XXZZ=           -189.7321 YYZZ=           -146.8399
 XXYZ=            -10.6010 YYXZ=              5.6543 ZZXY=             -2.6491
 N-N= 5.905101259007D+02 E-N=-2.336850188974D+03  KE= 4.922802136859D+02
 Calling FoFJK, ICntrl=      2127 FMM=F ISym2X=0 I1Cent= 0 IOpClX= 0 NMat=1 NMatS=1 NMatT=0.
 ***** Axes restored to original set *****
 -------------------------------------------------------------------
 Center     Atomic                   Forces (Hartrees/Bohr)
 Number     Number              X              Y              Z
 -------------------------------------------------------------------
      1        1           0.009049872   -0.001383233    0.002776252
      2        6           0.008496699    0.001613527    0.005574796
      3        1          -0.003216241    0.001716398    0.003456296
      4        1          -0.002829878   -0.003841950   -0.003422070
      5        6          -0.037419299    0.011826224   -0.064720332
      6        8          -0.054721540   -0.107925786   -0.065087959
      7        7           0.003202730   -0.013038831    0.018901673
      8        1          -0.001272681    0.013592389   -0.007204950
      9        6           0.008883209    0.004222060   -0.011820397
     10        1          -0.006517175    0.002913331   -0.000896232
     11        6           0.006240922   -0.003415155   -0.002022548
     12        1           0.004280108   -0.002258472    0.002924994
     13        1          -0.006458343   -0.003585225   -0.002056434
     14        1           0.000170712    0.002874873   -0.002286636
     15        6           0.012026517    0.041406264    0.008749551
     16        8          -0.020724034   -0.026652871    0.005470917
     17        7           0.050945059    0.042858290    0.095174846
     18        1           0.033573377    0.045813163    0.015014128
     19        6           0.001607420   -0.003579319    0.000761371
     20        1          -0.007656005   -0.005934942    0.002344416
     21        1           0.002149920    0.000209509    0.002409758
     22        1           0.000188652    0.002569755   -0.004041440
 -------------------------------------------------------------------
 Cartesian Forces:  Max     0.107925786 RMS     0.026481539

 GradGradGradGradGradGradGradGradGradGradGradGradGradGradGradGradGradGrad
 Berny optimization.
 Internal  Forces:  Max     0.207070843 RMS     0.045882236
 Search for a local minimum.
 Step number   1 out of a maximum of  109
 All quantities printed in internal units (Hartrees-Bohrs-Radians)
 Mixed Optimization -- RFO/linear search
 Second derivative matrix not updated -- first step.
     Eigenvalues ---    0.00369   0.00435   0.01043   0.01044   0.01342
     Eigenvalues ---    0.01522   0.01873   0.02552   0.03495   0.05228
     Eigenvalues ---    0.05308   0.05844   0.05844   0.06094   0.07165
     Eigenvalues ---    0.07464   0.07685   0.07686   0.13447   0.15704
     Eigenvalues ---    0.16000   0.16000   0.16000   0.16000   0.16000
     Eigenvalues ---    0.16000   0.16000   0.16000   0.16000   0.16000
     Eigenvalues ---    0.16051   0.19896   0.22000   0.23464   0.25000
     Eigenvalues ---    0.25000   0.25000   0.29421   0.29887   0.30070
     Eigenvalues ---    0.34804   0.34807   0.34810   0.34813   0.34816
     Eigenvalues ---    0.34818   0.34818   0.34819   0.34821   0.34823
     Eigenvalues ---    0.38168   0.38376   0.45961   0.45966   0.56567
     Eigenvalues ---    0.58341   0.90691   0.915201000.000001000.00000
     Eigenvalues --- 1000.000001000.000001000.000001000.000001000.00000
     Eigenvalues --- 1000.000001000.000001000.000001000.000001000.00000
     Eigenvalues --- 1000.000001000.000001000.000001000.000001000.00000
     Eigenvalues --- 1000.000001000.000001000.000001000.000001000.00000
     Eigenvalues --- 1000.000001000.000001000.000001000.000001000.00000
     Eigenvalues --- 1000.000001000.000001000.000001000.000001000.00000
     Eigenvalues --- 1000.000001000.000001000.000001000.000001000.00000
     Eigenvalues --- 1000.000001000.000001000.000001000.00000
 RFO step:  Lambda=-3.67394155D-01 EMin= 3.68709279D-03
 Linear search not attempted -- first point.
 Maximum step size (   0.300) exceeded in Quadratic search.
    -- Step size scaled by   0.358
 Iteration  1 RMS(Cart)=  0.16682577 RMS(Int)=  0.01157679
 Iteration  2 RMS(Cart)=  0.05866197 RMS(Int)=  0.00587058
 Iteration  3 RMS(Cart)=  0.00795308 RMS(Int)=  0.00561222
 Iteration  4 RMS(Cart)=  0.00045550 RMS(Int)=  0.00561190
 Iteration  5 RMS(Cart)=  0.00003629 RMS(Int)=  0.00561190
 Iteration  6 RMS(Cart)=  0.00000282 RMS(Int)=  0.00561190
 Iteration  7 RMS(Cart)=  0.00000022 RMS(Int)=  0.00561190
 Iteration  1 RMS(Cart)=  0.00416560 RMS(Int)=  0.00153892
 Iteration  2 RMS(Cart)=  0.00326867 RMS(Int)=  0.00166460
 Iteration  3 RMS(Cart)=  0.00256760 RMS(Int)=  0.00190902
 Iteration  4 RMS(Cart)=  0.00201879 RMS(Int)=  0.00216169
 Iteration  5 RMS(Cart)=  0.00158860 RMS(Int)=  0.00238603
 Iteration  6 RMS(Cart)=  0.00125099 RMS(Int)=  0.00257431
 Iteration  7 RMS(Cart)=  0.00098573 RMS(Int)=  0.00272836
 Iteration  8 RMS(Cart)=  0.00077712 RMS(Int)=  0.00285277
 Iteration  9 RMS(Cart)=  0.00061293 RMS(Int)=  0.00295251
 Iteration 10 RMS(Cart)=  0.00048360 RMS(Int)=  0.00303210
 Iteration 11 RMS(Cart)=  0.00038167 RMS(Int)=  0.00309543
 Iteration 12 RMS(Cart)=  0.00030129 RMS(Int)=  0.00314573
 Iteration 13 RMS(Cart)=  0.00023789 RMS(Int)=  0.00318562
 Iteration 14 RMS(Cart)=  0.00018786 RMS(Int)=  0.00321724
 Iteration 15 RMS(Cart)=  0.00014837 RMS(Int)=  0.00324227
 Iteration 16 RMS(Cart)=  0.00011719 RMS(Int)=  0.00326209
 Iteration 17 RMS(Cart)=  0.00009257 RMS(Int)=  0.00327776
 Iteration 18 RMS(Cart)=  0.00007313 RMS(Int)=  0.00329016
 Iteration 19 RMS(Cart)=  0.00005777 RMS(Int)=  0.00329996
 Iteration 20 RMS(Cart)=  0.00004564 RMS(Int)=  0.00330772
 Iteration 21 RMS(Cart)=  0.00003606 RMS(Int)=  0.00331384
 Iteration 22 RMS(Cart)=  0.00002849 RMS(Int)=  0.00331869
 Iteration 23 RMS(Cart)=  0.00002251 RMS(Int)=  0.00332252
 Iteration 24 RMS(Cart)=  0.00001779 RMS(Int)=  0.00332554
 Iteration 25 RMS(Cart)=  0.00001405 RMS(Int)=  0.00332793
 Iteration 26 RMS(Cart)=  0.00001110 RMS(Int)=  0.00332982
 Iteration 27 RMS(Cart)=  0.00000877 RMS(Int)=  0.00333132
 Iteration 28 RMS(Cart)=  0.00000693 RMS(Int)=  0.00333250
 Iteration 29 RMS(Cart)=  0.00000548 RMS(Int)=  0.00333343
 Iteration 30 RMS(Cart)=  0.00000433 RMS(Int)=  0.00333417
 Iteration 31 RMS(Cart)=  0.00000342 RMS(Int)=  0.00333475
 Iteration 32 RMS(Cart)=  0.00000270 RMS(Int)=  0.00333521
 Iteration 33 RMS(Cart)=  0.00000214 RMS(Int)=  0.00333557
 Iteration 34 RMS(Cart)=  0.00000169 RMS(Int)=  0.00333586
 Iteration 35 RMS(Cart)=  0.00000133 RMS(Int)=  0.00333609
 Iteration 36 RMS(Cart)=  0.00000105 RMS(Int)=  0.00333627
 Iteration 37 RMS(Cart)=  0.00000083 RMS(Int)=  0.00333641
 Variable       Old X    -DE/DX   Delta X   Delta X   Delta X     New X
                                 (Linear)    (Quad)   (Total)
    R1        2.05994  -0.00866   0.00000  -0.00433  -0.00431   2.05563
    R2        2.05971  -0.00350   0.00000  -0.00175  -0.00174   2.05797
    R3        2.05963  -0.00206   0.00000  -0.00103  -0.00101   2.05862
    R4        2.89134  -0.00849   0.00000  -0.00459  -0.00457   2.88677
    R5        2.32249  -0.10205   0.00000  -0.02904  -0.02934   2.29314
    R6        2.52269   0.01653   0.00000   0.00487  -0.00417   2.51852
    R7        3.21826   0.13612   0.00000   0.11722   0.13671   3.35497
    R8        1.90876  -0.01522   0.00000  -0.00658  -0.00657   1.90218
    R9        2.73817   0.08517   0.00000   0.03972   0.03016   2.76833
   R10        2.05975  -0.00484   0.00000  -0.00242  -0.00241   2.05734
   R11        2.88188   0.00667   0.00000   0.00358   0.00360   2.88549
   R12        2.87618   0.06269   0.00000   0.03263   0.02434   2.90052
   R13        2.05972  -0.00515   0.00000  -0.00257  -0.00256   2.05716
   R14        2.05984  -0.00743   0.00000  -0.00372  -0.00370   2.05614
   R15        2.05966  -0.00281   0.00000  -0.00140  -0.00139   2.05827
   R16        2.32240  -0.03294   0.00000  -0.00919  -0.00917   2.31324
   R17        2.52279  -0.04202   0.00000  -0.01639  -0.01835   2.50445
   R18        1.90867  -0.04781   0.00000  -0.02060  -0.01303   1.89564
   R19        2.73822  -0.00592   0.00000  -0.00282  -0.00280   2.73542
   R20        2.05970  -0.00990   0.00000  -0.00495  -0.00492   2.05479
   R21        2.05990  -0.00309   0.00000  -0.00154  -0.00151   2.05839
   R22        2.05980  -0.00309   0.00000  -0.00155  -0.00153   2.05826
    A1        1.91109   0.00049   0.00000   0.00021   0.00023   1.91131
    A2        1.91114  -0.00006   0.00000  -0.00002  -0.00002   1.91112
    A3        1.93905  -0.00816   0.00000  -0.00559  -0.00559   1.93346
    A4        1.91025  -0.00510   0.00000  -0.00335  -0.00336   1.90689
    A5        1.89600   0.00468   0.00000   0.00316   0.00315   1.89915
    A6        1.89604   0.00819   0.00000   0.00562   0.00562   1.90166
    A7        2.10312  -0.01591   0.00000  -0.00791   0.00006   2.10317
    A8        2.03511  -0.03208   0.00000  -0.01727  -0.00921   2.02590
    A9        2.14496   0.04799   0.00000   0.02518   0.00893   2.15389
   A10        2.09429  -0.10599   0.00000  -0.06341  -0.05124   2.04306
   A11        2.12765   0.20707   0.00000   0.12349   0.09913   2.22678
   A12        2.06125  -0.10108   0.00000  -0.06009  -0.04797   2.01328
   A13        1.91114  -0.05730   0.00000  -0.03145  -0.02712   1.88401
   A14        1.93905  -0.02982   0.00000  -0.02860  -0.01970   1.91934
   A15        1.93900   0.15060   0.00000   0.10447   0.08336   2.02236
   A16        1.89609   0.03538   0.00000   0.01700   0.01158   1.90768
   A17        1.89608  -0.03183   0.00000  -0.02547  -0.01886   1.87722
   A18        1.88137  -0.06882   0.00000  -0.03737  -0.03055   1.85083
   A19        1.91115   0.00238   0.00000   0.00158   0.00159   1.91274
   A20        1.91106   0.00161   0.00000   0.00110   0.00109   1.91216
   A21        1.91110   0.00255   0.00000   0.00175   0.00174   1.91284
   A22        1.91011  -0.00231   0.00000  -0.00161  -0.00161   1.90849
   A23        1.91023  -0.00257   0.00000  -0.00176  -0.00176   1.90847
   A24        1.91015  -0.00166   0.00000  -0.00107  -0.00106   1.90909
   A25        2.10316  -0.06569   0.00000  -0.03684  -0.02635   2.07681
   A26        2.03506   0.11007   0.00000   0.06133   0.03989   2.07495
   A27        2.14497  -0.04438   0.00000  -0.02449  -0.01385   2.13111
   A28        2.09447  -0.01878   0.00000  -0.01387  -0.02203   2.07243
   A29        2.12754   0.01302   0.00000   0.00866   0.01245   2.14000
   A30        2.06117   0.00575   0.00000   0.00520   0.00881   2.06998
   A31        1.91114  -0.00293   0.00000  -0.00203  -0.00203   1.90911
   A32        1.91117   0.00079   0.00000   0.00052   0.00053   1.91170
   A33        1.91108   0.00568   0.00000   0.00390   0.00389   1.91497
   A34        1.91016   0.00008   0.00000  -0.00005  -0.00005   1.91011
   A35        1.91017  -0.00116   0.00000  -0.00077  -0.00076   1.90941
   A36        1.91008  -0.00245   0.00000  -0.00159  -0.00159   1.90849
    D1        0.00005   0.00714   0.00000   0.00805   0.01117   0.01122
    D2        3.14154  -0.00625   0.00000  -0.00736  -0.01048   3.13106
    D3        2.10329   0.00572   0.00000   0.00690   0.01002   2.11330
    D4       -1.03841  -0.00767   0.00000  -0.00851  -0.01163  -1.05004
    D5       -2.10327   0.00696   0.00000   0.00791   0.01103  -2.09224
    D6        1.03822  -0.00643   0.00000  -0.00750  -0.01062   1.02760
    D7        0.00007  -0.00571   0.00000  -0.00220  -0.00504  -0.00497
    D8        3.14159  -0.00710   0.00000  -0.01291  -0.01893   3.12266
    D9        3.14156  -0.01946   0.00000  -0.01801  -0.02739   3.11417
   D10       -0.00011  -0.02085   0.00000  -0.02872  -0.04128  -0.04138
   D11        2.61806   0.00302   0.00000   0.01386   0.01098   2.62904
   D12       -1.57069  -0.00905   0.00000  -0.00350  -0.00358  -1.57427
   D13        0.52367  -0.01526   0.00000   0.00000   0.00000   0.52366
   D14       -0.52360   0.00165   0.00000   0.00334  -0.00271  -0.52631
   D15        1.57084  -0.01042   0.00000  -0.01402  -0.01727   1.55356
   D16       -2.61800  -0.01663   0.00000  -0.01052  -0.01369  -2.63169
   D17        1.04724   0.06322   0.00000   0.04433   0.03630   1.08354
   D18        3.14157   0.06283   0.00000   0.04401   0.03597  -3.10565
   D19       -1.04726   0.06335   0.00000   0.04444   0.03641  -1.01085
   D20       -3.13259  -0.00328   0.00000  -0.00130  -0.00172  -3.13431
   D21       -1.03826  -0.00367   0.00000  -0.00163  -0.00205  -1.04031
   D22        1.05609  -0.00315   0.00000  -0.00119  -0.00161   1.05448
   D23       -1.08102  -0.05966   0.00000  -0.04280  -0.03434  -1.11536
   D24        1.01331  -0.06005   0.00000  -0.04313  -0.03467   0.97863
   D25        3.10766  -0.05953   0.00000  -0.04269  -0.03423   3.07343
   D26       -2.87975  -0.03278   0.00000  -0.02135  -0.02612  -2.90587
   D27        0.26184  -0.03257   0.00000   0.00000   0.00000   0.26184
   D28        1.30012  -0.03448   0.00000  -0.03060  -0.03184   1.26828
   D29       -1.84147  -0.03426   0.00000  -0.00925  -0.00572  -1.84719
   D30       -0.75146  -0.02156   0.00000  -0.01657  -0.01977  -0.77123
   D31        2.39013  -0.02135   0.00000   0.00478   0.00635   2.39648
   D32       -0.00010  -0.06286   0.00000  -0.07285  -0.08486  -0.08496
   D33       -3.14156  -0.02548   0.00000  -0.03545  -0.04226   3.09937
   D34        3.14149  -0.06265   0.00000  -0.05094  -0.05790   3.08360
   D35        0.00004  -0.02526   0.00000  -0.01354  -0.01529  -0.01525
   D36       -0.00005  -0.01799   0.00000  -0.01809  -0.02100  -0.02106
   D37        2.09440  -0.01921   0.00000  -0.01907  -0.02198   2.07241
   D38       -2.09447  -0.01825   0.00000  -0.01830  -0.02121  -2.11568
   D39       -3.14151   0.01871   0.00000   0.01863   0.02155  -3.11997
   D40       -1.04706   0.01749   0.00000   0.01765   0.02057  -1.02650
   D41        1.04726   0.01845   0.00000   0.01842   0.02134   1.06859
         Item               Value     Threshold  Converged?
 Maximum Force            0.192849     0.000450     NO 
 RMS     Force            0.045424     0.000300     NO 
 Maximum Displacement     0.710099     0.001800     NO 
 RMS     Displacement     0.199991     0.001200     NO 
 Predicted change in Energy=-1.103096D-01
 GradGradGradGradGradGradGradGradGradGradGradGradGradGradGradGradGradGrad

                          Input orientation:                          
 ---------------------------------------------------------------------
 Center     Atomic      Atomic             Coordinates (Angstroms)
 Number     Number       Type             X           Y           Z
 ---------------------------------------------------------------------
      1          1           0        0.270279    3.914232   -0.987605
      2          6           0        1.144338    3.469193   -0.517233
      3          1           0        1.394180    2.537205   -1.022175
      4          1           0        0.928287    3.263444    0.530494
      5          6           0        2.343664    4.411648   -0.600840
      6          8           0        2.237126    5.498691   -1.129537
      7          7           0        3.472437    3.974209   -0.043409
      8          1           0        3.447080    3.066093    0.390076
      9          6           0        4.768525    4.655419    0.002931
     10          1           0        5.284042    4.334495    0.906541
     11          6           0        5.602874    4.272438   -1.217198
     12          1           0        5.095043    4.597870   -2.123429
     13          1           0        6.577235    4.753012   -1.157597
     14          1           0        5.734056    3.191543   -1.245408
     15          6           0        4.718764    6.189425    0.018289
     16          8           0        5.747108    6.818571   -0.194156
     17          7           0        3.569246    6.789986    0.290957
     18          1           0        2.746790    6.227523    0.407016
     19          6           0        3.442233    8.229343    0.377202
     20          1           0        4.413510    8.688101    0.208417
     21          1           0        2.739940    8.578898   -0.378490
     22          1           0        3.077443    8.507560    1.365054
 ---------------------------------------------------------------------
                    Distance matrix (angstroms):
                    1          2          3          4          5
     1  H    0.000000
     2  C    1.087791   0.000000
     3  H    1.777794   1.089031   0.000000
     4  H    1.777955   1.089377   1.776306   0.000000
     5  C    2.167011   1.527610   2.143030   2.145129   0.000000
     6  O    2.529653   2.384945   3.080987   3.076539   1.213480
     7  N    3.339000   2.428908   2.709634   2.703192   1.332745
     8  H    3.565026   2.507652   2.547268   2.530412   2.002489
     9  C    4.665270   3.848692   4.113864   4.118658   2.510760
    10  H    5.376080   4.462402   4.699067   4.501241   3.305144
    11  C    5.349542   4.584070   4.556552   5.091587   3.319899
    12  H    5.003580   4.411559   4.376698   5.117212   3.150087
    13  H    6.364759   5.619131   5.638457   6.081043   4.283648
    14  H    5.517391   4.655409   4.394600   5.123906   3.660448
    15  C    5.096798   4.523601   5.047191   4.815749   3.030662
    16  O    6.249832   5.701596   6.161468   6.032005   4.188329
    17  N    4.559372   4.190587   4.953925   4.412317   2.820256
    18  H    3.664613   3.321216   4.182175   3.479650   2.115581
    19  C    5.526679   5.360911   6.209124   5.568086   4.091237
    20  H    6.433247   6.200891   6.961625   6.455805   4.819462
    21  H    5.313131   5.354837   6.223139   5.688795   4.191951
    22  H    5.874848   5.715334   6.646606   5.728535   4.602137
                    6          7          8          9         10
     6  O    0.000000
     7  N    2.242702   0.000000
     8  H    3.112996   1.006592   0.000000
     9  C    2.898547   1.464937   2.102868   0.000000
    10  H    3.845083   2.077048   2.291291   1.088697   0.000000
    11  C    3.583245   2.450610   2.947210   1.526935   2.148435
    12  H    3.157055   2.710773   3.373400   2.152054   3.047262
    13  H    4.403791   3.389355   3.877997   2.151228   2.471471
    14  H    4.191047   2.678113   2.814392   2.152564   2.477849
    15  C    2.820132   2.542503   3.392729   1.534890   2.132908
    16  O    3.864840   3.645168   4.439881   2.382371   2.756192
    17  N    2.336619   2.837212   3.727215   2.465280   3.057598
    18  H    1.775372   2.409744   3.238107   2.592722   3.204798
    19  C    3.343502   4.275978   5.163269   3.830413   4.340772
    20  H    4.086454   4.813503   5.707361   4.053491   4.494340
    21  H    3.210073   4.674611   5.610862   4.433320   5.112604
    22  H    3.997800   4.763513   5.540468   4.422005   4.742762
                   11         12         13         14         15
    11  C    0.000000
    12  H    1.088602   0.000000
    13  H    1.088064   1.775893   0.000000
    14  H    1.089191   1.776798   1.776752   0.000000
    15  C    2.446001   2.694735   2.626767   3.408085   0.000000
    16  O    2.747765   3.013104   2.425667   3.776325   1.224111
    17  N    3.570466   3.600374   3.910955   4.471645   1.325297
    18  H    3.823303   3.817488   4.392551   4.568526   2.010284
    19  C    4.782006   4.708773   4.926329   5.767560   2.433026
    20  H    4.790099   4.757309   4.693892   5.836917   2.524423
    21  H    5.238839   4.943675   5.474418   6.224136   3.127740
    22  H    5.566156   5.614794   5.719173   6.490928   3.143479
                   16         17         18         19         20
    16  O    0.000000
    17  N    2.231420   0.000000
    18  H    3.116513   1.003129   0.000000
    19  C    2.762096   1.447522   2.119390   0.000000
    20  H    2.331457   2.079046   2.978564   1.087348   0.000000
    21  H    3.489383   2.082334   2.479119   1.089254   1.776857
    22  H    3.522916   2.084614   2.495143   1.089187   1.776367
                   21         22
    21  H    0.000000
    22  H    1.777341   0.000000
 Stoichiometry    C6H12N2O2
 Framework group  C1[X(C6H12N2O2)]
 Deg. of freedom    60
 Full point group                 C1      NOp   1
 Largest Abelian subgroup         C1      NOp   1
 Largest concise Abelian subgroup C1      NOp   1
                         Standard orientation:                         
 ---------------------------------------------------------------------
 Center     Atomic      Atomic             Coordinates (Angstroms)
 Number     Number       Type             X           Y           Z
 ---------------------------------------------------------------------
      1          1           0       -3.401321   -1.598716    0.490140
      2          6           0       -3.121235   -0.730464   -0.102296
      3          1           0       -3.743864    0.117722    0.178599
      4          1           0       -3.267512   -0.949040   -1.159448
      5          6           0       -1.656439   -0.364931    0.130838
      6          8           0       -0.970186   -1.022195    0.885553
      7          7           0       -1.197194    0.680899   -0.555852
      8          1           0       -1.843989    1.142938   -1.173431
      9          6           0        0.148102    1.258924   -0.509975
     10          1           0        0.356708    1.700791   -1.482857
     11          6           0        0.212972    2.344551    0.561816
     12          1           0        0.012295    1.906316    1.537896
     13          1           0        1.203784    2.794177    0.565347
     14          1           0       -0.531199    3.111331    0.350646
     15          6           0        1.287069    0.280361   -0.192081
     16          8           0        2.386987    0.726958    0.106549
     17          7           0        1.055483   -1.021640   -0.279116
     18          1           0        0.123074   -1.333482   -0.478203
     19          6           0        2.083444   -2.014086   -0.047455
     20          1           0        3.023621   -1.514872    0.174303
     21          1           0        1.799246   -2.642897    0.795340
     22          1           0        2.203244   -2.633311   -0.935451
 ---------------------------------------------------------------------
 Rotational constants (GHZ):      1.8619284      1.0998761      0.7660995
 Standard basis: 6-31G(d) (6D, 7F)
 There are   174 symmetry adapted basis functions of A   symmetry.
 Integral buffers will be    131072 words long.
 Raffenetti 1 integral format.
 Two-electron integral symmetry is turned on.
   174 basis functions,   328 primitive gaussians,   174 cartesian basis functions
    39 alpha electrons       39 beta electrons
       nuclear repulsion energy       577.4740615356 Hartrees.
 NAtoms=   22 NActive=   22 NUniq=   22 SFac= 7.50D-01 NAtFMM=   80 NAOKFM=F Big=F
 One-electron integrals computed using PRISM.
 NBasis=   174 RedAO= T  NBF=   174
 NBsUse=   174 1.00D-06 NBFU=   174
 Initial guess read from the read-write file.
 B after Tr=     0.000000    0.000000    0.000000
         Rot=    1.000000    0.000000    0.000000    0.000000 Ang=   0.00 deg.
 Initial guess orbital symmetries:
       Occupied  (A) (A) (A) (A) (A) (A) (A) (A) (A) (A) (A) (A)
                 (A) (A) (A) (A) (A) (A) (A) (A) (A) (A) (A) (A)
                 (A) (A) (A) (A) (A) (A) (A) (A) (A) (A) (A) (A)
                 (A) (A) (A)
       Virtual   (A) (A) (A) (A) (A) (A) (A) (A) (A) (A) (A) (A)
                 (A) (A) (A) (A) (A) (A) (A) (A) (A) (A) (A) (A)
                 (A) (A) (A) (A) (A) (A) (A) (A) (A) (A) (A) (A)
                 (A) (A) (A) (A) (A) (A) (A) (A) (A) (A) (A) (A)
                 (A) (A) (A) (A) (A) (A) (A) (A) (A) (A) (A) (A)
                 (A) (A) (A) (A) (A) (A) (A) (A) (A) (A) (A) (A)
                 (A) (A) (A) (A) (A) (A) (A) (A) (A) (A) (A) (A)
                 (A) (A) (A) (A) (A) (A) (A) (A) (A) (A) (A) (A)
                 (A) (A) (A) (A) (A) (A) (A) (A) (A) (A) (A) (A)
                 (A) (A) (A) (A) (A) (A) (A) (A) (A) (A) (A) (A)
                 (A) (A) (A) (A) (A) (A) (A) (A) (A) (A) (A) (A)
                 (A) (A) (A)
 Harris functional with IExCor=  205 diagonalized for initial guess.
 ExpMin= 1.61D-01 ExpMax= 5.48D+03 ExpMxC= 8.25D+02 IAcc=1 IRadAn=         1 AccDes= 0.00D+00
 HarFok:  IExCor=  205 AccDes= 0.00D+00 IRadAn=         1 IDoV= 1
 ScaDFX=  1.000000  1.000000  1.000000  1.000000
 FoFCou: FMM=F IPFlag=           0 FMFlag=      100000 FMFlg1=           0
         NFxFlg=           0 DoJE=T BraDBF=F KetDBF=T FulRan=T
         Omega=  0.000000  0.000000  1.000000  0.000000  0.000000 ICntrl=     500 IOpCl=  0
         NMat0=    1 NMatS0=    1 NMatT0=    0 NMatD0=    1 NMtDS0=    0 NMtDT0=    0
         I1Cent=           4 NGrid=           0.
 Petite list used in FoFCou.
 Requested convergence on RMS density matrix=1.00D-08 within 128 cycles.
 Requested convergence on MAX density matrix=1.00D-06.
 Requested convergence on             energy=1.00D-06.
 No special actions if energy rises.
 Integral accuracy reduced to 1.0D-05 until final iterations.
 Initial convergence to 1.0D-05 achieved.  Increase integral accuracy.
 SCF Done:  E(RHF) =  -492.819494308     A.U. after   14 cycles
             Convg  =    0.4880D-08             -V/T =  2.0014
 Calling FoFJK, ICntrl=      2127 FMM=F ISym2X=0 I1Cent= 0 IOpClX= 0 NMat=1 NMatS=1 NMatT=0.
 ***** Axes restored to original set *****
 -------------------------------------------------------------------
 Center     Atomic                   Forces (Hartrees/Bohr)
 Number     Number              X              Y              Z
 -------------------------------------------------------------------
      1        1           0.007595607    0.000043583    0.002078592
      2        6           0.007994691   -0.000548063    0.002763009
      3        1          -0.003481439    0.000477346    0.002984560
      4        1          -0.001541861   -0.002835536   -0.003428154
      5        6          -0.029349216    0.010387534   -0.026636604
      6        8          -0.017780991   -0.038585324   -0.019330378
      7        7           0.010772795   -0.013190678    0.023964905
      8        1           0.000267842    0.009940251   -0.005071114
      9        6           0.001883932    0.006612299   -0.018164349
     10        1          -0.004791244    0.002755774   -0.001666535
     11        6           0.007402272   -0.005712877   -0.000001927
     12        1           0.002962637   -0.002031634    0.002322416
     13        1          -0.005553455   -0.003364734   -0.002263592
     14        1           0.000006938    0.002289759   -0.002306178
     15        6           0.018513388    0.026345307    0.003621043
     16        8          -0.015649223   -0.021712585    0.004313111
     17        7           0.007268812    0.007764101    0.037244322
     18        1           0.017357053    0.023948210    0.000132262
     19        6           0.000423596   -0.000364186   -0.001359359
     20        1          -0.006886569   -0.004085725    0.001181807
     21        1           0.001992069    0.000433434    0.003032652
     22        1           0.000592365    0.001433742   -0.003410487
 -------------------------------------------------------------------
 Cartesian Forces:  Max     0.038585324 RMS     0.012218221

 GradGradGradGradGradGradGradGradGradGradGradGradGradGradGradGradGradGrad
 Berny optimization.
 Using GEDIIS/GDIIS optimizer.
 Internal  Forces:  Max     0.051461653 RMS     0.012479850
 Search for a local minimum.
 Step number   2 out of a maximum of  109
 All quantities printed in internal units (Hartrees-Bohrs-Radians)
 Mixed Optimization -- RFO/linear search
 Update second derivatives using D2CorX and points    1    2
 DE= -6.53D-02 DEPred=-1.10D-01 R= 5.92D-01
 SS=  1.41D+00  RLast= 2.80D-01 DXNew= 5.0454D-01 8.4146D-01
 Trust test= 5.92D-01 RLast= 2.80D-01 DXMaxT set to 5.05D-01
 Use linear search instead of GDIIS.
 Linear search step of   0.555 exceeds DXMaxT=   0.505 but not scaled.
 Quartic linear search produced a step of  2.00000.
 Iteration  1 RMS(Cart)=  0.20420474 RMS(Int)=  0.02312624
 Iteration  2 RMS(Cart)=  0.06090639 RMS(Int)=  0.01539740
 Iteration  3 RMS(Cart)=  0.00993302 RMS(Int)=  0.01516567
 Iteration  4 RMS(Cart)=  0.00077431 RMS(Int)=  0.01516499
 Iteration  5 RMS(Cart)=  0.00008987 RMS(Int)=  0.01516498
 Iteration  6 RMS(Cart)=  0.00001023 RMS(Int)=  0.01516498
 Iteration  7 RMS(Cart)=  0.00000117 RMS(Int)=  0.01516498
 Iteration  8 RMS(Cart)=  0.00000013 RMS(Int)=  0.01516498
 Iteration  1 RMS(Cart)=  0.00557542 RMS(Int)=  0.00233417
 Iteration  2 RMS(Cart)=  0.00409694 RMS(Int)=  0.00255473
 Iteration  3 RMS(Cart)=  0.00301319 RMS(Int)=  0.00294114
 Iteration  4 RMS(Cart)=  0.00221627 RMS(Int)=  0.00330261
 Iteration  5 RMS(Cart)=  0.00162983 RMS(Int)=  0.00359659
 Iteration  6 RMS(Cart)=  0.00119830 RMS(Int)=  0.00382410
 Iteration  7 RMS(Cart)=  0.00088086 RMS(Int)=  0.00399632
 Iteration  8 RMS(Cart)=  0.00064743 RMS(Int)=  0.00412524
 Iteration  9 RMS(Cart)=  0.00047581 RMS(Int)=  0.00422111
 Iteration 10 RMS(Cart)=  0.00034966 RMS(Int)=  0.00429213
 Iteration 11 RMS(Cart)=  0.00025695 RMS(Int)=  0.00434462
 Iteration 12 RMS(Cart)=  0.00018881 RMS(Int)=  0.00438334
 Iteration 13 RMS(Cart)=  0.00013874 RMS(Int)=  0.00441187
 Iteration 14 RMS(Cart)=  0.00010195 RMS(Int)=  0.00443288
 Iteration 15 RMS(Cart)=  0.00007491 RMS(Int)=  0.00444834
 Iteration 16 RMS(Cart)=  0.00005504 RMS(Int)=  0.00445971
 Iteration 17 RMS(Cart)=  0.00004045 RMS(Int)=  0.00446807
 Iteration 18 RMS(Cart)=  0.00002972 RMS(Int)=  0.00447422
 Iteration 19 RMS(Cart)=  0.00002184 RMS(Int)=  0.00447874
 Iteration 20 RMS(Cart)=  0.00001605 RMS(Int)=  0.00448206
 Iteration 21 RMS(Cart)=  0.00001179 RMS(Int)=  0.00448451
 Iteration 22 RMS(Cart)=  0.00000866 RMS(Int)=  0.00448630
 Iteration 23 RMS(Cart)=  0.00000637 RMS(Int)=  0.00448762
 Iteration 24 RMS(Cart)=  0.00000468 RMS(Int)=  0.00448859
 Iteration 25 RMS(Cart)=  0.00000344 RMS(Int)=  0.00448930
 Iteration 26 RMS(Cart)=  0.00000253 RMS(Int)=  0.00448982
 Iteration 27 RMS(Cart)=  0.00000186 RMS(Int)=  0.00449021
 Iteration 28 RMS(Cart)=  0.00000136 RMS(Int)=  0.00449049
 Iteration 29 RMS(Cart)=  0.00000100 RMS(Int)=  0.00449070
 Iteration 30 RMS(Cart)=  0.00000074 RMS(Int)=  0.00449085
 Variable       Old X    -DE/DX   Delta X   Delta X   Delta X     New X
                                 (Linear)    (Quad)   (Total)
    R1        2.05563  -0.00698  -0.00862   0.00000  -0.00859   2.04704
    R2        2.05797  -0.00259  -0.00347   0.00000  -0.00344   2.05453
    R3        2.05862  -0.00246  -0.00202   0.00000  -0.00197   2.05665
    R4        2.88677  -0.00629  -0.00914   0.00000  -0.00913   2.87764
    R5        2.29314  -0.02636  -0.05868   0.00000  -0.05183   2.24131
    R6        2.51852   0.01395  -0.00833   0.00000  -0.02707   2.49145
    R7        3.35497   0.05146   0.27342   0.00000   0.30748   3.66245
    R8        1.90218  -0.01116  -0.01315   0.00000  -0.01313   1.88905
    R9        2.76833   0.01495   0.06031   0.00000   0.03487   2.80320
   R10        2.05734  -0.00446  -0.00481   0.00000  -0.00478   2.05256
   R11        2.88549   0.00664   0.00721   0.00000   0.00726   2.89275
   R12        2.90052   0.01234   0.04869   0.00000   0.02649   2.92701
   R13        2.05716  -0.00392  -0.00512   0.00000  -0.00510   2.05206
   R14        2.05614  -0.00658  -0.00740   0.00000  -0.00737   2.04877
   R15        2.05827  -0.00221  -0.00277   0.00000  -0.00274   2.05553
   R16        2.31324  -0.02505  -0.01834   0.00000  -0.01830   2.29493
   R17        2.50445  -0.00314  -0.03669   0.00000  -0.03860   2.46585
   R18        1.89564  -0.00884  -0.02605   0.00000   0.00004   1.89568
   R19        2.73542  -0.00226  -0.00560   0.00000  -0.00559   2.72983
   R20        2.05479  -0.00806  -0.00983   0.00000  -0.00976   2.04503
   R21        2.05839  -0.00325  -0.00302   0.00000  -0.00294   2.05545
   R22        2.05826  -0.00293  -0.00306   0.00000  -0.00301   2.05525
    A1        1.91131   0.00014   0.00045   0.00000   0.00049   1.91180
    A2        1.91112   0.00026  -0.00004   0.00000   0.00000   1.91112
    A3        1.93346  -0.00727  -0.01117   0.00000  -0.01116   1.92230
    A4        1.90689  -0.00435  -0.00672   0.00000  -0.00679   1.90010
    A5        1.89915   0.00545   0.00630   0.00000   0.00626   1.90542
    A6        1.90166   0.00581   0.01125   0.00000   0.01125   1.91292
    A7        2.10317   0.00414   0.00012   0.00000   0.01879   2.12197
    A8        2.02590  -0.01081  -0.01842   0.00000   0.00077   2.02667
    A9        2.15389   0.00654   0.01786   0.00000  -0.02180   2.13209
   A10        2.04306  -0.02214  -0.10247   0.00000  -0.06947   1.97358
   A11        2.22678   0.04438   0.19826   0.00000   0.13224   2.35902
   A12        2.01328  -0.02222  -0.09594   0.00000  -0.06337   1.94991
   A13        1.88401  -0.01745  -0.05425   0.00000  -0.04121   1.84280
   A14        1.91934   0.00050  -0.03941   0.00000  -0.01931   1.90003
   A15        2.02236   0.02726   0.16672   0.00000   0.11223   2.13459
   A16        1.90768   0.00568   0.02317   0.00000   0.00920   1.91688
   A17        1.87722  -0.00627  -0.03771   0.00000  -0.02179   1.85543
   A18        1.85083  -0.00994  -0.06110   0.00000  -0.04204   1.80878
   A19        1.91274   0.00134   0.00319   0.00000   0.00320   1.91594
   A20        1.91216   0.00217   0.00218   0.00000   0.00217   1.91432
   A21        1.91284   0.00238   0.00348   0.00000   0.00347   1.91631
   A22        1.90849  -0.00191  -0.00323   0.00000  -0.00325   1.90524
   A23        1.90847  -0.00233  -0.00353   0.00000  -0.00355   1.90492
   A24        1.90909  -0.00169  -0.00212   0.00000  -0.00211   1.90698
   A25        2.07681  -0.02031  -0.05270   0.00000  -0.02570   2.05111
   A26        2.07495   0.01570   0.07979   0.00000   0.02300   2.09795
   A27        2.13111   0.00466  -0.02771   0.00000  -0.00021   2.13091
   A28        2.07243  -0.00996  -0.04407   0.00000  -0.06311   2.00933
   A29        2.14000   0.00780   0.02491   0.00000   0.03238   2.17238
   A30        2.06998   0.00162   0.01762   0.00000   0.02422   2.09420
   A31        1.90911  -0.00206  -0.00406   0.00000  -0.00406   1.90505
   A32        1.91170   0.00203   0.00106   0.00000   0.00107   1.91277
   A33        1.91497   0.00327   0.00777   0.00000   0.00774   1.92272
   A34        1.91011  -0.00035  -0.00010   0.00000  -0.00010   1.91001
   A35        1.90941  -0.00066  -0.00151   0.00000  -0.00148   1.90793
   A36        1.90849  -0.00223  -0.00318   0.00000  -0.00319   1.90530
    D1        0.01122   0.00310   0.02233   0.00000   0.02667   0.03789
    D2        3.13106  -0.00290  -0.02096   0.00000  -0.02533   3.10573
    D3        2.11330   0.00227   0.02004   0.00000   0.02435   2.13766
    D4       -1.05004  -0.00373  -0.02326   0.00000  -0.02764  -1.07768
    D5       -2.09224   0.00357   0.02207   0.00000   0.02646  -2.06578
    D6        1.02760  -0.00243  -0.02123   0.00000  -0.02554   1.00207
    D7       -0.00497  -0.00577  -0.01008   0.00000  -0.01474  -0.01971
    D8        3.12266  -0.00365  -0.03786   0.00000  -0.04480   3.07786
    D9        3.11417  -0.01201  -0.05477   0.00000  -0.06651   3.04767
   D10       -0.04138  -0.00989  -0.08256   0.00000  -0.09656  -0.13794
   D11        2.62904  -0.00815   0.02197   0.00000   0.01374   2.64278
   D12       -1.57427  -0.01141  -0.00716   0.00000  -0.00894  -1.58321
   D13        0.52366  -0.00494   0.00000   0.00000   0.00000   0.52366
   D14       -0.52631  -0.00608  -0.00541   0.00000  -0.01609  -0.54240
   D15        1.55356  -0.00933  -0.03455   0.00000  -0.03877   1.51479
   D16       -2.63169  -0.00286  -0.02739   0.00000  -0.02983  -2.66152
   D17        1.08354   0.01490   0.07260   0.00000   0.05137   1.13491
   D18       -3.10565   0.01472   0.07194   0.00000   0.05069  -3.05495
   D19       -1.01085   0.01546   0.07282   0.00000   0.05160  -0.95926
   D20       -3.13431  -0.00264  -0.00343   0.00000  -0.00420  -3.13851
   D21       -1.04031  -0.00282  -0.00410   0.00000  -0.00488  -1.04519
   D22        1.05448  -0.00208  -0.00321   0.00000  -0.00398   1.05051
   D23       -1.11536  -0.01242  -0.06868   0.00000  -0.04667  -1.16204
   D24        0.97863  -0.01260  -0.06935   0.00000  -0.04735   0.93129
   D25        3.07343  -0.01187  -0.06846   0.00000  -0.04645   3.02698
   D26       -2.90587  -0.01989  -0.05223   0.00000  -0.05820  -2.96407
   D27        0.26184  -0.02227   0.00000   0.00000   0.00000   0.26184
   D28        1.26828  -0.01056  -0.06367   0.00000  -0.06233   1.20595
   D29       -1.84719  -0.01294  -0.01144   0.00000  -0.00413  -1.85133
   D30       -0.77123  -0.00912  -0.03953   0.00000  -0.04328  -0.81451
   D31        2.39648  -0.01151   0.01270   0.00000   0.01492   2.41140
   D32       -0.08496  -0.02347  -0.16973   0.00000  -0.18122  -0.26619
   D33        3.09937  -0.00845  -0.08452   0.00000  -0.09406   3.00531
   D34        3.08360  -0.02555  -0.11580   0.00000  -0.11992   2.96368
   D35       -0.01525  -0.01053  -0.03059   0.00000  -0.03276  -0.04801
   D36       -0.02106  -0.00753  -0.04201   0.00000  -0.04603  -0.06709
   D37        2.07241  -0.00799  -0.04396   0.00000  -0.04799   2.02443
   D38       -2.11568  -0.00746  -0.04243   0.00000  -0.04644  -2.16212
   D39       -3.11997   0.00774   0.04309   0.00000   0.04711  -3.07286
   D40       -1.02650   0.00729   0.04114   0.00000   0.04515  -0.98134
   D41        1.06859   0.00781   0.04267   0.00000   0.04670   1.11530
         Item               Value     Threshold  Converged?
 Maximum Force            0.058945     0.000450     NO 
 RMS     Force            0.011706     0.000300     NO 
 Maximum Displacement     0.830044     0.001800     NO 
 RMS     Displacement     0.237667     0.001200     NO 
 Predicted change in Energy=-4.223607D-02
 GradGradGradGradGradGradGradGradGradGradGradGradGradGradGradGradGradGrad

                          Input orientation:                          
 ---------------------------------------------------------------------
 Center     Atomic      Atomic             Coordinates (Angstroms)
 Number     Number       Type             X           Y           Z
 ---------------------------------------------------------------------
      1          1           0        0.200002    3.474991   -0.972023
      2          6           0        1.135857    3.152438   -0.532072
      3          1           0        1.501627    2.274382   -1.058627
      4          1           0        0.976175    2.894866    0.513217
      5          6           0        2.172556    4.263364   -0.631867
      6          8           0        1.907100    5.320444   -1.099662
      7          7           0        3.348443    4.010149   -0.092053
      8          1           0        3.397083    3.108033    0.335858
      9          6           0        4.642802    4.729535   -0.005090
     10          1           0        5.104409    4.389200    0.917325
     11          6           0        5.512647    4.329397   -1.199465
     12          1           0        5.051947    4.672770   -2.120898
     13          1           0        6.494345    4.779307   -1.103242
     14          1           0        5.615750    3.247103   -1.233942
     15          6           0        4.731042    6.275862    0.009124
     16          8           0        5.831368    6.776220   -0.108152
     17          7           0        3.664480    6.992174    0.237234
     18          1           0        2.794802    6.498630    0.157334
     19          6           0        3.667141    8.423649    0.431244
     20          1           0        4.688598    8.780990    0.424098
     21          1           0        3.110867    8.901634   -0.371984
     22          1           0        3.205159    8.673762    1.383541
 ---------------------------------------------------------------------
                    Distance matrix (angstroms):
                    1          2          3          4          5
     1  H    0.000000
     2  C    1.083247   0.000000
     3  H    1.772905   1.087212   0.000000
     4  H    1.773395   1.088335   1.769688   0.000000
     5  C    2.151327   1.522781   2.142037   2.148333   0.000000
     6  O    2.517176   2.370068   3.073205   3.058011   1.186051
     7  N    3.312616   2.413467   2.712542   2.690328   1.318419
     8  H    3.473692   2.422481   2.496460   2.436738   1.941841
     9  C    4.716706   3.881186   4.123675   4.132651   2.590807
    10  H    5.334662   4.402242   4.621350   4.408928   3.318372
    11  C    5.385717   4.581150   4.509014   5.056752   3.388619
    12  H    5.127959   4.491274   4.414234   5.168310   3.267373
    13  H    6.429403   5.629061   5.586043   6.050972   4.377928
    14  H    5.426866   4.535529   4.231185   4.970141   3.640174
    15  C    5.416443   4.793122   5.251767   5.077821   3.317660
    16  O    6.584579   5.946371   6.317959   6.246912   4.469410
    17  N    5.082862   4.661474   5.349275   4.908267   3.229175
    18  H    4.141356   3.797945   4.582045   4.052305   2.450804
    19  C    6.203178   5.926300   6.687499   6.149427   4.546642
    20  H    7.088743   6.724346   7.395350   6.959632   5.277733
[...]
    12  H    4.932992   4.579346   4.700510   5.407685   3.343905
    13  H    6.260592   5.674566   5.673344   6.345672   4.414599
    14  H    5.202228   4.620139   4.361442   5.415534   3.702109
    15  C    5.361225   4.705271   5.130622   5.014207   3.255734
    16  O    6.498782   5.862710   6.223832   6.207532   4.404196
    17  N    5.121587   4.526227   5.178893   4.606699   3.161244
    18  H    4.242414   3.733543   4.508600   3.796129   2.437927
    19  C    6.319612   5.821010   6.556442   5.808086   4.495904
    20  H    7.161723   6.558087   7.198243   6.509923   5.237675
    21  H    6.646800   6.280983   7.042362   6.400569   4.887126
    22  H    6.325623   5.882074   6.715106   5.701581   4.725635
                    6          7          8          9         10
     6  O    0.000000
     7  N    2.260620   0.000000
     8  H    3.098320   0.994280   0.000000
     9  C    3.022082   1.468550   2.064255   0.000000
    10  H    3.905704   2.037612   2.197198   1.084204   0.000000
    11  C    3.801258   2.445912   2.866702   1.533036   2.140596
    12  H    3.453092   2.740986   3.341158   2.160768   3.041678
    13  H    4.669963   3.386381   3.781973   2.164346   2.476125
    14  H    4.317594   2.633610   2.690008   2.158109   2.474331
    15  C    3.167858   2.628562   3.411895   1.541602   2.064812
    16  O    4.271283   3.671697   4.367842   2.335109   2.612683
    17  N    2.791126   3.015859   3.856037   2.509822   2.997434
    18  H    1.921257   2.689131   3.568938   2.686270   3.327456
    19  C    3.897474   4.461833   5.303134   3.839681   4.243997
    20  H    4.801401   4.974032   5.718646   4.141956   4.307207
    21  H    4.117368   4.921894   5.839624   4.227502   4.793913
    22  H    4.053048   4.923172   5.735878   4.571611   4.960712
                   11         12         13         14         15
    11  C    0.000000
    12  H    1.084583   0.000000
    13  H    1.079345   1.760567   0.000000
    14  H    1.085289   1.756989   1.763716   0.000000
    15  C    2.509547   2.819582   2.679949   3.452603   0.000000
    16  O    2.770300   3.131397   2.448063   3.767630   1.202863
    17  N    3.689986   3.813982   3.999442   4.575519   1.344768
    18  H    3.875186   3.846296   4.413379   4.659754   1.996665
    19  C    4.845499   4.885361   4.938507   5.822145   2.405438
    20  H    5.138028   5.353087   5.044813   6.101681   2.679241
    21  H    4.941973   4.790017   4.960743   5.986591   2.763913
    22  H    5.701140   5.701925   5.907168   6.625639   3.285790
                   16         17         18         19         20
    16  O    0.000000
    17  N    2.237480   0.000000
    18  H    3.063495   0.995569   0.000000
    19  C    2.709487   1.449695   2.093336   0.000000
    20  H    2.631881   2.082128   2.932553   1.080179   0.000000
    21  H    2.833015   2.113196   2.626013   1.084888   1.754922
    22  H    3.755755   2.063309   2.320420   1.082043   1.760462
                   21         22
    21  H    0.000000
    22  H    1.765191   0.000000
 Stoichiometry    C6H12N2O2
 Framework group  C1[X(C6H12N2O2)]
 Deg. of freedom    60
 Full point group                 C1      NOp   1
 Largest Abelian subgroup         C1      NOp   1
 Largest concise Abelian subgroup C1      NOp   1
                         Standard orientation:                         
 ---------------------------------------------------------------------
 Center     Atomic      Atomic             Coordinates (Angstroms)
 Number     Number       Type             X           Y           Z
 ---------------------------------------------------------------------
      1          1           0       -3.789044   -1.048912    0.602031
      2          6           0       -3.252256   -0.693077   -0.265981
      3          1           0       -3.752918    0.178549   -0.669917
      4          1           0       -3.266609   -1.478576   -1.014584
      5          6           0       -1.813911   -0.433099    0.133438
      6          8           0       -1.262084   -1.149221    0.931825
      7          7           0       -1.235411    0.621306   -0.473495
      8          1           0       -1.814348    1.103857   -1.122009
      9          6           0        0.124442    1.172857   -0.416685
     10          1           0        0.318600    1.540408   -1.418038
     11          6           0        0.144412    2.361669    0.551058
     12          1           0       -0.049882    2.021986    1.562584
     13          1           0        1.103018    2.857117    0.526740
     14          1           0       -0.629917    3.071574    0.278476
     15          6           0        1.350625    0.276576   -0.152691
     16          8           0        2.398208    0.846767    0.003302
     17          7           0        1.259027   -1.060563   -0.262548
     18          1           0        0.390206   -1.466872    0.004320
     19          6           0        2.445519   -1.862028   -0.035592
     20          1           0        3.235424   -1.546786   -0.701519
     21          1           0        2.806422   -1.779491    0.984172
     22          1           0        2.201756   -2.895800   -0.242259
 ---------------------------------------------------------------------
 Rotational constants (GHZ):      1.8932077      0.9638738      0.6996510

 **********************************************************************

            Population analysis using the SCF density.

 **********************************************************************

 Orbital symmetries:
       Occupied  (A) (A) (A) (A) (A) (A) (A) (A) (A) (A) (A) (A)
                 (A) (A) (A) (A) (A) (A) (A) (A) (A) (A) (A) (A)
                 (A) (A) (A) (A) (A) (A) (A) (A) (A) (A) (A) (A)
                 (A) (A) (A)
       Virtual   (A) (A) (A) (A) (A) (A) (A) (A) (A) (A) (A) (A)
                 (A) (A) (A) (A) (A) (A) (A) (A) (A) (A) (A) (A)
                 (A) (A) (A) (A) (A) (A) (A) (A) (A) (A) (A) (A)
                 (A) (A) (A) (A) (A) (A) (A) (A) (A) (A) (A) (A)
                 (A) (A) (A) (A) (A) (A) (A) (A) (A) (A) (A) (A)
                 (A) (A) (A) (A) (A) (A) (A) (A) (A) (A) (A) (A)
                 (A) (A) (A) (A) (A) (A) (A) (A) (A) (A) (A) (A)
                 (A) (A) (A) (A) (A) (A) (A) (A) (A) (A) (A) (A)
                 (A) (A) (A) (A) (A) (A) (A) (A) (A) (A) (A) (A)
                 (A) (A) (A) (A) (A) (A) (A) (A) (A) (A) (A) (A)
                 (A) (A) (A) (A) (A) (A) (A) (A) (A) (A) (A) (A)
                 (A) (A) (A)
 The electronic state is 1-A.
 Alpha  occ. eigenvalues --  -20.53657 -20.51682 -15.60522 -15.56522 -11.36779
 Alpha  occ. eigenvalues --  -11.34260 -11.29141 -11.24517 -11.24294 -11.21762
 Alpha  occ. eigenvalues --   -1.40670  -1.38693  -1.25438  -1.21842  -1.06064
 Alpha  occ. eigenvalues --   -0.99994  -0.94883  -0.88105  -0.81712  -0.76840
 Alpha  occ. eigenvalues --   -0.72000  -0.70382  -0.65122  -0.64448  -0.62498
 Alpha  occ. eigenvalues --   -0.61307  -0.60525  -0.59022  -0.58235  -0.56132
 Alpha  occ. eigenvalues --   -0.54435  -0.53799  -0.52265  -0.51705  -0.50087
 Alpha  occ. eigenvalues --   -0.43363  -0.41890  -0.40097  -0.37871
 Alpha virt. eigenvalues --    0.17855   0.19207   0.21457   0.25810   0.26664
 Alpha virt. eigenvalues --    0.28622   0.28947   0.30465   0.31463   0.31830
 Alpha virt. eigenvalues --    0.33540   0.33865   0.34251   0.35184   0.38208
 Alpha virt. eigenvalues --    0.39501   0.41521   0.43215   0.46320   0.50022
 Alpha virt. eigenvalues --    0.55235   0.60327   0.64970   0.70220   0.71657
 Alpha virt. eigenvalues --    0.74203   0.74839   0.76398   0.76935   0.78017
 Alpha virt. eigenvalues --    0.81757   0.82786   0.84978   0.86638   0.88674
 Alpha virt. eigenvalues --    0.92128   0.93466   0.95419   0.96571   1.01711
 Alpha virt. eigenvalues --    1.02520   1.02945   1.03577   1.07863   1.09337
 Alpha virt. eigenvalues --    1.10772   1.12448   1.13631   1.14322   1.15161
 Alpha virt. eigenvalues --    1.17456   1.17941   1.19088   1.20073   1.21016
 Alpha virt. eigenvalues --    1.22350   1.23694   1.24230   1.26705   1.29533
 Alpha virt. eigenvalues --    1.30168   1.32883   1.35851   1.41815   1.43682
 Alpha virt. eigenvalues --    1.46766   1.47920   1.53542   1.58155   1.58578
 Alpha virt. eigenvalues --    1.61759   1.65459   1.67206   1.73233   1.74321
 Alpha virt. eigenvalues --    1.77810   1.80413   1.90235   1.94671   1.96927
 Alpha virt. eigenvalues --    2.00124   2.05238   2.09069   2.10915   2.12563
 Alpha virt. eigenvalues --    2.14215   2.15259   2.17687   2.19967   2.21341
 Alpha virt. eigenvalues --    2.22626   2.25066   2.29382   2.32919   2.35727
 Alpha virt. eigenvalues --    2.37050   2.38165   2.40140   2.45938   2.47830
 Alpha virt. eigenvalues --    2.52859   2.54436   2.56624   2.61270   2.64572
 Alpha virt. eigenvalues --    2.65531   2.68505   2.71411   2.73581   2.76047
 Alpha virt. eigenvalues --    2.77304   2.85777   2.89142   2.92832   2.95533
 Alpha virt. eigenvalues --    3.02722   3.05726   3.06952   3.10310   3.24123
 Alpha virt. eigenvalues --    3.32317   3.36905   3.39766   3.55134   3.61192
 Alpha virt. eigenvalues --    4.37105   4.43990   4.52713   4.54055   4.61695
 Alpha virt. eigenvalues --    4.66800   4.73140   4.79757   4.87173   5.09798
          Condensed to atoms (all electrons):
              1          2          3          4          5          6
     1  H    0.462244   0.384404  -0.022011  -0.018289  -0.030230   0.002051
     2  C    0.384404   5.256260   0.375737   0.377291   0.372347  -0.073268
     3  H   -0.022011   0.375737   0.526241  -0.023031  -0.039311   0.002583
     4  H   -0.018289   0.377291  -0.023031   0.483953  -0.026049   0.000108
     5  C   -0.030230   0.372347  -0.039311  -0.026049   4.152596   0.570307
     6  O    0.002051  -0.073268   0.002583   0.000108   0.570307   8.218589
     7  N    0.003261  -0.113559   0.005899   0.000060   0.271540  -0.098941
     8  H    0.000084   0.000577   0.001032   0.000017  -0.021143   0.002533
     9  C   -0.000054   0.002944   0.000216  -0.000142  -0.018271   0.005132
    10  H    0.000000  -0.000069  -0.000017   0.000011   0.002170   0.000066
    11  C    0.000013  -0.000222  -0.000001  -0.000003  -0.001259  -0.000597
    12  H   -0.000002   0.000022  -0.000005   0.000000   0.001480   0.000434
    13  H    0.000000   0.000002   0.000000   0.000000   0.000010   0.000001
    14  H   -0.000001  -0.000010   0.000000   0.000000   0.000004  -0.000004
    15  C   -0.000002   0.000106  -0.000010   0.000007  -0.001630   0.003969
    16  O    0.000000   0.000000   0.000000   0.000000   0.000000   0.000009
    17  N    0.000002  -0.000198   0.000003   0.000024   0.002269  -0.026442
    18  H   -0.000007   0.000539  -0.000007  -0.000075   0.000961   0.031070
    19  C    0.000000   0.000001   0.000000   0.000000   0.000052   0.000439
    20  H    0.000000   0.000000   0.000000   0.000000  -0.000004  -0.000010
    21  H    0.000000   0.000000   0.000000   0.000000   0.000005   0.000025
    22  H    0.000000   0.000000   0.000000   0.000000   0.000004   0.000001
              7          8          9         10         11         12
     1  H    0.003261   0.000084  -0.000054   0.000000   0.000013  -0.000002
     2  C   -0.113559   0.000577   0.002944  -0.000069  -0.000222   0.000022
     3  H    0.005899   0.001032   0.000216  -0.000017  -0.000001  -0.000005
     4  H    0.000060   0.000017  -0.000142   0.000011  -0.000003   0.000000
     5  C    0.271540  -0.021143  -0.018271   0.002170  -0.001259   0.001480
     6  O   -0.098941   0.002533   0.005132   0.000066  -0.000597   0.000434
     7  N    7.455235   0.326698   0.116633  -0.043829  -0.079821  -0.001117
     8  H    0.326698   0.325495  -0.022675  -0.004555   0.000925  -0.000080
     9  C    0.116633  -0.022675   5.068840   0.412928   0.351267  -0.034237
    10  H   -0.043829  -0.004555   0.412928   0.494842  -0.043857   0.003876
    11  C   -0.079821   0.000925   0.351267  -0.043857   5.134907   0.389530
    12  H   -0.001117  -0.000080  -0.034237   0.003876   0.389530   0.509381
    13  H    0.004704  -0.000121  -0.031655   0.000002   0.386503  -0.019097
    14  H   -0.002115   0.001027  -0.039832  -0.003397   0.388219  -0.026791
    15  C   -0.026744   0.001853   0.388513  -0.031476  -0.052135  -0.005310
    16  O    0.002610  -0.000043  -0.078981   0.000188  -0.002786   0.000690
    17  N    0.006967  -0.000188  -0.102751   0.000307   0.001709   0.000143
    18  H   -0.003430  -0.000118   0.000385   0.000095  -0.000208  -0.000012
    19  C   -0.000140   0.000006   0.004573  -0.000173  -0.000098  -0.000021
    20  H    0.000001   0.000000  -0.000005   0.000028  -0.000015   0.000000
    21  H   -0.000007   0.000000  -0.000139  -0.000011   0.000039  -0.000004
    22  H   -0.000004   0.000000   0.000015   0.000003   0.000000   0.000000
             13         14         15         16         17         18
     1  H    0.000000  -0.000001  -0.000002   0.000000   0.000002  -0.000007
     2  C    0.000002  -0.000010   0.000106   0.000000  -0.000198   0.000539
     3  H    0.000000   0.000000  -0.000010   0.000000   0.000003  -0.000007
     4  H    0.000000   0.000000   0.000007   0.000000   0.000024  -0.000075
     5  C    0.000010   0.000004  -0.001630   0.000000   0.002269   0.000961
     6  O    0.000001  -0.000004   0.003969   0.000009  -0.026442   0.031070
     7  N    0.004704  -0.002115  -0.026744   0.002610   0.006967  -0.003430
     8  H   -0.000121   0.001027   0.001853  -0.000043  -0.000188  -0.000118
     9  C   -0.031655  -0.039832   0.388513  -0.078981  -0.102751   0.000385
    10  H    0.000002  -0.003397  -0.031476   0.000188   0.000307   0.000095
    11  C    0.386503   0.388219  -0.052135  -0.002786   0.001709  -0.000208
    12  H   -0.019097  -0.026791  -0.005310   0.000690   0.000143  -0.000012
    13  H    0.469232  -0.024689  -0.005266   0.006841   0.000258   0.000001
    14  H   -0.024689   0.549973   0.005649   0.000191  -0.000036  -0.000002
    15  C   -0.005266   0.005649   4.116300   0.572795   0.326088  -0.014452
    16  O    0.006841   0.000191   0.572795   8.206404  -0.101528   0.002189
    17  N    0.000258  -0.000036   0.326088  -0.101528   7.322592   0.290639
    18  H    0.000001  -0.000002  -0.014452   0.002189   0.290639   0.268966
    19  C   -0.000010   0.000002  -0.037101   0.006238   0.216710  -0.020561
    20  H    0.000000   0.000000  -0.003662   0.003051  -0.038704   0.002147
    21  H   -0.000001   0.000000  -0.003309   0.002022  -0.047857   0.001308
    22  H    0.000000   0.000000   0.004763   0.000454  -0.038629  -0.004132
             19         20         21         22
     1  H    0.000000   0.000000   0.000000   0.000000
     2  C    0.000001   0.000000   0.000000   0.000000
     3  H    0.000000   0.000000   0.000000   0.000000
     4  H    0.000000   0.000000   0.000000   0.000000
     5  C    0.000052  -0.000004   0.000005   0.000004
     6  O    0.000439  -0.000010   0.000025   0.000001
     7  N   -0.000140   0.000001  -0.000007  -0.000004
     8  H    0.000006   0.000000   0.000000   0.000000
     9  C    0.004573  -0.000005  -0.000139   0.000015
    10  H   -0.000173   0.000028  -0.000011   0.000003
    11  C   -0.000098  -0.000015   0.000039   0.000000
    12  H   -0.000021   0.000000  -0.000004   0.000000
    13  H   -0.000010   0.000000  -0.000001   0.000000
    14  H    0.000002   0.000000   0.000000   0.000000
    15  C   -0.037101  -0.003662  -0.003309   0.004763
    16  O    0.006238   0.003051   0.002022   0.000454
    17  N    0.216710  -0.038704  -0.047857  -0.038629
    18  H   -0.020561   0.002147   0.001308  -0.004132
    19  C    4.903700   0.403540   0.404462   0.398062
    20  H    0.403540   0.500338  -0.033471  -0.025761
    21  H    0.404462  -0.033471   0.532426  -0.032237
    22  H    0.398062  -0.025761  -0.032237   0.530660
 Mulliken atomic charges:
              1
     1  H    0.218535
     2  C   -0.582904
     3  H    0.172682
     4  H    0.206116
     5  C    0.764151
     6  O   -0.638056
     7  N   -0.823899
     8  H    0.388677
     9  C   -0.022703
    10  H    0.212868
    11  C   -0.472110
    12  H    0.181116
    13  H    0.213285
    14  H    0.151811
    15  C    0.761053
    16  O   -0.620344
    17  N   -0.811376
    18  H    0.444704
    19  C   -0.279680
    20  H    0.192525
    21  H    0.176746
    22  H    0.166801
 Sum of Mulliken atomic charges =   0.00000
 Mulliken charges with hydrogens summed into heavy atoms:
              1
     2  C    0.014430
     5  C    0.764151
     6  O   -0.638056
     7  N   -0.435222
     9  C    0.190165
    11  C    0.074103
    15  C    0.761053
    16  O   -0.620344
    17  N   -0.366672
    19  C    0.256393
 Sum of Mulliken charges with hydrogens summed into heavy atoms =   0.00000
 Electronic spatial extent (au):  <R**2>=           1700.8624
 Charge=              0.0000 electrons
 Dipole moment (field-independent basis, Debye):
    X=             -4.2897    Y=              0.3297    Z=             -2.6032  Tot=              5.0286
 Quadrupole moment (field-independent basis, Debye-Ang):
   XX=            -60.5596   YY=            -58.5174   ZZ=            -61.1140
   XY=             -7.7157   XZ=              4.0850   YZ=              0.2449
 Traceless Quadrupole moment (field-independent basis, Debye-Ang):
   XX=             -0.4960   YY=              1.5463   ZZ=             -1.0504
   XY=             -7.7157   XZ=              4.0850   YZ=              0.2449
 Octapole moment (field-independent basis, Debye-Ang**2):
  XXX=            -43.9025  YYY=             -4.2116  ZZZ=             -1.7263  XYY=              2.5039
  XXY=            -18.4670  XXZ=             -6.4905  XZZ=              0.5928  YZZ=              5.7673
  YYZ=             -6.0502  XYZ=             -1.8394
 Hexadecapole moment (field-independent basis, Debye-Ang**3):
 XXXX=          -1330.9665 YYYY=           -691.9193 ZZZZ=           -149.9685 XXXY=            -31.9958
 XXXZ=             -0.5254 YYYX=             -9.1688 YYYZ=             -2.6145 ZZZX=              4.0752
 ZZZY=             -7.3733 XXYY=           -333.7919 XXZZ=           -242.4724 YYZZ=           -144.3109
 XXYZ=             -4.2779 YYXZ=             11.2635 ZZXY=             -1.7712
 N-N= 5.649285072221D+02 E-N=-2.285211655280D+03  KE= 4.921129366316D+02
 1\1\GINC-RODAN\FOpt\RHF\6-31G(d)\C6H12N2O2\STEBOSS\09-Feb-2017\0\\# HF
 /6-31G* Opt=(ModRedundant) geom=nocrowd\\Phi Psi fixed scan\\0,1\H,0.4
 552116318,3.2099865781,-1.2235760347\C,1.1398899856,3.2012710517,-0.38
 73077012\H,1.5606002505,2.2095223565,-0.273310753\H,0.5780599727,3.444
 145769,0.5087832178\C,2.1822866288,4.278151931,-0.610232339\O,1.880029
 0686,5.3232052251,-1.1310679979\N,3.4205032284,3.971334976,-0.17724057
 74\H,3.5084091893,3.0770372295,0.2483141519\C,4.6762631991,4.732189055
 ,-0.1488481911\H,5.1742153116,4.4150918801,0.7605422948\C,5.5403281448
 ,4.3205029153,-1.3463900351\H,5.0633877481,4.6242417618,-2.2719117422\
 H,6.5155453558,4.7794219375,-1.2886750564\H,5.6554509349,3.2414793422,
 -1.3639248181\C,4.6889650417,6.2676136676,-0.0115619235\O,5.7610240162
 ,6.7999646258,-0.1306085816\N,3.5873061748,6.9298931624,0.3835756517\H
 ,2.7152049187,6.5529301227,0.0860946152\C,3.6541183997,8.3707394132,0.
 5288862081\H,4.4422226514,8.6348368666,1.2187642124\H,3.8468137378,8.8
 689450717,-0.415381543\H,2.7083644098,8.716395061,0.9249769422\\Versio
 n=EM64L-G09RevA.02\State=1-A\HF=-492.8464489\RMSD=8.110e-09\RMSF=2.483
 e-03\Dipole=-0.8299509,-1.6550722,0.6971801\Quadrupole=-5.2803668,6.36
 84615,-1.0880947,-1.9116553,-2.1602415,-0.253578\PG=C01 [X(C6H12N2O2)]
 \\@


 NEVER LOSE YOUR IGNORANCE, IT CAN'T BE REPLACED.
   -- ANDY CAPP
 Job cpu time:  0 days  1 hours 11 minutes 48.6 seconds.
 File lengths (MBytes):  RWF=     25 Int=      0 D2E=      0 Chk=      3 Scr=      1
 Normal termination of Gaussian 09 at Thu Feb  9 15:33:06 2017.
