 Entering Gaussian System, Link 0=g09
 Initial command:
 /home/steboss/Software/g09/l1.exe /tmp/Gau-1360.inp -scrdir=/tmp/
 Entering Link 1 = /home/steboss/Software/g09/l1.exe PID=      1362.
  
 Copyright (c) 1988,1990,1992,1993,1995,1998,2003,2009, Gaussian, Inc.
                  All Rights Reserved.
  
 This is part of the Gaussian(R) 09 program.  It is based on
 the Gaussian(R) 03 system (copyright 2003, Gaussian, Inc.),
 the Gaussian(R) 98 system (copyright 1998, Gaussian, Inc.),
 the Gaussian(R) 94 system (copyright 1995, Gaussian, Inc.),
 the Gaussian 92(TM) system (copyright 1992, Gaussian, Inc.),
 the Gaussian 90(TM) system (copyright 1990, Gaussian, Inc.),
 the Gaussian 88(TM) system (copyright 1988, Gaussian, Inc.),
 the Gaussian 86(TM) system (copyright 1986, Carnegie Mellon
 University), and the Gaussian 82(TM) system (copyright 1983,
 Carnegie Mellon University). Gaussian is a federally registered
 trademark of Gaussian, Inc.
  
 This software contains proprietary and confidential information,
 including trade secrets, belonging to Gaussian, Inc.
  
 This software is provided under written license and may be
 used, copied, transmitted, or stored only in accord with that
 written license.
  
 The following legend is applicable only to US Government
 contracts under FAR:
  
                    RESTRICTED RIGHTS LEGEND
  
 Use, reproduction and disclosure by the US Government is
 subject to restrictions as set forth in subparagraphs (a)
 and (c) of the Commercial Computer Software - Restricted
 Rights clause in FAR 52.227-19.
  
 Gaussian, Inc.
 340 Quinnipiac St., Bldg. 40, Wallingford CT 06492
  
  
 ---------------------------------------------------------------
 Warning -- This program may not be used in any manner that
 competes with the business of Gaussian, Inc. or will provide
 assistance to any competitor of Gaussian, Inc.  The licensee
 of this program is prohibited from giving any competitor of
 Gaussian, Inc. access to this program.  By using this program,
 the user acknowledges that Gaussian, Inc. is engaged in the
 business of creating and licensing software in the field of
 computational chemistry and represents and warrants to the
 licensee that it is not a competitor of Gaussian, Inc. and that
 it will not use this program in any manner prohibited above.
 ---------------------------------------------------------------
  

 Cite this work as:
 Gaussian 09, Revision A.02,
 M. J. Frisch, G. W. Trucks, H. B. Schlegel, G. E. Scuseria, 
 M. A. Robb, J. R. Cheeseman, G. Scalmani, V. Barone, B. Mennucci, 
 G. A. Petersson, H. Nakatsuji, M. Caricato, X. Li, H. P. Hratchian, 
 A. F. Izmaylov, J. Bloino, G. Zheng, J. L. Sonnenberg, M. Hada, 
 M. Ehara, K. Toyota, R. Fukuda, J. Hasegawa, M. Ishida, T. Nakajima, 
 Y. Honda, O. Kitao, H. Nakai, T. Vreven, J. A. Montgomery, Jr., 
 J. E. Peralta, F. Ogliaro, M. Bearpark, J. J. Heyd, E. Brothers, 
 K. N. Kudin, V. N. Staroverov, R. Kobayashi, J. Normand, 
 K. Raghavachari, A. Rendell, J. C. Burant, S. S. Iyengar, J. Tomasi, 
 M. Cossi, N. Rega, J. M. Millam, M. Klene, J. E. Knox, J. B. Cross, 
 V. Bakken, C. Adamo, J. Jaramillo, R. Gomperts, R. E. Stratmann, 
 O. Yazyev, A. J. Austin, R. Cammi, C. Pomelli, J. W. Ochterski, 
 R. L. Martin, K. Morokuma, V. G. Zakrzewski, G. A. Voth, 
 P. Salvador, J. J. Dannenberg, S. Dapprich, A. D. Daniels, 
 O. Farkas, J. B. Foresman, J. V. Ortiz, J. Cioslowski, 
 and D. J. Fox, Gaussian, Inc., Wallingford CT, 2009.
 
 ******************************************
 Gaussian 09:  EM64L-G09RevA.02 11-Jun-2009
                27-Dec-2016 
 ******************************************
 %chk=structure_0.chk
 -------------------------------------------------------------------
 # HF/6-31G* Opt=(ModRedundant, maxcycles=1000, calcfc) geom=nocrowd
 -------------------------------------------------------------------
 1/6=1000,10=4,18=120,19=15,38=1/1,3;
 2/9=110,12=1,17=6,18=5,40=1/2;
 3/5=1,6=6,7=1,11=9,16=1,25=1,30=1,71=2/1,2,3;
 4//1;
 5/5=2,38=5/2;
 8/6=4,10=90,11=11/1;
 11/6=1,8=1,9=11,15=111,16=1/1,2,10;
 10/6=1,7=6,13=1/2;
 6/7=2,8=2,9=2,10=2,28=1/1;
 7/10=1,18=20,25=1/1,2,3,16;
 1/6=1000,10=4,18=20,19=15/3(2);
 2/9=110,12=1/2;
 99//99;
 2/9=110,12=1/2;
 3/5=1,6=6,7=1,11=9,16=1,25=1,30=1,71=1/1,2,3;
 4/5=5,16=3/1;
 5/5=2,38=5/2;
 7//1,2,3,16;
 1/6=1000,18=20,19=15/3(-5);
 2/9=110,12=1/2;
 6/7=2,8=2,9=2,10=2,19=2,28=1/1;
 99/9=1/99;
 ------------------
 Phi Psi fixed scan
 ------------------
 Symbolic Z-matrix:
 Charge =  0 Multiplicity = 1
 H                     5.846     1.       -3.8461 
 C                     5.846     2.09     -3.8461 
 H                     4.9562    2.4539   -4.3598 
 H                     6.7359    2.4539   -4.3598 
 C                     5.846     2.6408   -2.4186 
 O                     5.846     1.8774   -1.4555 
 N                     5.846     3.9697   -2.2907 
 H                     5.846     4.5562   -3.1129 
 C                     5.846     4.6139   -0.9928 
 H                     4.9562    4.3155   -0.4385 
 C                     7.0782    4.2208   -0.1847 
 H                     7.9772    4.5214   -0.7228 
 H                     7.0518    4.7189    0.7844 
 H                     7.0874    3.1409   -0.0375 
 C                     5.846     6.1294   -1.1334 
 O                     5.846     6.6527   -2.2454 
 N                     5.846     6.8349    0. 
 H                     5.846     6.3592    0.891 
 C                     5.8461    8.2839    0. 
 H                     5.3323    8.6477   -0.8898 
 C                     5.1347    8.8329    1.2322 
 H                     5.6431    8.4846    2.1312 
 H                     5.1499    9.9224    1.2058 
 H                     4.1019    8.4846    1.2414 
 C                     7.266     8.8318    0. 
 O                     7.4667    10.0443   0. 
 N                     8.2534    7.9333    0. 
 H                     8.0383    6.9465    0. 
 C                     9.6477    8.3279    0. 
 H                     9.8579    8.9213   -0.8898 
 C                     9.9822    9.1618    1.2321 
 H                     9.7855    8.5778    2.1312 
 H                     11.0348   9.4439    1.2058 
 H                     9.3659    10.0608   1.2414 
 C                     10.5615   7.1107    0. 
 O                     10.0892   5.9761    0. 
 N                     11.875    7.3494    0. 
 H                     12.2155   8.3003    0. 
 C                     12.8483   6.276     0. 
 H                     12.3316   5.3163    0. 
 H                     13.4733   6.3516   -0.8899 
 H                     13.4733   6.3516    0.8898 
 
 The following ModRedundant input section has been read:
 D   15   17   19   25 F                                                       
 D   17   19   25   27 F                                                       

 GradGradGradGradGradGradGradGradGradGradGradGradGradGradGradGradGradGrad
 Berny optimization.
 Initialization pass.
                           ----------------------------
                           !    Initial Parameters    !
                           ! (Angstroms and Degrees)  !
 --------------------------                            --------------------------
 ! Name  Definition              Value          Derivative Info.                !
 --------------------------------------------------------------------------------
 ! R1    R(1,2)                  1.09           calculate D2E/DX2 analytically  !
 ! R2    R(2,3)                  1.09           calculate D2E/DX2 analytically  !
 ! R3    R(2,4)                  1.0901         calculate D2E/DX2 analytically  !
 ! R4    R(2,5)                  1.5301         calculate D2E/DX2 analytically  !
 ! R5    R(5,6)                  1.229          calculate D2E/DX2 analytically  !
 ! R6    R(5,7)                  1.335          calculate D2E/DX2 analytically  !
 ! R7    R(7,8)                  1.0099         calculate D2E/DX2 analytically  !
 ! R8    R(7,9)                  1.449          calculate D2E/DX2 analytically  !
 ! R9    R(9,10)                 1.09           calculate D2E/DX2 analytically  !
 ! R10   R(9,11)                 1.5251         calculate D2E/DX2 analytically  !
 ! R11   R(9,15)                 1.522          calculate D2E/DX2 analytically  !
 ! R12   R(11,12)                1.09           calculate D2E/DX2 analytically  !
 ! R13   R(11,13)                1.0899         calculate D2E/DX2 analytically  !
 ! R14   R(11,14)                1.0899         calculate D2E/DX2 analytically  !
 ! R15   R(15,16)                1.229          calculate D2E/DX2 analytically  !
 ! R16   R(15,17)                1.335          calculate D2E/DX2 analytically  !
 ! R17   R(17,18)                1.01           calculate D2E/DX2 analytically  !
 ! R18   R(17,19)                1.449          calculate D2E/DX2 analytically  !
 ! R19   R(19,20)                1.09           calculate D2E/DX2 analytically  !
 ! R20   R(19,21)                1.5251         calculate D2E/DX2 analytically  !
 ! R21   R(19,25)                1.5219         calculate D2E/DX2 analytically  !
 ! R22   R(21,22)                1.0899         calculate D2E/DX2 analytically  !
 ! R23   R(21,23)                1.0899         calculate D2E/DX2 analytically  !
 ! R24   R(21,24)                1.09           calculate D2E/DX2 analytically  !
 ! R25   R(25,26)                1.229          calculate D2E/DX2 analytically  !
 ! R26   R(25,27)                1.335          calculate D2E/DX2 analytically  !
 ! R27   R(27,28)                1.01           calculate D2E/DX2 analytically  !
 ! R28   R(27,29)                1.4491         calculate D2E/DX2 analytically  !
 ! R29   R(29,30)                1.09           calculate D2E/DX2 analytically  !
 ! R30   R(29,31)                1.5249         calculate D2E/DX2 analytically  !
 ! R31   R(29,35)                1.522          calculate D2E/DX2 analytically  !
 ! R32   R(31,32)                1.09           calculate D2E/DX2 analytically  !
 ! R33   R(31,33)                1.0901         calculate D2E/DX2 analytically  !
 ! R34   R(31,34)                1.09           calculate D2E/DX2 analytically  !
 ! R35   R(35,36)                1.229          calculate D2E/DX2 analytically  !
 ! R36   R(35,37)                1.335          calculate D2E/DX2 analytically  !
 ! R37   R(37,38)                1.01           calculate D2E/DX2 analytically  !
 ! R38   R(37,39)                1.449          calculate D2E/DX2 analytically  !
 ! R39   R(39,40)                1.09           calculate D2E/DX2 analytically  !
 ! R40   R(39,41)                1.0901         calculate D2E/DX2 analytically  !
 ! R41   R(39,42)                1.09           calculate D2E/DX2 analytically  !
 ! A1    A(1,2,3)              109.5032         calculate D2E/DX2 analytically  !
 ! A2    A(1,2,4)              109.5017         calculate D2E/DX2 analytically  !
 ! A3    A(1,2,5)              111.0991         calculate D2E/DX2 analytically  !
 ! A4    A(3,2,4)              109.4443         calculate D2E/DX2 analytically  !
 ! A5    A(3,2,5)              108.6335         calculate D2E/DX2 analytically  !
 ! A6    A(4,2,5)              108.6321         calculate D2E/DX2 analytically  !
 ! A7    A(2,5,6)              120.4989         calculate D2E/DX2 analytically  !
 ! A8    A(2,5,7)              116.5966         calculate D2E/DX2 analytically  !
 ! A9    A(6,5,7)              122.9046         calculate D2E/DX2 analytically  !
 ! A10   A(5,7,8)              120.0039         calculate D2E/DX2 analytically  !
 ! A11   A(5,7,9)              121.8946         calculate D2E/DX2 analytically  !
 ! A12   A(8,7,9)              118.1015         calculate D2E/DX2 analytically  !
 ! A13   A(7,9,10)             109.5            calculate D2E/DX2 analytically  !
 ! A14   A(7,9,11)             111.1021         calculate D2E/DX2 analytically  !
 ! A15   A(7,9,15)             111.0966         calculate D2E/DX2 analytically  !
 ! A16   A(10,9,11)            108.6355         calculate D2E/DX2 analytically  !
 ! A17   A(10,9,15)            108.6373         calculate D2E/DX2 analytically  !
 ! A18   A(11,9,15)            107.7945         calculate D2E/DX2 analytically  !
 ! A19   A(9,11,12)            109.4942         calculate D2E/DX2 analytically  !
 ! A20   A(9,11,13)            109.4975         calculate D2E/DX2 analytically  !
 ! A21   A(9,11,14)            109.4977         calculate D2E/DX2 analytically  !
 ! A22   A(12,11,13)           109.4439         calculate D2E/DX2 analytically  !
 ! A23   A(12,11,14)           109.4481         calculate D2E/DX2 analytically  !
 ! A24   A(13,11,14)           109.446          calculate D2E/DX2 analytically  !
 ! A25   A(9,15,16)            120.5018         calculate D2E/DX2 analytically  !
 ! A26   A(9,15,17)            116.6003         calculate D2E/DX2 analytically  !
 ! A27   A(16,15,17)           122.8979         calculate D2E/DX2 analytically  !
 ! A28   A(15,17,18)           120.0017         calculate D2E/DX2 analytically  !
 ! A29   A(15,17,19)           121.9008         calculate D2E/DX2 analytically  !
 ! A30   A(18,17,19)           118.0975         calculate D2E/DX2 analytically  !
 ! A31   A(17,19,20)           109.4954         calculate D2E/DX2 analytically  !
 ! A32   A(17,19,21)           111.0974         calculate D2E/DX2 analytically  !
 ! A33   A(17,19,25)           111.1042         calculate D2E/DX2 analytically  !
 ! A34   A(20,19,21)           108.6349         calculate D2E/DX2 analytically  !
 ! A35   A(20,19,25)           108.6399         calculate D2E/DX2 analytically  !
 ! A36   A(21,19,25)           107.7944         calculate D2E/DX2 analytically  !
 ! A37   A(19,21,22)           109.4996         calculate D2E/DX2 analytically  !
 ! A38   A(19,21,23)           109.4977         calculate D2E/DX2 analytically  !
 ! A39   A(19,21,24)           109.4988         calculate D2E/DX2 analytically  !
 ! A40   A(22,21,23)           109.4452         calculate D2E/DX2 analytically  !
 ! A41   A(22,21,24)           109.4447         calculate D2E/DX2 analytically  !
 ! A42   A(23,21,24)           109.4412         calculate D2E/DX2 analytically  !
 ! A43   A(19,25,26)           120.4989         calculate D2E/DX2 analytically  !
 ! A44   A(19,25,27)           116.5987         calculate D2E/DX2 analytically  !
 ! A45   A(26,25,27)           122.9024         calculate D2E/DX2 analytically  !
 ! A46   A(25,27,28)           120.0043         calculate D2E/DX2 analytically  !
 ! A47   A(25,27,29)           121.8969         calculate D2E/DX2 analytically  !
 ! A48   A(28,27,29)           118.0988         calculate D2E/DX2 analytically  !
 ! A49   A(27,29,30)           109.5003         calculate D2E/DX2 analytically  !
 ! A50   A(27,29,31)           111.0991         calculate D2E/DX2 analytically  !
 ! A51   A(27,29,35)           111.095          calculate D2E/DX2 analytically  !
 ! A52   A(30,29,31)           108.6373         calculate D2E/DX2 analytically  !
 ! A53   A(30,29,35)           108.6385         calculate D2E/DX2 analytically  !
 ! A54   A(31,29,35)           107.796          calculate D2E/DX2 analytically  !
 ! A55   A(29,31,32)           109.5052         calculate D2E/DX2 analytically  !
 ! A56   A(29,31,33)           109.5023         calculate D2E/DX2 analytically  !
 ! A57   A(29,31,34)           109.5052         calculate D2E/DX2 analytically  !
 ! A58   A(32,31,33)           109.4394         calculate D2E/DX2 analytically  !
 ! A59   A(32,31,34)           109.4399         calculate D2E/DX2 analytically  !
 ! A60   A(33,31,34)           109.4352         calculate D2E/DX2 analytically  !
 ! A61   A(29,35,36)           120.5025         calculate D2E/DX2 analytically  !
 ! A62   A(29,35,37)           116.5971         calculate D2E/DX2 analytically  !
 ! A63   A(36,35,37)           122.9004         calculate D2E/DX2 analytically  !
 ! A64   A(35,37,38)           120.0014         calculate D2E/DX2 analytically  !
 ! A65   A(35,37,39)           121.9002         calculate D2E/DX2 analytically  !
 ! A66   A(38,37,39)           118.0985         calculate D2E/DX2 analytically  !
 ! A67   A(37,39,40)           109.5021         calculate D2E/DX2 analytically  !
 ! A68   A(37,39,41)           109.497          calculate D2E/DX2 analytically  !
 ! A69   A(37,39,42)           109.4985         calculate D2E/DX2 analytically  !
 ! A70   A(40,39,41)           109.4429         calculate D2E/DX2 analytically  !
 ! A71   A(40,39,42)           109.4444         calculate D2E/DX2 analytically  !
 ! A72   A(41,39,42)           109.4423         calculate D2E/DX2 analytically  !
 ! D1    D(1,2,5,6)              0.0            calculate D2E/DX2 analytically  !
 ! D2    D(1,2,5,7)            180.0            calculate D2E/DX2 analytically  !
 ! D3    D(3,2,5,6)            120.5141         calculate D2E/DX2 analytically  !
 ! D4    D(3,2,5,7)            -59.4859         calculate D2E/DX2 analytically  !
 ! D5    D(4,2,5,6)           -120.5112         calculate D2E/DX2 analytically  !
 ! D6    D(4,2,5,7)             59.4888         calculate D2E/DX2 analytically  !
 ! D7    D(2,5,7,8)              0.0            calculate D2E/DX2 analytically  !
 ! D8    D(2,5,7,9)            180.0            calculate D2E/DX2 analytically  !
 ! D9    D(6,5,7,8)            180.0            calculate D2E/DX2 analytically  !
 ! D10   D(6,5,7,9)              0.0            calculate D2E/DX2 analytically  !
 ! D11   D(5,7,9,10)           -60.0002         calculate D2E/DX2 analytically  !
 ! D12   D(5,7,9,11)            60.0009         calculate D2E/DX2 analytically  !
 ! D13   D(5,7,9,15)           180.0            calculate D2E/DX2 analytically  !
 ! D14   D(8,7,9,10)           119.9998         calculate D2E/DX2 analytically  !
 ! D15   D(8,7,9,11)          -119.9991         calculate D2E/DX2 analytically  !
 ! D16   D(8,7,9,15)             0.0            calculate D2E/DX2 analytically  !
 ! D17   D(7,9,11,12)           59.9998         calculate D2E/DX2 analytically  !
 ! D18   D(7,9,11,13)          179.9965         calculate D2E/DX2 analytically  !
 ! D19   D(7,9,11,14)          -60.0021         calculate D2E/DX2 analytically  !
 ! D20   D(10,9,11,12)        -179.4869         calculate D2E/DX2 analytically  !
 ! D21   D(10,9,11,13)         -59.4902         calculate D2E/DX2 analytically  !
 ! D22   D(10,9,11,14)          60.5112         calculate D2E/DX2 analytically  !
 ! D23   D(15,9,11,12)         -61.9422         calculate D2E/DX2 analytically  !
 ! D24   D(15,9,11,13)          58.0545         calculate D2E/DX2 analytically  !
 ! D25   D(15,9,11,14)         178.0559         calculate D2E/DX2 analytically  !
 ! D26   D(7,9,15,16)            0.0            calculate D2E/DX2 analytically  !
 ! D27   D(7,9,15,17)          180.0            calculate D2E/DX2 analytically  !
 ! D28   D(10,9,15,16)        -120.5111         calculate D2E/DX2 analytically  !
 ! D29   D(10,9,15,17)          59.4889         calculate D2E/DX2 analytically  !
 ! D30   D(11,9,15,16)         121.9454         calculate D2E/DX2 analytically  !
 ! D31   D(11,9,15,17)         -58.0546         calculate D2E/DX2 analytically  !
 ! D32   D(9,15,17,18)           0.0            calculate D2E/DX2 analytically  !
 ! D33   D(9,15,17,19)         179.9953         calculate D2E/DX2 analytically  !
 ! D34   D(16,15,17,18)        180.0            calculate D2E/DX2 analytically  !
 ! D35   D(16,15,17,19)         -0.0047         calculate D2E/DX2 analytically  !
 ! D36   D(15,17,19,20)         30.0072         calculate D2E/DX2 analytically  !
 ! D37   D(15,17,19,21)        150.0015         calculate D2E/DX2 analytically  !
 ! D38   D(15,17,19,25)        -89.9975         frozen, calculate D2E/DX2 analyt!
 ! D39   D(18,17,19,20)       -149.9973         calculate D2E/DX2 analytically  !
 ! D40   D(18,17,19,21)        -30.003          calculate D2E/DX2 analytically  !
 ! D41   D(18,17,19,25)         89.9979         calculate D2E/DX2 analytically  !
 ! D42   D(17,19,21,22)         60.0039         calculate D2E/DX2 analytically  !
 ! D43   D(17,19,21,23)       -179.9943         calculate D2E/DX2 analytically  !
 ! D44   D(17,19,21,24)        -59.998          calculate D2E/DX2 analytically  !
 ! D45   D(20,19,21,22)       -179.4919         calculate D2E/DX2 analytically  !
 ! D46   D(20,19,21,23)        -59.4901         calculate D2E/DX2 analytically  !
 ! D47   D(20,19,21,24)         60.5062         calculate D2E/DX2 analytically  !
 ! D48   D(25,19,21,22)        -61.9445         calculate D2E/DX2 analytically  !
 ! D49   D(25,19,21,23)         58.0573         calculate D2E/DX2 analytically  !
 ! D50   D(25,19,21,24)        178.0536         calculate D2E/DX2 analytically  !
 ! D51   D(17,19,25,26)        180.0            calculate D2E/DX2 analytically  !
 ! D52   D(17,19,25,27)          0.0            frozen, calculate D2E/DX2 analyt!
 ! D53   D(20,19,25,26)         59.4883         calculate D2E/DX2 analytically  !
 ! D54   D(20,19,25,27)       -120.5117         calculate D2E/DX2 analytically  !
 ! D55   D(21,19,25,26)        -58.0558         calculate D2E/DX2 analytically  !
 ! D56   D(21,19,25,27)        121.9442         calculate D2E/DX2 analytically  !
 ! D57   D(19,25,27,28)          0.0            calculate D2E/DX2 analytically  !
 ! D58   D(19,25,27,29)        180.0            calculate D2E/DX2 analytically  !
 ! D59   D(26,25,27,28)        180.0            calculate D2E/DX2 analytically  !
 ! D60   D(26,25,27,29)          0.0            calculate D2E/DX2 analytically  !
 ! D61   D(25,27,29,30)        -59.9996         calculate D2E/DX2 analytically  !
 ! D62   D(25,27,29,31)         60.002          calculate D2E/DX2 analytically  !
 ! D63   D(25,27,29,35)        180.0            calculate D2E/DX2 analytically  !
 ! D64   D(28,27,29,30)        120.0004         calculate D2E/DX2 analytically  !
 ! D65   D(28,27,29,31)       -119.998          calculate D2E/DX2 analytically  !
 ! D66   D(28,27,29,35)          0.0            calculate D2E/DX2 analytically  !
 ! D67   D(27,29,31,32)         59.9983         calculate D2E/DX2 analytically  !
 ! D68   D(27,29,31,33)        179.9992         calculate D2E/DX2 analytically  !
 ! D69   D(27,29,31,34)        -60.005          calculate D2E/DX2 analytically  !
 ! D70   D(30,29,31,32)       -179.4887         calculate D2E/DX2 analytically  !
 ! D71   D(30,29,31,33)        -59.4878         calculate D2E/DX2 analytically  !
 ! D72   D(30,29,31,34)         60.5079         calculate D2E/DX2 analytically  !
 ! D73   D(35,29,31,32)        -61.9409         calculate D2E/DX2 analytically  !
 ! D74   D(35,29,31,33)         58.0601         calculate D2E/DX2 analytically  !
 ! D75   D(35,29,31,34)        178.0558         calculate D2E/DX2 analytically  !
 ! D76   D(27,29,35,36)          0.0            calculate D2E/DX2 analytically  !
 ! D77   D(27,29,35,37)        180.0            calculate D2E/DX2 analytically  !
 ! D78   D(30,29,35,36)       -120.5111         calculate D2E/DX2 analytically  !
 ! D79   D(30,29,35,37)         59.4889         calculate D2E/DX2 analytically  !
 ! D80   D(31,29,35,36)        121.9417         calculate D2E/DX2 analytically  !
 ! D81   D(31,29,35,37)        -58.0583         calculate D2E/DX2 analytically  !
 ! D82   D(29,35,37,38)          0.0            calculate D2E/DX2 analytically  !
 ! D83   D(29,35,37,39)        180.0            calculate D2E/DX2 analytically  !
 ! D84   D(36,35,37,38)        180.0            calculate D2E/DX2 analytically  !
 ! D85   D(36,35,37,39)          0.0            calculate D2E/DX2 analytically  !
 ! D86   D(35,37,39,40)          0.0            calculate D2E/DX2 analytically  !
 ! D87   D(35,37,39,41)        120.0            calculate D2E/DX2 analytically  !
 ! D88   D(35,37,39,42)       -120.0028         calculate D2E/DX2 analytically  !
 ! D89   D(38,37,39,40)        180.0            calculate D2E/DX2 analytically  !
 ! D90   D(38,37,39,41)        -60.0            calculate D2E/DX2 analytically  !
 ! D91   D(38,37,39,42)         59.9972         calculate D2E/DX2 analytically  !
 --------------------------------------------------------------------------------
 Trust Radius=3.00D-01 FncErr=1.00D-07 GrdErr=1.00D-07
 Number of steps in this run= 252 maximum allowed number of steps= 252.
 GradGradGradGradGradGradGradGradGradGradGradGradGradGradGradGradGradGrad

                          Input orientation:                          
 ---------------------------------------------------------------------
 Center     Atomic      Atomic             Coordinates (Angstroms)
 Number     Number       Type             X           Y           Z
 ---------------------------------------------------------------------
      1          1           0        5.846000    1.000000   -3.846100
      2          6           0        5.846000    2.090000   -3.846100
      3          1           0        4.956200    2.453900   -4.359800
      4          1           0        6.735900    2.453900   -4.359800
      5          6           0        5.846000    2.640800   -2.418600
      6          8           0        5.846000    1.877400   -1.455500
      7          7           0        5.846000    3.969700   -2.290700
      8          1           0        5.846000    4.556200   -3.112900
      9          6           0        5.846000    4.613900   -0.992800
     10          1           0        4.956200    4.315500   -0.438500
     11          6           0        7.078200    4.220800   -0.184700
     12          1           0        7.977200    4.521400   -0.722800
     13          1           0        7.051800    4.718900    0.784400
     14          1           0        7.087400    3.140900   -0.037500
     15          6           0        5.846000    6.129400   -1.133400
     16          8           0        5.846000    6.652700   -2.245400
     17          7           0        5.846000    6.834900    0.000000
     18          1           0        5.846000    6.359200    0.891000
     19          6           0        5.846100    8.283900    0.000000
     20          1           0        5.332300    8.647700   -0.889800
     21          6           0        5.134700    8.832900    1.232200
     22          1           0        5.643100    8.484600    2.131200
     23          1           0        5.149900    9.922400    1.205800
     24          1           0        4.101900    8.484600    1.241400
     25          6           0        7.266000    8.831800    0.000000
     26          8           0        7.466700   10.044300    0.000000
     27          7           0        8.253400    7.933300    0.000000
     28          1           0        8.038300    6.946500    0.000000
     29          6           0        9.647700    8.327900    0.000000
     30          1           0        9.857900    8.921300   -0.889800
     31          6           0        9.982200    9.161800    1.232100
     32          1           0        9.785500    8.577800    2.131200
     33          1           0       11.034800    9.443900    1.205800
     34          1           0        9.365900   10.060800    1.241400
     35          6           0       10.561500    7.110700    0.000000
     36          8           0       10.089200    5.976100    0.000000
     37          7           0       11.875000    7.349400    0.000000
     38          1           0       12.215500    8.300300    0.000000
     39          6           0       12.848300    6.276000    0.000000
     40          1           0       12.331600    5.316300    0.000000
     41          1           0       13.473300    6.351600   -0.889900
     42          1           0       13.473300    6.351600    0.889800
 ---------------------------------------------------------------------
                    Distance matrix (angstroms):
                    1          2          3          4          5
     1  H    0.000000
     2  C    1.090000   0.000000
     3  H    1.780297   1.089979   0.000000
     4  H    1.780347   1.090061   1.779700   0.000000
     5  C    2.174852   1.530077   2.143580   2.143621   0.000000
     6  O    2.546527   2.400035   3.091772   3.091801   1.228959
     7  N    3.352370   2.439783   2.714879   2.714912   1.335041
     8  H    3.630997   2.572883   2.601186   2.601220   2.037354
     9  C    4.604519   3.809382   4.098052   4.098074   2.434344
    10  H    4.836943   4.166093   4.340754   4.691426   2.741744
    11  C    5.029684   4.411856   5.005625   4.546489   3.000838
    12  H    5.166941   4.495411   5.160307   4.363846   3.309744
    13  H    6.060173   5.459542   5.998713   5.629637   4.003956
    14  H    4.542022   4.141364   4.867880   4.390649   2.731449
    15  C    5.802541   4.865747   4.970986   4.971004   3.717804
    16  O    5.874969   4.835336   4.784595   4.784614   4.015637
    17  N    6.988458   6.107910   6.244418   6.244433   4.841498
    18  H    7.152702   6.377004   6.604091   6.604104   4.977946
    19  C    8.236971   7.290877   7.334076   7.334064   6.139561
    20  H    8.215285   7.211590   7.109537   7.236999   6.219643
    21  C    9.362126   8.471232   8.484926   8.632841   7.223323
    22  H    9.580633   8.755581   8.886746   8.927297   7.408903
    23  H   10.276939   9.346269   9.316218   9.448269   8.163488
    24  H    9.216495   8.355564   8.274818   8.641802   7.112488
    25  C    8.840021   7.890548   8.063538   7.743802   6.796654
    26  O    9.960849   8.982764   9.106297   8.783854   7.955382
    27  N    8.286055   7.398122   7.739716   7.164809   6.297282
    28  H    7.413469   6.571473   6.977869   6.394338   5.403227
    29  C    9.107334   8.255713   8.690334   7.873393   7.255733
    30  H    9.358528   8.455868   8.825805   7.975904   7.607710
    31  C   10.464762   9.638808  10.076008   9.316852   8.541616
    32  H   10.424530   9.661228  10.146791   9.430551   8.453893
    33  H   11.124063  10.321104  10.806729   9.915470   9.292044
    34  H   10.971347  10.089896  10.425153   9.805879   8.991201
    35  C    8.623751   7.888970   8.491939   7.438337   6.932934
    36  O    7.586752   6.920911   7.600095   6.531338   5.914271
    37  N    9.563274   8.877084   9.531189   8.329713   8.023053
    38  H   10.423886   9.691792  10.290077   9.122185   8.857206
    39  C    9.573968   9.019273   9.792934   8.424829   8.252061
    40  H    8.688264   8.201494   9.033145   7.649382   7.420979
    41  H    9.775195   9.223668   9.988657   8.522020   8.618739
    42  H   10.451989   9.938093  10.737381   9.388446   9.104463
                    6          7          8          9         10
     6  O    0.000000
     7  N    2.252838   0.000000
     8  H    3.150071   1.009948   0.000000
     9  C    2.775342   1.448978   2.120885   0.000000
    10  H    2.787537   2.083739   2.828798   1.089970   0.000000
    11  C    2.936796   2.452877   3.194552   1.525080   2.139221
    12  H    3.474133   2.702720   3.202468   2.150225   3.041326
    13  H    3.813821   3.386959   4.082814   2.150214   2.459625
    14  H    2.268971   2.702757   3.605861   2.150210   2.466272
    15  C    4.264183   2.450234   2.528513   1.522008   2.136554
    16  O    4.840189   2.683382   2.268891   2.392846   3.085310
    17  N    5.166748   3.668334   3.857800   2.432795   2.707656
    18  H    5.058912   3.979061   4.391130   2.568029   2.595385
    19  C    6.569758   4.884632   4.856531   3.801914   4.090526
    20  H    6.813286   4.910203   4.684702   4.067682   4.371851
    21  C    7.490571   6.047106   6.138078   4.822503   4.819751
    22  H    7.520683   6.322870   6.555462   4.978239   4.945360
    23  H    8.502300   6.938639   6.923282   5.787795   5.846244
    24  H    7.346444   5.991823   6.118345   4.797484   4.575291
    25  C    7.245589   5.559112   5.476066   4.559905   5.091603
    26  O    8.452420   6.691393   6.514296   5.753396   6.270091
    27  N    6.677423   5.172331   5.185608   4.218962   4.914498
    28  H    5.711430   4.349118   4.495538   3.351545   4.076001
    29  C    7.627605   6.220461   6.194255   5.406697   6.188845
    30  H    8.126001   6.525044   6.331794   5.887244   6.741196
    31  C    8.797376   7.515063   7.562984   6.537716   7.179011
    32  H    8.560341   7.503829   7.693732   6.402464   6.934890
    33  H    9.552910   8.313605   8.334532   7.422020   8.121181
    34  H    9.307578   7.871907   7.851767   6.859305   7.434782
    35  C    7.193181   6.111393   6.200932   5.427302   6.278918
    36  O    6.076394   5.222805   5.450781   4.565741   5.412722
    37  N    8.271040   7.281382   7.337640   6.694584   7.567471
    38  H    9.162022   8.035666   8.017416   7.426017   8.292668
    39  C    8.396331   7.720009   7.853666   7.265014   8.143776
    40  H    7.483817   7.008826   7.234010   6.598638   7.455898
    41  H    8.860817   8.112422   8.144992   7.823420   8.768720
    42  H    9.148475   8.600275   8.798908   8.046085   8.857261
                   11         12         13         14         15
    11  C    0.000000
    12  H    1.090006   0.000000
    13  H    1.089934   1.779613   0.000000
    14  H    1.089925   1.779652   1.779570   0.000000
    15  C    2.461931   2.701161   2.668599   3.416607   0.000000
    16  O    3.417446   3.376798   3.791204   4.329969   1.228978
    17  N    2.895850   3.227497   2.558651   3.897193   1.335038
    18  H    2.692248   3.244052   2.038603   3.572204   2.037401
    19  C    4.249820   4.384111   3.844245   5.290811   2.434433
    20  H    4.810694   4.904053   4.603813   5.842229   2.581678
    21  C    5.201564   5.521853   4.560789   6.150125   3.662093
    22  H    5.059930   5.412975   4.240142   5.945115   4.030602
    23  H    6.177384   6.394054   5.556187   7.161595   4.510350
    24  H    5.391856   5.880730   4.805336   6.253313   3.772072
    25  C    4.618518   4.428069   4.192507   5.693825   3.256372
    26  O    5.839366   5.593342   5.398825   6.913914   4.386081
    27  N    3.898444   3.498541   3.520155   4.932348   3.214689
    28  H    2.895746   2.531261   2.559427   3.922781   2.599698
    29  C    4.848166   4.219295   4.514295   5.784593   4.535518
    30  H    5.506233   4.787906   5.323280   6.466460   4.893811
    31  C    5.903729   5.419868   5.341071   6.800220   5.647937
    32  H    5.628172   5.279171   4.917123   6.445377   5.672031
    33  H    6.698429   6.107325   6.194150   7.540263   6.586457
    34  H    6.432179   6.039166   5.839504   7.396767   5.786646
    35  C    4.529792   3.729011   4.319026   5.275423   4.948079
    36  O    3.490174   2.664420   3.379591   4.129233   4.394638
    37  N    5.729882   4.869586   5.549601   6.374480   6.254745
    38  H    6.562643   5.724134   6.332891   7.274491   6.824070
    39  C    6.127970   5.227684   6.053037   6.558828   7.094948
    40  H    5.369585   4.484987   5.371076   5.677623   6.633908
    41  H    6.777531   5.795228   6.834080   7.198257   7.634420
    42  H    6.825845   6.013088   6.626649   7.207510   7.894201
                   16         17         18         19         20
    16  O    0.000000
    17  N    2.252780   0.000000
    18  H    3.150103   1.010035   0.000000
    19  C    2.775362   1.449000   2.120932   0.000000
    20  H    2.466083   2.083717   2.944889   1.089993   0.000000
    21  C    4.165684   2.452808   2.596451   1.525060   2.139212
    22  H    4.748858   2.702719   2.469127   2.150233   3.041322
    23  H    4.804818   3.386911   3.644180   2.150193   2.459608
    24  H    4.307611   2.702678   2.771640   2.150253   2.466272
    25  C    3.436088   2.450308   2.987312   1.521943   2.136547
    26  O    4.378520   3.595402   4.123168   2.392771   2.701462
    27  N    3.532327   2.646140   3.011187   2.432697   3.136070
    28  H    3.151875   2.195139   2.438233   2.567952   3.317870
    29  C    4.722398   4.084357   4.372938   3.801855   4.417770
    30  H    4.804117   4.608704   5.082415   4.158433   4.533863
    31  C    5.957914   4.903130   5.007900   4.404101   5.136957
    32  H    6.195183   4.806181   4.688277   4.488570   5.381665
    33  H    6.828267   5.931651   6.044677   5.451803   6.127314
    34  H    6.013536   4.933275   5.119992   4.133696   4.775855
    35  C    5.242855   4.723559   4.857425   4.859156   5.522558
    36  O    4.848129   4.329236   4.352631   4.830097   5.527865
    37  N    6.471171   6.050913   6.174400   6.100895   6.729357
    38  H    6.951758   6.535895   6.718056   6.369421   6.949163
    39  C    7.363147   7.024569   7.059250   7.284399   7.931391
    40  H    6.992195   6.661017   6.629067   7.132206   7.802575
    41  H    7.752661   7.694232   7.832456   7.918326   8.458602
    42  H    8.252021   7.694220   7.627304   7.918315   8.643780
                   21         22         23         24         25
    21  C    0.000000
    22  H    1.089947   0.000000
    23  H    1.089926   1.779573   0.000000
    24  H    1.089988   1.779618   1.779562   0.000000
    25  C    2.461861   2.701179   2.668565   3.416599   0.000000
    26  O    2.902418   3.209392   2.614646   3.910961   1.228998
    27  N    3.471871   3.414617   3.878426   4.368061   1.335013
    28  H    3.675284   3.555945   4.318887   4.404778   2.037352
    29  C    4.705370   4.539096   4.922051   5.685202   2.434422
    30  H    5.178737   5.204007   5.249667   6.153394   2.741842
    31  C    4.858645   4.482719   4.891863   5.919173   3.000785
    32  H    4.743756   4.143448   4.914581   5.753585   3.309745
    33  H    5.931711   5.554012   5.904321   6.999045   4.004057
    34  H    4.405778   4.139492   4.218421   5.494916   2.731500
    35  C    5.825328   5.533559   6.216512   6.719755   3.717863
    36  O    5.850358   5.531943   6.436142   6.609191   4.015654
    37  N    7.010758   6.683358   7.300771   7.953039   4.841528
    38  H    7.206921   6.911760   7.349004   8.210088   4.977956
    39  C    8.219226   7.831656   8.603229   9.105960   6.139559
    40  H    8.104330   7.701699   8.616666   8.905457   6.165958
    41  H    8.955021   8.659605   9.296320   9.844555   6.743433
    42  H    8.706683   8.209921   9.062530   9.617507   6.743420
                   26         27         28         29         30
    26  O    0.000000
    27  N    2.252824   0.000000
    28  H    3.150094   1.009971   0.000000
    29  C    2.775390   1.449062   2.120951   0.000000
    30  H    2.787599   2.083821   2.828873   1.089978   0.000000
    31  C    2.936770   2.452760   3.194428   1.524910   2.139100
    32  H    3.474114   2.702725   3.202477   2.150221   3.041328
    33  H    3.813892   3.387042   4.082888   2.150222   2.459623
    34  H    2.268988   2.702774   3.605892   2.150216   2.466280
    35  C    4.264246   2.450305   2.528537   1.522040   2.136602
    36  O    4.840223   2.683429   2.268891   2.392882   3.085360
    37  N    5.166778   3.668368   3.857797   2.432761   2.707638
    38  H    5.058917   3.979061   4.391102   2.567948   2.595316
    39  C    6.569757   4.884644   4.856508   3.801859   4.090458
    40  H    6.783895   4.845658   4.592382   4.033987   4.461722
    41  H    7.106842   5.526396   5.539409   4.396919   4.435592
    42  H    7.106829   5.526380   5.539393   4.396899   4.779273
                   31         32         33         34         35
    31  C    0.000000
    32  H    1.090013   0.000000
    33  H    1.090064   1.779675   0.000000
    34  H    1.090006   1.779634   1.779624   0.000000
    35  C    2.461843   2.701217   2.668668   3.416668   0.000000
    36  O    3.417339   3.376846   3.791273   4.330013   1.228977
    37  N    2.895782   3.227536   2.558675   3.897223   1.335013
    38  H    2.692189   3.244059   2.038585   3.572206   2.037367
    39  C    4.249758   4.384181   3.844259   5.290831   2.434374
    40  H    4.671790   4.654248   4.491406   5.731207   2.520541
    41  H    4.958617   5.261452   4.461004   5.930543   3.137951
    42  H    4.494683   4.482958   3.950754   5.545496   3.137922
                   36         37         38         39         40
    36  O    0.000000
    37  N    2.252784   0.000000
    38  H    3.150088   1.010025   0.000000
    39  C    2.775351   1.448965   2.120902   0.000000
    40  H    2.337455   2.083742   2.986258   1.089955   0.000000
    41  H    3.519241   2.083768   2.484233   1.090074   1.779676
    42  H    3.519215   2.083725   2.484197   1.089993   1.779626
                   41         42
    41  H    0.000000
    42  H    1.779700   0.000000
 Stoichiometry    C12H22N4O4
 Framework group  C1[X(C12H22N4O4)]
 Deg. of freedom   120
 Full point group                 C1      NOp   1
 Largest Abelian subgroup         C1      NOp   1
 Largest concise Abelian subgroup C1      NOp   1
                         Standard orientation:                         
 ---------------------------------------------------------------------
 Center     Atomic      Atomic             Coordinates (Angstroms)
 Number     Number       Type             X           Y           Z
 ---------------------------------------------------------------------
      1          1           0        6.106649    2.196029   -0.699523
      2          6           0        5.332358    1.558935   -1.126940
      3          1           0        5.796664    0.722714   -1.649634
      4          1           0        4.731761    2.137322   -1.829068
      5          6           0        4.412042    1.004298   -0.037659
      6          8           0        4.597392    1.293501    1.142319
      7          7           0        3.420644    0.206720   -0.441806
      8          1           0        3.308737   -0.002054   -1.423582
      9          6           0        2.482012   -0.381381    0.492348
     10          1           0        3.020974   -1.004591    1.205906
     11          6           0        1.724461    0.696075    1.261161
     12          1           0        1.172427    1.322671    0.560626
     13          1           0        1.027266    0.225982    1.954621
     14          1           0        2.431518    1.310583    1.818285
     15          6           0        1.457572   -1.244256   -0.230478
     16          8           0        1.497963   -1.368850   -1.452456
     17          7           0        0.536360   -1.841372    0.529225
     18          1           0        0.544061   -1.708573    1.530463
     19          6           0       -0.493009   -2.688218   -0.038974
     20          1           0       -0.114228   -3.164205   -0.943433
     21          6           0       -0.913992   -3.775428    0.944161
     22          1           0       -1.303963   -3.314292    1.851499
     23          1           0       -1.687239   -4.395844    0.491269
     24          1           0       -0.051996   -4.394279    1.193280
     25          6           0       -1.731828   -1.879842   -0.396978
     26          8           0       -2.713229   -2.429008   -0.892665
     27          7           0       -1.684392   -0.569835   -0.144206
     28          1           0       -0.854703   -0.164034    0.264430
     29          6           0       -2.798995    0.307795   -0.439516
     30          1           0       -3.016526    0.273086   -1.507002
     31          6           0       -4.048148   -0.114578    0.326361
     32          1           0       -3.848819   -0.076149    1.397304
     33          1           0       -4.868628    0.561492    0.085569
     34          1           0       -4.321437   -1.131421    0.044482
     35          6           0       -2.481129    1.745577   -0.054353
     36          8           0       -1.392550    2.033328    0.438171
     37          7           0       -3.436639    2.650105   -0.280384
     38          1           0       -4.315861    2.364963   -0.687586
     39          6           0       -3.256525    4.051131    0.042392
     40          1           0       -2.265620    4.201363    0.470810
     41          1           0       -3.354395    4.648794   -0.863965
     42          1           0       -4.013975    4.358682    0.763340
 ---------------------------------------------------------------------
 Rotational constants (GHZ):      0.3951762      0.1976039      0.1440855
 Standard basis: 6-31G(d) (6D, 7F)
 There are   344 symmetry adapted basis functions of A   symmetry.
 Integral buffers will be    131072 words long.
 Raffenetti 1 integral format.
 Two-electron integral symmetry is turned on.
   344 basis functions,   648 primitive gaussians,   344 cartesian basis functions
    77 alpha electrons       77 beta electrons
       nuclear repulsion energy      1667.5303640357 Hartrees.
 NAtoms=   42 NActive=   42 NUniq=   42 SFac= 7.50D-01 NAtFMM=   80 NAOKFM=F Big=F
 One-electron integrals computed using PRISM.
 NBasis=   344 RedAO= T  NBF=   344
 NBsUse=   344 1.00D-06 NBFU=   344
 Harris functional with IExCor=  205 diagonalized for initial guess.
 ExpMin= 1.61D-01 ExpMax= 5.48D+03 ExpMxC= 8.25D+02 IAcc=1 IRadAn=         1 AccDes= 0.00D+00
 HarFok:  IExCor=  205 AccDes= 0.00D+00 IRadAn=         1 IDoV= 1
 ScaDFX=  1.000000  1.000000  1.000000  1.000000
 FoFCou: FMM=F IPFlag=           0 FMFlag=      100000 FMFlg1=           0
         NFxFlg=           0 DoJE=T BraDBF=F KetDBF=T FulRan=T
         Omega=  0.000000  0.000000  1.000000  0.000000  0.000000 ICntrl=     500 IOpCl=  0
         NMat0=    1 NMatS0=    1 NMatT0=    0 NMatD0=    1 NMtDS0=    0 NMtDT0=    0
         I1Cent=           4 NGrid=           0.
 Petite list used in FoFCou.
 Initial guess orbital symmetries:
       Occupied  (A) (A) (A) (A) (A) (A) (A) (A) (A) (A) (A) (A)
                 (A) (A) (A) (A) (A) (A) (A) (A) (A) (A) (A) (A)
                 (A) (A) (A) (A) (A) (A) (A) (A) (A) (A) (A) (A)
                 (A) (A) (A) (A) (A) (A) (A) (A) (A) (A) (A) (A)
                 (A) (A) (A) (A) (A) (A) (A) (A) (A) (A) (A) (A)
                 (A) (A) (A) (A) (A) (A) (A) (A) (A) (A) (A) (A)
                 (A) (A) (A) (A) (A)
       Virtual   (A) (A) (A) (A) (A) (A) (A) (A) (A) (A) (A) (A)
                 (A) (A) (A) (A) (A) (A) (A) (A) (A) (A) (A) (A)
                 (A) (A) (A) (A) (A) (A) (A) (A) (A) (A) (A) (A)
                 (A) (A) (A) (A) (A) (A) (A) (A) (A) (A) (A) (A)
                 (A) (A) (A) (A) (A) (A) (A) (A) (A) (A) (A) (A)
                 (A) (A) (A) (A) (A) (A) (A) (A) (A) (A) (A) (A)
                 (A) (A) (A) (A) (A) (A) (A) (A) (A) (A) (A) (A)
                 (A) (A) (A) (A) (A) (A) (A) (A) (A) (A) (A) (A)
                 (A) (A) (A) (A) (A) (A) (A) (A) (A) (A) (A) (A)
                 (A) (A) (A) (A) (A) (A) (A) (A) (A) (A) (A) (A)
                 (A) (A) (A) (A) (A) (A) (A) (A) (A) (A) (A) (A)
                 (A) (A) (A) (A) (A) (A) (A) (A) (A) (A) (A) (A)
                 (A) (A) (A) (A) (A) (A) (A) (A) (A) (A) (A) (A)
                 (A) (A) (A) (A) (A) (A) (A) (A) (A) (A) (A) (A)
                 (A) (A) (A) (A) (A) (A) (A) (A) (A) (A) (A) (A)
                 (A) (A) (A) (A) (A) (A) (A) (A) (A) (A) (A) (A)
                 (A) (A) (A) (A) (A) (A) (A) (A) (A) (A) (A) (A)
                 (A) (A) (A) (A) (A) (A) (A) (A) (A) (A) (A) (A)
                 (A) (A) (A) (A) (A) (A) (A) (A) (A) (A) (A) (A)
                 (A) (A) (A) (A) (A) (A) (A) (A) (A) (A) (A) (A)
                 (A) (A) (A) (A) (A) (A) (A) (A) (A) (A) (A) (A)
                 (A) (A) (A) (A) (A) (A) (A) (A) (A) (A) (A) (A)
                 (A) (A) (A)
 The electronic state of the initial guess is 1-A.
 Requested convergence on RMS density matrix=1.00D-08 within 128 cycles.
 Requested convergence on MAX density matrix=1.00D-06.
 Requested convergence on             energy=1.00D-06.
 No special actions if energy rises.
 Integral accuracy reduced to 1.0D-05 until final iterations.
 Initial convergence to 1.0D-05 achieved.  Increase integral accuracy.
 SCF Done:  E(RHF) =  -984.543241982     A.U. after   15 cycles
             Convg  =    0.3185D-08             -V/T =  2.0019
 Range of M.O.s used for correlation:     1   344
 NBasis=   344 NAE=    77 NBE=    77 NFC=     0 NFV=     0
 NROrb=    344 NOA=    77 NOB=    77 NVA=   267 NVB=   267
 Symmetrizing basis deriv contribution to polar:
 IMax=3 JMax=2 DiffMx= 0.00D+00
 G2DrvN: will do    43 centers at a time, making    1 passes doing MaxLOS=2.
 Calling FoFCou, ICntrl=  3107 FMM=F I1Cent=   0 AccDes= 0.00D+00.
 FoFDir/FoFCou used for L=0 through L=2.
 End of G2Drv Frequency-dependent properties file   721 does not exist.
 End of G2Drv Frequency-dependent properties file   722 does not exist.
          IDoAtm=111111111111111111111111111111111111111111
          Differentiating once with respect to nuclear coordinates.
          There are   129 degrees of freedom in the 1st order CPHF.  IDoFFX=5.
    123 vectors produced by pass  0 Test12= 2.06D-10 1.00D-07 XBig12= 9.57D-02 5.10D-02.
 AX will form   123 AO Fock derivatives at one time.
    123 vectors produced by pass  1 Test12= 2.06D-10 1.00D-07 XBig12= 5.68D-03 2.21D-02.
    123 vectors produced by pass  2 Test12= 2.06D-10 1.00D-07 XBig12= 9.08D-05 1.68D-03.
    123 vectors produced by pass  3 Test12= 2.06D-10 1.00D-07 XBig12= 1.04D-06 1.28D-04.
    123 vectors produced by pass  4 Test12= 2.06D-10 1.00D-07 XBig12= 6.46D-09 7.87D-06.
     34 vectors produced by pass  5 Test12= 2.06D-10 1.00D-07 XBig12= 3.52D-11 5.49D-07.
 Inverted reduced A of dimension   649 with in-core refinement.
 End of Minotr Frequency-dependent properties file   721 does not exist.
 End of Minotr Frequency-dependent properties file   722 does not exist.

 **********************************************************************

            Population analysis using the SCF density.

 **********************************************************************

 Orbital symmetries:
       Occupied  (A) (A) (A) (A) (A) (A) (A) (A) (A) (A) (A) (A)
                 (A) (A) (A) (A) (A) (A) (A) (A) (A) (A) (A) (A)
                 (A) (A) (A) (A) (A) (A) (A) (A) (A) (A) (A) (A)
                 (A) (A) (A) (A) (A) (A) (A) (A) (A) (A) (A) (A)
                 (A) (A) (A) (A) (A) (A) (A) (A) (A) (A) (A) (A)
                 (A) (A) (A) (A) (A) (A) (A) (A) (A) (A) (A) (A)
                 (A) (A) (A) (A) (A)
       Virtual   (A) (A) (A) (A) (A) (A) (A) (A) (A) (A) (A) (A)
                 (A) (A) (A) (A) (A) (A) (A) (A) (A) (A) (A) (A)
                 (A) (A) (A) (A) (A) (A) (A) (A) (A) (A) (A) (A)
                 (A) (A) (A) (A) (A) (A) (A) (A) (A) (A) (A) (A)
                 (A) (A) (A) (A) (A) (A) (A) (A) (A) (A) (A) (A)
                 (A) (A) (A) (A) (A) (A) (A) (A) (A) (A) (A) (A)
                 (A) (A) (A) (A) (A) (A) (A) (A) (A) (A) (A) (A)
                 (A) (A) (A) (A) (A) (A) (A) (A) (A) (A) (A) (A)
                 (A) (A) (A) (A) (A) (A) (A) (A) (A) (A) (A) (A)
                 (A) (A) (A) (A) (A) (A) (A) (A) (A) (A) (A) (A)
                 (A) (A) (A) (A) (A) (A) (A) (A) (A) (A) (A) (A)
                 (A) (A) (A) (A) (A) (A) (A) (A) (A) (A) (A) (A)
                 (A) (A) (A) (A) (A) (A) (A) (A) (A) (A) (A) (A)
                 (A) (A) (A) (A) (A) (A) (A) (A) (A) (A) (A) (A)
                 (A) (A) (A) (A) (A) (A) (A) (A) (A) (A) (A) (A)
                 (A) (A) (A) (A) (A) (A) (A) (A) (A) (A) (A) (A)
                 (A) (A) (A) (A) (A) (A) (A) (A) (A) (A) (A) (A)
                 (A) (A) (A) (A) (A) (A) (A) (A) (A) (A) (A) (A)
                 (A) (A) (A) (A) (A) (A) (A) (A) (A) (A) (A) (A)
                 (A) (A) (A) (A) (A) (A) (A) (A) (A) (A) (A) (A)
                 (A) (A) (A) (A) (A) (A) (A) (A) (A) (A) (A) (A)
                 (A) (A) (A) (A) (A) (A) (A) (A) (A) (A) (A) (A)
                 (A) (A) (A)
 The electronic state is 1-A.
 Alpha  occ. eigenvalues --  -20.53967 -20.53570 -20.51991 -20.51143 -15.61111
 Alpha  occ. eigenvalues --  -15.60651 -15.59141 -15.58538 -11.36609 -11.36390
 Alpha  occ. eigenvalues --  -11.34933 -11.34483 -11.28956 -11.28932 -11.28544
 Alpha  occ. eigenvalues --  -11.27051 -11.23712 -11.23127 -11.22668 -11.21551
 Alpha  occ. eigenvalues --   -1.39967  -1.39444  -1.37773  -1.36810  -1.26791
 Alpha  occ. eigenvalues --   -1.24980  -1.23594  -1.23409  -1.08269  -1.05697
 Alpha  occ. eigenvalues --   -1.03458  -0.98197  -0.96562  -0.91730  -0.89611
 Alpha  occ. eigenvalues --   -0.87272  -0.82318  -0.81034  -0.78479  -0.77865
 Alpha  occ. eigenvalues --   -0.76317  -0.72371  -0.68943  -0.68643  -0.67804
 Alpha  occ. eigenvalues --   -0.65508  -0.65056  -0.64722  -0.63440  -0.62666
 Alpha  occ. eigenvalues --   -0.61188  -0.60662  -0.60325  -0.58899  -0.57839
 Alpha  occ. eigenvalues --   -0.57599  -0.56859  -0.56148  -0.55979  -0.55404
 Alpha  occ. eigenvalues --   -0.55285  -0.54810  -0.53846  -0.53271  -0.52465
 Alpha  occ. eigenvalues --   -0.52162  -0.51975  -0.49267  -0.49038  -0.44456
 Alpha  occ. eigenvalues --   -0.43099  -0.42846  -0.40631  -0.40583  -0.39541
 Alpha  occ. eigenvalues --   -0.38856  -0.38241
 Alpha virt. eigenvalues --    0.17862   0.18127   0.19522   0.19853   0.20492
 Alpha virt. eigenvalues --    0.21341   0.24021   0.25602   0.26266   0.27817
 Alpha virt. eigenvalues --    0.28073   0.28534   0.29340   0.29577   0.30168
 Alpha virt. eigenvalues --    0.30618   0.31013   0.31490   0.31750   0.32558
 Alpha virt. eigenvalues --    0.33146   0.33312   0.33890   0.34932   0.35111
 Alpha virt. eigenvalues --    0.35411   0.36459   0.37396   0.38960   0.39276
 Alpha virt. eigenvalues --    0.41026   0.42176   0.43112   0.43700   0.45713
 Alpha virt. eigenvalues --    0.48282   0.49572   0.51708   0.52348   0.54030
 Alpha virt. eigenvalues --    0.54655   0.59054   0.59605   0.61639   0.67085
 Alpha virt. eigenvalues --    0.71005   0.71158   0.72091   0.73105   0.73870
 Alpha virt. eigenvalues --    0.74550   0.75271   0.75799   0.76498   0.76938
 Alpha virt. eigenvalues --    0.77509   0.77737   0.78206   0.80162   0.82095
 Alpha virt. eigenvalues --    0.82646   0.83356   0.84429   0.86541   0.88430
 Alpha virt. eigenvalues --    0.88739   0.89271   0.91674   0.92683   0.93452
 Alpha virt. eigenvalues --    0.93698   0.94351   0.95651   0.96595   0.97692
 Alpha virt. eigenvalues --    0.98728   0.99305   0.99823   1.00209   1.01847
 Alpha virt. eigenvalues --    1.02305   1.03774   1.04721   1.06284   1.07216
 Alpha virt. eigenvalues --    1.09185   1.09945   1.10103   1.10286   1.10846
 Alpha virt. eigenvalues --    1.12158   1.13720   1.14198   1.14526   1.14779
 Alpha virt. eigenvalues --    1.15542   1.15718   1.16038   1.16574   1.17006
 Alpha virt. eigenvalues --    1.18107   1.18211   1.19490   1.19889   1.20526
 Alpha virt. eigenvalues --    1.20978   1.21274   1.22428   1.22599   1.23091
 Alpha virt. eigenvalues --    1.24435   1.25126   1.26443   1.27266   1.28124
 Alpha virt. eigenvalues --    1.31245   1.33658   1.34793   1.35712   1.36701
 Alpha virt. eigenvalues --    1.37740   1.39653   1.40099   1.43387   1.44376
 Alpha virt. eigenvalues --    1.46106   1.47944   1.49639   1.50842   1.53966
 Alpha virt. eigenvalues --    1.54993   1.55721   1.57550   1.60342   1.60907
 Alpha virt. eigenvalues --    1.62029   1.62861   1.65056   1.65396   1.67989
 Alpha virt. eigenvalues --    1.68618   1.70616   1.72967   1.74162   1.76398
 Alpha virt. eigenvalues --    1.77188   1.79004   1.79732   1.81764   1.85680
 Alpha virt. eigenvalues --    1.90473   1.92630   1.94102   1.96110   1.99622
 Alpha virt. eigenvalues --    2.00180   2.00750   2.02217   2.03653   2.05273
 Alpha virt. eigenvalues --    2.07213   2.07938   2.09456   2.11106   2.12353
 Alpha virt. eigenvalues --    2.13447   2.13741   2.14133   2.15060   2.15211
 Alpha virt. eigenvalues --    2.15560   2.16624   2.17353   2.18143   2.20950
 Alpha virt. eigenvalues --    2.21585   2.22545   2.23089   2.24544   2.26519
 Alpha virt. eigenvalues --    2.28109   2.28774   2.30403   2.31585   2.34704
 Alpha virt. eigenvalues --    2.35658   2.35932   2.36724   2.37593   2.39313
 Alpha virt. eigenvalues --    2.40907   2.41636   2.42492   2.46143   2.46614
 Alpha virt. eigenvalues --    2.49404   2.50412   2.52212   2.54142   2.57713
 Alpha virt. eigenvalues --    2.58514   2.58875   2.61133   2.61650   2.62984
 Alpha virt. eigenvalues --    2.63062   2.64008   2.65346   2.65665   2.67034
 Alpha virt. eigenvalues --    2.67350   2.69898   2.73016   2.73891   2.76426
 Alpha virt. eigenvalues --    2.77425   2.79137   2.80517   2.82384   2.85040
 Alpha virt. eigenvalues --    2.87571   2.90690   2.92385   2.93928   2.96107
 Alpha virt. eigenvalues --    2.97667   3.00008   3.01086   3.03275   3.06767
 Alpha virt. eigenvalues --    3.07779   3.08608   3.12077   3.16694   3.19407
 Alpha virt. eigenvalues --    3.22691   3.27736   3.30862   3.33146   3.34645
 Alpha virt. eigenvalues --    3.37614   3.39622   3.41629   3.52351   3.54909
 Alpha virt. eigenvalues --    3.61071   3.62706   4.39375   4.43921   4.45571
 Alpha virt. eigenvalues --    4.48837   4.50092   4.52986   4.56473   4.60722
 Alpha virt. eigenvalues --    4.63242   4.64331   4.65841   4.71871   4.73705
 Alpha virt. eigenvalues --    4.80575   4.85548   4.87346   4.89601   5.03941
 Alpha virt. eigenvalues --    5.05169   5.16073
          Condensed to atoms (all electrons):
              1          2          3          4          5          6
     1  H    0.459126   0.385640  -0.018875  -0.018733  -0.030782   0.003540
     2  C    0.385640   5.245071   0.374496   0.374945   0.378136  -0.067256
     3  H   -0.018875   0.374496   0.511760  -0.023657  -0.034534   0.001271
     4  H   -0.018733   0.374945  -0.023657   0.511175  -0.035368   0.001171
     5  C   -0.030782   0.378136  -0.034534  -0.035368   4.185222   0.587248
     6  O    0.003540  -0.067256   0.001271   0.001171   0.587248   8.210708
     7  N    0.003857  -0.119996   0.003499   0.003717   0.246877  -0.107563
     8  H   -0.000017  -0.001206   0.000644   0.000477  -0.017338   0.002019
     9  C   -0.000076   0.004568  -0.000245  -0.000088  -0.029777   0.014389
    10  H    0.000002  -0.000017  -0.000003  -0.000002  -0.001897   0.002985
    11  C    0.000006  -0.000501   0.000008   0.000029  -0.003563  -0.015839
    12  H    0.000000  -0.000041   0.000000   0.000003  -0.000095  -0.000069
    13  H    0.000000   0.000007   0.000000  -0.000001   0.000273   0.000274
    14  H    0.000001   0.000308  -0.000005  -0.000025   0.000561   0.011110
    15  C    0.000000   0.000008  -0.000010  -0.000006   0.004064   0.000536
    16  O    0.000000  -0.000040  -0.000001  -0.000001   0.000282  -0.000003
    17  N    0.000000   0.000000   0.000000   0.000000  -0.000085  -0.000002
    18  H    0.000000   0.000000   0.000000   0.000000   0.000001   0.000001
    19  C    0.000000   0.000000   0.000000   0.000000   0.000001   0.000000
    20  H    0.000000   0.000000   0.000000   0.000000   0.000000   0.000000
    21  C    0.000000   0.000000   0.000000   0.000000   0.000000   0.000000
    22  H    0.000000   0.000000   0.000000   0.000000   0.000000   0.000000
    23  H    0.000000   0.000000   0.000000   0.000000   0.000000   0.000000
    24  H    0.000000   0.000000   0.000000   0.000000   0.000000   0.000000
    25  C    0.000000   0.000000   0.000000   0.000000   0.000000   0.000000
    26  O    0.000000   0.000000   0.000000   0.000000   0.000000   0.000000
    27  N    0.000000   0.000000   0.000000   0.000000   0.000000   0.000000
    28  H    0.000000   0.000000   0.000000   0.000000   0.000000   0.000000
    29  C    0.000000   0.000000   0.000000   0.000000   0.000000   0.000000
    30  H    0.000000   0.000000   0.000000   0.000000   0.000000   0.000000
    31  C    0.000000   0.000000   0.000000   0.000000   0.000000   0.000000
    32  H    0.000000   0.000000   0.000000   0.000000   0.000000   0.000000
    33  H    0.000000   0.000000   0.000000   0.000000   0.000000   0.000000
    34  H    0.000000   0.000000   0.000000   0.000000   0.000000   0.000000
    35  C    0.000000   0.000000   0.000000   0.000000   0.000000   0.000000
    36  O    0.000000   0.000000   0.000000   0.000000   0.000000   0.000000
    37  N    0.000000   0.000000   0.000000   0.000000   0.000000   0.000000
    38  H    0.000000   0.000000   0.000000   0.000000   0.000000   0.000000
    39  C    0.000000   0.000000   0.000000   0.000000   0.000000   0.000000
    40  H    0.000000   0.000000   0.000000   0.000000   0.000000   0.000000
    41  H    0.000000   0.000000   0.000000   0.000000   0.000000   0.000000
    42  H    0.000000   0.000000   0.000000   0.000000   0.000000   0.000000
              7          8          9         10         11         12
     1  H    0.003857  -0.000017  -0.000076   0.000002   0.000006   0.000000
     2  C   -0.119996  -0.001206   0.004568  -0.000017  -0.000501  -0.000041
     3  H    0.003499   0.000644  -0.000245  -0.000003   0.000008   0.000000
     4  H    0.003717   0.000477  -0.000088  -0.000002   0.000029   0.000003
     5  C    0.246877  -0.017338  -0.029777  -0.001897  -0.003563  -0.000095
     6  O   -0.107563   0.002019   0.014389   0.002985  -0.015839  -0.000069
     7  N    7.418486   0.311678   0.196419  -0.041431  -0.062432   0.001712
     8  H    0.311678   0.288111  -0.026708   0.002390   0.002966   0.000232
     9  C    0.196419  -0.026708   5.033666   0.403556   0.322306  -0.041805
    10  H   -0.041431   0.002390   0.403556   0.504715  -0.045173   0.004226
    11  C   -0.062432   0.002966   0.322306  -0.045173   5.246147   0.386167
    12  H    0.001712   0.000232  -0.041805   0.004226   0.386167   0.478161
    13  H    0.005031  -0.000081  -0.045379   0.000141   0.378324  -0.023848
    14  H   -0.005643  -0.000197  -0.025428  -0.004070   0.386411  -0.017627
    15  C   -0.037667  -0.005826   0.385881  -0.039344  -0.063255  -0.002200
    16  O   -0.006219   0.020079  -0.076091   0.001072  -0.000087   0.000615
    17  N    0.002820   0.000728  -0.116288   0.002090   0.001998  -0.000206
    18  H    0.000028  -0.000019  -0.000081   0.000646   0.000613  -0.000017
    19  C   -0.000041  -0.000020   0.003895  -0.000309   0.000053  -0.000069
    20  H   -0.000005  -0.000005   0.000251  -0.000015  -0.000022  -0.000002
    21  C    0.000000   0.000000  -0.000052   0.000004  -0.000011   0.000001
    22  H    0.000000   0.000000  -0.000010   0.000001  -0.000003   0.000000
    23  H    0.000000   0.000000   0.000002   0.000000   0.000000   0.000000
    24  H    0.000000   0.000000  -0.000009   0.000002   0.000000   0.000000
    25  C    0.000001   0.000000  -0.000061   0.000005  -0.000102   0.000054
    26  O    0.000000   0.000000   0.000000   0.000000   0.000000   0.000000
    27  N    0.000004   0.000000  -0.000352  -0.000005   0.000266  -0.000237
    28  H    0.000002   0.000002  -0.001236   0.000026   0.000424   0.001066
    29  C    0.000000   0.000000   0.000000   0.000000   0.000014  -0.000019
    30  H    0.000000   0.000000   0.000000   0.000000   0.000000  -0.000007
    31  C    0.000000   0.000000   0.000000   0.000000  -0.000001   0.000003
    32  H    0.000000   0.000000   0.000000   0.000000   0.000000  -0.000001
    33  H    0.000000   0.000000   0.000000   0.000000   0.000000   0.000000
    34  H    0.000000   0.000000   0.000000   0.000000   0.000000   0.000000
    35  C    0.000000   0.000000  -0.000002   0.000000   0.000054   0.000014
    36  O   -0.000001   0.000000   0.000076  -0.000001  -0.002034   0.004180
    37  N    0.000000   0.000000   0.000000   0.000000  -0.000001   0.000008
    38  H    0.000000   0.000000   0.000000   0.000000   0.000000   0.000000
    39  C    0.000000   0.000000   0.000000   0.000000   0.000000   0.000000
    40  H    0.000000   0.000000   0.000000   0.000000   0.000000   0.000003
    41  H    0.000000   0.000000   0.000000   0.000000   0.000000   0.000000
    42  H    0.000000   0.000000   0.000000   0.000000   0.000000   0.000000
             13         14         15         16         17         18
     1  H    0.000000   0.000001   0.000000   0.000000   0.000000   0.000000
     2  C    0.000007   0.000308   0.000008  -0.000040   0.000000   0.000000
     3  H    0.000000  -0.000005  -0.000010  -0.000001   0.000000   0.000000
     4  H   -0.000001  -0.000025  -0.000006  -0.000001   0.000000   0.000000
     5  C    0.000273   0.000561   0.004064   0.000282  -0.000085   0.000001
     6  O    0.000274   0.011110   0.000536  -0.000003  -0.000002   0.000001
     7  N    0.005031  -0.005643  -0.037667  -0.006219   0.002820   0.000028
     8  H   -0.000081  -0.000197  -0.005826   0.020079   0.000728  -0.000019
     9  C   -0.045379  -0.025428   0.385881  -0.076091  -0.116288  -0.000081
    10  H    0.000141  -0.004070  -0.039344   0.001072   0.002090   0.000646
    11  C    0.378324   0.386411  -0.063255  -0.000087   0.001998   0.000613
    12  H   -0.023848  -0.017627  -0.002200   0.000615  -0.000206  -0.000017
    13  H    0.576061  -0.019274  -0.007090   0.000043  -0.000253   0.003459
    14  H   -0.019274   0.419623   0.003924  -0.000059   0.000035  -0.000092
    15  C   -0.007090   0.003924   4.176354   0.592569   0.254504  -0.018422
    16  O    0.000043  -0.000059   0.592569   8.203225  -0.103047   0.002273
    17  N   -0.000253   0.000035   0.254504  -0.103047   7.518898   0.316170
    18  H    0.003459  -0.000092  -0.018422   0.002273   0.316170   0.306713
    19  C    0.000352   0.000003  -0.026574   0.003551   0.132485  -0.020482
    20  H   -0.000004   0.000000  -0.000748   0.007043  -0.035432   0.002077
    21  C   -0.000026   0.000000   0.003126   0.000362  -0.057661  -0.003305
    22  H   -0.000008   0.000000  -0.000113  -0.000008  -0.002379   0.003284
    23  H    0.000000   0.000000  -0.000025   0.000001   0.003804  -0.000012
    24  H    0.000000   0.000000  -0.000155  -0.000002  -0.000360   0.000447
    25  C   -0.000066  -0.000001  -0.002875   0.001298  -0.062506   0.001610
    26  O    0.000000   0.000000  -0.000024   0.000000   0.002543  -0.000043
    27  N    0.000130   0.000004   0.004184  -0.000714  -0.015861   0.000313
    28  H   -0.000088   0.000060   0.000340  -0.000487   0.008865  -0.000513
    29  C    0.000000  -0.000001  -0.000020  -0.000011  -0.000028  -0.000008
    30  H    0.000000   0.000000  -0.000020   0.000007  -0.000029   0.000002
    31  C   -0.000002   0.000000   0.000004   0.000000  -0.000011  -0.000003
    32  H    0.000001   0.000000  -0.000001   0.000000  -0.000007   0.000003
    33  H    0.000000   0.000000   0.000000   0.000000   0.000000   0.000000
    34  H    0.000000   0.000000   0.000000   0.000000  -0.000013   0.000001
    35  C    0.000015   0.000000  -0.000019  -0.000001  -0.000028   0.000000
    36  O    0.000098   0.000035  -0.000056   0.000000  -0.000046  -0.000004
    37  N    0.000000   0.000000   0.000000   0.000000   0.000000   0.000000
    38  H    0.000000   0.000000   0.000000   0.000000   0.000000   0.000000
    39  C    0.000000   0.000000   0.000000   0.000000   0.000000   0.000000
    40  H    0.000000   0.000000   0.000000   0.000000   0.000000   0.000000
    41  H    0.000000   0.000000   0.000000   0.000000   0.000000   0.000000
    42  H    0.000000   0.000000   0.000000   0.000000   0.000000   0.000000
             19         20         21         22         23         24
     1  H    0.000000   0.000000   0.000000   0.000000   0.000000   0.000000
     2  C    0.000000   0.000000   0.000000   0.000000   0.000000   0.000000
     3  H    0.000000   0.000000   0.000000   0.000000   0.000000   0.000000
     4  H    0.000000   0.000000   0.000000   0.000000   0.000000   0.000000
     5  C    0.000001   0.000000   0.000000   0.000000   0.000000   0.000000
     6  O    0.000000   0.000000   0.000000   0.000000   0.000000   0.000000
     7  N   -0.000041  -0.000005   0.000000   0.000000   0.000000   0.000000
     8  H   -0.000020  -0.000005   0.000000   0.000000   0.000000   0.000000
     9  C    0.003895   0.000251  -0.000052  -0.000010   0.000002  -0.000009
    10  H   -0.000309  -0.000015   0.000004   0.000001   0.000000   0.000002
    11  C    0.000053  -0.000022  -0.000011  -0.000003   0.000000   0.000000
    12  H   -0.000069  -0.000002   0.000001   0.000000   0.000000   0.000000
    13  H    0.000352  -0.000004  -0.000026  -0.000008   0.000000   0.000000
    14  H    0.000003   0.000000   0.000000   0.000000   0.000000   0.000000
    15  C   -0.026574  -0.000748   0.003126  -0.000113  -0.000025  -0.000155
    16  O    0.003551   0.007043   0.000362  -0.000008   0.000001  -0.000002
    17  N    0.132485  -0.035432  -0.057661  -0.002379   0.003804  -0.000360
    18  H   -0.020482   0.002077  -0.003305   0.003284  -0.000012   0.000447
    19  C    5.090448   0.403122   0.341959  -0.038425  -0.034926  -0.041986
    20  H    0.403122   0.425676  -0.028901   0.003746  -0.001551  -0.003711
    21  C    0.341959  -0.028901   5.138590   0.385035   0.392537   0.390923
    22  H   -0.038425   0.003746   0.385035   0.541916  -0.019732  -0.026922
    23  H   -0.034926  -0.001551   0.392537  -0.019732   0.453736  -0.020174
    24  H   -0.041986  -0.003711   0.390923  -0.026922  -0.020174   0.514431
    25  C    0.391546  -0.035057  -0.059484  -0.006957  -0.002935   0.005950
    26  O   -0.070881   0.002144   0.000550   0.000229   0.005872   0.000069
    27  N   -0.102719   0.000935   0.000171   0.001105   0.000396  -0.000083
    28  H   -0.004655   0.000184   0.000237   0.000020  -0.000022  -0.000011
    29  C    0.004598  -0.000114  -0.000160  -0.000080  -0.000010   0.000003
    30  H   -0.000032   0.000021  -0.000014   0.000002   0.000000   0.000000
    31  C   -0.000611  -0.000005   0.000067   0.000017   0.000008   0.000000
    32  H   -0.000009   0.000001  -0.000014   0.000030  -0.000001   0.000000
    33  H    0.000008   0.000000  -0.000001   0.000000   0.000000   0.000000
    34  H    0.000235  -0.000003   0.000000  -0.000001   0.000003   0.000000
    35  C    0.000087  -0.000001  -0.000002  -0.000001   0.000000   0.000000
    36  O   -0.000017   0.000000   0.000000   0.000000   0.000000   0.000000
    37  N    0.000000   0.000000   0.000000   0.000000   0.000000   0.000000
    38  H    0.000000   0.000000   0.000000   0.000000   0.000000   0.000000
    39  C    0.000000   0.000000   0.000000   0.000000   0.000000   0.000000
    40  H    0.000000   0.000000   0.000000   0.000000   0.000000   0.000000
    41  H    0.000000   0.000000   0.000000   0.000000   0.000000   0.000000
    42  H    0.000000   0.000000   0.000000   0.000000   0.000000   0.000000
             25         26         27         28         29         30
     1  H    0.000000   0.000000   0.000000   0.000000   0.000000   0.000000
     2  C    0.000000   0.000000   0.000000   0.000000   0.000000   0.000000
     3  H    0.000000   0.000000   0.000000   0.000000   0.000000   0.000000
     4  H    0.000000   0.000000   0.000000   0.000000   0.000000   0.000000
     5  C    0.000000   0.000000   0.000000   0.000000   0.000000   0.000000
     6  O    0.000000   0.000000   0.000000   0.000000   0.000000   0.000000
     7  N    0.000001   0.000000   0.000004   0.000002   0.000000   0.000000
     8  H    0.000000   0.000000   0.000000   0.000002   0.000000   0.000000
     9  C   -0.000061   0.000000  -0.000352  -0.001236   0.000000   0.000000
    10  H    0.000005   0.000000  -0.000005   0.000026   0.000000   0.000000
    11  C   -0.000102   0.000000   0.000266   0.000424   0.000014   0.000000
    12  H    0.000054   0.000000  -0.000237   0.001066  -0.000019  -0.000007
    13  H   -0.000066   0.000000   0.000130  -0.000088   0.000000   0.000000
    14  H   -0.000001   0.000000   0.000004   0.000060  -0.000001   0.000000
    15  C   -0.002875  -0.000024   0.004184   0.000340  -0.000020  -0.000020
    16  O    0.001298   0.000000  -0.000714  -0.000487  -0.000011   0.000007
    17  N   -0.062506   0.002543  -0.015861   0.008865  -0.000028  -0.000029
    18  H    0.001610  -0.000043   0.000313  -0.000513  -0.000008   0.000002
    19  C    0.391546  -0.070881  -0.102719  -0.004655   0.004598  -0.000032
    20  H   -0.035057   0.002144   0.000935   0.000184  -0.000114   0.000021
    21  C   -0.059484   0.000550   0.000171   0.000237  -0.000160  -0.000014
    22  H   -0.006957   0.000229   0.001105   0.000020  -0.000080   0.000002
    23  H   -0.002935   0.005872   0.000396  -0.000022  -0.000010   0.000000
    24  H    0.005950   0.000069  -0.000083  -0.000011   0.000003   0.000000
    25  C    4.154041   0.554047   0.305170  -0.013628  -0.033871  -0.001666
    26  O    0.554047   8.257829  -0.101455   0.001961   0.012662   0.003036
    27  N    0.305170  -0.101455   7.412946   0.293571   0.197866  -0.040159
    28  H   -0.013628   0.001961   0.293571   0.266010  -0.028345   0.002470
    29  C   -0.033871   0.012662   0.197866  -0.028345   5.033833   0.403387
    30  H   -0.001666   0.003036  -0.040159   0.002470   0.403387   0.493270
    31  C   -0.003602  -0.014998  -0.063417   0.002780   0.335405  -0.044851
    32  H   -0.000060  -0.000017   0.001850   0.000290  -0.043023   0.004480
    33  H    0.000280   0.000250   0.004915  -0.000068  -0.042065   0.000276
    34  H    0.000724   0.010319  -0.005590  -0.000223  -0.026740  -0.003974
    35  C    0.003345   0.000428  -0.036311  -0.005080   0.381238  -0.036751
    36  O    0.000376  -0.000003  -0.005824   0.021093  -0.077819   0.000955
    37  N   -0.000080  -0.000001   0.002755   0.000704  -0.116068   0.002110
    38  H    0.000000   0.000001   0.000026  -0.000020   0.001202   0.000463
    39  C    0.000001   0.000000  -0.000050  -0.000010   0.003618  -0.000213
    40  H    0.000000   0.000000  -0.000004  -0.000010   0.000577  -0.000017
    41  H    0.000000   0.000000   0.000000   0.000000  -0.000110   0.000010
    42  H    0.000000   0.000000   0.000001   0.000000  -0.000004  -0.000001
             31         32         33         34         35         36
     1  H    0.000000   0.000000   0.000000   0.000000   0.000000   0.000000
     2  C    0.000000   0.000000   0.000000   0.000000   0.000000   0.000000
     3  H    0.000000   0.000000   0.000000   0.000000   0.000000   0.000000
     4  H    0.000000   0.000000   0.000000   0.000000   0.000000   0.000000
     5  C    0.000000   0.000000   0.000000   0.000000   0.000000   0.000000
     6  O    0.000000   0.000000   0.000000   0.000000   0.000000   0.000000
     7  N    0.000000   0.000000   0.000000   0.000000   0.000000  -0.000001
     8  H    0.000000   0.000000   0.000000   0.000000   0.000000   0.000000
     9  C    0.000000   0.000000   0.000000   0.000000  -0.000002   0.000076
    10  H    0.000000   0.000000   0.000000   0.000000   0.000000  -0.000001
    11  C   -0.000001   0.000000   0.000000   0.000000   0.000054  -0.002034
    12  H    0.000003  -0.000001   0.000000   0.000000   0.000014   0.004180
    13  H   -0.000002   0.000001   0.000000   0.000000   0.000015   0.000098
    14  H    0.000000   0.000000   0.000000   0.000000   0.000000   0.000035
    15  C    0.000004  -0.000001   0.000000   0.000000  -0.000019  -0.000056
    16  O    0.000000   0.000000   0.000000   0.000000  -0.000001   0.000000
    17  N   -0.000011  -0.000007   0.000000  -0.000013  -0.000028  -0.000046
    18  H   -0.000003   0.000003   0.000000   0.000001   0.000000  -0.000004
    19  C   -0.000611  -0.000009   0.000008   0.000235   0.000087  -0.000017
    20  H   -0.000005   0.000001   0.000000  -0.000003  -0.000001   0.000000
    21  C    0.000067  -0.000014  -0.000001   0.000000  -0.000002   0.000000
    22  H    0.000017   0.000030   0.000000  -0.000001  -0.000001   0.000000
    23  H    0.000008  -0.000001   0.000000   0.000003   0.000000   0.000000
    24  H    0.000000   0.000000   0.000000   0.000000   0.000000   0.000000
    25  C   -0.003602  -0.000060   0.000280   0.000724   0.003345   0.000376
    26  O   -0.014998  -0.000017   0.000250   0.010319   0.000428  -0.000003
    27  N   -0.063417   0.001850   0.004915  -0.005590  -0.036311  -0.005824
    28  H    0.002780   0.000290  -0.000068  -0.000223  -0.005080   0.021093
    29  C    0.335405  -0.043023  -0.042065  -0.026740   0.381238  -0.077819
    30  H   -0.044851   0.004480   0.000276  -0.003974  -0.036751   0.000955
    31  C    5.206155   0.385153   0.378995   0.387984  -0.063071   0.000088
    32  H    0.385153   0.528276  -0.023929  -0.020817  -0.002857   0.000622
    33  H    0.378995  -0.023929   0.565047  -0.020219  -0.006837   0.000026
    34  H    0.387984  -0.020817  -0.020219   0.427713   0.003903  -0.000064
    35  C   -0.063071  -0.002857  -0.006837   0.003903   4.145486   0.585647
    36  O    0.000088   0.000622   0.000026  -0.000064   0.585647   8.222043
    37  N    0.002345   0.000206   0.000362   0.000091   0.289333  -0.097505
    38  H    0.000024  -0.000009   0.002634  -0.000079  -0.020800   0.002308
    39  C   -0.000076  -0.000043   0.000158   0.000003  -0.025517  -0.004791
    40  H   -0.000048  -0.000002  -0.000008   0.000000  -0.002003   0.009815
    41  H   -0.000004   0.000001   0.000002   0.000000   0.000764   0.000368
    42  H    0.000012   0.000002  -0.000002  -0.000001   0.000923   0.000370
             37         38         39         40         41         42
     1  H    0.000000   0.000000   0.000000   0.000000   0.000000   0.000000
     2  C    0.000000   0.000000   0.000000   0.000000   0.000000   0.000000
     3  H    0.000000   0.000000   0.000000   0.000000   0.000000   0.000000
     4  H    0.000000   0.000000   0.000000   0.000000   0.000000   0.000000
     5  C    0.000000   0.000000   0.000000   0.000000   0.000000   0.000000
     6  O    0.000000   0.000000   0.000000   0.000000   0.000000   0.000000
     7  N    0.000000   0.000000   0.000000   0.000000   0.000000   0.000000
     8  H    0.000000   0.000000   0.000000   0.000000   0.000000   0.000000
     9  C    0.000000   0.000000   0.000000   0.000000   0.000000   0.000000
    10  H    0.000000   0.000000   0.000000   0.000000   0.000000   0.000000
    11  C   -0.000001   0.000000   0.000000   0.000000   0.000000   0.000000
    12  H    0.000008   0.000000   0.000000   0.000003   0.000000   0.000000
    13  H    0.000000   0.000000   0.000000   0.000000   0.000000   0.000000
    14  H    0.000000   0.000000   0.000000   0.000000   0.000000   0.000000
    15  C    0.000000   0.000000   0.000000   0.000000   0.000000   0.000000
    16  O    0.000000   0.000000   0.000000   0.000000   0.000000   0.000000
    17  N    0.000000   0.000000   0.000000   0.000000   0.000000   0.000000
    18  H    0.000000   0.000000   0.000000   0.000000   0.000000   0.000000
    19  C    0.000000   0.000000   0.000000   0.000000   0.000000   0.000000
    20  H    0.000000   0.000000   0.000000   0.000000   0.000000   0.000000
    21  C    0.000000   0.000000   0.000000   0.000000   0.000000   0.000000
    22  H    0.000000   0.000000   0.000000   0.000000   0.000000   0.000000
    23  H    0.000000   0.000000   0.000000   0.000000   0.000000   0.000000
    24  H    0.000000   0.000000   0.000000   0.000000   0.000000   0.000000
    25  C   -0.000080   0.000000   0.000001   0.000000   0.000000   0.000000
    26  O   -0.000001   0.000001   0.000000   0.000000   0.000000   0.000000
    27  N    0.002755   0.000026  -0.000050  -0.000004   0.000000   0.000001
    28  H    0.000704  -0.000020  -0.000010  -0.000010   0.000000   0.000000
    29  C   -0.116068   0.001202   0.003618   0.000577  -0.000110  -0.000004
    30  H    0.002110   0.000463  -0.000213  -0.000017   0.000010  -0.000001
    31  C    0.002345   0.000024  -0.000076  -0.000048  -0.000004   0.000012
    32  H    0.000206  -0.000009  -0.000043  -0.000002   0.000001   0.000002
    33  H    0.000362   0.002634   0.000158  -0.000008   0.000002  -0.000002
    34  H    0.000091  -0.000079   0.000003   0.000000   0.000000  -0.000001
    35  C    0.289333  -0.020800  -0.025517  -0.002003   0.000764   0.000923
    36  O   -0.097505   0.002308  -0.004791   0.009815   0.000368   0.000370
    37  N    7.330156   0.322692   0.184999  -0.031718  -0.046889  -0.048016
[...]
    32  H    0.000001   0.000000   0.000000   0.000000  -0.000003   0.000001
    33  H    0.000000   0.000000   0.000000   0.000000   0.000000   0.000000
    34  H    0.000000   0.000000   0.000000   0.000000  -0.000007   0.000000
    35  C   -0.000002   0.000000   0.000018   0.000003  -0.000031  -0.000001
    36  O    0.000073   0.000011  -0.000002  -0.000002  -0.000040  -0.000001
    37  N    0.000000   0.000000   0.000000   0.000000   0.000000   0.000000
    38  H    0.000000   0.000000   0.000000   0.000000   0.000000   0.000000
    39  C    0.000000   0.000000   0.000000   0.000000   0.000000   0.000000
    40  H    0.000000   0.000000   0.000000   0.000000   0.000000   0.000000
    41  H    0.000000   0.000000   0.000000   0.000000   0.000000   0.000000
    42  H    0.000000   0.000000   0.000000   0.000000   0.000000   0.000000
             19         20         21         22         23         24
     1  H    0.000000   0.000000   0.000000   0.000000   0.000000   0.000000
     2  C    0.000000   0.000000   0.000000   0.000000   0.000000   0.000000
     3  H    0.000000   0.000000   0.000000   0.000000   0.000000   0.000000
     4  H    0.000000   0.000000   0.000000   0.000000   0.000000   0.000000
     5  C    0.000002   0.000000   0.000000   0.000000   0.000000   0.000000
     6  O    0.000000   0.000000   0.000000   0.000000   0.000000   0.000000
     7  N   -0.000063  -0.000003   0.000001   0.000000   0.000000   0.000000
     8  H   -0.000023  -0.000006   0.000000   0.000000   0.000000   0.000000
     9  C    0.003691   0.000249  -0.000057  -0.000010   0.000002  -0.000016
    10  H   -0.000185  -0.000020  -0.000011   0.000002   0.000000   0.000005
    11  C   -0.000204  -0.000017  -0.000001  -0.000001   0.000000   0.000000
    12  H   -0.000020  -0.000001   0.000000   0.000000   0.000000   0.000000
    13  H    0.000038   0.000002  -0.000004   0.000000   0.000000   0.000000
    14  H    0.000003   0.000000   0.000000   0.000000   0.000000   0.000000
    15  C   -0.023771  -0.001163   0.002708  -0.000071  -0.000025  -0.000121
    16  O    0.003827   0.007146   0.000345  -0.000007   0.000001   0.000000
    17  N    0.132615  -0.041246  -0.057842  -0.002646   0.003901  -0.000368
    18  H   -0.021435   0.002326  -0.003092   0.002882   0.000002   0.000425
    19  C    5.070151   0.407771   0.343769  -0.036369  -0.034829  -0.040369
    20  H    0.407771   0.443244  -0.028191   0.003630  -0.001387  -0.004021
    21  C    0.343769  -0.028191   5.134386   0.385582   0.393359   0.392028
    22  H   -0.036369   0.003630   0.385582   0.539622  -0.021169  -0.028621
    23  H   -0.034829  -0.001387   0.393359  -0.021169   0.454471  -0.020633
    24  H   -0.040369  -0.004021   0.392028  -0.028621  -0.020633   0.515986
    25  C    0.392856  -0.041650  -0.052144  -0.006153  -0.002797   0.005383
    26  O   -0.075041   0.002699  -0.000442   0.000396   0.006310   0.000038
    27  N   -0.102976   0.001284   0.000809   0.000713   0.000360  -0.000078
    28  H   -0.003782   0.000220   0.000166  -0.000002  -0.000018  -0.000006
    29  C    0.004578  -0.000121  -0.000135  -0.000044  -0.000009   0.000003
    30  H    0.000226   0.000012  -0.000018   0.000000  -0.000001   0.000000
    31  C   -0.000348  -0.000003   0.000033   0.000006   0.000002   0.000000
    32  H    0.000000   0.000000  -0.000003   0.000002   0.000000   0.000000
    33  H    0.000004   0.000000   0.000000   0.000000   0.000000   0.000000
    34  H    0.000076  -0.000001   0.000000   0.000003  -0.000001   0.000000
    35  C    0.000066   0.000000  -0.000001   0.000000   0.000000   0.000000
    36  O   -0.000015   0.000000   0.000000   0.000000   0.000000   0.000000
    37  N    0.000000   0.000000   0.000000   0.000000   0.000000   0.000000
    38  H    0.000000   0.000000   0.000000   0.000000   0.000000   0.000000
    39  C    0.000000   0.000000   0.000000   0.000000   0.000000   0.000000
    40  H    0.000000   0.000000   0.000000   0.000000   0.000000   0.000000
    41  H    0.000000   0.000000   0.000000   0.000000   0.000000   0.000000
    42  H    0.000000   0.000000   0.000000   0.000000   0.000000   0.000000
             25         26         27         28         29         30
     1  H    0.000000   0.000000   0.000000   0.000000   0.000000   0.000000
     2  C    0.000000   0.000000   0.000000   0.000000   0.000000   0.000000
     3  H    0.000000   0.000000   0.000000   0.000000   0.000000   0.000000
     4  H    0.000000   0.000000   0.000000   0.000000   0.000000   0.000000
     5  C    0.000000   0.000000   0.000000   0.000000   0.000000   0.000000
     6  O    0.000000   0.000000   0.000000   0.000000   0.000000   0.000000
     7  N    0.000000   0.000000   0.000001   0.000006   0.000000   0.000000
     8  H    0.000000   0.000000   0.000000   0.000001   0.000000   0.000000
     9  C   -0.000064   0.000000  -0.000142  -0.000485   0.000001   0.000000
    10  H    0.000001   0.000000  -0.000001   0.000009   0.000000   0.000000
    11  C    0.000001   0.000000   0.000044   0.000355   0.000001   0.000000
    12  H    0.000010   0.000000  -0.000046   0.000300  -0.000007  -0.000001
    13  H   -0.000022   0.000000   0.000024   0.000397   0.000001   0.000000
    14  H    0.000000   0.000000   0.000001   0.000009   0.000000   0.000000
    15  C   -0.001944  -0.000014   0.003406   0.000904  -0.000090  -0.000011
    16  O    0.001086   0.000003  -0.000665  -0.000322  -0.000019   0.000004
    17  N   -0.054181   0.002536  -0.004723   0.007891  -0.000113  -0.000035
    18  H    0.000950  -0.000033   0.000131  -0.000115   0.000003   0.000001
    19  C    0.392856  -0.075041  -0.102976  -0.003782   0.004578   0.000226
    20  H   -0.041650   0.002699   0.001284   0.000220  -0.000121   0.000012
    21  C   -0.052144  -0.000442   0.000809   0.000166  -0.000135  -0.000018
    22  H   -0.006153   0.000396   0.000713  -0.000002  -0.000044   0.000000
    23  H   -0.002797   0.006310   0.000360  -0.000018  -0.000009  -0.000001
    24  H    0.005383   0.000038  -0.000078  -0.000006   0.000003   0.000000
    25  C    4.136748   0.570793   0.302909  -0.013319  -0.030991  -0.000977
    26  O    0.570793   8.216875  -0.102530   0.001859   0.009071   0.006458
    27  N    0.302909  -0.102530   7.397354   0.301542   0.197604  -0.043592
    28  H   -0.013319   0.001859   0.301542   0.271703  -0.029062   0.002623
    29  C   -0.030991   0.009071   0.197604  -0.029062   5.041541   0.411190
    30  H   -0.000977   0.006458  -0.043592   0.002623   0.411190   0.486017
    31  C   -0.002186  -0.003926  -0.063649   0.002570   0.337554  -0.040924
    32  H    0.000165  -0.000008   0.000295   0.000471  -0.038529   0.003995
    33  H    0.000044   0.000008   0.004617  -0.000055  -0.037652   0.000144
    34  H    0.002046   0.004702  -0.005406  -0.000196  -0.029597  -0.003585
    35  C    0.003325   0.000444  -0.040653  -0.006893   0.378325  -0.043138
    36  O    0.000406  -0.000004  -0.009035   0.023134  -0.075470   0.001782
    37  N   -0.000097  -0.000001   0.002484   0.001034  -0.114280   0.003936
    38  H   -0.000007  -0.000001   0.000001  -0.000031   0.000552   0.001469
    39  C    0.000001   0.000000  -0.000082  -0.000031   0.004384  -0.000089
    40  H    0.000000   0.000000  -0.000004  -0.000004   0.000144  -0.000001
    41  H    0.000000   0.000000   0.000008   0.000001  -0.000171  -0.000003
    42  H    0.000000   0.000000   0.000000   0.000000   0.000002  -0.000011
             31         32         33         34         35         36
     1  H    0.000000   0.000000   0.000000   0.000000   0.000000   0.000000
     2  C    0.000000   0.000000   0.000000   0.000000   0.000000   0.000000
     3  H    0.000000   0.000000   0.000000   0.000000   0.000000   0.000000
     4  H    0.000000   0.000000   0.000000   0.000000   0.000000   0.000000
     5  C    0.000000   0.000000   0.000000   0.000000   0.000000   0.000000
     6  O    0.000000   0.000000   0.000000   0.000000   0.000000   0.000000
     7  N    0.000000   0.000000   0.000000   0.000000   0.000000   0.000000
     8  H    0.000000   0.000000   0.000000   0.000000   0.000000   0.000000
     9  C    0.000000   0.000000   0.000000   0.000000  -0.000002  -0.000005
    10  H    0.000000   0.000000   0.000000   0.000000   0.000000   0.000000
    11  C    0.000000   0.000000   0.000000   0.000000   0.000014  -0.000444
    12  H    0.000000   0.000000   0.000000   0.000000   0.000028   0.001955
    13  H    0.000000   0.000001   0.000000   0.000000  -0.000002   0.000073
    14  H    0.000000   0.000000   0.000000   0.000000   0.000000   0.000011
    15  C    0.000003   0.000000   0.000000   0.000000   0.000018  -0.000002
    16  O    0.000000   0.000000   0.000000   0.000000   0.000003  -0.000002
    17  N    0.000002  -0.000003   0.000000  -0.000007  -0.000031  -0.000040
    18  H   -0.000001   0.000001   0.000000   0.000000  -0.000001  -0.000001
    19  C   -0.000348   0.000000   0.000004   0.000076   0.000066  -0.000015
    20  H   -0.000003   0.000000   0.000000  -0.000001   0.000000   0.000000
    21  C    0.000033  -0.000003   0.000000   0.000000  -0.000001   0.000000
    22  H    0.000006   0.000002   0.000000   0.000003   0.000000   0.000000
    23  H    0.000002   0.000000   0.000000  -0.000001   0.000000   0.000000
    24  H    0.000000   0.000000   0.000000   0.000000   0.000000   0.000000
    25  C   -0.002186   0.000165   0.000044   0.002046   0.003325   0.000406
    26  O   -0.003926  -0.000008   0.000008   0.004702   0.000444  -0.000004
    27  N   -0.063649   0.000295   0.004617  -0.005406  -0.040653  -0.009035
    28  H    0.002570   0.000471  -0.000055  -0.000196  -0.006893   0.023134
    29  C    0.337554  -0.038529  -0.037652  -0.029597   0.378325  -0.075470
    30  H   -0.040924   0.003995   0.000144  -0.003585  -0.043138   0.001782
    31  C    5.146231   0.388417   0.381764   0.391583  -0.052760  -0.000875
    32  H    0.388417   0.517576  -0.024574  -0.023246  -0.004095   0.001662
    33  H    0.381764  -0.024574   0.538151  -0.022795  -0.002961   0.000023
    34  H    0.391583  -0.023246  -0.022795   0.472051   0.004175  -0.000071
    35  C   -0.052760  -0.004095  -0.002961   0.004175   4.163668   0.591781
    36  O   -0.000875   0.001662   0.000023  -0.000071   0.591781   8.187797
    37  N    0.001440   0.000428   0.002329  -0.000055   0.284116  -0.103525
    38  H    0.000324   0.000007   0.000434  -0.000034  -0.022113   0.002508
    39  C   -0.000267  -0.000008  -0.000013   0.000003  -0.028959   0.008289
    40  H    0.000005   0.000003  -0.000012   0.000000  -0.002998   0.003221
    41  H   -0.000006   0.000000   0.000003   0.000000  -0.003727   0.001203
    42  H    0.000004   0.000000  -0.000007   0.000000   0.004523   0.000354
             37         38         39         40         41         42
     1  H    0.000000   0.000000   0.000000   0.000000   0.000000   0.000000
     2  C    0.000000   0.000000   0.000000   0.000000   0.000000   0.000000
     3  H    0.000000   0.000000   0.000000   0.000000   0.000000   0.000000
     4  H    0.000000   0.000000   0.000000   0.000000   0.000000   0.000000
     5  C    0.000000   0.000000   0.000000   0.000000   0.000000   0.000000
     6  O    0.000000   0.000000   0.000000   0.000000   0.000000   0.000000
     7  N    0.000000   0.000000   0.000000   0.000000   0.000000   0.000000
     8  H    0.000000   0.000000   0.000000   0.000000   0.000000   0.000000
     9  C    0.000000   0.000000   0.000000   0.000000   0.000000   0.000000
    10  H    0.000000   0.000000   0.000000   0.000000   0.000000   0.000000
    11  C    0.000000   0.000000   0.000000   0.000000   0.000000   0.000000
    12  H    0.000000   0.000000   0.000001  -0.000001   0.000002   0.000000
    13  H    0.000000   0.000000   0.000000   0.000000   0.000000   0.000000
    14  H    0.000000   0.000000   0.000000   0.000000   0.000000   0.000000
    15  C    0.000000   0.000000   0.000000   0.000000   0.000000   0.000000
    16  O    0.000000   0.000000   0.000000   0.000000   0.000000   0.000000
    17  N    0.000000   0.000000   0.000000   0.000000   0.000000   0.000000
    18  H    0.000000   0.000000   0.000000   0.000000   0.000000   0.000000
    19  C    0.000000   0.000000   0.000000   0.000000   0.000000   0.000000
    20  H    0.000000   0.000000   0.000000   0.000000   0.000000   0.000000
    21  C    0.000000   0.000000   0.000000   0.000000   0.000000   0.000000
    22  H    0.000000   0.000000   0.000000   0.000000   0.000000   0.000000
    23  H    0.000000   0.000000   0.000000   0.000000   0.000000   0.000000
    24  H    0.000000   0.000000   0.000000   0.000000   0.000000   0.000000
    25  C   -0.000097  -0.000007   0.000001   0.000000   0.000000   0.000000
    26  O   -0.000001  -0.000001   0.000000   0.000000   0.000000   0.000000
    27  N    0.002484   0.000001  -0.000082  -0.000004   0.000008   0.000000
    28  H    0.001034  -0.000031  -0.000031  -0.000004   0.000001   0.000000
    29  C   -0.114280   0.000552   0.004384   0.000144  -0.000171   0.000002
    30  H    0.003936   0.001469  -0.000089  -0.000001  -0.000003  -0.000011
    31  C    0.001440   0.000324  -0.000267   0.000005  -0.000006   0.000004
    32  H    0.000428   0.000007  -0.000008   0.000003   0.000000   0.000000
    33  H    0.002329   0.000434  -0.000013  -0.000012   0.000003  -0.000007
    34  H   -0.000055  -0.000034   0.000003   0.000000   0.000000   0.000000
    35  C    0.284116  -0.022113  -0.028959  -0.002998  -0.003727   0.004523
    36  O   -0.103525   0.002508   0.008289   0.003221   0.001203   0.000354
    37  N    7.320095   0.328431   0.194863  -0.040307  -0.045581  -0.037267
    38  H    0.328431   0.320692  -0.022224   0.002531   0.001293  -0.004521
    39  C    0.194863  -0.022224   4.909799   0.404088   0.406354   0.397549
    40  H   -0.040307   0.002531   0.404088   0.487384  -0.032590  -0.024748
    41  H   -0.045581   0.001293   0.406354  -0.032590   0.518739  -0.030974
    42  H   -0.037267  -0.004521   0.397549  -0.024748  -0.030974   0.522326
 Mulliken atomic charges:
              1
     1  H    0.207589
     2  C   -0.575416
     3  H    0.173360
     4  H    0.203084
     5  C    0.755167
     6  O   -0.622382
     7  N   -0.822383
     8  H    0.419585
     9  C   -0.033458
    10  H    0.216140
    11  C   -0.494983
    12  H    0.200231
    13  H    0.154924
    14  H    0.212103
    15  C    0.777448
    16  O   -0.620256
    17  N   -0.850272
    18  H    0.395082
    19  C   -0.020244
    20  H    0.249248
    21  C   -0.511242
    22  H    0.162256
    23  H    0.222462
    24  H    0.180367
    25  C    0.789809
    26  O   -0.640194
    27  N   -0.840003
    28  H    0.439126
    29  C   -0.028663
    30  H    0.214528
    31  C   -0.484992
    32  H    0.177445
    33  H    0.160547
    34  H    0.210355
    35  C    0.777844
    36  O   -0.634709
    37  N   -0.798043
    38  H    0.390691
    39  C   -0.273659
    40  H    0.203289
    41  H    0.185449
    42  H    0.172770
 Sum of Mulliken atomic charges =   0.00000
 Mulliken charges with hydrogens summed into heavy atoms:
              1
     2  C    0.008616
     5  C    0.755167
     6  O   -0.622382
     7  N   -0.402798
     9  C    0.182682
    11  C    0.072275
    15  C    0.777448
    16  O   -0.620256
    17  N   -0.455190
    19  C    0.229004
    21  C    0.053843
    25  C    0.789809
    26  O   -0.640194
    27  N   -0.400877
    29  C    0.185865
    31  C    0.063355
    35  C    0.777844
    36  O   -0.634709
    37  N   -0.407352
    39  C    0.287849
 Sum of Mulliken charges with hydrogens summed into heavy atoms =   0.00000
 Electronic spatial extent (au):  <R**2>=           7919.8123
 Charge=              0.0000 electrons
 Dipole moment (field-independent basis, Debye):
    X=              3.2724    Y=             -1.4608    Z=             -0.3323  Tot=              3.5990
 Quadrupole moment (field-independent basis, Debye-Ang):
   XX=           -118.7554   YY=           -114.1718   ZZ=           -124.0207
   XY=            -16.4702   XZ=             10.8737   YZ=             14.3637
 Traceless Quadrupole moment (field-independent basis, Debye-Ang):
   XX=              0.2272   YY=              4.8109   ZZ=             -5.0381
   XY=            -16.4702   XZ=             10.8737   YZ=             14.3637
 Octapole moment (field-independent basis, Debye-Ang**2):
  XXX=            148.1973  YYY=            -31.4584  ZZZ=              1.1583  XYY=             -8.6767
  XXY=            -80.1942  XXZ=            -97.3751  XZZ=             12.1421  YZZ=             -3.5816
  YYZ=             -0.1312  XYZ=             10.4863
 Hexadecapole moment (field-independent basis, Debye-Ang**3):
 XXXX=          -6970.9056 YYYY=          -2598.9268 ZZZZ=           -593.6484 XXXY=           -256.4263
 XXXZ=            364.4315 YYYX=           -174.5136 YYYZ=             48.5131 ZZZX=             -0.7567
 ZZZY=             10.3103 XXYY=          -1522.4909 XXZZ=          -1319.6472 YYZZ=           -561.4269
 XXYZ=            169.5860 YYXZ=              1.5029 ZZXY=            -27.7609
 N-N= 1.650594162484D+03 E-N=-5.609172797717D+03  KE= 9.831012306096D+02
 1\1\GINC-NODE005\FOpt\RHF\6-31G(d)\C12H22N4O4\MANAGER\27-Dec-2016\0\\#
  HF/6-31G* Opt=(ModRedundant, maxcycles=1000, calcfc) geom=nocrowd\\Ph
 i Psi fixed scan\\0,1\H,4.3913404129,1.6148519421,-3.9860710986\C,5.35
 75441098,2.0643038215,-3.799996857\H,5.5611753847,2.8146591204,-4.5542
 448636\H,6.1073943672,1.2839845928,-3.873883339\C,5.3729097081,2.61480
 34383,-2.3905404792\O,4.9053073147,2.0005872374,-1.4670025647\N,5.9631
 62142,3.8175289409,-2.2366058998\H,6.2966104518,4.3329327681,-3.019759
 7918\C,6.0447902936,4.4717336331,-0.9545074477\H,5.1148422417,4.299263
 6408,-0.4260498964\C,7.2065025525,3.9388039328,-0.1032868875\H,8.15911
 25022,4.1444825966,-0.5776588407\H,7.2157399355,4.3881380281,0.8845998
 788\H,7.0918881839,2.8696327154,0.0142823482\C,6.2058153059,5.96694534
 5,-1.2138348668\O,6.5479264047,6.3943214061,-2.2838837846\N,5.97255162
 21,6.7697953694,-0.1488348058\H,5.6135785165,6.3602964891,0.6842020179
 \C,6.0059418535,8.2185998281,-0.2368486683\H,5.7701097928,8.4892092752
 ,-1.2563018516\C,4.9650876408,8.8271404022,0.702514769\H,5.1616039707,
 8.5510211584,1.7353603354\H,4.9932244877,9.9045745329,0.6315076021\H,3
 .9731414905,8.4797256697,0.4364256663\C,7.3768701449,8.8467051291,0.03
 07250918\O,7.4956307183,10.0448329647,-0.0276526774\N,8.3933392195,8.0
 212441079,0.3142621451\H,8.2666236199,7.0354244934,0.3084430802\C,9.74
 46068526,8.497638411,0.4824158536\H,9.9172070682,9.2924217652,-0.23282
 57183\C,9.9950917759,9.0371476267,1.8967311408\H,9.8417258642,8.253703
 5575,2.6308499006\H,11.0075158889,9.4133654274,2.0006918464\H,9.305463
 8413,9.8466997934,2.0957652058\C,10.6770854291,7.3253967892,0.18929657
 54\O,10.3053467071,6.1846801599,0.2975045331\N,11.9369402085,7.6530524
 957,-0.1452761526\H,12.1534144536,8.6052749924,-0.3283508483\C,12.9319
 625983,6.6439817043,-0.4461979245\H,12.9446136196,5.8953453952,0.33258
 31441\H,12.729885754,6.1537428335,-1.3915433076\H,13.9023755502,7.1190
 064688,-0.4948025629\\Version=EM64L-G09RevA.02\State=1-A\HF=-984.56581
 73\RMSD=4.399e-09\RMSF=1.940e-04\Dipole=1.2716116,0.5811171,0.2242253\
 Quadrupole=14.6041987,-18.9786746,4.3744759,0.1064933,-1.5929601,6.626
 9703\PG=C01 [X(C12H22N4O4)]\\@


 GOD GAVE US TWO ENDS... ONE TO SIT ON...    
 AND THE OTHER TO THINK WITH...              
 YOUR SUCCESS DEPENDS UPON WHICH END YOU     
 USE THE MOST...                             
                                             
 IT'S A CASE OF HEADS YOU WIN TAILS YOU LOSE.
          SOURCE UNKNOWN(IT'S JUST AS WELL.) 
 Job cpu time:  0 days  2 hours  8 minutes 43.7 seconds.
 File lengths (MBytes):  RWF=    553 Int=      0 D2E=      0 Chk=     11 Scr=      1
 Normal termination of Gaussian 09 at Tue Dec 27 03:00:04 2016.
