 Entering Gaussian System, Link 0=g09
 Initial command:
 /home/steboss/Software/g09/l1.exe /home/steboss/projects/phi_psi_scan/alanine/300/4534/Gau-2807.inp -scrdir=/home/steboss/projects/phi_psi_scan/alanine/300/4534/
 Entering Link 1 = /home/steboss/Software/g09/l1.exe PID=      2809.
  
 Copyright (c) 1988,1990,1992,1993,1995,1998,2003,2009, Gaussian, Inc.
                  All Rights Reserved.
  
 This is part of the Gaussian(R) 09 program.  It is based on
 the Gaussian(R) 03 system (copyright 2003, Gaussian, Inc.),
 the Gaussian(R) 98 system (copyright 1998, Gaussian, Inc.),
 the Gaussian(R) 94 system (copyright 1995, Gaussian, Inc.),
 the Gaussian 92(TM) system (copyright 1992, Gaussian, Inc.),
 the Gaussian 90(TM) system (copyright 1990, Gaussian, Inc.),
 the Gaussian 88(TM) system (copyright 1988, Gaussian, Inc.),
 the Gaussian 86(TM) system (copyright 1986, Carnegie Mellon
 University), and the Gaussian 82(TM) system (copyright 1983,
 Carnegie Mellon University). Gaussian is a federally registered
 trademark of Gaussian, Inc.
  
 This software contains proprietary and confidential information,
 including trade secrets, belonging to Gaussian, Inc.
  
 This software is provided under written license and may be
 used, copied, transmitted, or stored only in accord with that
 written license.
  
 The following legend is applicable only to US Government
 contracts under FAR:
  
                    RESTRICTED RIGHTS LEGEND
  
 Use, reproduction and disclosure by the US Government is
 subject to restrictions as set forth in subparagraphs (a)
 and (c) of the Commercial Computer Software - Restricted
 Rights clause in FAR 52.227-19.
  
 Gaussian, Inc.
 340 Quinnipiac St., Bldg. 40, Wallingford CT 06492
  
  
 ---------------------------------------------------------------
 Warning -- This program may not be used in any manner that
 competes with the business of Gaussian, Inc. or will provide
 assistance to any competitor of Gaussian, Inc.  The licensee
 of this program is prohibited from giving any competitor of
 Gaussian, Inc. access to this program.  By using this program,
 the user acknowledges that Gaussian, Inc. is engaged in the
 business of creating and licensing software in the field of
 computational chemistry and represents and warrants to the
 licensee that it is not a competitor of Gaussian, Inc. and that
 it will not use this program in any manner prohibited above.
 ---------------------------------------------------------------
  

 Cite this work as:
 Gaussian 09, Revision A.02,
 M. J. Frisch, G. W. Trucks, H. B. Schlegel, G. E. Scuseria, 
 M. A. Robb, J. R. Cheeseman, G. Scalmani, V. Barone, B. Mennucci, 
 G. A. Petersson, H. Nakatsuji, M. Caricato, X. Li, H. P. Hratchian, 
 A. F. Izmaylov, J. Bloino, G. Zheng, J. L. Sonnenberg, M. Hada, 
 M. Ehara, K. Toyota, R. Fukuda, J. Hasegawa, M. Ishida, T. Nakajima, 
 Y. Honda, O. Kitao, H. Nakai, T. Vreven, J. A. Montgomery, Jr., 
 J. E. Peralta, F. Ogliaro, M. Bearpark, J. J. Heyd, E. Brothers, 
 K. N. Kudin, V. N. Staroverov, R. Kobayashi, J. Normand, 
 K. Raghavachari, A. Rendell, J. C. Burant, S. S. Iyengar, J. Tomasi, 
 M. Cossi, N. Rega, J. M. Millam, M. Klene, J. E. Knox, J. B. Cross, 
 V. Bakken, C. Adamo, J. Jaramillo, R. Gomperts, R. E. Stratmann, 
 O. Yazyev, A. J. Austin, R. Cammi, C. Pomelli, J. W. Ochterski, 
 R. L. Martin, K. Morokuma, V. G. Zakrzewski, G. A. Voth, 
 P. Salvador, J. J. Dannenberg, S. Dapprich, A. D. Daniels, 
 O. Farkas, J. B. Foresman, J. V. Ortiz, J. Cioslowski, 
 and D. J. Fox, Gaussian, Inc., Wallingford CT, 2009.
 
 ******************************************
 Gaussian 09:  EM64L-G09RevA.02 11-Jun-2009
                11-Feb-2017 
 ******************************************
 %chk=structure_90.chk
 %NProcShared=8
 Will use up to    8 processors via shared memory.
 ----------------------------------------------------------------------
 # b3lyp/6-31G* Opt=(ModRedundant, maxcycles=1000, calcfc) geom=nocrowd
 ----------------------------------------------------------------------
 1/6=1000,10=4,14=-1,18=120,19=15,26=3,38=1/1,3;
 2/9=110,12=1,17=6,18=5,40=1/2;
 3/5=1,6=6,7=1,11=2,16=1,25=1,30=1,71=2,74=-5/1,2,3;
 4//1;
 5/5=2,38=5/2;
 8/6=4,10=90,11=11/1;
 11/6=1,8=1,9=11,15=111,16=1/1,2,10;
 10/6=1,7=6,13=1/2;
 6/7=2,8=2,9=2,10=2,28=1/1;
 7/10=1,18=20,25=1/1,2,3,16;
 1/6=1000,10=4,14=-1,18=20,19=15/3(2);
 2/9=110,12=1/2;
 99//99;
 2/9=110,12=1/2;
 3/5=1,6=6,7=1,11=2,16=1,25=1,30=1,71=1,74=-5/1,2,3;
 4/5=5,16=3/1;
 5/5=2,38=5/2;
 7//1,2,3,16;
 1/6=1000,14=-1,18=20,19=15/3(-5);
 2/9=110,12=1/2;
 6/7=2,8=2,9=2,10=2,19=2,28=1/1;
 99/9=1/99;
 ------------------
 Phi Psi fixed scan
 ------------------
 Symbolic Z-matrix:
 Charge =  0 Multiplicity = 1
 H                     0.6872    3.6446    1.7047 
 C                     1.3383    3.4229    0.8591 
 H                     0.8517    3.7322   -0.0658 
 H                     1.537     2.3517    0.824 
 C                     2.6715    4.1636    0.9815 
 O                     2.893     4.8943    1.9446 
 N                     3.5554    3.9697    0. 
 H                     3.3273    3.3591   -0.7716 
 C                     4.8533    4.6139    0. 
 H                     5.4076    4.3155    0.8898 
 C                     5.6613    4.2208   -1.2322 
 H                     5.1233    4.5214   -2.1312 
 H                     6.6305    4.7189   -1.2058 
 H                     5.8085    3.1409   -1.2414 
 C                     4.7127    6.1294    0. 
 O                     4.6551    6.7505   -1.0589 
 N                     4.6575    6.7246    1.1937 
 H                     4.7088    6.171     2.0369 
 C                     4.5242    8.1613    1.3276 
 H                     4.482     8.6165    0.3381 
 H                     3.6091    8.3926    1.8727 
 H                     5.3811    8.5569    1.8727 
 
 The following ModRedundant input section has been read:
 D    5    7    9   15 F                                                       
 D    7    9   15   17 F                                                       

 GradGradGradGradGradGradGradGradGradGradGradGradGradGradGradGradGradGrad
 Berny optimization.
 Initialization pass.
                           ----------------------------
                           !    Initial Parameters    !
                           ! (Angstroms and Degrees)  !
 --------------------------                            --------------------------
 ! Name  Definition              Value          Derivative Info.                !
 --------------------------------------------------------------------------------
 ! R1    R(1,2)                  1.09           calculate D2E/DX2 analytically  !
 ! R2    R(2,3)                  1.0899         calculate D2E/DX2 analytically  !
 ! R3    R(2,4)                  1.09           calculate D2E/DX2 analytically  !
 ! R4    R(2,5)                  1.53           calculate D2E/DX2 analytically  !
 ! R5    R(5,6)                  1.229          calculate D2E/DX2 analytically  !
 ! R6    R(5,7)                  1.335          calculate D2E/DX2 analytically  !
 ! R7    R(7,8)                  1.0101         calculate D2E/DX2 analytically  !
 ! R8    R(7,9)                  1.449          calculate D2E/DX2 analytically  !
 ! R9    R(9,10)                 1.09           calculate D2E/DX2 analytically  !
 ! R10   R(9,11)                 1.525          calculate D2E/DX2 analytically  !
 ! R11   R(9,15)                 1.522          calculate D2E/DX2 analytically  !
 ! R12   R(11,12)                1.09           calculate D2E/DX2 analytically  !
 ! R13   R(11,13)                1.09           calculate D2E/DX2 analytically  !
 ! R14   R(11,14)                1.0899         calculate D2E/DX2 analytically  !
 ! R15   R(15,16)                1.229          calculate D2E/DX2 analytically  !
 ! R16   R(15,17)                1.335          calculate D2E/DX2 analytically  !
 ! R17   R(17,18)                1.01           calculate D2E/DX2 analytically  !
 ! R18   R(17,19)                1.4491         calculate D2E/DX2 analytically  !
 ! R19   R(19,20)                1.09           calculate D2E/DX2 analytically  !
 ! R20   R(19,21)                1.09           calculate D2E/DX2 analytically  !
 ! R21   R(19,22)                1.0899         calculate D2E/DX2 analytically  !
 ! A1    A(1,2,3)              109.5069         calculate D2E/DX2 analytically  !
 ! A2    A(1,2,4)              109.4962         calculate D2E/DX2 analytically  !
 ! A3    A(1,2,5)              111.0979         calculate D2E/DX2 analytically  !
 ! A4    A(3,2,4)              109.4474         calculate D2E/DX2 analytically  !
 ! A5    A(3,2,5)              108.6344         calculate D2E/DX2 analytically  !
 ! A6    A(4,2,5)              108.6313         calculate D2E/DX2 analytically  !
 ! A7    A(2,5,6)              120.4998         calculate D2E/DX2 analytically  !
 ! A8    A(2,5,7)              116.6019         calculate D2E/DX2 analytically  !
 ! A9    A(6,5,7)              122.8982         calculate D2E/DX2 analytically  !
 ! A10   A(5,7,8)              119.9944         calculate D2E/DX2 analytically  !
 ! A11   A(5,7,9)              121.9035         calculate D2E/DX2 analytically  !
 ! A12   A(8,7,9)              118.102          calculate D2E/DX2 analytically  !
 ! A13   A(7,9,10)             109.5            calculate D2E/DX2 analytically  !
 ! A14   A(7,9,11)             111.0992         calculate D2E/DX2 analytically  !
 ! A15   A(7,9,15)             111.0966         calculate D2E/DX2 analytically  !
 ! A16   A(10,9,11)            108.6382         calculate D2E/DX2 analytically  !
 ! A17   A(10,9,15)            108.6373         calculate D2E/DX2 analytically  !
 ! A18   A(11,9,15)            107.7947         calculate D2E/DX2 analytically  !
 ! A19   A(9,11,12)            109.5007         calculate D2E/DX2 analytically  !
 ! A20   A(9,11,13)            109.4959         calculate D2E/DX2 analytically  !
 ! A21   A(9,11,14)            109.4978         calculate D2E/DX2 analytically  !
 ! A22   A(12,11,13)           109.441          calculate D2E/DX2 analytically  !
 ! A23   A(12,11,14)           109.4482         calculate D2E/DX2 analytically  !
 ! A24   A(13,11,14)           109.4436         calculate D2E/DX2 analytically  !
 ! A25   A(9,15,16)            120.501          calculate D2E/DX2 analytically  !
 ! A26   A(9,15,17)            116.5998         calculate D2E/DX2 analytically  !
 ! A27   A(16,15,17)           122.8992         calculate D2E/DX2 analytically  !
 ! A28   A(15,17,18)           120.001          calculate D2E/DX2 analytically  !
 ! A29   A(15,17,19)           121.9017         calculate D2E/DX2 analytically  !
 ! A30   A(18,17,19)           118.0973         calculate D2E/DX2 analytically  !
 ! A31   A(17,19,20)           109.4951         calculate D2E/DX2 analytically  !
 ! A32   A(17,19,21)           109.5019         calculate D2E/DX2 analytically  !
 ! A33   A(17,19,22)           109.497          calculate D2E/DX2 analytically  !
 ! A34   A(20,19,21)           109.443          calculate D2E/DX2 analytically  !
 ! A35   A(20,19,22)           109.4435         calculate D2E/DX2 analytically  !
 ! A36   A(21,19,22)           109.4467         calculate D2E/DX2 analytically  !
 ! D1    D(1,2,5,6)             -0.0045         calculate D2E/DX2 analytically  !
 ! D2    D(1,2,5,7)            179.9929         calculate D2E/DX2 analytically  !
 ! D3    D(3,2,5,6)            120.5139         calculate D2E/DX2 analytically  !
 ! D4    D(3,2,5,7)            -59.4887         calculate D2E/DX2 analytically  !
 ! D5    D(4,2,5,6)           -120.5077         calculate D2E/DX2 analytically  !
 ! D6    D(4,2,5,7)             59.4897         calculate D2E/DX2 analytically  !
 ! D7    D(2,5,7,8)             -0.0001         calculate D2E/DX2 analytically  !
 ! D8    D(2,5,7,9)           -179.9972         calculate D2E/DX2 analytically  !
 ! D9    D(6,5,7,8)            179.9972         calculate D2E/DX2 analytically  !
 ! D10   D(6,5,7,9)              0.0002         calculate D2E/DX2 analytically  !
 ! D11   D(5,7,9,10)            59.9992         calculate D2E/DX2 analytically  !
 ! D12   D(5,7,9,11)          -179.9982         calculate D2E/DX2 analytically  !
 ! D13   D(5,7,9,15)           -60.0006         frozen, calculate D2E/DX2 analyt!
 ! D14   D(8,7,9,10)          -119.9979         calculate D2E/DX2 analytically  !
 ! D15   D(8,7,9,11)             0.0047         calculate D2E/DX2 analytically  !
 ! D16   D(8,7,9,15)           120.0023         calculate D2E/DX2 analytically  !
 ! D17   D(7,9,11,12)           60.0024         calculate D2E/DX2 analytically  !
 ! D18   D(7,9,11,13)          179.9986         calculate D2E/DX2 analytically  !
 ! D19   D(7,9,11,14)          -60.0038         calculate D2E/DX2 analytically  !
 ! D20   D(10,9,11,12)        -179.4843         calculate D2E/DX2 analytically  !
 ! D21   D(10,9,11,13)         -59.4881         calculate D2E/DX2 analytically  !
 ! D22   D(10,9,11,14)          60.5095         calculate D2E/DX2 analytically  !
 ! D23   D(15,9,11,12)         -61.938          calculate D2E/DX2 analytically  !
 ! D24   D(15,9,11,13)          58.0582         calculate D2E/DX2 analytically  !
 ! D25   D(15,9,11,14)         178.0558         calculate D2E/DX2 analytically  !
 ! D26   D(7,9,15,16)          -90.0012         calculate D2E/DX2 analytically  !
 ! D27   D(7,9,15,17)           90.0009         frozen, calculate D2E/DX2 analyt!
 ! D28   D(10,9,15,16)         149.4877         calculate D2E/DX2 analytically  !
 ! D29   D(10,9,15,17)         -30.5102         calculate D2E/DX2 analytically  !
 ! D30   D(11,9,15,16)          31.9408         calculate D2E/DX2 analytically  !
 ! D31   D(11,9,15,17)        -148.0571         calculate D2E/DX2 analytically  !
 ! D32   D(9,15,17,18)          -0.0048         calculate D2E/DX2 analytically  !
 ! D33   D(9,15,17,19)        -179.9994         calculate D2E/DX2 analytically  !
 ! D34   D(16,15,17,18)        179.9974         calculate D2E/DX2 analytically  !
 ! D35   D(16,15,17,19)          0.0028         calculate D2E/DX2 analytically  !
 ! D36   D(15,17,19,20)         -0.0031         calculate D2E/DX2 analytically  !
 ! D37   D(15,17,19,21)        119.9958         calculate D2E/DX2 analytically  !
 ! D38   D(15,17,19,22)       -119.9997         calculate D2E/DX2 analytically  !
 ! D39   D(18,17,19,20)       -179.9978         calculate D2E/DX2 analytically  !
 ! D40   D(18,17,19,21)        -59.9989         calculate D2E/DX2 analytically  !
 ! D41   D(18,17,19,22)         60.0057         calculate D2E/DX2 analytically  !
 --------------------------------------------------------------------------------
 Trust Radius=3.00D-01 FncErr=1.00D-07 GrdErr=1.00D-06
 Number of steps in this run= 132 maximum allowed number of steps= 132.
 GradGradGradGradGradGradGradGradGradGradGradGradGradGradGradGradGradGrad

                          Input orientation:                          
 ---------------------------------------------------------------------
 Center     Atomic      Atomic             Coordinates (Angstroms)
 Number     Number       Type             X           Y           Z
 ---------------------------------------------------------------------
      1          1           0        0.687200    3.644600    1.704700
      2          6           0        1.338300    3.422900    0.859100
      3          1           0        0.851700    3.732200   -0.065800
      4          1           0        1.537000    2.351700    0.824000
      5          6           0        2.671500    4.163600    0.981500
      6          8           0        2.893000    4.894300    1.944600
      7          7           0        3.555400    3.969700    0.000000
      8          1           0        3.327300    3.359100   -0.771600
      9          6           0        4.853300    4.613900    0.000000
     10          1           0        5.407600    4.315500    0.889800
     11          6           0        5.661300    4.220800   -1.232200
     12          1           0        5.123300    4.521400   -2.131200
     13          1           0        6.630500    4.718900   -1.205800
     14          1           0        5.808500    3.140900   -1.241400
     15          6           0        4.712700    6.129400    0.000000
     16          8           0        4.655100    6.750500   -1.058900
     17          7           0        4.657500    6.724600    1.193700
     18          1           0        4.708800    6.171000    2.036900
     19          6           0        4.524200    8.161300    1.327600
     20          1           0        4.482000    8.616500    0.338100
     21          1           0        3.609100    8.392600    1.872700
     22          1           0        5.381100    8.556900    1.872700
 ---------------------------------------------------------------------
                    Distance matrix (angstroms):
                    1          2          3          4          5
     1  H    0.000000
     2  C    1.090010   0.000000
     3  H    1.780282   1.089902   0.000000
     4  H    1.780276   1.090038   1.779652   0.000000
     5  C    2.174816   1.530046   2.143505   2.143567   0.000000
     6  O    2.546538   2.400088   3.091778   3.091811   1.229043
     7  N    3.352352   2.439790   2.714909   2.714929   1.334998
     8  H    3.630937   2.572814   2.601144   2.601147   2.037315
     9  C    4.604556   3.809430   4.098113   4.098094   2.434412
    10  H    4.836977   4.166159   4.691443   4.340782   2.741847
    11  C    5.805089   4.868111   4.973075   4.973062   3.720570
    12  H    5.929746   4.947203   4.809915   5.128582   3.978473
    13  H    6.704323   5.826732   5.972245   5.972225   4.557008
    14  H    5.929665   4.947152   5.128502   4.809826   3.978438
    15  C    5.028408   4.410189   4.545131   5.003505   2.999035
    16  O    5.747028   5.074722   4.956030   5.711156   3.845771
    17  N    5.050822   4.693641   5.002491   5.384835   3.247760
    18  H    4.760916   4.505501   5.024571   5.110626   3.048625
    19  C    5.938464   5.729039   5.919945   6.551979   4.419716
    20  H    6.402179   6.093256   6.099065   6.939513   4.849762
    21  H    5.577565   5.557143   5.751553   6.471927   4.422417
    22  H    6.796441   6.612834   6.895722   7.374373   5.238058
                    6          7          8          9         10
     6  O    0.000000
     7  N    2.252804   0.000000
     8  H    3.150111   1.010064   0.000000
     9  C    2.775404   1.448978   2.120982   0.000000
    10  H    2.787620   2.083739   2.828887   1.089970   0.000000
    11  C    4.267218   2.452791   2.530264   1.525027   2.139209
    12  H    4.661055   2.702720   2.534772   2.150225   3.041326
    13  H    4.891287   3.386959   3.598432   2.150214   2.459625
    14  H    4.661024   2.702673   2.534695   2.150165   2.466256
    15  C    2.935685   2.450234   3.192062   1.522008   2.136554
    16  O    3.946072   3.172295   3.653380   2.392825   3.208257
    17  N    2.650907   3.198284   4.118061   2.432758   2.541411
    18  H    2.221624   3.213256   4.207493   2.567957   2.290642
    19  C    3.703349   4.502289   5.375903   3.801957   3.970169
    20  H    4.354370   4.750332   5.495909   4.033978   4.433927
    21  H    3.571564   4.803325   5.692790   4.397000   4.563271
    22  H    4.428369   5.280397   6.182843   4.396911   4.353880
                   11         12         13         14         15
    11  C    0.000000
    12  H    1.089957   0.000000
    13  H    1.090023   1.779613   0.000000
    14  H    1.089925   1.779613   1.779617   0.000000
    15  C    2.461892   2.701161   2.668599   3.416575   0.000000
    16  O    2.727976   2.517524   2.837461   3.793791   1.228964
    17  N    3.627895   4.015722   3.697724   4.483014   1.335002
    18  H    3.923971   4.501783   4.039385   4.597619   2.037328
    19  C    4.834575   5.056787   4.764948   5.783909   2.434476
    20  H    4.814433   4.824785   4.710729   5.851207   2.520556
    21  H    5.590693   5.771499   5.665871   6.489633   3.137995
    22  H    5.340476   5.690601   5.076259   6.262056   3.137917
                   16         17         18         19         20
    16  O    0.000000
    17  N    2.252750   0.000000
    18  H    3.150029   1.009995   0.000000
    19  C    2.775405   1.449070   2.120962   0.000000
    20  H    2.337419   2.083780   2.986274   1.089999   0.000000
    21  H    3.519217   2.083844   2.484312   1.089973   1.779630
    22  H    3.519153   2.083737   2.484244   1.089913   1.779587
                   21         22
    21  H    0.000000
    22  H    1.779601   0.000000
 Stoichiometry    C6H12N2O2
 Framework group  C1[X(C6H12N2O2)]
 Deg. of freedom    60
 Full point group                 C1      NOp   1
 Largest Abelian subgroup         C1      NOp   1
 Largest concise Abelian subgroup C1      NOp   1
                         Standard orientation:                         
 ---------------------------------------------------------------------
 Center     Atomic      Atomic             Coordinates (Angstroms)
 Number     Number       Type             X           Y           Z
 ---------------------------------------------------------------------
      1          1           0       -3.412084   -1.803440    0.450838
      2          6           0       -3.111092   -0.761191    0.556866
      3          1           0       -3.070347   -0.499902    1.614199
      4          1           0       -3.834385   -0.120518    0.052318
      5          6           0       -1.731518   -0.520887   -0.059632
      6          8           0       -1.114080   -1.444098   -0.585937
      7          7           0       -1.254530    0.724078    0.009391
      8          1           0       -1.799728    1.449867    0.452356
      9          6           0        0.039378    1.079795   -0.537240
     10          1           0        0.051608    0.872957   -1.607335
     11          6           0        0.337504    2.560048   -0.323511
     12          1           0        0.337767    2.780732    0.743870
     13          1           0        1.314620    2.798692   -0.743563
     14          1           0       -0.426331    3.160066   -0.817950
     15          6           0        1.152470    0.280737    0.125362
     16          8           0        1.712154    0.707632    1.132768
     17          7           0        1.472974   -0.883471   -0.443959
     18          1           0        0.983926   -1.192310   -1.271932
     19          6           0        2.515097   -1.736377    0.091146
     20          1           0        2.946155   -1.271446    0.977784
     21          1           0        2.091465   -2.704371    0.358661
     22          1           0        3.292596   -1.875601   -0.659868
 ---------------------------------------------------------------------
 Rotational constants (GHZ):      1.7224759      1.0543926      0.7465903
 Standard basis: 6-31G(d) (6D, 7F)
 There are   174 symmetry adapted basis functions of A   symmetry.
 Integral buffers will be    131072 words long.
 Raffenetti 2 integral format.
 Two-electron integral symmetry is turned on.
   174 basis functions,   328 primitive gaussians,   174 cartesian basis functions
    39 alpha electrons       39 beta electrons
       nuclear repulsion energy       569.3331953776 Hartrees.
 NAtoms=   22 NActive=   22 NUniq=   22 SFac= 7.50D-01 NAtFMM=   80 NAOKFM=F Big=F
 One-electron integrals computed using PRISM.
 NBasis=   174 RedAO= T  NBF=   174
 NBsUse=   174 1.00D-06 NBFU=   174
 Harris functional with IExCor=  402 diagonalized for initial guess.
 ExpMin= 1.61D-01 ExpMax= 5.48D+03 ExpMxC= 8.25D+02 IAcc=1 IRadAn=         1 AccDes= 0.00D+00
 HarFok:  IExCor=  402 AccDes= 0.00D+00 IRadAn=         1 IDoV= 1
 ScaDFX=  1.000000  1.000000  1.000000  1.000000
 FoFCou: FMM=F IPFlag=           0 FMFlag=      100000 FMFlg1=           0
         NFxFlg=           0 DoJE=T BraDBF=F KetDBF=T FulRan=T
         Omega=  0.000000  0.000000  1.000000  0.000000  0.000000 ICntrl=     500 IOpCl=  0
         NMat0=    1 NMatS0=    1 NMatT0=    0 NMatD0=    1 NMtDS0=    0 NMtDT0=    0
         I1Cent=           4 NGrid=           0.
 Petite list used in FoFCou.
 Initial guess orbital symmetries:
       Occupied  (A) (A) (A) (A) (A) (A) (A) (A) (A) (A) (A) (A)
                 (A) (A) (A) (A) (A) (A) (A) (A) (A) (A) (A) (A)
                 (A) (A) (A) (A) (A) (A) (A) (A) (A) (A) (A) (A)
                 (A) (A) (A)
       Virtual   (A) (A) (A) (A) (A) (A) (A) (A) (A) (A) (A) (A)
                 (A) (A) (A) (A) (A) (A) (A) (A) (A) (A) (A) (A)
                 (A) (A) (A) (A) (A) (A) (A) (A) (A) (A) (A) (A)
                 (A) (A) (A) (A) (A) (A) (A) (A) (A) (A) (A) (A)
                 (A) (A) (A) (A) (A) (A) (A) (A) (A) (A) (A) (A)
                 (A) (A) (A) (A) (A) (A) (A) (A) (A) (A) (A) (A)
                 (A) (A) (A) (A) (A) (A) (A) (A) (A) (A) (A) (A)
                 (A) (A) (A) (A) (A) (A) (A) (A) (A) (A) (A) (A)
                 (A) (A) (A) (A) (A) (A) (A) (A) (A) (A) (A) (A)
                 (A) (A) (A) (A) (A) (A) (A) (A) (A) (A) (A) (A)
                 (A) (A) (A) (A) (A) (A) (A) (A) (A) (A) (A) (A)
                 (A) (A) (A)
 The electronic state of the initial guess is 1-A.
 Requested convergence on RMS density matrix=1.00D-08 within 128 cycles.
 Requested convergence on MAX density matrix=1.00D-06.
 Requested convergence on             energy=1.00D-06.
 No special actions if energy rises.
 Integral accuracy reduced to 1.0D-05 until final iterations.
 Initial convergence to 1.0D-05 achieved.  Increase integral accuracy.
 SCF Done:  E(RB3LYP) =  -495.840894712     A.U. after   15 cycles
             Convg  =    0.3282D-08             -V/T =  2.0087
 Range of M.O.s used for correlation:     1   174
 NBasis=   174 NAE=    39 NBE=    39 NFC=     0 NFV=     0
 NROrb=    174 NOA=    39 NOB=    39 NVA=   135 NVB=   135
 Symmetrizing basis deriv contribution to polar:
 IMax=3 JMax=2 DiffMx= 0.00D+00
 G2DrvN: will do    23 centers at a time, making    1 passes doing MaxLOS=2.
 Calling FoFCou, ICntrl=  3107 FMM=F I1Cent=   0 AccDes= 0.00D+00.
 FoFDir/FoFCou used for L=0 through L=2.
 End of G2Drv Frequency-dependent properties file   721 does not exist.
 End of G2Drv Frequency-dependent properties file   722 does not exist.
          IDoAtm=1111111111111111111111
          Differentiating once with respect to nuclear coordinates.
          There are    69 degrees of freedom in the 1st order CPHF.  IDoFFX=5.
     63 vectors produced by pass  0 Test12= 7.63D-11 1.45D-07 XBig12= 1.89D-01 1.18D-01.
 AX will form    63 AO Fock derivatives at one time.
     63 vectors produced by pass  1 Test12= 7.63D-11 1.45D-07 XBig12= 5.63D-02 8.44D-02.
     63 vectors produced by pass  2 Test12= 7.63D-11 1.45D-07 XBig12= 4.67D-05 1.45D-03.
     63 vectors produced by pass  3 Test12= 7.63D-11 1.45D-07 XBig12= 1.56D-07 7.04D-05.
     25 vectors produced by pass  4 Test12= 7.63D-11 1.45D-07 XBig12= 1.67D-10 1.41D-06.
 Inverted reduced A of dimension   277 with in-core refinement.
 End of Minotr Frequency-dependent properties file   721 does not exist.
 End of Minotr Frequency-dependent properties file   722 does not exist.

 **********************************************************************

            Population analysis using the SCF density.

 **********************************************************************

 Orbital symmetries:
       Occupied  (A) (A) (A) (A) (A) (A) (A) (A) (A) (A) (A) (A)
                 (A) (A) (A) (A) (A) (A) (A) (A) (A) (A) (A) (A)
                 (A) (A) (A) (A) (A) (A) (A) (A) (A) (A) (A) (A)
                 (A) (A) (A)
       Virtual   (A) (A) (A) (A) (A) (A) (A) (A) (A) (A) (A) (A)
                 (A) (A) (A) (A) (A) (A) (A) (A) (A) (A) (A) (A)
                 (A) (A) (A) (A) (A) (A) (A) (A) (A) (A) (A) (A)
                 (A) (A) (A) (A) (A) (A) (A) (A) (A) (A) (A) (A)
                 (A) (A) (A) (A) (A) (A) (A) (A) (A) (A) (A) (A)
                 (A) (A) (A) (A) (A) (A) (A) (A) (A) (A) (A) (A)
                 (A) (A) (A) (A) (A) (A) (A) (A) (A) (A) (A) (A)
                 (A) (A) (A) (A) (A) (A) (A) (A) (A) (A) (A) (A)
                 (A) (A) (A) (A) (A) (A) (A) (A) (A) (A) (A) (A)
                 (A) (A) (A) (A) (A) (A) (A) (A) (A) (A) (A) (A)
                 (A) (A) (A) (A) (A) (A) (A) (A) (A) (A) (A) (A)
                 (A) (A) (A)
 The electronic state is 1-A.
 Alpha  occ. eigenvalues --  -19.10910 -19.09242 -14.36833 -14.34449 -10.28741
 Alpha  occ. eigenvalues --  -10.26655 -10.23306 -10.20326 -10.19199 -10.18406
 Alpha  occ. eigenvalues --   -1.03711  -1.01628  -0.93362  -0.90794  -0.78561
 Alpha  occ. eigenvalues --   -0.72986  -0.70660  -0.63921  -0.60176  -0.57010
 Alpha  occ. eigenvalues --   -0.52620  -0.50430  -0.47994  -0.45297  -0.44817
 Alpha  occ. eigenvalues --   -0.43948  -0.41733  -0.41273  -0.39714  -0.38866
 Alpha  occ. eigenvalues --   -0.38448  -0.37793  -0.36939  -0.35205  -0.35125
 Alpha  occ. eigenvalues --   -0.27335  -0.25570  -0.23070  -0.22486
 Alpha virt. eigenvalues --    0.02877   0.03852   0.07571   0.09753   0.12034
 Alpha virt. eigenvalues --    0.13214   0.14013   0.14862   0.15566   0.16793
 Alpha virt. eigenvalues --    0.17134   0.17890   0.18215   0.19293   0.20359
 Alpha virt. eigenvalues --    0.21839   0.24156   0.25569   0.28031   0.33493
 Alpha virt. eigenvalues --    0.34655   0.39163   0.41981   0.50330   0.51628
 Alpha virt. eigenvalues --    0.52045   0.53187   0.54697   0.55522   0.57410
 Alpha virt. eigenvalues --    0.57948   0.60269   0.61383   0.63400   0.65014
 Alpha virt. eigenvalues --    0.67795   0.69047   0.72598   0.72854   0.76283
 Alpha virt. eigenvalues --    0.76510   0.77350   0.77616   0.82482   0.83575
 Alpha virt. eigenvalues --    0.85108   0.86607   0.87520   0.87816   0.88305
 Alpha virt. eigenvalues --    0.89577   0.90083   0.91207   0.91995   0.93189
 Alpha virt. eigenvalues --    0.94983   0.96017   0.97694   0.98102   1.00593
 Alpha virt. eigenvalues --    1.05013   1.08641   1.11007   1.14765   1.17460
 Alpha virt. eigenvalues --    1.20626   1.26960   1.28752   1.34468   1.36296
 Alpha virt. eigenvalues --    1.37435   1.38972   1.43442   1.45837   1.50309
 Alpha virt. eigenvalues --    1.55652   1.56813   1.58002   1.65249   1.67608
 Alpha virt. eigenvalues --    1.76004   1.77778   1.78902   1.81608   1.83140
 Alpha virt. eigenvalues --    1.84125   1.85469   1.88368   1.90161   1.94537
 Alpha virt. eigenvalues --    1.97178   1.98190   1.99813   2.01894   2.05252
 Alpha virt. eigenvalues --    2.05983   2.08833   2.08938   2.15444   2.16694
 Alpha virt. eigenvalues --    2.18361   2.23053   2.25694   2.29181   2.31191
 Alpha virt. eigenvalues --    2.31729   2.33434   2.36084   2.37848   2.39949
 Alpha virt. eigenvalues --    2.43725   2.49689   2.55535   2.59261   2.65403
 Alpha virt. eigenvalues --    2.67849   2.69723   2.75249   2.77428   2.91050
 Alpha virt. eigenvalues --    2.92859   2.98571   3.01814   3.17044   3.20188
 Alpha virt. eigenvalues --    3.95687   3.99068   4.08871   4.18724   4.20982
 Alpha virt. eigenvalues --    4.26179   4.29394   4.42097   4.44590   4.63906
          Condensed to atoms (all electrons):
              1          2          3          4          5          6
     1  H    0.500329   0.360574  -0.020690  -0.021455  -0.017563   0.004907
     2  C    0.360574   5.341240   0.352211   0.349788   0.350761  -0.080764
     3  H   -0.020690   0.352211   0.545281  -0.026844  -0.026360   0.001220
     4  H   -0.021455   0.349788  -0.026844   0.553052  -0.024883   0.001445
     5  C   -0.017563   0.350761  -0.026360  -0.024883   4.328944   0.594795
     6  O    0.004907  -0.080764   0.001220   0.001445   0.594795   8.096656
     7  N    0.004513  -0.137869   0.004526   0.004328   0.234834  -0.105909
     8  H   -0.000132  -0.000018   0.000759   0.001063  -0.019242   0.003569
     9  C   -0.000149   0.007530  -0.000051  -0.000225  -0.017495   0.011136
    10  H    0.000002   0.000045  -0.000003   0.000006  -0.002940   0.002651
    11  C    0.000002  -0.000202  -0.000003  -0.000016   0.006194   0.000628
    12  H    0.000000  -0.000009  -0.000001   0.000001   0.000085  -0.000014
    13  H    0.000000   0.000004   0.000000   0.000000  -0.000044   0.000005
    14  H    0.000000  -0.000007   0.000000   0.000001  -0.000194  -0.000005
    15  C    0.000009  -0.000535   0.000012   0.000019  -0.005087  -0.000748
    16  O    0.000000  -0.000007  -0.000001   0.000000  -0.000002  -0.000017
    17  N    0.000005  -0.000071   0.000012  -0.000001   0.005884  -0.025884
    18  H   -0.000004   0.000271  -0.000005  -0.000008  -0.000800   0.021448
    19  C    0.000000   0.000003   0.000000   0.000000  -0.000090   0.000427
    20  H    0.000000   0.000000   0.000000   0.000000  -0.000024  -0.000027
    21  H    0.000000   0.000004  -0.000001   0.000000  -0.000048   0.000790
    22  H    0.000000   0.000000   0.000000   0.000000   0.000008  -0.000032
              7          8          9         10         11         12
     1  H    0.004513  -0.000132  -0.000149   0.000002   0.000002   0.000000
     2  C   -0.137869  -0.000018   0.007530   0.000045  -0.000202  -0.000009
     3  H    0.004526   0.000759  -0.000051  -0.000003  -0.000003  -0.000001
     4  H    0.004328   0.001063  -0.000225   0.000006  -0.000016   0.000001
     5  C    0.234834  -0.019242  -0.017495  -0.002940   0.006194   0.000085
     6  O   -0.105909   0.003569   0.011136   0.002651   0.000628  -0.000014
     7  N    7.160023   0.303716   0.248620  -0.052006  -0.040505  -0.002184
     8  H    0.303716   0.406619  -0.033603   0.003415  -0.002292   0.002132
     9  C    0.248620  -0.033603   5.084349   0.361799   0.348202  -0.033656
    10  H   -0.052006   0.003415   0.361799   0.619492  -0.041948   0.005949
    11  C   -0.040505  -0.002292   0.348202  -0.041948   5.134153   0.368849
    12  H   -0.002184   0.002132  -0.033656   0.005949   0.368849   0.525570
    13  H    0.003396  -0.000045  -0.025810  -0.001309   0.377728  -0.020502
    14  H   -0.002273   0.002500  -0.033428  -0.004863   0.355554  -0.032614
    15  C   -0.046104   0.001670   0.300682  -0.050216  -0.034299  -0.007114
    16  O    0.000269  -0.000151  -0.093936   0.003356  -0.001680   0.012384
    17  N   -0.001019  -0.000219  -0.114747   0.006505   0.003923   0.000612
    18  H   -0.001246  -0.000009   0.001922   0.003964   0.000040  -0.000012
    19  C   -0.000209   0.000010   0.007145  -0.000251  -0.000197  -0.000002
    20  H   -0.000016   0.000000   0.001268  -0.000065  -0.000014  -0.000015
    21  H    0.000010  -0.000001  -0.000129  -0.000009  -0.000002   0.000000
    22  H   -0.000004   0.000000  -0.000186  -0.000026   0.000013   0.000000
             13         14         15         16         17         18
     1  H    0.000000   0.000000   0.000009   0.000000   0.000005  -0.000004
     2  C    0.000004  -0.000007  -0.000535  -0.000007  -0.000071   0.000271
     3  H    0.000000   0.000000   0.000012  -0.000001   0.000012  -0.000005
     4  H    0.000000   0.000001   0.000019   0.000000  -0.000001  -0.000008
     5  C   -0.000044  -0.000194  -0.005087  -0.000002   0.005884  -0.000800
     6  O    0.000005  -0.000005  -0.000748  -0.000017  -0.025884   0.021448
     7  N    0.003396  -0.002273  -0.046104   0.000269  -0.001019  -0.001246
     8  H   -0.000045   0.002500   0.001670  -0.000151  -0.000219  -0.000009
     9  C   -0.025810  -0.033428   0.300682  -0.093936  -0.114747   0.001922
    10  H   -0.001309  -0.004863  -0.050216   0.003356   0.006505   0.003964
    11  C    0.377728   0.355554  -0.034299  -0.001680   0.003923   0.000040
    12  H   -0.020502  -0.032614  -0.007114   0.012384   0.000612  -0.000012
    13  H    0.526355  -0.026998  -0.003039   0.000167   0.000221   0.000011
    14  H   -0.026998   0.597659   0.006319   0.000755  -0.000086  -0.000026
    15  C   -0.003039   0.006319   4.387899   0.591374   0.298311  -0.021517
    16  O    0.000167   0.000755   0.591374   8.114143  -0.101772   0.003280
    17  N    0.000221  -0.000086   0.298311  -0.101772   7.034663   0.296079
    18  H    0.000011  -0.000026  -0.021517   0.003280   0.296079   0.386143
    19  C   -0.000008   0.000003  -0.028188  -0.009916   0.272136  -0.029815
    20  H   -0.000003   0.000000  -0.000923   0.022278  -0.037723   0.003472
    21  H    0.000000   0.000000   0.001754   0.000597  -0.046132   0.000303
    22  H   -0.000001   0.000000   0.001223   0.000650  -0.042384  -0.001828
             19         20         21         22
     1  H    0.000000   0.000000   0.000000   0.000000
     2  C    0.000003   0.000000   0.000004   0.000000
     3  H    0.000000   0.000000  -0.000001   0.000000
     4  H    0.000000   0.000000   0.000000   0.000000
     5  C   -0.000090  -0.000024  -0.000048   0.000008
     6  O    0.000427  -0.000027   0.000790  -0.000032
     7  N   -0.000209  -0.000016   0.000010  -0.000004
     8  H    0.000010   0.000000  -0.000001   0.000000
     9  C    0.007145   0.001268  -0.000129  -0.000186
    10  H   -0.000251  -0.000065  -0.000009  -0.000026
    11  C   -0.000197  -0.000014  -0.000002   0.000013
    12  H   -0.000002  -0.000015   0.000000   0.000000
    13  H   -0.000008  -0.000003   0.000000  -0.000001
    14  H    0.000003   0.000000   0.000000   0.000000
    15  C   -0.028188  -0.000923   0.001754   0.001223
    16  O   -0.009916   0.022278   0.000597   0.000650
    17  N    0.272136  -0.037723  -0.046132  -0.042384
    18  H   -0.029815   0.003472   0.000303  -0.001828
    19  C    4.968096   0.375134   0.381687   0.379811
    20  H    0.375134   0.485482  -0.025136  -0.024732
    21  H    0.381687  -0.025136   0.562448  -0.039829
    22  H    0.379811  -0.024732  -0.039829   0.576962
 Mulliken atomic charges:
              1
     1  H    0.189651
     2  C   -0.542950
     3  H    0.169937
     4  H    0.163729
     5  C    0.593268
     6  O   -0.526277
     7  N   -0.574889
     8  H    0.330258
     9  C   -0.019237
    10  H    0.146453
    11  C   -0.474128
    12  H    0.180539
    13  H    0.169872
    14  H    0.137703
    15  C    0.608498
    16  O   -0.541772
    17  N   -0.548312
    18  H    0.338336
    19  C   -0.315775
    20  H    0.201046
    21  H    0.163694
    22  H    0.150356
 Sum of Mulliken atomic charges =   0.00000
 Mulliken charges with hydrogens summed into heavy atoms:
              1
     2  C   -0.019633
     5  C    0.593268
     6  O   -0.526277
     7  N   -0.244630
     9  C    0.127216
    11  C    0.013986
    15  C    0.608498
    16  O   -0.541772
    17  N   -0.209976
    19  C    0.199320
 Sum of Mulliken charges with hydrogens summed into heavy atoms =   0.00000
 APT atomic charges:
              1
     1  H    0.581795
     2  C   -1.258934
     3  H    0.351681
     4  H    0.498515
     5  C    0.190948
     6  O   -0.411113
     7  N   -0.739081
     8  H    0.670755
     9  C   -0.338694
    10  H    0.371785
    11  C   -1.259816
    12  H    0.368919
    13  H    0.481908
    14  H    0.474803
    15  C   -0.131826
    16  O   -0.122441
    17  N   -0.360649
    18  H    0.476735
    19  C   -1.295438
    20  H    0.449457
    21  H    0.416398
    22  H    0.584295
 Sum of APT charges=   0.00000
 APT Atomic charges with hydrogens summed into heavy atoms:
              1
     1  H    0.000000
     2  C    0.173057
     3  H    0.000000
     4  H    0.000000
     5  C    0.190948
     6  O   -0.411113
     7  N   -0.068326
     8  H    0.000000
     9  C    0.033091
    10  H    0.000000
    11  C    0.065813
    12  H    0.000000
    13  H    0.000000
    14  H    0.000000
    15  C   -0.131826
    16  O   -0.122441
    17  N    0.116086
    18  H    0.000000
    19  C    0.154712
    20  H    0.000000
    21  H    0.000000
    22  H    0.000000
 Sum of APT charges=   0.00000
 Electronic spatial extent (au):  <R**2>=           1640.5236
 Charge=              0.0000 electrons
 Dipole moment (field-independent basis, Debye):
    X=             -2.1920    Y=              1.0698    Z=             -1.4234  Tot=              2.8240
 Quadrupole moment (field-independent basis, Debye-Ang):
   XX=            -54.8857   YY=            -58.6043   ZZ=            -60.9932
   XY=             -7.5571   XZ=             -7.0971   YZ=             -2.5267
 Traceless Quadrupole moment (field-independent basis, Debye-Ang):
   XX=              3.2753   YY=             -0.4432   ZZ=             -2.8322
   XY=             -7.5571   XZ=             -7.0971   YZ=             -2.5267
 Octapole moment (field-independent basis, Debye-Ang**2):
  XXX=            -14.9396  YYY=              2.0131  ZZZ=             -4.0351  XYY=              3.8847
  XXY=             -8.9656  XXZ=             -2.1572  XZZ=             -2.5139  YZZ=             -3.8954
  YYZ=              1.7979  XYZ=             -2.0952
 Hexadecapole moment (field-independent basis, Debye-Ang**3):
 XXXX=          -1159.1034 YYYY=           -730.0059 ZZZZ=           -178.9667 XXXY=            -16.0954
 XXXZ=             -6.6756 YYYX=            -12.8088 YYYZ=              3.8140 ZZZX=             -4.5118
 ZZZY=              7.7568 XXYY=           -304.3588 XXZZ=           -236.9097 YYZZ=           -151.5613
 XXYZ=             -6.5361 YYXZ=             -9.7137 ZZXY=             -7.7314
 N-N= 5.693331953776D+02 E-N=-2.295296090546D+03  KE= 4.915566183881D+02
  Exact polarizability:   0.000   0.000   0.000   0.000   0.000   0.000
 Approx polarizability: 104.433  -5.530 127.886  -0.414  19.690 103.609
 Calling FoFJK, ICntrl=    100147 FMM=F ISym2X=0 I1Cent= 0 IOpClX= 0 NMat=1 NMatS=1 NMatT=0.
 ***** Axes restored to original set *****
 -------------------------------------------------------------------
 Center     Atomic                   Forces (Hartrees/Bohr)
 Number     Number              X              Y              Z
 -------------------------------------------------------------------
      1        1           0.003023570    0.001988289    0.000777918
      2        6           0.009267348    0.002147876   -0.004758669
      3        1          -0.004766267   -0.002353169   -0.003605228
      4        1          -0.003404756   -0.005119410   -0.001760611
      5        6          -0.028038849    0.002574112    0.026636749
      6        8           0.001730327   -0.005406114    0.005732303
      7        7           0.009520336   -0.007475871   -0.016718389
      8        1          -0.000537199    0.000475048   -0.001088421
      9        6           0.012569355    0.000070898   -0.003145468
     10        1           0.000219731   -0.003453171    0.006509049
     11        6          -0.005916369   -0.006087502    0.002965928
     12        1           0.001832182    0.002496229   -0.002362306
     13        1           0.001282172   -0.000133439   -0.002205081
     14        1           0.002902739   -0.004361145   -0.001309167
     15        6          -0.004008497    0.008240476   -0.010816730
     16        8          -0.001624783    0.001687472   -0.007695699
     17        7           0.012998947    0.013447352    0.009581793
     18        1          -0.006901332   -0.001792110   -0.002983415
     19        6           0.000259895   -0.002230565    0.001970195
     20        1           0.000363449   -0.002558891   -0.000622522
     21        1          -0.002968184    0.003134935    0.002395230
     22        1           0.002196184    0.004708700    0.002502541
 -------------------------------------------------------------------
 Cartesian Forces:  Max     0.028038849 RMS     0.007176063

 GradGradGradGradGradGradGradGradGradGradGradGradGradGradGradGradGradGrad
 Berny optimization.
 Internal  Forces:  Max     0.030704255 RMS     0.007148349
 Search for a local minimum.
 Step number   1 out of a maximum of  132
 All quantities printed in internal units (Hartrees-Bohrs-Radians)
 Mixed Optimization -- RFO/linear search
 Second derivative matrix not updated -- analytic derivatives used.
     Eigenvalues ---   -0.00062  -0.00009   0.00276   0.00298   0.00384
     Eigenvalues ---    0.01497   0.01624   0.02414   0.03885   0.04214
     Eigenvalues ---    0.04616   0.04863   0.05277   0.05731   0.05826
     Eigenvalues ---    0.05994   0.06424   0.06592   0.12212   0.12366
     Eigenvalues ---    0.12500   0.13240   0.13310   0.13375   0.13414
     Eigenvalues ---    0.14318   0.14937   0.17198   0.17722   0.17987
     Eigenvalues ---    0.18379   0.21286   0.22302   0.22524   0.23891
     Eigenvalues ---    0.24905   0.29998   0.31106   0.33607   0.34449
     Eigenvalues ---    0.34565   0.34893   0.35089   0.35279   0.35395
     Eigenvalues ---    0.35677   0.35884   0.35907   0.36440   0.37006
     Eigenvalues ---    0.39236   0.46651   0.46919   0.50386   0.54063
     Eigenvalues ---    0.73615   0.82466   0.831621000.000001000.00000
     Eigenvalues --- 1000.000001000.000001000.000001000.000001000.00000
     Eigenvalues --- 1000.000001000.000001000.000001000.000001000.00000
     Eigenvalues --- 1000.000001000.000001000.000001000.000001000.00000
     Eigenvalues --- 1000.000001000.000001000.000001000.000001000.00000
     Eigenvalues --- 1000.000001000.000001000.000001000.000001000.00000
     Eigenvalues --- 1000.000001000.000001000.000001000.000001000.00000
     Eigenvalues --- 1000.000001000.000001000.000001000.000001000.00000
     Eigenvalues --- 1000.000001000.000001000.00000
 RFO step:  Lambda=-1.32987171D-02 EMin=-6.22358856D-04
 Linear search not attempted -- first point.
 Maximum step size (   0.300) exceeded in Quadratic search.
    -- Step size scaled by   0.344
 Iteration  1 RMS(Cart)=  0.04949761 RMS(Int)=  0.00259632
 Iteration  2 RMS(Cart)=  0.00277333 RMS(Int)=  0.00009812
 Iteration  3 RMS(Cart)=  0.00000717 RMS(Int)=  0.00009798
 Iteration  4 RMS(Cart)=  0.00000000 RMS(Int)=  0.00009798
 Iteration  1 RMS(Cart)=  0.00000619 RMS(Int)=  0.00000223
 Iteration  2 RMS(Cart)=  0.00000382 RMS(Int)=  0.00000246
 Iteration  3 RMS(Cart)=  0.00000242 RMS(Int)=  0.00000282
 Iteration  4 RMS(Cart)=  0.00000156 RMS(Int)=  0.00000312
 Iteration  5 RMS(Cart)=  0.00000102 RMS(Int)=  0.00000334
 Iteration  6 RMS(Cart)=  0.00000067 RMS(Int)=  0.00000350
 Variable       Old X    -DE/DX   Delta X   Delta X   Delta X     New X
                                 (Linear)    (Quad)   (Total)
    R1        2.05982  -0.00080   0.00000   0.00012   0.00012   2.05994
    R2        2.05962   0.00452   0.00000   0.00405   0.00405   2.06366
    R3        2.05987   0.00447   0.00000   0.00371   0.00371   2.06358
    R4        2.89137  -0.00123   0.00000  -0.00522  -0.00522   2.88615
    R5        2.32255   0.00159   0.00000   0.00074   0.00074   2.32330
    R6        2.52278   0.03070   0.00000   0.01651   0.01651   2.53929
    R7        1.90874   0.00067   0.00000   0.00041   0.00041   1.90915
    R8        2.73817   0.01768   0.00000   0.01015   0.01015   2.74833
    R9        2.05975   0.00637   0.00000   0.00503   0.00503   2.06478
   R10        2.88188   0.00449   0.00000   0.00085   0.00085   2.88273
   R11        2.87618   0.02450   0.00000   0.01930   0.01930   2.89548
   R12        2.05972   0.00174   0.00000   0.00228   0.00228   2.06200
   R13        2.05984   0.00103   0.00000   0.00170   0.00170   2.06155
   R14        2.05966   0.00472   0.00000   0.00372   0.00372   2.06338
   R15        2.32241   0.00756   0.00000   0.00031   0.00031   2.32271
   R16        2.52279   0.01782   0.00000   0.01116   0.01116   2.53395
   R17        1.90861  -0.00186   0.00000   0.00037   0.00037   1.90898
   R18        2.73835   0.00362   0.00000   0.00068   0.00068   2.73902
   R19        2.05980  -0.00052   0.00000   0.00050   0.00050   2.06030
   R20        2.05975   0.00436   0.00000   0.00414   0.00414   2.06389
   R21        2.05964   0.00469   0.00000   0.00401   0.00401   2.06365
    A1        1.91126  -0.00017   0.00000  -0.00362  -0.00363   1.90762
    A2        1.91107  -0.00020   0.00000   0.00044   0.00049   1.91156
    A3        1.93902  -0.00763   0.00000  -0.01384  -0.01382   1.92520
    A4        1.91022  -0.00501   0.00000  -0.00878  -0.00887   1.90135
    A5        1.89603   0.00651   0.00000   0.00518   0.00513   1.90116
    A6        1.89597   0.00654   0.00000   0.02076   0.02074   1.91671
    A7        2.10312   0.00395   0.00000   0.01113   0.01113   2.11425
    A8        2.03509  -0.01183   0.00000  -0.00747  -0.00747   2.02762
    A9        2.14498   0.00788   0.00000  -0.00366  -0.00366   2.14132
   A10        2.09430  -0.01287   0.00000  -0.00325  -0.00343   2.09087
   A11        2.12762   0.02583   0.00000   0.00917   0.00900   2.13662
   A12        2.06127  -0.01297   0.00000  -0.00592  -0.00609   2.05518
   A13        1.91114  -0.00140   0.00000  -0.00994  -0.00994   1.90120
   A14        1.93905  -0.01108   0.00000  -0.01036  -0.01041   1.92864
   A15        1.93900   0.01332   0.00000   0.00540   0.00545   1.94445
   A16        1.89609   0.00280   0.00000   0.00456   0.00447   1.90056
   A17        1.89608   0.00075   0.00000   0.00071   0.00067   1.89675
   A18        1.88137  -0.00435   0.00000   0.01016   0.01016   1.89153
   A19        1.91115   0.00165   0.00000   0.00388   0.00386   1.91501
   A20        1.91106   0.00189   0.00000   0.00439   0.00438   1.91545
   A21        1.91110   0.00296   0.00000   0.00568   0.00566   1.91675
   A22        1.91011  -0.00305   0.00000  -0.01071  -0.01071   1.89940
   A23        1.91023  -0.00089   0.00000   0.00207   0.00204   1.91227
   A24        1.91015  -0.00257   0.00000  -0.00532  -0.00533   1.90482
   A25        2.10314  -0.00578   0.00000   0.00022   0.00020   2.10334
   A26        2.03505   0.00615   0.00000  -0.00647  -0.00650   2.02855
   A27        2.14500  -0.00038   0.00000   0.00625   0.00623   2.15122
   A28        2.09441  -0.00523   0.00000  -0.01514  -0.01553   2.07889
   A29        2.12759   0.00549   0.00000   0.00603   0.00563   2.13321
   A30        2.06119  -0.00027   0.00000   0.00911   0.00870   2.06989
   A31        1.91105  -0.00539   0.00000  -0.01009  -0.01008   1.90098
   A32        1.91117   0.00330   0.00000   0.00900   0.00898   1.92015
   A33        1.91108   0.00518   0.00000   0.00743   0.00742   1.91850
   A34        1.91014   0.00024   0.00000  -0.00155  -0.00153   1.90861
   A35        1.91015  -0.00031   0.00000  -0.00030  -0.00028   1.90987
   A36        1.91021  -0.00302   0.00000  -0.00449  -0.00454   1.90567
    D1       -0.00008   0.00138   0.00000  -0.09827  -0.09830  -0.09838
    D2        3.14147  -0.00138   0.00000  -0.09851  -0.09854   3.04293
    D3        2.10336   0.00067   0.00000  -0.10797  -0.10801   1.99536
    D4       -1.03827  -0.00210   0.00000  -0.10821  -0.10824  -1.14651
    D5       -2.10326   0.00212   0.00000  -0.10367  -0.10361  -2.20687
    D6        1.03829  -0.00065   0.00000  -0.10390  -0.10385   0.93445
    D7        0.00000  -0.00411   0.00000  -0.01326  -0.01324  -0.01324
    D8       -3.14154  -0.00122   0.00000  -0.04848  -0.04850   3.09314
    D9        3.14154  -0.00695   0.00000  -0.01350  -0.01348   3.12807
   D10        0.00000  -0.00406   0.00000  -0.04872  -0.04874  -0.04873
   D11        1.04718  -0.00295   0.00000  -0.00217  -0.00222   1.04497
   D12       -3.14156  -0.00737   0.00000  -0.00951  -0.00947   3.13215
   D13       -1.04721  -0.01138   0.00000   0.00000   0.00000  -1.04721
   D14       -2.09436  -0.00010   0.00000  -0.03676  -0.03679  -2.13115
   D15        0.00008  -0.00453   0.00000  -0.04410  -0.04405  -0.04396
   D16        2.09444  -0.00853   0.00000  -0.03459  -0.03457   2.05986
   D17        1.04724   0.00588   0.00000   0.01812   0.01813   1.06537
   D18        3.14157   0.00432   0.00000   0.01007   0.01006  -3.13156
   D19       -1.04726   0.00414   0.00000   0.00972   0.00971  -1.03755
   D20       -3.13259  -0.00090   0.00000   0.00235   0.00234  -3.13026
   D21       -1.03826  -0.00246   0.00000  -0.00571  -0.00573  -1.04400
   D22        1.05609  -0.00264   0.00000  -0.00605  -0.00608   1.05001
   D23       -1.08102  -0.00089   0.00000   0.01120   0.01124  -1.06979
   D24        1.01331  -0.00246   0.00000   0.00314   0.00317   1.01647
   D25        3.10766  -0.00263   0.00000   0.00280   0.00282   3.11048
   D26       -1.57082   0.00515   0.00000  -0.01236  -0.01236  -1.58317
   D27        1.57081   0.00762   0.00000   0.00000   0.00000   1.57081
   D28        2.60905  -0.00184   0.00000  -0.00385  -0.00385   2.60521
   D29       -0.53250   0.00063   0.00000   0.00851   0.00851  -0.52399
   D30        0.55747  -0.00318   0.00000  -0.01519  -0.01516   0.54231
   D31       -2.58408  -0.00070   0.00000  -0.00283  -0.00281  -2.58689
   D32       -0.00008  -0.00524   0.00000  -0.06571  -0.06551  -0.06559
   D33       -3.14158  -0.00258   0.00000  -0.01191  -0.01215   3.12945
   D34        3.14155  -0.00270   0.00000  -0.05302  -0.05278   3.08877
   D35        0.00005  -0.00004   0.00000   0.00077   0.00057   0.00062
   D36       -0.00005  -0.00120   0.00000  -0.02808  -0.02822  -0.02828
   D37        2.09432  -0.00218   0.00000  -0.03066  -0.03083   2.06349
   D38       -2.09439  -0.00068   0.00000  -0.02608  -0.02620  -2.12059
   D39       -3.14155   0.00141   0.00000   0.02473   0.02487  -3.11669
   D40       -1.04718   0.00043   0.00000   0.02215   0.02226  -1.02491
   D41        1.04730   0.00193   0.00000   0.02673   0.02689   1.07419
         Item               Value     Threshold  Converged?
 Maximum Force            0.030704     0.000450     NO 
 RMS     Force            0.006930     0.000300     NO 
 Maximum Displacement     0.272926     0.001800     NO 
 RMS     Displacement     0.049661     0.001200     NO 
 Predicted change in Energy=-4.024405D-03
 GradGradGradGradGradGradGradGradGradGradGradGradGradGradGradGradGradGrad

                          Input orientation:                          
 ---------------------------------------------------------------------
 Center     Atomic      Atomic             Coordinates (Angstroms)
 Number     Number       Type             X           Y           Z
 ---------------------------------------------------------------------
      1          1           0        0.728909    3.554955    1.744260
      2          6           0        1.338038    3.421271    0.850195
      3          1           0        0.811947    3.839091   -0.010743
      4          1           0        1.506919    2.355986    0.679574
      5          6           0        2.676840    4.138938    1.008799
      6          8           0        2.908773    4.842327    1.990108
      7          7           0        3.569384    3.953451    0.021594
      8          1           0        3.337091    3.356460   -0.759626
      9          6           0        4.862763    4.618301    0.004753
     10          1           0        5.420150    4.332056    0.899869
     11          6           0        5.660602    4.203776   -1.227604
     12          1           0        5.120884    4.493985   -2.130444
     13          1           0        6.631501    4.701216   -1.222615
     14          1           0        5.812353    3.122484   -1.223975
     15          6           0        4.707910    6.142604   -0.010271
     16          8           0        4.649876    6.753512   -1.075249
     17          7           0        4.657130    6.744918    1.186673
     18          1           0        4.663755    6.178042    2.022790
     19          6           0        4.527415    8.181997    1.323857
     20          1           0        4.512817    8.631982    0.330896
     21          1           0        3.599165    8.425485    1.845285
     22          1           0        5.372176    8.579463    1.890374
 ---------------------------------------------------------------------
                    Distance matrix (angstroms):
                    1          2          3          4          5
     1  H    0.000000
     2  C    1.090074   0.000000
     3  H    1.779793   1.092044   0.000000
     4  H    1.782240   1.092000   1.777392   0.000000
     5  C    2.162493   1.527283   2.146440   2.157782   0.000000
     6  O    2.543536   2.405413   3.067012   3.140793   1.229437
     7  N    3.345845   2.438996   2.759998   2.690463   1.343732
     8  H    3.620974   2.567477   2.677706   2.534121   2.043411
     9  C    4.609267   3.817243   4.125109   4.103065   2.452786
    10  H    4.829557   4.182779   4.723110   4.389392   2.752255
    11  C    5.794354   4.859437   5.012305   4.929983   3.729415
    12  H    5.931657   4.934050   4.846541   5.052522   3.994278
    13  H    6.704987   5.827140   6.006589   5.948089   4.575446
    14  H    5.902444   4.940744   5.195144   4.769463   3.981193
    15  C    5.060312   4.416118   4.526003   5.006066   3.029592
    16  O    5.792614   5.077345   4.935253   5.682940   3.882283
    17  N    5.090941   4.709163   4.966192   5.426204   3.277852
    18  H    4.737212   4.476065   4.943923   5.135947   3.022243
    19  C    6.001242   5.749869   5.869131   6.594005   4.457602
    20  H    6.487817   6.123758   6.065062   6.967433   4.900797
    21  H    5.654259   5.580776   5.678771   6.524967   4.463729
    22  H    6.843023   6.630474   6.846975   7.425490   5.268801
                    6          7          8          9         10
     6  O    0.000000
     7  N    2.258662   0.000000
     8  H    3.154725   1.010278   0.000000
     9  C    2.794620   1.454351   2.122308   0.000000
    10  H    2.784962   2.083277   2.836344   1.092634   0.000000
    11  C    4.281820   2.448744   2.517072   1.525477   2.144858
    12  H    4.689747   2.707507   2.520917   2.154332   3.049357
    13  H    4.919371   3.388771   3.588296   2.154470   2.471556
    14  H    4.660361   2.696823   2.529286   2.156144   2.475398
    15  C    2.988165   2.467721   3.194256   1.532222   2.147958
    16  O    4.010047   3.195445   3.655541   2.402259   3.218363
    17  N    2.705940   3.214481   4.124588   2.441663   2.546833
    18  H    2.205712   3.186101   4.178899   2.558294   2.289268
    19  C    3.770582   4.527065   5.389210   3.814764   3.974769
    20  H    4.437052   4.782718   5.513865   4.042087   4.431292
    21  H    3.651936   4.829681   5.705195   4.413489   4.578860
    22  H    4.477107   5.304940   6.200309   4.416545   4.361636
                   11         12         13         14         15
    11  C    0.000000
    12  H    1.091162   0.000000
    13  H    1.090925   1.774559   0.000000
    14  H    1.091895   1.783488   1.778594   0.000000
    15  C    2.479632   2.717283   2.692133   3.437149   0.000000
    16  O    2.746986   2.537863   2.856655   3.815473   1.229128
    17  N    3.645969   4.035472   3.725524   4.501976   1.340909
    18  H    3.931474   4.504927   4.072554   4.604040   2.033849
    19  C    4.860073   5.087813   4.798702   5.808716   2.443686
    20  H    4.832736   4.852933   4.727911   5.870348   2.520211
    21  H    5.613821   5.794716   5.698882   6.514627   3.143875
    22  H    5.380670   5.737705   5.130049   6.298535   3.161010
                   16         17         18         19         20
    16  O    0.000000
    17  N    2.261950   0.000000
    18  H    3.151064   1.010190   0.000000
    19  C    2.794866   1.449429   2.126719   0.000000
    20  H    2.350464   2.077064   2.984479   1.090263   0.000000
    21  H    3.525479   2.092215   2.493163   1.092163   1.780667
    22  H    3.556787   2.090943   2.507233   1.092035   1.781355
                   21         22
    21  H    0.000000
    22  H    1.780255   0.000000
 Stoichiometry    C6H12N2O2
 Framework group  C1[X(C6H12N2O2)]
 Deg. of freedom    60
 Full point group                 C1      NOp   1
 Largest Abelian subgroup         C1      NOp   1
 Largest concise Abelian subgroup C1      NOp   1
                         Standard orientation:                         
 ---------------------------------------------------------------------
 Center     Atomic      Atomic             Coordinates (Angstroms)
 Number     Number       Type             X           Y           Z
 ---------------------------------------------------------------------
      1          1           0       -3.449152   -1.780510    0.401860
      2          6           0       -3.101731   -0.765608    0.595596
      3          1           0       -2.997334   -0.619320    1.672749
      4          1           0       -3.831097   -0.050303    0.209814
      5          6           0       -1.746687   -0.533216   -0.069569
      6          8           0       -1.147054   -1.449808   -0.627972
      7          7           0       -1.261756    0.718317   -0.005369
      8          1           0       -1.797052    1.441171    0.454632
      9          6           0        0.041739    1.077856   -0.540879
     10          1           0        0.057279    0.860624   -1.611588
     11          6           0        0.312488    2.564868   -0.334546
     12          1           0        0.311435    2.794800    0.732115
     13          1           0        1.287904    2.822949   -0.749364
     14          1           0       -0.457340    3.154515   -0.836457
     15          6           0        1.163265    0.284020    0.137139
     16          8           0        1.721455    0.724430    1.139744
     17          7           0        1.491898   -0.883627   -0.434382
     18          1           0        0.960987   -1.207872   -1.230297
     19          6           0        2.543783   -1.731804    0.089999
     20          1           0        2.992691   -1.243999    0.955564
     21          1           0        2.130408   -2.696510    0.392131
     22          1           0        3.307925   -1.892045   -0.673513
 ---------------------------------------------------------------------
 Rotational constants (GHZ):      1.7063159      1.0401768      0.7402631
 Standard basis: 6-31G(d) (6D, 7F)
 There are   174 symmetry adapted basis functions of A   symmetry.
 Integral buffers will be    131072 words long.
 Raffenetti 2 integral format.
 Two-electron integral symmetry is turned on.
   174 basis functions,   328 primitive gaussians,   174 cartesian basis functions
    39 alpha electrons       39 beta electrons
       nuclear repulsion energy       566.9803339392 Hartrees.
 NAtoms=   22 NActive=   22 NUniq=   22 SFac= 7.50D-01 NAtFMM=   80 NAOKFM=F Big=F
 One-electron integrals computed using PRISM.
 NBasis=   174 RedAO= T  NBF=   174
 NBsUse=   174 1.00D-06 NBFU=   174
 Initial guess read from the read-write file.
 B after Tr=     0.000000    0.000000    0.000000
         Rot=    1.000000    0.000000    0.000000    0.000000 Ang=   0.00 deg.
 Initial guess orbital symmetries:
       Occupied  (A) (A) (A) (A) (A) (A) (A) (A) (A) (A) (A) (A)
                 (A) (A) (A) (A) (A) (A) (A) (A) (A) (A) (A) (A)
                 (A) (A) (A) (A) (A) (A) (A) (A) (A) (A) (A) (A)
                 (A) (A) (A)
       Virtual   (A) (A) (A) (A) (A) (A) (A) (A) (A) (A) (A) (A)
                 (A) (A) (A) (A) (A) (A) (A) (A) (A) (A) (A) (A)
                 (A) (A) (A) (A) (A) (A) (A) (A) (A) (A) (A) (A)
                 (A) (A) (A) (A) (A) (A) (A) (A) (A) (A) (A) (A)
                 (A) (A) (A) (A) (A) (A) (A) (A) (A) (A) (A) (A)
                 (A) (A) (A) (A) (A) (A) (A) (A) (A) (A) (A) (A)
                 (A) (A) (A) (A) (A) (A) (A) (A) (A) (A) (A) (A)
                 (A) (A) (A) (A) (A) (A) (A) (A) (A) (A) (A) (A)
                 (A) (A) (A) (A) (A) (A) (A) (A) (A) (A) (A) (A)
                 (A) (A) (A) (A) (A) (A) (A) (A) (A) (A) (A) (A)
                 (A) (A) (A) (A) (A) (A) (A) (A) (A) (A) (A) (A)
                 (A) (A) (A)
 Harris functional with IExCor=  402 diagonalized for initial guess.
 ExpMin= 1.61D-01 ExpMax= 5.48D+03 ExpMxC= 8.25D+02 IAcc=1 IRadAn=         1 AccDes= 0.00D+00
 HarFok:  IExCor=  402 AccDes= 0.00D+00 IRadAn=         1 IDoV= 1
 ScaDFX=  1.000000  1.000000  1.000000  1.000000
 FoFCou: FMM=F IPFlag=           0 FMFlag=      100000 FMFlg1=           0
         NFxFlg=           0 DoJE=T BraDBF=F KetDBF=T FulRan=T
         Omega=  0.000000  0.000000  1.000000  0.000000  0.000000 ICntrl=     500 IOpCl=  0
         NMat0=    1 NMatS0=    1 NMatT0=    0 NMatD0=    1 NMtDS0=    0 NMtDT0=    0
         I1Cent=           4 NGrid=           0.
 Petite list used in FoFCou.
 Requested convergence on RMS density matrix=1.00D-08 within 128 cycles.
 Requested convergence on MAX density matrix=1.00D-06.
 Requested convergence on             energy=1.00D-06.
 No special actions if energy rises.
 Integral accuracy reduced to 1.0D-05 until final iterations.
 Initial convergence to 1.0D-05 achieved.  Increase integral accuracy.
 SCF Done:  E(RB3LYP) =  -495.844925771     A.U. after   12 cycles
             Convg  =    0.3738D-08             -V/T =  2.0089
 Calling FoFJK, ICntrl=      2127 FMM=F ISym2X=0 I1Cent= 0 IOpClX= 0 NMat=1 NMatS=1 NMatT=0.
 ***** Axes restored to original set *****
 -------------------------------------------------------------------
 Center     Atomic                   Forces (Hartrees/Bohr)
 Number     Number              X              Y              Z
 -------------------------------------------------------------------
      1        1           0.002048633    0.001199395    0.000627127
      2        6           0.006579586    0.001546162   -0.003281877
      3        1          -0.003465513   -0.001260935   -0.002342620
      4        1          -0.002469420   -0.003190427   -0.001514139
      5        6          -0.017863597   -0.000060208    0.019312798
      6        8           0.001027879   -0.003993159    0.003803459
      7        7           0.006111155   -0.003985937   -0.011918320
      8        1          -0.000929763    0.001000778   -0.001058745
      9        6           0.009077218   -0.000038014   -0.000677293
     10        1          -0.000041209   -0.002111834    0.004555096
     11        6          -0.004118092   -0.004447221    0.002292533
     12        1           0.001366441    0.001840779   -0.001635253
     13        1           0.000877489   -0.000164152   -0.001521327
     14        1           0.001942258   -0.002920417   -0.000886971
     15        6          -0.003090195    0.005727250   -0.009344409
     16        8          -0.001180830    0.000995089   -0.005094423
     17        7           0.010784965    0.009118737    0.006641317
     18        1          -0.006034734   -0.001260785   -0.002140317
     19        6          -0.000261573   -0.001656787    0.001396787
     20        1           0.000253339   -0.001718534   -0.000412921
     21        1          -0.002029247    0.002197151    0.001497617
     22        1           0.001415211    0.003183069    0.001701880
 -------------------------------------------------------------------
 Cartesian Forces:  Max     0.019312798 RMS     0.005036981

 GradGradGradGradGradGradGradGradGradGradGradGradGradGradGradGradGradGrad
 Berny optimization.
 Using GEDIIS/GDIIS optimizer.
 Internal  Forces:  Max     0.020771864 RMS     0.004932219
 Search for a local minimum.
 Step number   2 out of a maximum of  132
 All quantities printed in internal units (Hartrees-Bohrs-Radians)
 Mixed Optimization -- RFO/linear search
 Update second derivatives using D2CorX and points    1    2
 DE= -4.03D-03 DEPred=-4.02D-03 R= 1.00D+00
 SS=  1.41D+00  RLast= 3.00D-01 DXNew= 5.0454D-01 8.9999D-01
 Trust test= 1.00D+00 RLast= 3.00D-01 DXMaxT set to 5.05D-01
 Use linear search instead of GDIIS.
 Linear search step of   0.594 exceeds DXMaxT=   0.505 but not scaled.
 Quartic linear search produced a step of  2.00000.
 Iteration  1 RMS(Cart)=  0.09617294 RMS(Int)=  0.01021731
 Iteration  2 RMS(Cart)=  0.01155717 RMS(Int)=  0.00059267
 Iteration  3 RMS(Cart)=  0.00017575 RMS(Int)=  0.00057563
 Iteration  4 RMS(Cart)=  0.00000006 RMS(Int)=  0.00057563
 Iteration  1 RMS(Cart)=  0.00003970 RMS(Int)=  0.00001462
 Iteration  2 RMS(Cart)=  0.00002495 RMS(Int)=  0.00001616
 Iteration  3 RMS(Cart)=  0.00001600 RMS(Int)=  0.00001856
 Iteration  4 RMS(Cart)=  0.00001043 RMS(Int)=  0.00002056
 Iteration  5 RMS(Cart)=  0.00000688 RMS(Int)=  0.00002204
 Iteration  6 RMS(Cart)=  0.00000458 RMS(Int)=  0.00002308
 Iteration  7 RMS(Cart)=  0.00000306 RMS(Int)=  0.00002380
 Iteration  8 RMS(Cart)=  0.00000206 RMS(Int)=  0.00002430
 Iteration  9 RMS(Cart)=  0.00000139 RMS(Int)=  0.00002463
 Iteration 10 RMS(Cart)=  0.00000094 RMS(Int)=  0.00002486
 Variable       Old X    -DE/DX   Delta X   Delta X   Delta X     New X
                                 (Linear)    (Quad)   (Total)
    R1        2.05994  -0.00049   0.00024   0.00000   0.00024   2.06018
    R2        2.06366   0.00304   0.00809   0.00000   0.00809   2.07176
    R3        2.06358   0.00297   0.00741   0.00000   0.00741   2.07100
    R4        2.88615  -0.00088  -0.01044   0.00000  -0.01044   2.87571
    R5        2.32330   0.00094   0.00149   0.00000   0.00149   2.32479
    R6        2.53929   0.02077   0.03301   0.00000   0.03301   2.57230
    R7        1.90915   0.00044   0.00081   0.00000   0.00081   1.90996
    R8        2.74833   0.01201   0.02031   0.00000   0.02031   2.76863
    R9        2.06478   0.00426   0.01007   0.00000   0.01007   2.07485
   R10        2.88273   0.00300   0.00170   0.00000   0.00170   2.88443
   R11        2.89548   0.01656   0.03860   0.00000   0.03860   2.93408
   R12        2.06200   0.00117   0.00456   0.00000   0.00456   2.06655
   R13        2.06155   0.00070   0.00341   0.00000   0.00341   2.06496
   R14        2.06338   0.00315   0.00744   0.00000   0.00744   2.07083
   R15        2.32271   0.00496   0.00062   0.00000   0.00062   2.32333
   R16        2.53395   0.01206   0.02232   0.00000   0.02232   2.55627
   R17        1.90898  -0.00110   0.00073   0.00000   0.00073   1.90971
   R18        2.73902   0.00244   0.00135   0.00000   0.00135   2.74038
   R19        2.06030  -0.00034   0.00100   0.00000   0.00100   2.06129
   R20        2.06389   0.00294   0.00827   0.00000   0.00827   2.07216
   R21        2.06365   0.00314   0.00802   0.00000   0.00802   2.07167
    A1        1.90762  -0.00018  -0.00727   0.00000  -0.00733   1.90029
    A2        1.91156  -0.00013   0.00098   0.00000   0.00130   1.91286
    A3        1.92520  -0.00511  -0.02764   0.00000  -0.02750   1.89770
    A4        1.90135  -0.00347  -0.01773   0.00000  -0.01827   1.88308
    A5        1.90116   0.00449   0.01026   0.00000   0.00994   1.91110
    A6        1.91671   0.00441   0.04148   0.00000   0.04137   1.95809
    A7        2.11425   0.00253   0.02227   0.00000   0.02227   2.13652
    A8        2.02762  -0.00797  -0.01494   0.00000  -0.01494   2.01268
    A9        2.14132   0.00543  -0.00733   0.00000  -0.00733   2.13399
   A10        2.09087  -0.00877  -0.00685   0.00000  -0.00788   2.08299
   A11        2.13662   0.01761   0.01801   0.00000   0.01699   2.15362
   A12        2.05518  -0.00877  -0.01218   0.00000  -0.01318   2.04199
   A13        1.90120  -0.00126  -0.01988   0.00000  -0.01986   1.88134
   A14        1.92864  -0.00728  -0.02082   0.00000  -0.02110   1.90753
   A15        1.94445   0.00924   0.01089   0.00000   0.01116   1.95561
   A16        1.90056   0.00188   0.00894   0.00000   0.00840   1.90897
   A17        1.89675   0.00113   0.00134   0.00000   0.00113   1.89788
   A18        1.89153  -0.00369   0.02032   0.00000   0.02035   1.91188
   A19        1.91501   0.00113   0.00773   0.00000   0.00763   1.92264
   A20        1.91545   0.00130   0.00876   0.00000   0.00874   1.92418
   A21        1.91675   0.00201   0.01131   0.00000   0.01117   1.92792
   A22        1.89940  -0.00215  -0.02142   0.00000  -0.02140   1.87799
   A23        1.91227  -0.00058   0.00407   0.00000   0.00387   1.91614
   A24        1.90482  -0.00177  -0.01066   0.00000  -0.01073   1.89409
   A25        2.10334  -0.00384   0.00040   0.00000   0.00026   2.10360
   A26        2.02855   0.00396  -0.01299   0.00000  -0.01314   2.01542
   A27        2.15122  -0.00014   0.01246   0.00000   0.01231   2.16353
   A28        2.07889  -0.00367  -0.03105   0.00000  -0.03320   2.04568
   A29        2.13321   0.00371   0.01125   0.00000   0.00892   2.14213
   A30        2.06989  -0.00014   0.01740   0.00000   0.01482   2.08471
   A31        1.90098  -0.00364  -0.02015   0.00000  -0.02004   1.88094
   A32        1.92015   0.00229   0.01796   0.00000   0.01787   1.93802
   A33        1.91850   0.00349   0.01483   0.00000   0.01473   1.93323
   A34        1.90861   0.00013  -0.00306   0.00000  -0.00294   1.90567
   A35        1.90987  -0.00021  -0.00057   0.00000  -0.00047   1.90939
   A36        1.90567  -0.00208  -0.00907   0.00000  -0.00935   1.89632
    D1       -0.09838   0.00089  -0.19660   0.00000  -0.19675  -0.29513
    D2        3.04293  -0.00107  -0.19707   0.00000  -0.19723   2.84571
    D3        1.99536   0.00036  -0.21601   0.00000  -0.21619   1.77917
    D4       -1.14651  -0.00160  -0.21648   0.00000  -0.21667  -1.36318
    D5       -2.20687   0.00147  -0.20722   0.00000  -0.20688  -2.41375
    D6        0.93445  -0.00049  -0.20769   0.00000  -0.20736   0.72709
    D7       -0.01324  -0.00319  -0.02648   0.00000  -0.02640  -0.03965
    D8        3.09314  -0.00069  -0.09700   0.00000  -0.09709   2.99605
    D9        3.12807  -0.00519  -0.02696   0.00000  -0.02687   3.10120
   D10       -0.04873  -0.00268  -0.09747   0.00000  -0.09755  -0.14629
   D11        1.04497  -0.00307  -0.00443   0.00000  -0.00468   1.04029
   D12        3.13215  -0.00596  -0.01895   0.00000  -0.01870   3.11345
   D13       -1.04721  -0.00939   0.00000   0.00000   0.00000  -1.04721
   D14       -2.13115  -0.00063  -0.07358   0.00000  -0.07374  -2.20489
   D15       -0.04396  -0.00352  -0.08809   0.00000  -0.08776  -0.13172
   D16        2.05986  -0.00695  -0.06915   0.00000  -0.06906   1.99080
   D17        1.06537   0.00412   0.03625   0.00000   0.03627   1.10163
   D18       -3.13156   0.00298   0.02011   0.00000   0.02005  -3.11152
   D19       -1.03755   0.00286   0.01942   0.00000   0.01934  -1.01821
   D20       -3.13026  -0.00066   0.00467   0.00000   0.00461  -3.12565
   D21       -1.04400  -0.00180  -0.01147   0.00000  -0.01161  -1.05561
   D22        1.05001  -0.00193  -0.01216   0.00000  -0.01232   1.03769
   D23       -1.06979  -0.00034   0.02247   0.00000   0.02269  -1.04709
   D24        1.01647  -0.00148   0.00633   0.00000   0.00647   1.02294
   D25        3.11048  -0.00160   0.00564   0.00000   0.00577   3.11625
   D26       -1.58317   0.00332  -0.02471   0.00000  -0.02467  -1.60785
   D27        1.57081   0.00478   0.00000   0.00000   0.00000   1.57081
   D28        2.60521  -0.00156  -0.00769   0.00000  -0.00765   2.59756
   D29       -0.52399  -0.00010   0.01702   0.00000   0.01703  -0.50697
   D30        0.54231  -0.00237  -0.03033   0.00000  -0.03013   0.51218
   D31       -2.58689  -0.00091  -0.00562   0.00000  -0.00546  -2.59235
   D32       -0.06559  -0.00409  -0.13102   0.00000  -0.12983  -0.19542
   D33        3.12945  -0.00169  -0.02431   0.00000  -0.02577   3.10368
   D34        3.08877  -0.00256  -0.10556   0.00000  -0.10410   2.98466
   D35        0.00062  -0.00016   0.00115   0.00000  -0.00004   0.00058
   D36       -0.02828  -0.00119  -0.05645   0.00000  -0.05719  -0.08547
   D37        2.06349  -0.00189  -0.06166   0.00000  -0.06258   2.00092
   D38       -2.12059  -0.00081  -0.05240   0.00000  -0.05301  -2.17359
   D39       -3.11669   0.00130   0.04974   0.00000   0.05051  -3.06618
   D40       -1.02491   0.00060   0.04453   0.00000   0.04513  -0.97979
   D41        1.07419   0.00168   0.05379   0.00000   0.05470   1.12889
         Item               Value     Threshold  Converged?
 Maximum Force            0.020772     0.000450     NO 
 RMS     Force            0.004724     0.000300     NO 
 Maximum Displacement     0.527040     0.001800     NO 
 RMS     Displacement     0.099609     0.001200     NO 
 Predicted change in Energy=-4.429965D-03
 GradGradGradGradGradGradGradGradGradGradGradGradGradGradGradGradGradGrad

                          Input orientation:                          
 ---------------------------------------------------------------------
 Center     Atomic      Atomic             Coordinates (Angstroms)
 Number     Number       Type             X           Y           Z
 ---------------------------------------------------------------------
      1          1           0        0.814565    3.356816    1.786048
      2          6           0        1.339461    3.421270    0.832702
      3          1           0        0.743981    4.027702    0.140188
      4          1           0        1.441355    2.419262    0.400676
      5          6           0        2.687938    4.088379    1.061445
      6          8           0        2.940554    4.733386    2.078108
      7          7           0        3.597087    3.921103    0.062280
      8          1           0        3.354840    3.353131   -0.737879
      9          6           0        4.880155    4.626673    0.013095
     10          1           0        5.442448    4.363960    0.918815
     11          6           0        5.659839    4.170294   -1.217204
     12          1           0        5.118359    4.440361   -2.128119
     13          1           0        6.633598    4.664851   -1.252731
     14          1           0        5.820558    3.086685   -1.188665
     15          6           0        4.696522    6.167807   -0.030592
     16          8           0        4.639032    6.759618   -1.106703
     17          7           0        4.653775    6.783015    1.173381
     18          1           0        4.568147    6.194326    1.990314
     19          6           0        4.533555    8.221184    1.315286
     20          1           0        4.578038    8.659055    0.317231
     21          1           0        3.580733    8.492103    1.785539
     22          1           0        5.351859    8.621319    1.925285
 ---------------------------------------------------------------------
                    Distance matrix (angstroms):
                    1          2          3          4          5
     1  H    0.000000
     2  C    1.090201   0.000000
     3  H    1.778742   1.096327   0.000000
     4  H    1.786373   1.095923   1.772362   0.000000
     5  C    2.137699   1.521758   2.152060   2.185528   0.000000
     6  O    2.549524   2.415820   3.013048   3.227467   1.230224
     7  N    3.321479   2.437265   2.856160   2.649003   1.361200
     8  H    3.580952   2.555997   2.835954   2.414506   2.054973
     9  C    4.613558   3.829003   4.181250   4.104659   2.488898
    10  H    4.814949   4.210770   4.774403   4.478735   2.771934
    11  C    5.758294   4.840332   5.101814   4.845539   3.745818
    12  H    5.917551   4.907655   4.944763   4.898979   4.025439
    13  H    6.693749   5.824380   6.085537   5.893709   4.610419
    14  H    5.829396   4.927282   5.331323   4.706259   3.984934
    15  C    5.125567   4.422510   4.497976   4.983341   3.090465
    16  O    5.879933   5.078683   4.918284   5.597858   3.955143
    17  N    5.182059   4.733083   4.893437   5.473487   3.337381
    18  H    4.709837   4.410705   4.768802   5.153143   2.972036
    19  C    6.141219   5.785698   5.772955   6.637809   4.533301
    20  H    6.665950   6.179683   6.015045   6.984322   5.001741
    21  H    5.832912   5.625349   5.539424   6.585908   4.551284
    22  H    6.951360   6.658347   6.746882   7.488790   5.328249
                    6          7          8          9         10
     6  O    0.000000
     7  N    2.270331   0.000000
     8  H    3.163308   1.010707   0.000000
     9  C    2.835086   1.465098   2.124254   0.000000
    10  H    2.782069   2.082099   2.850354   1.097962   0.000000
    11  C    4.309369   2.440106   2.492093   1.526377   2.155770
    12  H    4.745634   2.716936   2.494962   2.162464   3.065074
[...]
    13  H    6.598987   5.838762   6.354299   5.811325   4.612653
    14  H    5.610194   4.916615   5.626084   4.653783   3.958932
    15  C    5.198923   4.394507   4.541293   4.795325   3.093014
    16  O    5.980865   5.052614   5.038153   5.314470   3.967170
    17  N    5.300586   4.689766   4.766438   5.345261   3.325853
    18  H    4.646501   4.205581   4.390250   4.969683   2.808973
    19  C    6.225782   5.619123   5.441977   6.347671   4.439367
    20  H    7.049471   6.338478   6.148584   6.950827   5.160147
    21  H    5.921170   5.307960   4.930277   6.079221   4.365743
    22  H    6.728008   6.263666   6.126744   7.079611   5.049754
                    6          7          8          9         10
     6  O    0.000000
     7  N    2.280537   0.000000
     8  H    3.149597   1.012508   0.000000
     9  C    2.852539   1.472047   2.114674   0.000000
    10  H    2.732766   2.068532   2.909528   1.095784   0.000000
    11  C    4.318549   2.446752   2.532876   1.524702   2.160629
    12  H    4.803145   2.768410   2.507829   2.163088   3.068038
    13  H    4.974817   3.395973   3.603178   2.161175   2.477795
    14  H    4.625331   2.652675   2.621579   2.167149   2.525316
    15  C    3.154301   2.509098   3.054244   1.553515   2.163948
    16  O    4.210653   3.258525   3.475015   2.428704   3.240692
    17  N    2.865330   3.245689   4.010912   2.454870   2.528397
    18  H    2.065001   3.036633   3.944637   2.529534   2.313568
    19  C    3.896971   4.518347   5.179830   3.824730   3.977263
    20  H    4.785858   4.995341   5.536017   4.120513   4.398900
    21  H    3.886195   4.646757   5.214485   4.271577   4.567790
    22  H    4.280144   5.258863   6.023477   4.533059   4.445199
                   11         12         13         14         15
    11  C    0.000000
    12  H    1.094334   0.000000
    13  H    1.093511   1.761747   0.000000
    14  H    1.094969   1.792344   1.776909   0.000000
    15  C    2.530287   2.734545   2.791669   3.488949   0.000000
    16  O    2.822632   2.572774   2.995151   3.883095   1.227449
    17  N    3.688541   4.062465   3.810715   4.547806   1.360758
    18  H    3.963628   4.488096   4.208190   4.638083   2.011723
    19  C    4.928365   5.116756   4.954202   5.875349   2.443883
    20  H    4.936933   4.994987   4.810297   5.972163   2.612832
    21  H    5.439836   5.489097   5.640480   6.363437   2.916593
    22  H    5.687091   6.010790   5.617036   6.579715   3.315267
                   16         17         18         19         20
    16  O    0.000000
    17  N    2.286842   0.000000
    18  H    3.123704   1.016855   0.000000
    19  C    2.799702   1.454576   2.129396   0.000000
    20  H    2.531501   2.079914   2.984302   1.091292   0.000000
    21  H    3.129471   2.129087   2.596140   1.098464   1.773518
    22  H    3.810950   2.087980   2.436741   1.093356   1.783784
                   21         22
    21  H    0.000000
    22  H    1.783511   0.000000
 Stoichiometry    C6H12N2O2
 Framework group  C1[X(C6H12N2O2)]
 Deg. of freedom    60
 Full point group                 C1      NOp   1
 Largest Abelian subgroup         C1      NOp   1
 Largest concise Abelian subgroup C1      NOp   1
                         Standard orientation:                         
 ---------------------------------------------------------------------
 Center     Atomic      Atomic             Coordinates (Angstroms)
 Number     Number       Type             X           Y           Z
 ---------------------------------------------------------------------
      1          1           0       -3.751496   -1.286284    0.123934
      2          6           0       -3.026661   -0.742267    0.734580
      3          1           0       -2.768698   -1.380456    1.587302
      4          1           0       -3.487352    0.176168    1.110913
      5          6           0       -1.777718   -0.496879   -0.095486
      6          8           0       -1.304882   -1.371717   -0.820826
      7          7           0       -1.246780    0.759890   -0.012293
      8          1           0       -1.585736    1.351758    0.736021
      9          6           0        0.086655    1.101789   -0.533809
     10          1           0        0.074149    0.854745   -1.601309
     11          6           0        0.337760    2.593996   -0.346784
     12          1           0        0.439119    2.831216    0.716711
     13          1           0        1.272840    2.883160   -0.834406
     14          1           0       -0.478511    3.179039   -0.783114
     15          6           0        1.208950    0.270087    0.145995
     16          8           0        1.802191    0.689714    1.135243
     17          7           0        1.501013   -0.903892   -0.477010
     18          1           0        0.746587   -1.286878   -1.041064
     19          6           0        2.450053   -1.834941    0.113126
     20          1           0        3.286497   -1.268275    0.525643
     21          1           0        2.003558   -2.426129    0.924151
     22          1           0        2.816705   -2.514749   -0.660731
 ---------------------------------------------------------------------
 Rotational constants (GHZ):      1.6348579      1.0278363      0.7369062

 **********************************************************************

            Population analysis using the SCF density.

 **********************************************************************

 Orbital symmetries:
       Occupied  (A) (A) (A) (A) (A) (A) (A) (A) (A) (A) (A) (A)
                 (A) (A) (A) (A) (A) (A) (A) (A) (A) (A) (A) (A)
                 (A) (A) (A) (A) (A) (A) (A) (A) (A) (A) (A) (A)
                 (A) (A) (A)
       Virtual   (A) (A) (A) (A) (A) (A) (A) (A) (A) (A) (A) (A)
                 (A) (A) (A) (A) (A) (A) (A) (A) (A) (A) (A) (A)
                 (A) (A) (A) (A) (A) (A) (A) (A) (A) (A) (A) (A)
                 (A) (A) (A) (A) (A) (A) (A) (A) (A) (A) (A) (A)
                 (A) (A) (A) (A) (A) (A) (A) (A) (A) (A) (A) (A)
                 (A) (A) (A) (A) (A) (A) (A) (A) (A) (A) (A) (A)
                 (A) (A) (A) (A) (A) (A) (A) (A) (A) (A) (A) (A)
                 (A) (A) (A) (A) (A) (A) (A) (A) (A) (A) (A) (A)
                 (A) (A) (A) (A) (A) (A) (A) (A) (A) (A) (A) (A)
                 (A) (A) (A) (A) (A) (A) (A) (A) (A) (A) (A) (A)
                 (A) (A) (A) (A) (A) (A) (A) (A) (A) (A) (A) (A)
                 (A) (A) (A)
 The electronic state is 1-A.
 Alpha  occ. eigenvalues --  -19.12297 -19.10638 -14.37165 -14.34633 -10.29883
 Alpha  occ. eigenvalues --  -10.27585 -10.23721 -10.20831 -10.20004 -10.18660
 Alpha  occ. eigenvalues --   -1.04162  -1.02255  -0.93101  -0.90824  -0.78335
 Alpha  occ. eigenvalues --   -0.73423  -0.70507  -0.63756  -0.59606  -0.56406
 Alpha  occ. eigenvalues --   -0.52672  -0.49498  -0.48551  -0.45973  -0.44951
 Alpha  occ. eigenvalues --   -0.43620  -0.41864  -0.41717  -0.40939  -0.39164
 Alpha  occ. eigenvalues --   -0.38517  -0.37823  -0.37030  -0.35872  -0.35543
 Alpha  occ. eigenvalues --   -0.28151  -0.26300  -0.24776  -0.23173
 Alpha virt. eigenvalues --    0.01247   0.02680   0.07208   0.10533   0.11940
 Alpha virt. eigenvalues --    0.12702   0.13564   0.14898   0.15560   0.16566
 Alpha virt. eigenvalues --    0.17064   0.17240   0.18205   0.18986   0.20662
 Alpha virt. eigenvalues --    0.22316   0.23876   0.24132   0.26706   0.31966
 Alpha virt. eigenvalues --    0.35047   0.38288   0.41398   0.49901   0.51116
 Alpha virt. eigenvalues --    0.51652   0.53158   0.54076   0.54667   0.57141
 Alpha virt. eigenvalues --    0.57559   0.59708   0.61725   0.62372   0.64485
 Alpha virt. eigenvalues --    0.67191   0.68404   0.70549   0.72583   0.75836
 Alpha virt. eigenvalues --    0.76591   0.78428   0.79228   0.81200   0.83991
 Alpha virt. eigenvalues --    0.84180   0.85959   0.86390   0.88179   0.88387
 Alpha virt. eigenvalues --    0.89073   0.90108   0.90621   0.91972   0.92843
 Alpha virt. eigenvalues --    0.94183   0.95344   0.97250   0.99183   1.00661
 Alpha virt. eigenvalues --    1.05764   1.07208   1.09777   1.13892   1.15102
 Alpha virt. eigenvalues --    1.19466   1.22059   1.26162   1.27882   1.34493
 Alpha virt. eigenvalues --    1.35534   1.40635   1.43637   1.43868   1.46942
 Alpha virt. eigenvalues --    1.51187   1.55394   1.59625   1.65311   1.69912
 Alpha virt. eigenvalues --    1.71336   1.76146   1.78587   1.79840   1.81597
 Alpha virt. eigenvalues --    1.83618   1.85112   1.88019   1.88589   1.92143
 Alpha virt. eigenvalues --    1.94869   1.95324   1.97463   1.99081   2.02188
 Alpha virt. eigenvalues --    2.03481   2.05054   2.08179   2.11879   2.17748
 Alpha virt. eigenvalues --    2.19308   2.21262   2.22571   2.26093   2.28813
 Alpha virt. eigenvalues --    2.31464   2.34194   2.34704   2.37377   2.39027
 Alpha virt. eigenvalues --    2.43271   2.48114   2.53095   2.56850   2.62324
 Alpha virt. eigenvalues --    2.66351   2.67167   2.72345   2.75775   2.87752
 Alpha virt. eigenvalues --    2.90471   2.98413   2.99927   3.11297   3.14671
 Alpha virt. eigenvalues --    3.93244   3.96052   4.07802   4.15022   4.17944
 Alpha virt. eigenvalues --    4.22257   4.28355   4.40650   4.45846   4.61646
          Condensed to atoms (all electrons):
              1          2          3          4          5          6
     1  H    0.510712   0.359548  -0.022483  -0.024829  -0.019005   0.002334
     2  C    0.359548   5.311262   0.362282   0.344379   0.348827  -0.079753
     3  H   -0.022483   0.362282   0.518339  -0.025653  -0.020642  -0.000167
     4  H   -0.024829   0.344379  -0.025653   0.568724  -0.026103   0.002890
     5  C   -0.019005   0.348827  -0.020642  -0.026103   4.317228   0.556423
     6  O    0.002334  -0.079753  -0.000167   0.002890   0.556423   8.101863
     7  N    0.002811  -0.116355   0.000447   0.006158   0.280469  -0.093774
     8  H    0.000062   0.000962  -0.000168   0.001839  -0.017814   0.003424
     9  C   -0.000168   0.007235  -0.000136   0.000108  -0.021629   0.006924
    10  H    0.000028   0.000026  -0.000015  -0.000024  -0.004933   0.004633
    11  C    0.000003  -0.000216   0.000003  -0.000044   0.005347   0.000432
    12  H    0.000000  -0.000005  -0.000001  -0.000001  -0.000116  -0.000007
    13  H    0.000000   0.000004   0.000000   0.000000  -0.000054   0.000004
    14  H    0.000000  -0.000006   0.000001   0.000004   0.000056  -0.000008
    15  C   -0.000005  -0.000414   0.000060   0.000017  -0.001993  -0.001170
    16  O    0.000000  -0.000011   0.000000   0.000000  -0.000236   0.000015
    17  N    0.000002  -0.000094   0.000015   0.000000   0.004727  -0.020377
    18  H   -0.000004   0.000693  -0.000024  -0.000017  -0.001434   0.041400
    19  C    0.000000   0.000002   0.000002   0.000000  -0.000109   0.000408
    20  H    0.000000   0.000000   0.000000   0.000000  -0.000001  -0.000009
    21  H    0.000000   0.000000  -0.000004   0.000000  -0.000048   0.000195
    22  H    0.000000   0.000000   0.000000   0.000000   0.000009  -0.000019
              7          8          9         10         11         12
     1  H    0.002811   0.000062  -0.000168   0.000028   0.000003   0.000000
     2  C   -0.116355   0.000962   0.007235   0.000026  -0.000216  -0.000005
     3  H    0.000447  -0.000168  -0.000136  -0.000015   0.000003  -0.000001
     4  H    0.006158   0.001839   0.000108  -0.000024  -0.000044  -0.000001
     5  C    0.280469  -0.017814  -0.021629  -0.004933   0.005347  -0.000116
     6  O   -0.093774   0.003424   0.006924   0.004633   0.000432  -0.000007
     7  N    7.103857   0.294077   0.245091  -0.045681  -0.043333  -0.003959
     8  H    0.294077   0.413523  -0.033418   0.005464  -0.002249   0.004467
     9  C    0.245091  -0.033418   5.082288   0.361145   0.350182  -0.032992
    10  H   -0.045681   0.005464   0.361145   0.588357  -0.036222   0.005234
    11  C   -0.043333  -0.002249   0.350182  -0.036222   5.125578   0.368059
    12  H   -0.003959   0.004467  -0.032992   0.005234   0.368059   0.534076
    13  H    0.003459  -0.000092  -0.026312  -0.002659   0.375567  -0.024299
    14  H   -0.000681   0.000510  -0.031524  -0.004109   0.361859  -0.030846
    15  C   -0.046860  -0.000097   0.316769  -0.047671  -0.034063  -0.006710
    16  O    0.000339   0.000390  -0.085613   0.002813  -0.000536   0.011959
    17  N    0.000919  -0.000083  -0.113212   0.008375   0.003906   0.000546
    18  H   -0.002844  -0.000023   0.002468   0.000781   0.000156  -0.000028
    19  C   -0.000259   0.000011   0.007319  -0.000113  -0.000185  -0.000006
    20  H   -0.000011   0.000000   0.000486  -0.000064   0.000014  -0.000007
    21  H    0.000036  -0.000001  -0.000072   0.000015  -0.000005   0.000000
    22  H   -0.000003   0.000000  -0.000089  -0.000034   0.000003   0.000000
             13         14         15         16         17         18
     1  H    0.000000   0.000000  -0.000005   0.000000   0.000002  -0.000004
     2  C    0.000004  -0.000006  -0.000414  -0.000011  -0.000094   0.000693
     3  H    0.000000   0.000001   0.000060   0.000000   0.000015  -0.000024
     4  H    0.000000   0.000004   0.000017   0.000000   0.000000  -0.000017
     5  C   -0.000054   0.000056  -0.001993  -0.000236   0.004727  -0.001434
     6  O    0.000004  -0.000008  -0.001170   0.000015  -0.020377   0.041400
     7  N    0.003459  -0.000681  -0.046860   0.000339   0.000919  -0.002844
     8  H   -0.000092   0.000510  -0.000097   0.000390  -0.000083  -0.000023
     9  C   -0.026312  -0.031524   0.316769  -0.085613  -0.113212   0.002468
    10  H   -0.002659  -0.004109  -0.047671   0.002813   0.008375   0.000781
    11  C    0.375567   0.361859  -0.034063  -0.000536   0.003906   0.000156
    12  H   -0.024299  -0.030846  -0.006710   0.011959   0.000546  -0.000028
    13  H    0.532047  -0.026313  -0.001118   0.000140   0.000127   0.000008
    14  H   -0.026313   0.576276   0.004995   0.000413  -0.000080  -0.000010
    15  C   -0.001118   0.004995   4.401716   0.587251   0.285535  -0.019061
    16  O    0.000140   0.000413   0.587251   8.091776  -0.101035   0.002976
    17  N    0.000127  -0.000080   0.285535  -0.101035   7.092921   0.273293
    18  H    0.000008  -0.000010  -0.019061   0.002976   0.273293   0.363964
    19  C   -0.000005   0.000002  -0.028165   0.001765   0.270296  -0.027166
    20  H   -0.000004   0.000000  -0.002429   0.011349  -0.038547   0.003151
    21  H    0.000001   0.000000  -0.002139   0.001453  -0.045736   0.001098
    22  H    0.000000   0.000000   0.004336   0.000502  -0.035519  -0.002542
             19         20         21         22
     1  H    0.000000   0.000000   0.000000   0.000000
     2  C    0.000002   0.000000   0.000000   0.000000
     3  H    0.000002   0.000000  -0.000004   0.000000
     4  H    0.000000   0.000000   0.000000   0.000000
     5  C   -0.000109  -0.000001  -0.000048   0.000009
     6  O    0.000408  -0.000009   0.000195  -0.000019
     7  N   -0.000259  -0.000011   0.000036  -0.000003
     8  H    0.000011   0.000000  -0.000001   0.000000
     9  C    0.007319   0.000486  -0.000072  -0.000089
    10  H   -0.000113  -0.000064   0.000015  -0.000034
    11  C   -0.000185   0.000014  -0.000005   0.000003
    12  H   -0.000006  -0.000007   0.000000   0.000000
    13  H   -0.000005  -0.000004   0.000001   0.000000
    14  H    0.000002   0.000000   0.000000   0.000000
    15  C   -0.028165  -0.002429  -0.002139   0.004336
    16  O    0.001765   0.011349   0.001453   0.000502
    17  N    0.270296  -0.038547  -0.045736  -0.035519
    18  H   -0.027166   0.003151   0.001098  -0.002542
    19  C    4.941584   0.381650   0.383081   0.374855
    20  H    0.381650   0.515360  -0.034313  -0.023844
    21  H    0.383081  -0.034313   0.575876  -0.037948
    22  H    0.374855  -0.023844  -0.037948   0.566889
 Mulliken atomic charges:
              1
     1  H    0.190992
     2  C   -0.538368
     3  H    0.188146
     4  H    0.152552
     5  C    0.601029
     6  O   -0.525662
     7  N   -0.583902
     8  H    0.329217
     9  C   -0.034852
    10  H    0.164654
    11  C   -0.474257
    12  H    0.174637
    13  H    0.169499
    14  H    0.149461
    15  C    0.591215
    16  O   -0.525713
    17  N   -0.585978
    18  H    0.363162
    19  C   -0.304966
    20  H    0.187220
    21  H    0.158512
    22  H    0.153403
 Sum of Mulliken atomic charges =   0.00000
 Mulliken charges with hydrogens summed into heavy atoms:
              1
     2  C   -0.006678
     5  C    0.601029
     6  O   -0.525662
     7  N   -0.254685
     9  C    0.129801
    11  C    0.019340
    15  C    0.591215
    16  O   -0.525713
    17  N   -0.222816
    19  C    0.194169
 Sum of Mulliken charges with hydrogens summed into heavy atoms =   0.00000
 Electronic spatial extent (au):  <R**2>=           1673.7381
 Charge=              0.0000 electrons
 Dipole moment (field-independent basis, Debye):
    X=             -2.2014    Y=              0.6264    Z=             -0.0508  Tot=              2.2894
 Quadrupole moment (field-independent basis, Debye-Ang):
   XX=            -57.3203   YY=            -57.7609   ZZ=            -62.1267
   XY=             -6.2887   XZ=             -7.9522   YZ=             -3.0671
 Traceless Quadrupole moment (field-independent basis, Debye-Ang):
   XX=              1.7490   YY=              1.3084   ZZ=             -3.0574
   XY=             -6.2887   XZ=             -7.9522   YZ=             -3.0671
 Octapole moment (field-independent basis, Debye-Ang**2):
  XXX=            -16.1007  YYY=              1.3924  ZZZ=             -1.7841  XYY=              6.8253
  XXY=            -11.0005  XXZ=              1.1553  XZZ=             -5.3814  YZZ=             -1.8695
  YYZ=              2.8647  XYZ=             -2.0575
 Hexadecapole moment (field-independent basis, Debye-Ang**3):
 XXXX=          -1145.6525 YYYY=           -748.6209 ZZZZ=           -207.0792 XXXY=             -6.0862
 XXXZ=             -9.5419 YYYX=            -14.9210 YYYZ=              4.5278 ZZZX=             -2.4629
 ZZZY=              4.1302 XXYY=           -310.6966 XXZZ=           -245.5787 YYZZ=           -155.7343
 XXYZ=             -5.1418 YYXZ=            -13.4770 ZZXY=             -5.7687
 N-N= 5.623821874465D+02 E-N=-2.280856735751D+03  KE= 4.912406144214D+02
 1\1\GINC-NODE005\FOpt\RB3LYP\6-31G(d)\C6H12N2O2\MANAGER\11-Feb-2017\0\
 \# b3lyp/6-31G* Opt=(ModRedundant, maxcycles=1000, calcfc) geom=nocrow
 d\\Phi Psi fixed scan\\0,1\H,1.0669693875,2.9903769176,1.8289260898\C,
 1.3717538419,3.4961245006,0.9093854332\H,0.6615308144,4.3112704366,0.7
 302612309\H,1.3154815747,2.7922393705,0.0734635296\C,2.7581377339,4.08
 37422522,1.1136581511\O,3.0664220062,4.6576166422,2.1580057234\N,3.639
 6474234,3.8970402683,0.0858608115\H,3.2550927901,3.5804383069,-0.79564
 5168\C,4.9261079657,4.6068262436,-0.0043928923\H,5.4792531328,4.362318
 1904,0.9093846903\C,5.6934638189,4.1137692089,-1.2261844886\H,5.190214
 1648,4.4324376928,-2.1442030132\H,6.6980731045,4.5454305866,-1.2401303
 283\H,5.7829614914,3.0225896788,-1.2096029222\C,4.7384073731,6.1478421
 792,-0.0630988385\O,4.6620320011,6.7396439586,-1.1357447632\N,4.726777
 6768,6.7641205653,1.1500494955\H,4.4546031589,6.1690589291,1.928391893
 7\C,4.4454205868,8.1876795986,1.2505921509\H,4.9537488338,8.703813414,
 0.4344260375\H,3.3712932864,8.4057397305,1.1776309377\H,4.8190078329,8
 .5621813287,2.2074662392\\Version=EM64L-G09RevA.02\State=1-A\HF=-495.8
 519849\RMSD=6.094e-09\RMSF=1.663e-03\Dipole=-0.3739102,-0.8190769,-0.0
 242401\Quadrupole=2.9250008,2.1840861,-5.1090869,1.1167844,2.3947386,6
 .2626561\PG=C01 [X(C6H12N2O2)]\\@


 MOST BUREAUCRACIES FUNCTION LIKE A SEPTIC TANK.
 THE LARGE CHUNKS RISE TO THE TOP.
 Job cpu time:  0 days  1 hours 40 minutes  5.3 seconds.
 File lengths (MBytes):  RWF=    186 Int=      0 D2E=      0 Chk=      4 Scr=      2
 Normal termination of Gaussian 09 at Sat Feb 11 00:40:29 2017.
