 Entering Gaussian System, Link 0=g09
 Initial command:
 /home/steboss/Software/g09/l1.exe /home/steboss/projects/phi_psi_scan/alanine/300/4513/Gau-24977.inp -scrdir=/home/steboss/projects/phi_psi_scan/alanine/300/4513/
 Entering Link 1 = /home/steboss/Software/g09/l1.exe PID=     24979.
  
 Copyright (c) 1988,1990,1992,1993,1995,1998,2003,2009, Gaussian, Inc.
                  All Rights Reserved.
  
 This is part of the Gaussian(R) 09 program.  It is based on
 the Gaussian(R) 03 system (copyright 2003, Gaussian, Inc.),
 the Gaussian(R) 98 system (copyright 1998, Gaussian, Inc.),
 the Gaussian(R) 94 system (copyright 1995, Gaussian, Inc.),
 the Gaussian 92(TM) system (copyright 1992, Gaussian, Inc.),
 the Gaussian 90(TM) system (copyright 1990, Gaussian, Inc.),
 the Gaussian 88(TM) system (copyright 1988, Gaussian, Inc.),
 the Gaussian 86(TM) system (copyright 1986, Carnegie Mellon
 University), and the Gaussian 82(TM) system (copyright 1983,
 Carnegie Mellon University). Gaussian is a federally registered
 trademark of Gaussian, Inc.
  
 This software contains proprietary and confidential information,
 including trade secrets, belonging to Gaussian, Inc.
  
 This software is provided under written license and may be
 used, copied, transmitted, or stored only in accord with that
 written license.
  
 The following legend is applicable only to US Government
 contracts under FAR:
  
                    RESTRICTED RIGHTS LEGEND
  
 Use, reproduction and disclosure by the US Government is
 subject to restrictions as set forth in subparagraphs (a)
 and (c) of the Commercial Computer Software - Restricted
 Rights clause in FAR 52.227-19.
  
 Gaussian, Inc.
 340 Quinnipiac St., Bldg. 40, Wallingford CT 06492
  
  
 ---------------------------------------------------------------
 Warning -- This program may not be used in any manner that
 competes with the business of Gaussian, Inc. or will provide
 assistance to any competitor of Gaussian, Inc.  The licensee
 of this program is prohibited from giving any competitor of
 Gaussian, Inc. access to this program.  By using this program,
 the user acknowledges that Gaussian, Inc. is engaged in the
 business of creating and licensing software in the field of
 computational chemistry and represents and warrants to the
 licensee that it is not a competitor of Gaussian, Inc. and that
 it will not use this program in any manner prohibited above.
 ---------------------------------------------------------------
  

 Cite this work as:
 Gaussian 09, Revision A.02,
 M. J. Frisch, G. W. Trucks, H. B. Schlegel, G. E. Scuseria, 
 M. A. Robb, J. R. Cheeseman, G. Scalmani, V. Barone, B. Mennucci, 
 G. A. Petersson, H. Nakatsuji, M. Caricato, X. Li, H. P. Hratchian, 
 A. F. Izmaylov, J. Bloino, G. Zheng, J. L. Sonnenberg, M. Hada, 
 M. Ehara, K. Toyota, R. Fukuda, J. Hasegawa, M. Ishida, T. Nakajima, 
 Y. Honda, O. Kitao, H. Nakai, T. Vreven, J. A. Montgomery, Jr., 
 J. E. Peralta, F. Ogliaro, M. Bearpark, J. J. Heyd, E. Brothers, 
 K. N. Kudin, V. N. Staroverov, R. Kobayashi, J. Normand, 
 K. Raghavachari, A. Rendell, J. C. Burant, S. S. Iyengar, J. Tomasi, 
 M. Cossi, N. Rega, J. M. Millam, M. Klene, J. E. Knox, J. B. Cross, 
 V. Bakken, C. Adamo, J. Jaramillo, R. Gomperts, R. E. Stratmann, 
 O. Yazyev, A. J. Austin, R. Cammi, C. Pomelli, J. W. Ochterski, 
 R. L. Martin, K. Morokuma, V. G. Zakrzewski, G. A. Voth, 
 P. Salvador, J. J. Dannenberg, S. Dapprich, A. D. Daniels, 
 O. Farkas, J. B. Foresman, J. V. Ortiz, J. Cioslowski, 
 and D. J. Fox, Gaussian, Inc., Wallingford CT, 2009.
 
 ******************************************
 Gaussian 09:  EM64L-G09RevA.02 11-Jun-2009
                11-Feb-2017 
 ******************************************
 %chk=structure_120.chk
 %NProcShared=8
 Will use up to    8 processors via shared memory.
 ----------------------------------------------------------------------
 # b3lyp/6-31G* Opt=(ModRedundant, maxcycles=1000, calcfc) geom=nocrowd
 ----------------------------------------------------------------------
 1/6=1000,10=4,14=-1,18=120,19=15,26=3,38=1/1,3;
 2/9=110,12=1,17=6,18=5,40=1/2;
 3/5=1,6=6,7=1,11=2,16=1,25=1,30=1,71=2,74=-5/1,2,3;
 4//1;
 5/5=2,38=5/2;
 8/6=4,10=90,11=11/1;
 11/6=1,8=1,9=11,15=111,16=1/1,2,10;
 10/6=1,7=6,13=1/2;
 6/7=2,8=2,9=2,10=2,28=1/1;
 7/10=1,18=20,25=1/1,2,3,16;
 1/6=1000,10=4,14=-1,18=20,19=15/3(2);
 2/9=110,12=1/2;
 99//99;
 2/9=110,12=1/2;
 3/5=1,6=6,7=1,11=2,16=1,25=1,30=1,71=1,74=-5/1,2,3;
 4/5=5,16=3/1;
 5/5=2,38=5/2;
 7//1,2,3,16;
 1/6=1000,14=-1,18=20,19=15/3(-5);
 2/9=110,12=1/2;
 6/7=2,8=2,9=2,10=2,19=2,28=1/1;
 99/9=1/99;
 ------------------
 Phi Psi fixed scan
 ------------------
 Symbolic Z-matrix:
 Charge =  0 Multiplicity = 1
 H                     0.6872    3.6446    1.7047 
 C                     1.3383    3.4229    0.8591 
 H                     0.8517    3.7322   -0.0658 
 H                     1.537     2.3517    0.824 
 C                     2.6715    4.1636    0.9815 
 O                     2.893     4.8943    1.9446 
 N                     3.5554    3.9697    0. 
 H                     3.3273    3.3591   -0.7716 
 C                     4.8533    4.6139    0. 
 H                     5.4076    4.3155    0.8898 
 C                     5.6613    4.2208   -1.2322 
 H                     5.1233    4.5214   -2.1312 
 H                     6.6305    4.7189   -1.2058 
 H                     5.8085    3.1409   -1.2414 
 C                     4.7127    6.1294    0. 
 O                     4.1278    6.7016   -0.9171 
 N                     5.2518    6.7797    1.0338 
 H                     5.7229    6.2651    1.764 
 C                     5.1851    8.2226    1.1497 
 H                     4.6503    8.6321    0.2928 
 H                     4.6601    8.4901    2.0667 
 H                     6.1948    8.6324    1.1769 
 
 The following ModRedundant input section has been read:
 D    5    7    9   15 F                                                       
 D    7    9   15   17 F                                                       

 GradGradGradGradGradGradGradGradGradGradGradGradGradGradGradGradGradGrad
 Berny optimization.
 Initialization pass.
                           ----------------------------
                           !    Initial Parameters    !
                           ! (Angstroms and Degrees)  !
 --------------------------                            --------------------------
 ! Name  Definition              Value          Derivative Info.                !
 --------------------------------------------------------------------------------
 ! R1    R(1,2)                  1.09           calculate D2E/DX2 analytically  !
 ! R2    R(2,3)                  1.0899         calculate D2E/DX2 analytically  !
 ! R3    R(2,4)                  1.09           calculate D2E/DX2 analytically  !
 ! R4    R(2,5)                  1.53           calculate D2E/DX2 analytically  !
 ! R5    R(5,6)                  1.229          calculate D2E/DX2 analytically  !
 ! R6    R(5,7)                  1.335          calculate D2E/DX2 analytically  !
 ! R7    R(7,8)                  1.0101         calculate D2E/DX2 analytically  !
 ! R8    R(7,9)                  1.449          calculate D2E/DX2 analytically  !
 ! R9    R(9,10)                 1.09           calculate D2E/DX2 analytically  !
 ! R10   R(9,11)                 1.525          calculate D2E/DX2 analytically  !
 ! R11   R(9,15)                 1.522          calculate D2E/DX2 analytically  !
 ! R12   R(11,12)                1.09           calculate D2E/DX2 analytically  !
 ! R13   R(11,13)                1.09           calculate D2E/DX2 analytically  !
 ! R14   R(11,14)                1.0899         calculate D2E/DX2 analytically  !
 ! R15   R(15,16)                1.2291         calculate D2E/DX2 analytically  !
 ! R16   R(15,17)                1.335          calculate D2E/DX2 analytically  !
 ! R17   R(17,18)                1.0099         calculate D2E/DX2 analytically  !
 ! R18   R(17,19)                1.4491         calculate D2E/DX2 analytically  !
 ! R19   R(19,20)                1.0899         calculate D2E/DX2 analytically  !
 ! R20   R(19,21)                1.09           calculate D2E/DX2 analytically  !
 ! R21   R(19,22)                1.09           calculate D2E/DX2 analytically  !
 ! A1    A(1,2,3)              109.5069         calculate D2E/DX2 analytically  !
 ! A2    A(1,2,4)              109.4962         calculate D2E/DX2 analytically  !
 ! A3    A(1,2,5)              111.0979         calculate D2E/DX2 analytically  !
 ! A4    A(3,2,4)              109.4474         calculate D2E/DX2 analytically  !
 ! A5    A(3,2,5)              108.6344         calculate D2E/DX2 analytically  !
 ! A6    A(4,2,5)              108.6313         calculate D2E/DX2 analytically  !
 ! A7    A(2,5,6)              120.4998         calculate D2E/DX2 analytically  !
 ! A8    A(2,5,7)              116.6019         calculate D2E/DX2 analytically  !
 ! A9    A(6,5,7)              122.8982         calculate D2E/DX2 analytically  !
 ! A10   A(5,7,8)              119.9944         calculate D2E/DX2 analytically  !
 ! A11   A(5,7,9)              121.9035         calculate D2E/DX2 analytically  !
 ! A12   A(8,7,9)              118.102          calculate D2E/DX2 analytically  !
 ! A13   A(7,9,10)             109.5            calculate D2E/DX2 analytically  !
 ! A14   A(7,9,11)             111.0992         calculate D2E/DX2 analytically  !
 ! A15   A(7,9,15)             111.0966         calculate D2E/DX2 analytically  !
 ! A16   A(10,9,11)            108.6382         calculate D2E/DX2 analytically  !
 ! A17   A(10,9,15)            108.6373         calculate D2E/DX2 analytically  !
 ! A18   A(11,9,15)            107.7947         calculate D2E/DX2 analytically  !
 ! A19   A(9,11,12)            109.5007         calculate D2E/DX2 analytically  !
 ! A20   A(9,11,13)            109.4959         calculate D2E/DX2 analytically  !
 ! A21   A(9,11,14)            109.4978         calculate D2E/DX2 analytically  !
 ! A22   A(12,11,13)           109.441          calculate D2E/DX2 analytically  !
 ! A23   A(12,11,14)           109.4482         calculate D2E/DX2 analytically  !
 ! A24   A(13,11,14)           109.4436         calculate D2E/DX2 analytically  !
 ! A25   A(9,15,16)            120.4994         calculate D2E/DX2 analytically  !
 ! A26   A(9,15,17)            116.5978         calculate D2E/DX2 analytically  !
 ! A27   A(16,15,17)           122.9028         calculate D2E/DX2 analytically  !
 ! A28   A(15,17,18)           120.0038         calculate D2E/DX2 analytically  !
 ! A29   A(15,17,19)           121.8961         calculate D2E/DX2 analytically  !
 ! A30   A(18,17,19)           118.1001         calculate D2E/DX2 analytically  !
 ! A31   A(17,19,20)           109.5001         calculate D2E/DX2 analytically  !
 ! A32   A(17,19,21)           109.5012         calculate D2E/DX2 analytically  !
 ! A33   A(17,19,22)           109.4939         calculate D2E/DX2 analytically  !
 ! A34   A(20,19,21)           109.4435         calculate D2E/DX2 analytically  !
 ! A35   A(20,19,22)           109.4435         calculate D2E/DX2 analytically  !
 ! A36   A(21,19,22)           109.4451         calculate D2E/DX2 analytically  !
 ! D1    D(1,2,5,6)             -0.0045         calculate D2E/DX2 analytically  !
 ! D2    D(1,2,5,7)            179.9929         calculate D2E/DX2 analytically  !
 ! D3    D(3,2,5,6)            120.5139         calculate D2E/DX2 analytically  !
 ! D4    D(3,2,5,7)            -59.4887         calculate D2E/DX2 analytically  !
 ! D5    D(4,2,5,6)           -120.5077         calculate D2E/DX2 analytically  !
 ! D6    D(4,2,5,7)             59.4897         calculate D2E/DX2 analytically  !
 ! D7    D(2,5,7,8)             -0.0001         calculate D2E/DX2 analytically  !
 ! D8    D(2,5,7,9)           -179.9972         calculate D2E/DX2 analytically  !
 ! D9    D(6,5,7,8)            179.9972         calculate D2E/DX2 analytically  !
 ! D10   D(6,5,7,9)              0.0002         calculate D2E/DX2 analytically  !
 ! D11   D(5,7,9,10)            59.9992         calculate D2E/DX2 analytically  !
 ! D12   D(5,7,9,11)          -179.9982         calculate D2E/DX2 analytically  !
 ! D13   D(5,7,9,15)           -60.0006         frozen, calculate D2E/DX2 analyt!
 ! D14   D(8,7,9,10)          -119.9979         calculate D2E/DX2 analytically  !
 ! D15   D(8,7,9,11)             0.0047         calculate D2E/DX2 analytically  !
 ! D16   D(8,7,9,15)           120.0023         calculate D2E/DX2 analytically  !
 ! D17   D(7,9,11,12)           60.0024         calculate D2E/DX2 analytically  !
 ! D18   D(7,9,11,13)          179.9986         calculate D2E/DX2 analytically  !
 ! D19   D(7,9,11,14)          -60.0038         calculate D2E/DX2 analytically  !
 ! D20   D(10,9,11,12)        -179.4843         calculate D2E/DX2 analytically  !
 ! D21   D(10,9,11,13)         -59.4881         calculate D2E/DX2 analytically  !
 ! D22   D(10,9,11,14)          60.5095         calculate D2E/DX2 analytically  !
 ! D23   D(15,9,11,12)         -61.938          calculate D2E/DX2 analytically  !
 ! D24   D(15,9,11,13)          58.0582         calculate D2E/DX2 analytically  !
 ! D25   D(15,9,11,14)         178.0558         calculate D2E/DX2 analytically  !
 ! D26   D(7,9,15,16)          -59.9975         calculate D2E/DX2 analytically  !
 ! D27   D(7,9,15,17)          120.0001         frozen, calculate D2E/DX2 analyt!
 ! D28   D(10,9,15,16)         179.4914         calculate D2E/DX2 analytically  !
 ! D29   D(10,9,15,17)          -0.5109         calculate D2E/DX2 analytically  !
 ! D30   D(11,9,15,16)          61.9445         calculate D2E/DX2 analytically  !
 ! D31   D(11,9,15,17)        -118.0578         calculate D2E/DX2 analytically  !
 ! D32   D(9,15,17,18)          -0.002          calculate D2E/DX2 analytically  !
 ! D33   D(9,15,17,19)        -179.9985         calculate D2E/DX2 analytically  !
 ! D34   D(16,15,17,18)        179.9956         calculate D2E/DX2 analytically  !
 ! D35   D(16,15,17,19)         -0.0008         calculate D2E/DX2 analytically  !
 ! D36   D(15,17,19,20)         -0.0037         calculate D2E/DX2 analytically  !
 ! D37   D(15,17,19,21)        119.9984         calculate D2E/DX2 analytically  !
 ! D38   D(15,17,19,22)       -120.0013         calculate D2E/DX2 analytically  !
 ! D39   D(18,17,19,20)        179.9998         calculate D2E/DX2 analytically  !
 ! D40   D(18,17,19,21)        -59.9981         calculate D2E/DX2 analytically  !
 ! D41   D(18,17,19,22)         60.0022         calculate D2E/DX2 analytically  !
 --------------------------------------------------------------------------------
 Trust Radius=3.00D-01 FncErr=1.00D-07 GrdErr=1.00D-06
 Number of steps in this run= 132 maximum allowed number of steps= 132.
 GradGradGradGradGradGradGradGradGradGradGradGradGradGradGradGradGradGrad

                          Input orientation:                          
 ---------------------------------------------------------------------
 Center     Atomic      Atomic             Coordinates (Angstroms)
 Number     Number       Type             X           Y           Z
 ---------------------------------------------------------------------
      1          1           0        0.687200    3.644600    1.704700
      2          6           0        1.338300    3.422900    0.859100
      3          1           0        0.851700    3.732200   -0.065800
      4          1           0        1.537000    2.351700    0.824000
      5          6           0        2.671500    4.163600    0.981500
      6          8           0        2.893000    4.894300    1.944600
      7          7           0        3.555400    3.969700    0.000000
      8          1           0        3.327300    3.359100   -0.771600
      9          6           0        4.853300    4.613900    0.000000
     10          1           0        5.407600    4.315500    0.889800
     11          6           0        5.661300    4.220800   -1.232200
     12          1           0        5.123300    4.521400   -2.131200
     13          1           0        6.630500    4.718900   -1.205800
     14          1           0        5.808500    3.140900   -1.241400
     15          6           0        4.712700    6.129400    0.000000
     16          8           0        4.127800    6.701600   -0.917100
     17          7           0        5.251800    6.779700    1.033800
     18          1           0        5.722900    6.265100    1.764000
     19          6           0        5.185100    8.222600    1.149700
     20          1           0        4.650300    8.632100    0.292800
     21          1           0        4.660100    8.490100    2.066700
     22          1           0        6.194800    8.632400    1.176900
 ---------------------------------------------------------------------
                    Distance matrix (angstroms):
                    1          2          3          4          5
     1  H    0.000000
     2  C    1.090010   0.000000
     3  H    1.780282   1.089902   0.000000
     4  H    1.780276   1.090038   1.779652   0.000000
     5  C    2.174816   1.530046   2.143505   2.143567   0.000000
     6  O    2.546538   2.400088   3.091778   3.091811   1.229043
     7  N    3.352352   2.439790   2.714909   2.714929   1.334998
     8  H    3.630937   2.572814   2.601144   2.601147   2.037315
     9  C    4.604556   3.809430   4.098113   4.098094   2.434412
    10  H    4.836977   4.166159   4.691443   4.340782   2.741847
    11  C    5.805089   4.868111   4.973075   4.973062   3.720570
    12  H    5.929746   4.947203   4.809915   5.128582   3.978473
    13  H    6.704323   5.826732   5.972245   5.972225   4.557008
    14  H    5.929665   4.947152   5.128502   4.809826   3.978438
    15  C    5.028408   4.410189   4.545131   5.003505   2.999035
    16  O    5.296868   4.656831   4.502764   5.353999   3.488113
    17  N    5.578040   5.158886   5.464179   5.783679   3.674869
    18  H    5.677042   5.302986   5.787257   5.806897   3.786773
    19  C    6.441833   6.157876   6.357632   6.919695   4.777233
    20  H    6.524935   6.198855   6.210232   7.029810   4.935327
    21  H    6.276452   6.178120   6.456708   6.998429   4.883727
    22  H    7.449186   7.129199   7.355609   7.827313   5.694032
                    6          7          8          9         10
     6  O    0.000000
     7  N    2.252804   0.000000
     8  H    3.150111   1.010064   0.000000
     9  C    2.775404   1.448978   2.120982   0.000000
    10  H    2.787620   2.083739   2.828887   1.089970   0.000000
    11  C    4.267218   2.452791   2.530264   1.525027   2.139209
    12  H    4.661055   2.702720   2.534772   2.150225   3.041326
    13  H    4.891287   3.386959   3.598432   2.150214   2.459625
    14  H    4.661024   2.702673   2.534695   2.150165   2.466256
    15  C    2.935685   2.450234   3.192062   1.522008   2.136554
    16  O    3.602831   2.938025   3.440098   2.392888   3.255188
    17  N    3.154081   3.441310   4.320147   2.432742   2.473316
    18  H    3.149610   3.616437   4.540154   2.567949   2.159764
    19  C    4.118637   4.697328   5.549455   3.801923   3.922051
    20  H    4.448336   4.798178   5.539658   4.033965   4.423002
    21  H    4.008407   5.091721   6.013274   4.396988   4.401265
    22  H    5.046250   5.485645   6.310856   4.396937   4.397469
                   11         12         13         14         15
    11  C    0.000000
    12  H    1.089957   0.000000
    13  H    1.090023   1.779613   0.000000
    14  H    1.089925   1.779613   1.779617   0.000000
    15  C    2.461892   2.701161   2.668599   3.416575   0.000000
    16  O    2.933476   2.686695   3.205925   3.950760   1.229062
    17  N    3.442443   3.890200   3.341185   4.327507   1.335014
    18  H    3.627695   4.309593   3.469032   4.335941   2.037306
    19  C    4.681305   4.946413   4.462452   5.650634   2.434432
    20  H    4.775700   4.795556   4.634666   5.817944   2.520542
    21  H    5.487446   5.795472   5.367838   6.393457   3.137980
    22  H    5.054760   5.384418   4.602453   6.012818   3.137949
                   16         17         18         19         20
    16  O    0.000000
    17  N    2.252884   0.000000
    18  H    3.150107   1.009921   0.000000
    19  C    2.775425   1.449083   2.120943   0.000000
    20  H    2.337455   2.083811   2.986233   1.089944   0.000000
    21  H    3.519252   2.083857   2.484310   1.089986   1.779601
    22  H    3.519277   2.083800   2.484247   1.090032   1.779638
                   21         22
    21  H    0.000000
    22  H    1.779690   0.000000
 Stoichiometry    C6H12N2O2
 Framework group  C1[X(C6H12N2O2)]
 Deg. of freedom    60
 Full point group                 C1      NOp   1
 Largest Abelian subgroup         C1      NOp   1
 Largest concise Abelian subgroup C1      NOp   1
                         Standard orientation:                         
 ---------------------------------------------------------------------
 Center     Atomic      Atomic             Coordinates (Angstroms)
 Number     Number       Type             X           Y           Z
 ---------------------------------------------------------------------
      1          1           0       -3.512195   -1.831899    0.294740
      2          6           0       -3.208928   -0.791762    0.414177
      3          1           0       -3.225652   -0.526879    1.471269
      4          1           0       -3.897235   -0.147071   -0.132439
      5          6           0       -1.794833   -0.565061   -0.124323
      6          8           0       -1.156476   -1.495251   -0.611963
      7          7           0       -1.312069    0.676204   -0.032566
      8          1           0       -1.875262    1.408078    0.376583
      9          6           0        0.013528    1.019275   -0.506518
     10          1           0        0.084317    0.808360   -1.573542
     11          6           0        0.311538    2.497823   -0.281140
     12          1           0        0.253490    2.722472    0.783834
     13          1           0        1.312742    2.726891   -0.646198
     14          1           0       -0.418157    3.102230   -0.819817
     15          6           0        1.080765    0.213602    0.220397
     16          8           0        1.201209    0.295831    1.440776
     17          7           0        1.857135   -0.567734   -0.533940
     18          1           0        1.719632   -0.601871   -1.533874
     19          6           0        2.908919   -1.383668    0.038637
     20          1           0        2.933394   -1.240261    1.118829
     21          1           0        2.717023   -2.433326   -0.183770
     22          1           0        3.868639   -1.091915   -0.387964
 ---------------------------------------------------------------------
 Rotational constants (GHZ):      1.8680047      0.9457976      0.7385266
 Standard basis: 6-31G(d) (6D, 7F)
 There are   174 symmetry adapted basis functions of A   symmetry.
 Integral buffers will be    131072 words long.
 Raffenetti 2 integral format.
 Two-electron integral symmetry is turned on.
   174 basis functions,   328 primitive gaussians,   174 cartesian basis functions
    39 alpha electrons       39 beta electrons
       nuclear repulsion energy       565.1858608548 Hartrees.
 NAtoms=   22 NActive=   22 NUniq=   22 SFac= 7.50D-01 NAtFMM=   80 NAOKFM=F Big=F
 One-electron integrals computed using PRISM.
 NBasis=   174 RedAO= T  NBF=   174
 NBsUse=   174 1.00D-06 NBFU=   174
 Harris functional with IExCor=  402 diagonalized for initial guess.
 ExpMin= 1.61D-01 ExpMax= 5.48D+03 ExpMxC= 8.25D+02 IAcc=1 IRadAn=         1 AccDes= 0.00D+00
 HarFok:  IExCor=  402 AccDes= 0.00D+00 IRadAn=         1 IDoV= 1
 ScaDFX=  1.000000  1.000000  1.000000  1.000000
 FoFCou: FMM=F IPFlag=           0 FMFlag=      100000 FMFlg1=           0
         NFxFlg=           0 DoJE=T BraDBF=F KetDBF=T FulRan=T
         Omega=  0.000000  0.000000  1.000000  0.000000  0.000000 ICntrl=     500 IOpCl=  0
         NMat0=    1 NMatS0=    1 NMatT0=    0 NMatD0=    1 NMtDS0=    0 NMtDT0=    0
         I1Cent=           4 NGrid=           0.
 Petite list used in FoFCou.
 Initial guess orbital symmetries:
       Occupied  (A) (A) (A) (A) (A) (A) (A) (A) (A) (A) (A) (A)
                 (A) (A) (A) (A) (A) (A) (A) (A) (A) (A) (A) (A)
                 (A) (A) (A) (A) (A) (A) (A) (A) (A) (A) (A) (A)
                 (A) (A) (A)
       Virtual   (A) (A) (A) (A) (A) (A) (A) (A) (A) (A) (A) (A)
                 (A) (A) (A) (A) (A) (A) (A) (A) (A) (A) (A) (A)
                 (A) (A) (A) (A) (A) (A) (A) (A) (A) (A) (A) (A)
                 (A) (A) (A) (A) (A) (A) (A) (A) (A) (A) (A) (A)
                 (A) (A) (A) (A) (A) (A) (A) (A) (A) (A) (A) (A)
                 (A) (A) (A) (A) (A) (A) (A) (A) (A) (A) (A) (A)
                 (A) (A) (A) (A) (A) (A) (A) (A) (A) (A) (A) (A)
                 (A) (A) (A) (A) (A) (A) (A) (A) (A) (A) (A) (A)
                 (A) (A) (A) (A) (A) (A) (A) (A) (A) (A) (A) (A)
                 (A) (A) (A) (A) (A) (A) (A) (A) (A) (A) (A) (A)
                 (A) (A) (A) (A) (A) (A) (A) (A) (A) (A) (A) (A)
                 (A) (A) (A)
 The electronic state of the initial guess is 1-A.
 Requested convergence on RMS density matrix=1.00D-08 within 128 cycles.
 Requested convergence on MAX density matrix=1.00D-06.
 Requested convergence on             energy=1.00D-06.
 No special actions if energy rises.
 Integral accuracy reduced to 1.0D-05 until final iterations.
 Initial convergence to 1.0D-05 achieved.  Increase integral accuracy.
 SCF Done:  E(RB3LYP) =  -495.842219065     A.U. after   15 cycles
             Convg  =    0.6068D-08             -V/T =  2.0088
 Range of M.O.s used for correlation:     1   174
 NBasis=   174 NAE=    39 NBE=    39 NFC=     0 NFV=     0
 NROrb=    174 NOA=    39 NOB=    39 NVA=   135 NVB=   135
 Symmetrizing basis deriv contribution to polar:
 IMax=3 JMax=2 DiffMx= 0.00D+00
 G2DrvN: will do    23 centers at a time, making    1 passes doing MaxLOS=2.
 Calling FoFCou, ICntrl=  3107 FMM=F I1Cent=   0 AccDes= 0.00D+00.
 FoFDir/FoFCou used for L=0 through L=2.
 End of G2Drv Frequency-dependent properties file   721 does not exist.
 End of G2Drv Frequency-dependent properties file   722 does not exist.
          IDoAtm=1111111111111111111111
          Differentiating once with respect to nuclear coordinates.
          There are    69 degrees of freedom in the 1st order CPHF.  IDoFFX=5.
     63 vectors produced by pass  0 Test12= 7.63D-11 1.45D-07 XBig12= 1.91D-01 7.54D-02.
 AX will form    63 AO Fock derivatives at one time.
     63 vectors produced by pass  1 Test12= 7.63D-11 1.45D-07 XBig12= 5.84D-02 7.04D-02.
     63 vectors produced by pass  2 Test12= 7.63D-11 1.45D-07 XBig12= 4.34D-05 1.16D-03.
     63 vectors produced by pass  3 Test12= 7.63D-11 1.45D-07 XBig12= 1.56D-07 6.87D-05.
     25 vectors produced by pass  4 Test12= 7.63D-11 1.45D-07 XBig12= 1.61D-10 1.12D-06.
 Inverted reduced A of dimension   277 with in-core refinement.
 End of Minotr Frequency-dependent properties file   721 does not exist.
 End of Minotr Frequency-dependent properties file   722 does not exist.

 **********************************************************************

            Population analysis using the SCF density.

 **********************************************************************

 Orbital symmetries:
       Occupied  (A) (A) (A) (A) (A) (A) (A) (A) (A) (A) (A) (A)
                 (A) (A) (A) (A) (A) (A) (A) (A) (A) (A) (A) (A)
                 (A) (A) (A) (A) (A) (A) (A) (A) (A) (A) (A) (A)
                 (A) (A) (A)
       Virtual   (A) (A) (A) (A) (A) (A) (A) (A) (A) (A) (A) (A)
                 (A) (A) (A) (A) (A) (A) (A) (A) (A) (A) (A) (A)
                 (A) (A) (A) (A) (A) (A) (A) (A) (A) (A) (A) (A)
                 (A) (A) (A) (A) (A) (A) (A) (A) (A) (A) (A) (A)
                 (A) (A) (A) (A) (A) (A) (A) (A) (A) (A) (A) (A)
                 (A) (A) (A) (A) (A) (A) (A) (A) (A) (A) (A) (A)
                 (A) (A) (A) (A) (A) (A) (A) (A) (A) (A) (A) (A)
                 (A) (A) (A) (A) (A) (A) (A) (A) (A) (A) (A) (A)
                 (A) (A) (A) (A) (A) (A) (A) (A) (A) (A) (A) (A)
                 (A) (A) (A) (A) (A) (A) (A) (A) (A) (A) (A) (A)
                 (A) (A) (A) (A) (A) (A) (A) (A) (A) (A) (A) (A)
                 (A) (A) (A)
 The electronic state is 1-A.
 Alpha  occ. eigenvalues --  -19.10083 -19.09399 -14.36148 -14.35481 -10.27923
 Alpha  occ. eigenvalues --  -10.26997 -10.23439 -10.20838 -10.19081 -10.18580
 Alpha  occ. eigenvalues --   -1.02939  -1.01606  -0.92666  -0.91482  -0.78682
 Alpha  occ. eigenvalues --   -0.72646  -0.71001  -0.64204  -0.59692  -0.57829
 Alpha  occ. eigenvalues --   -0.52581  -0.50134  -0.47352  -0.45459  -0.44589
 Alpha  occ. eigenvalues --   -0.44067  -0.41690  -0.41534  -0.39283  -0.38911
 Alpha  occ. eigenvalues --   -0.38633  -0.38096  -0.37501  -0.35360  -0.34404
 Alpha  occ. eigenvalues --   -0.26193  -0.24638  -0.23391  -0.23233
 Alpha virt. eigenvalues --    0.03305   0.04251   0.07467   0.08344   0.12160
 Alpha virt. eigenvalues --    0.13060   0.13978   0.14941   0.15136   0.16544
 Alpha virt. eigenvalues --    0.17198   0.17545   0.17855   0.19304   0.20028
 Alpha virt. eigenvalues --    0.21666   0.24031   0.25464   0.27254   0.33132
 Alpha virt. eigenvalues --    0.35872   0.39328   0.43585   0.50584   0.51117
 Alpha virt. eigenvalues --    0.52156   0.53545   0.54791   0.55662   0.57117
 Alpha virt. eigenvalues --    0.57891   0.59219   0.61296   0.62903   0.65198
 Alpha virt. eigenvalues --    0.68457   0.69307   0.70829   0.72925   0.76082
 Alpha virt. eigenvalues --    0.77079   0.78051   0.79075   0.81755   0.83415
 Alpha virt. eigenvalues --    0.85034   0.86638   0.87582   0.88053   0.88577
 Alpha virt. eigenvalues --    0.88836   0.90066   0.91015   0.92861   0.93177
 Alpha virt. eigenvalues --    0.94010   0.95516   0.95878   0.97451   1.02841
 Alpha virt. eigenvalues --    1.04257   1.07646   1.12261   1.15835   1.17250
 Alpha virt. eigenvalues --    1.19496   1.23230   1.27331   1.32311   1.34497
 Alpha virt. eigenvalues --    1.35814   1.39324   1.45052   1.46042   1.47538
 Alpha virt. eigenvalues --    1.53829   1.57055   1.59078   1.64592   1.67264
 Alpha virt. eigenvalues --    1.72441   1.77032   1.79920   1.81347   1.84197
 Alpha virt. eigenvalues --    1.84370   1.86176   1.88830   1.90752   1.94717
 Alpha virt. eigenvalues --    1.96748   1.97984   1.98620   2.02531   2.04714
 Alpha virt. eigenvalues --    2.05893   2.07648   2.12460   2.16396   2.17347
 Alpha virt. eigenvalues --    2.19106   2.22962   2.25761   2.29191   2.30885
 Alpha virt. eigenvalues --    2.31362   2.31796   2.37220   2.37712   2.40318
 Alpha virt. eigenvalues --    2.45611   2.51992   2.53448   2.59052   2.66414
 Alpha virt. eigenvalues --    2.68948   2.71057   2.72712   2.75460   2.90963
 Alpha virt. eigenvalues --    2.92069   2.97960   3.01233   3.17589   3.19885
 Alpha virt. eigenvalues --    3.93681   4.02895   4.05228   4.19355   4.23826
 Alpha virt. eigenvalues --    4.25614   4.32590   4.43918   4.48305   4.67485
          Condensed to atoms (all electrons):
              1          2          3          4          5          6
     1  H    0.501356   0.361000  -0.020782  -0.021775  -0.017560   0.004980
     2  C    0.361000   5.346472   0.352485   0.347501   0.349388  -0.083234
     3  H   -0.020782   0.352485   0.544599  -0.027162  -0.026150   0.001270
     4  H   -0.021775   0.347501  -0.027162   0.559852  -0.024513   0.001611
     5  C   -0.017560   0.349388  -0.026150  -0.024513   4.318444   0.607962
     6  O    0.004980  -0.083234   0.001270   0.001611   0.607962   8.074363
     7  N    0.004464  -0.137660   0.004442   0.004311   0.229307  -0.105701
     8  H   -0.000143   0.000140   0.000763   0.001030  -0.018360   0.003598
     9  C   -0.000157   0.008151  -0.000076  -0.000286  -0.023457   0.010160
    10  H    0.000002   0.000146  -0.000002  -0.000014  -0.001696   0.004033
    11  C    0.000002  -0.000175  -0.000009  -0.000014   0.006278   0.000748
    12  H    0.000000  -0.000012   0.000000   0.000001   0.000049  -0.000014
    13  H    0.000000   0.000004   0.000000   0.000000  -0.000023   0.000005
    14  H    0.000000  -0.000006   0.000000   0.000000  -0.000171  -0.000003
    15  C    0.000006  -0.000255  -0.000014   0.000015   0.001567   0.007053
    16  O    0.000000  -0.000035   0.000021   0.000000   0.001746  -0.000757
    17  N    0.000000  -0.000031   0.000002   0.000000   0.000639  -0.003212
    18  H    0.000000   0.000009   0.000000   0.000000   0.000024   0.001265
    19  C    0.000000   0.000000   0.000000   0.000000  -0.000029  -0.000073
    20  H    0.000000   0.000000   0.000000   0.000000  -0.000012  -0.000006
    21  H    0.000000   0.000001   0.000000   0.000000   0.000005   0.000163
    22  H    0.000000   0.000000   0.000000   0.000000   0.000000  -0.000002
              7          8          9         10         11         12
     1  H    0.004464  -0.000143  -0.000157   0.000002   0.000002   0.000000
     2  C   -0.137660   0.000140   0.008151   0.000146  -0.000175  -0.000012
     3  H    0.004442   0.000763  -0.000076  -0.000002  -0.000009   0.000000
     4  H    0.004311   0.001030  -0.000286  -0.000014  -0.000014   0.000001
     5  C    0.229307  -0.018360  -0.023457  -0.001696   0.006278   0.000049
     6  O   -0.105701   0.003598   0.010160   0.004033   0.000748  -0.000014
     7  N    7.157145   0.303448   0.261959  -0.053730  -0.042189  -0.001989
     8  H    0.303448   0.410693  -0.035086   0.003525  -0.002428   0.001964
     9  C    0.261959  -0.035086   5.062230   0.358715   0.343017  -0.034767
    10  H   -0.053730   0.003525   0.358715   0.634351  -0.042205   0.006243
    11  C   -0.042189  -0.002428   0.343017  -0.042205   5.157648   0.366911
    12  H   -0.001989   0.001964  -0.034767   0.006243   0.366911   0.528365
    13  H    0.003623  -0.000028  -0.027810  -0.000785   0.372226  -0.021629
    14  H   -0.002074   0.002558  -0.032927  -0.005973   0.364855  -0.031487
    15  C   -0.058070   0.001648   0.304729  -0.055364  -0.033975  -0.007494
    16  O    0.002129  -0.000196  -0.087715   0.004048  -0.003907   0.010882
    17  N    0.000611  -0.000170  -0.103701   0.006933  -0.000828   0.000803
    18  H   -0.000036   0.000002   0.000236   0.005494   0.000005  -0.000026
    19  C   -0.000133   0.000005   0.006724  -0.000240  -0.000209  -0.000001
    20  H   -0.000009   0.000000   0.001225  -0.000071  -0.000012  -0.000019
    21  H    0.000011   0.000000  -0.000154  -0.000006  -0.000006   0.000000
    22  H   -0.000002   0.000000  -0.000179  -0.000031   0.000039   0.000000
             13         14         15         16         17         18
     1  H    0.000000   0.000000   0.000006   0.000000   0.000000   0.000000
     2  C    0.000004  -0.000006  -0.000255  -0.000035  -0.000031   0.000009
     3  H    0.000000   0.000000  -0.000014   0.000021   0.000002   0.000000
     4  H    0.000000   0.000000   0.000015   0.000000   0.000000   0.000000
     5  C   -0.000023  -0.000171   0.001567   0.001746   0.000639   0.000024
     6  O    0.000005  -0.000003   0.007053  -0.000757  -0.003212   0.001265
     7  N    0.003623  -0.002074  -0.058070   0.002129   0.000611  -0.000036
     8  H   -0.000028   0.002558   0.001648  -0.000196  -0.000170   0.000002
     9  C   -0.027810  -0.032927   0.304729  -0.087715  -0.103701   0.000236
    10  H   -0.000785  -0.005973  -0.055364   0.004048   0.006933   0.005494
    11  C    0.372226   0.364855  -0.033975  -0.003907  -0.000828   0.000005
    12  H   -0.021629  -0.031487  -0.007494   0.010882   0.000803  -0.000026
    13  H    0.537652  -0.026376  -0.002743  -0.000376   0.001584   0.000021
    14  H   -0.026376   0.577307   0.005766   0.000162  -0.000120  -0.000032
    15  C   -0.002743   0.005766   4.395858   0.585568   0.258774  -0.015919
    16  O   -0.000376   0.000162   0.585568   8.119150  -0.100701   0.003648
    17  N    0.001584  -0.000120   0.258774  -0.100701   7.062848   0.301555
    18  H    0.000021  -0.000032  -0.015919   0.003648   0.301555   0.405918
    19  C   -0.000064   0.000005  -0.027625  -0.010039   0.270499  -0.032694
    20  H   -0.000005   0.000000  -0.000908   0.022268  -0.037112   0.003838
    21  H    0.000002   0.000000   0.002154   0.000567  -0.043861  -0.000632
    22  H   -0.000011   0.000000   0.001200   0.000619  -0.044079  -0.000889
             19         20         21         22
     1  H    0.000000   0.000000   0.000000   0.000000
     2  C    0.000000   0.000000   0.000001   0.000000
     3  H    0.000000   0.000000   0.000000   0.000000
     4  H    0.000000   0.000000   0.000000   0.000000
     5  C   -0.000029  -0.000012   0.000005   0.000000
     6  O   -0.000073  -0.000006   0.000163  -0.000002
     7  N   -0.000133  -0.000009   0.000011  -0.000002
     8  H    0.000005   0.000000   0.000000   0.000000
     9  C    0.006724   0.001225  -0.000154  -0.000179
    10  H   -0.000240  -0.000071  -0.000006  -0.000031
    11  C   -0.000209  -0.000012  -0.000006   0.000039
    12  H   -0.000001  -0.000019   0.000000   0.000000
    13  H   -0.000064  -0.000005   0.000002  -0.000011
    14  H    0.000005   0.000000   0.000000   0.000000
    15  C   -0.027625  -0.000908   0.002154   0.001200
    16  O   -0.010039   0.022268   0.000567   0.000619
    17  N    0.270499  -0.037112  -0.043861  -0.044079
    18  H   -0.032694   0.003838  -0.000632  -0.000889
    19  C    4.968316   0.375708   0.382355   0.380370
    20  H    0.375708   0.476589  -0.023548  -0.024950
    21  H    0.382355  -0.023548   0.555709  -0.039486
    22  H    0.380370  -0.024950  -0.039486   0.576809
 Mulliken atomic charges:
              1
     1  H    0.188608
     2  C   -0.543888
     3  H    0.170615
     4  H    0.159442
     5  C    0.596564
     6  O   -0.524208
     7  N   -0.569859
     8  H    0.327039
     9  C   -0.010831
    10  H    0.136627
    11  C   -0.485771
    12  H    0.182218
    13  H    0.164732
    14  H    0.148518
    15  C    0.638031
    16  O   -0.547085
    17  N   -0.570433
    18  H    0.328216
    19  C   -0.312875
    20  H    0.207021
    21  H    0.166728
    22  H    0.150592
 Sum of Mulliken atomic charges =   0.00000
 Mulliken charges with hydrogens summed into heavy atoms:
              1
     2  C   -0.025223
     5  C    0.596564
     6  O   -0.524208
     7  N   -0.242821
     9  C    0.125796
    11  C    0.009697
    15  C    0.638031
    16  O   -0.547085
    17  N   -0.242218
    19  C    0.211466
 Sum of Mulliken charges with hydrogens summed into heavy atoms =   0.00000
 APT atomic charges:
              1
     1  H    0.591355
     2  C   -1.258091
     3  H    0.352896
     4  H    0.489069
     5  C    0.192276
     6  O   -0.397279
     7  N   -0.752345
     8  H    0.668992
     9  C   -0.326791
    10  H    0.352510
    11  C   -1.259028
    12  H    0.370400
    13  H    0.461156
    14  H    0.482218
    15  C   -0.041323
    16  O   -0.227119
    17  N   -0.399821
    18  H    0.544174
    19  C   -1.310138
    20  H    0.401513
    21  H    0.452043
    22  H    0.613332
 Sum of APT charges=   0.00000
 APT Atomic charges with hydrogens summed into heavy atoms:
              1
     1  H    0.000000
     2  C    0.175229
     3  H    0.000000
     4  H    0.000000
     5  C    0.192276
     6  O   -0.397279
     7  N   -0.083353
     8  H    0.000000
     9  C    0.025719
    10  H    0.000000
    11  C    0.054747
    12  H    0.000000
    13  H    0.000000
    14  H    0.000000
    15  C   -0.041323
    16  O   -0.227119
    17  N    0.144354
    18  H    0.000000
    19  C    0.156750
    20  H    0.000000
    21  H    0.000000
    22  H    0.000000
 Sum of APT charges=   0.00000
 Electronic spatial extent (au):  <R**2>=           1682.6020
 Charge=              0.0000 electrons
 Dipole moment (field-independent basis, Debye):
    X=             -0.5822    Y=              2.3315    Z=             -2.1655  Tot=              3.2349
 Quadrupole moment (field-independent basis, Debye-Ang):
   XX=            -49.4897   YY=            -59.2771   ZZ=            -62.1923
   XY=             -6.1513   XZ=             -7.1953   YZ=             -2.2959
 Traceless Quadrupole moment (field-independent basis, Debye-Ang):
   XX=              7.4967   YY=             -2.2907   ZZ=             -5.2059
   XY=             -6.1513   XZ=             -7.1953   YZ=             -2.2959
 Octapole moment (field-independent basis, Debye-Ang**2):
  XXX=             -3.2927  YYY=              5.0743  ZZZ=             -9.1565  XYY=              4.1095
  XXY=             -7.6239  XXZ=             -1.7069  XZZ=             -0.1192  YZZ=             -2.9089
  YYZ=              4.4914  XYZ=              0.6366
 Hexadecapole moment (field-independent basis, Debye-Ang**3):
 XXXX=          -1258.9178 YYYY=           -637.3537 ZZZZ=           -204.6255 XXXY=            -16.2930
 XXXZ=             -4.2157 YYYX=            -14.3546 YYYZ=              2.0601 ZZZX=            -13.1774
 ZZZY=              5.0390 XXYY=           -307.2934 XXZZ=           -254.6864 YYZZ=           -141.0339
 XXYZ=             -1.6090 YYXZ=             -5.8821 ZZXY=             -7.5740
 N-N= 5.651858608548D+02 E-N=-2.286990362048D+03  KE= 4.915006495749D+02
  Exact polarizability:   0.000   0.000   0.000   0.000   0.000   0.000
 Approx polarizability: 105.886 -11.322 116.820  -9.429  13.806 111.798
 Calling FoFJK, ICntrl=    100147 FMM=F ISym2X=0 I1Cent= 0 IOpClX= 0 NMat=1 NMatS=1 NMatT=0.
 ***** Axes restored to original set *****
 -------------------------------------------------------------------
 Center     Atomic                   Forces (Hartrees/Bohr)
 Number     Number              X              Y              Z
 -------------------------------------------------------------------
      1        1           0.003138749    0.002042671    0.000795054
      2        6           0.009539041    0.001458597   -0.004949493
      3        1          -0.004679463   -0.002225917   -0.003578516
      4        1          -0.003560036   -0.005351678   -0.001828863
      5        6          -0.028146662    0.006451876    0.030447999
      6        8           0.006585660    0.000518321   -0.000986706
      7        7           0.015114355   -0.007747155   -0.019134269
      8        1          -0.000616712    0.001053609   -0.001023219
      9        6           0.008324745    0.000853559   -0.000152360
     10        1           0.000660861   -0.003964965    0.006045848
     11        6          -0.005664630   -0.004462222    0.002129256
     12        1           0.000536380    0.002182600   -0.002943426
     13        1           0.002467660   -0.000199337   -0.001861279
     14        1           0.003170890   -0.003991431   -0.002094105
     15        6          -0.018937542    0.003578354   -0.012806510
     16        8          -0.000601280   -0.001642388   -0.004046855
     17        7           0.013093153    0.008637799    0.008765234
     18        1          -0.004071463   -0.000900692    0.001055780
     19        6           0.002419711   -0.001081905    0.003176948
     20        1          -0.000171707   -0.003306833   -0.000566489
     21        1          -0.001637824    0.003271166    0.002891122
     22        1           0.003036115    0.004825968    0.000664850
 -------------------------------------------------------------------
 Cartesian Forces:  Max     0.030447999 RMS     0.007678769

 GradGradGradGradGradGradGradGradGradGradGradGradGradGradGradGradGradGrad
 Berny optimization.
 Internal  Forces:  Max     0.026388803 RMS     0.004882633
 Search for a local minimum.
 Step number   1 out of a maximum of  132
 All quantities printed in internal units (Hartrees-Bohrs-Radians)
 Mixed Optimization -- RFO/linear search
 Second derivative matrix not updated -- analytic derivatives used.
     Eigenvalues ---   -0.00063  -0.00025   0.00110   0.00290   0.00334
     Eigenvalues ---    0.01625   0.01859   0.02408   0.03921   0.04087
     Eigenvalues ---    0.04668   0.04905   0.05290   0.05391   0.05823
     Eigenvalues ---    0.05993   0.06409   0.06582   0.11959   0.12221
     Eigenvalues ---    0.12486   0.12909   0.13197   0.13277   0.13375
     Eigenvalues ---    0.14054   0.14291   0.16973   0.17593   0.17934
     Eigenvalues ---    0.18457   0.20976   0.21173   0.22131   0.23519
     Eigenvalues ---    0.24598   0.24925   0.30813   0.32571   0.33943
     Eigenvalues ---    0.34534   0.34594   0.34997   0.35076   0.35122
     Eigenvalues ---    0.35307   0.35514   0.35875   0.35910   0.36121
     Eigenvalues ---    0.39078   0.39427   0.46767   0.47038   0.52856
     Eigenvalues ---    0.54221   0.82690   0.829321000.000001000.00000
     Eigenvalues --- 1000.000001000.000001000.000001000.000001000.00000
     Eigenvalues --- 1000.000001000.000001000.000001000.000001000.00000
     Eigenvalues --- 1000.000001000.000001000.000001000.000001000.00000
     Eigenvalues --- 1000.000001000.000001000.000001000.000001000.00000
     Eigenvalues --- 1000.000001000.000001000.000001000.000001000.00000
     Eigenvalues --- 1000.000001000.000001000.000001000.000001000.00000
     Eigenvalues --- 1000.000001000.000001000.000001000.000001000.00000
     Eigenvalues --- 1000.000001000.000001000.00000
 RFO step:  Lambda=-8.66604775D-03 EMin=-6.30650221D-04
 Linear search not attempted -- first point.
 Maximum step size (   0.300) exceeded in Quadratic search.
    -- Step size scaled by   0.305
 Iteration  1 RMS(Cart)=  0.04811364 RMS(Int)=  0.00212169
 Iteration  2 RMS(Cart)=  0.00222569 RMS(Int)=  0.00010254
 Iteration  3 RMS(Cart)=  0.00000354 RMS(Int)=  0.00010251
 Iteration  4 RMS(Cart)=  0.00000000 RMS(Int)=  0.00010251
 Iteration  1 RMS(Cart)=  0.00000407 RMS(Int)=  0.00000100
 Iteration  2 RMS(Cart)=  0.00000217 RMS(Int)=  0.00000111
 Iteration  3 RMS(Cart)=  0.00000117 RMS(Int)=  0.00000125
 Iteration  4 RMS(Cart)=  0.00000064 RMS(Int)=  0.00000135
 Variable       Old X    -DE/DX   Delta X   Delta X   Delta X     New X
                                 (Linear)    (Quad)   (Total)
    R1        2.05982  -0.00084   0.00000   0.00020   0.00020   2.06002
    R2        2.05962   0.00449   0.00000   0.00366   0.00366   2.06327
    R3        2.05987   0.00467   0.00000   0.00339   0.00339   2.06326
    R4        2.89137  -0.00113   0.00000  -0.00473  -0.00473   2.88663
    R5        2.32255   0.00072   0.00000  -0.00126  -0.00126   2.32130
    R6        2.52278   0.02639   0.00000   0.01604   0.01604   2.53882
    R7        1.90874   0.00028   0.00000  -0.00004  -0.00004   1.90870
    R8        2.73817   0.00404   0.00000   0.00408   0.00408   2.74225
    R9        2.05975   0.00636   0.00000   0.00453   0.00453   2.06428
   R10        2.88188   0.00580   0.00000   0.00257   0.00257   2.88446
   R11        2.87618   0.01395   0.00000   0.01342   0.01342   2.88960
   R12        2.05972   0.00277   0.00000   0.00251   0.00251   2.06223
   R13        2.05984   0.00206   0.00000   0.00223   0.00223   2.06207
   R14        2.05966   0.00440   0.00000   0.00330   0.00330   2.06296
   R15        2.32259   0.00254   0.00000  -0.00137  -0.00137   2.32122
   R16        2.52281   0.02308   0.00000   0.01178   0.01178   2.53459
   R17        1.90847  -0.00068   0.00000  -0.00048  -0.00048   1.90799
   R18        2.73837   0.00401   0.00000   0.00079   0.00079   2.73916
   R19        2.05970  -0.00072   0.00000   0.00051   0.00051   2.06020
   R20        2.05978   0.00403   0.00000   0.00400   0.00400   2.06378
   R21        2.05986   0.00464   0.00000   0.00302   0.00302   2.06289
    A1        1.91126  -0.00007   0.00000  -0.00347  -0.00349   1.90777
    A2        1.91107  -0.00023   0.00000   0.00063   0.00067   1.91174
    A3        1.93902  -0.00784   0.00000  -0.01240  -0.01239   1.92663
    A4        1.91022  -0.00503   0.00000  -0.00786  -0.00793   1.90228
    A5        1.89603   0.00628   0.00000   0.00364   0.00360   1.89963
    A6        1.89597   0.00694   0.00000   0.01958   0.01957   1.91555
    A7        2.10312   0.01067   0.00000   0.01321   0.01320   2.11632
    A8        2.03509  -0.00640   0.00000  -0.00640  -0.00640   2.02869
    A9        2.14498  -0.00427   0.00000  -0.00681  -0.00682   2.13816
   A10        2.09430  -0.00077   0.00000   0.00037   0.00023   2.09452
   A11        2.12762   0.00165   0.00000  -0.00137  -0.00151   2.12610
   A12        2.06127  -0.00088   0.00000   0.00100   0.00086   2.06212
   A13        1.91114  -0.00048   0.00000  -0.00652  -0.00650   1.90463
   A14        1.93905  -0.00392   0.00000  -0.00684  -0.00684   1.93220
   A15        1.93900   0.00012   0.00000  -0.00277  -0.00275   1.93625
   A16        1.89609   0.00093   0.00000   0.00477   0.00471   1.90081
   A17        1.89608   0.00103   0.00000   0.00561   0.00557   1.90165
   A18        1.88137   0.00248   0.00000   0.00638   0.00635   1.88772
   A19        1.91115   0.00072   0.00000   0.00141   0.00140   1.91255
   A20        1.91106   0.00199   0.00000   0.00409   0.00408   1.91515
   A21        1.91110   0.00415   0.00000   0.00689   0.00687   1.91797
   A22        1.91011  -0.00235   0.00000  -0.00724  -0.00724   1.90287
   A23        1.91023  -0.00134   0.00000   0.00075   0.00073   1.91096
   A24        1.91015  -0.00318   0.00000  -0.00591  -0.00593   1.90423
   A25        2.10311  -0.00213   0.00000   0.00024   0.00021   2.10332
   A26        2.03502  -0.00348   0.00000  -0.00642  -0.00645   2.02856
   A27        2.14506   0.00561   0.00000   0.00617   0.00614   2.15120
   A28        2.09446  -0.00360   0.00000  -0.00873  -0.00925   2.08522
   A29        2.12749   0.00516   0.00000   0.00488   0.00436   2.13185
   A30        2.06124  -0.00156   0.00000   0.00385   0.00332   2.06455
   A31        1.91114  -0.00660   0.00000  -0.01077  -0.01076   1.90038
   A32        1.91116   0.00358   0.00000   0.00998   0.00996   1.92112
   A33        1.91103   0.00552   0.00000   0.00526   0.00524   1.91627
   A34        1.91015   0.00029   0.00000  -0.00345  -0.00343   1.90672
   A35        1.91015   0.00002   0.00000   0.00144   0.00145   1.91160
   A36        1.91018  -0.00282   0.00000  -0.00246  -0.00250   1.90767
    D1       -0.00008   0.00034   0.00000  -0.09119  -0.09123  -0.09131
    D2        3.14147  -0.00026   0.00000  -0.08481  -0.08482   3.05665
    D3        2.10336  -0.00054   0.00000  -0.10080  -0.10084   2.00252
    D4       -1.03827  -0.00114   0.00000  -0.09442  -0.09443  -1.13270
    D5       -2.10326   0.00099   0.00000  -0.09695  -0.09693  -2.20018
    D6        1.03829   0.00039   0.00000  -0.09057  -0.09051   0.94778
    D7        0.00000  -0.00058   0.00000  -0.00061  -0.00059  -0.00060
    D8       -3.14154  -0.00063   0.00000  -0.03288  -0.03286   3.10879
    D9        3.14154  -0.00119   0.00000   0.00594   0.00591  -3.13573
   D10        0.00000  -0.00124   0.00000  -0.02634  -0.02636  -0.02635
   D11        1.04718  -0.00054   0.00000   0.00099   0.00098   1.04817
   D12       -3.14156  -0.00217   0.00000  -0.00163  -0.00162   3.14000
   D13       -1.04721  -0.00159   0.00000   0.00000   0.00000  -1.04721
   D14       -2.09436  -0.00059   0.00000  -0.03069  -0.03070  -2.12506
   D15        0.00008  -0.00222   0.00000  -0.03332  -0.03331  -0.03323
   D16        2.09444  -0.00163   0.00000  -0.03169  -0.03169   2.06275
   D17        1.04724   0.00169   0.00000   0.01168   0.01168   1.05892
   D18        3.14157   0.00047   0.00000   0.00618   0.00618  -3.13544
   D19       -1.04726   0.00034   0.00000   0.00567   0.00567  -1.04160
   D20       -3.13259  -0.00073   0.00000   0.00246   0.00245  -3.13014
   D21       -1.03826  -0.00195   0.00000  -0.00304  -0.00306  -1.04132
   D22        1.05609  -0.00207   0.00000  -0.00355  -0.00356   1.05253
   D23       -1.08102   0.00235   0.00000   0.01517   0.01519  -1.06583
   D24        1.01331   0.00113   0.00000   0.00967   0.00968   1.02299
   D25        3.10766   0.00100   0.00000   0.00916   0.00917   3.11684
   D26       -1.04715  -0.00012   0.00000  -0.01480  -0.01478  -1.06193
   D27        2.09440   0.00199   0.00000   0.00000   0.00000   2.09440
   D28        3.13272  -0.00026   0.00000  -0.00864  -0.00861   3.12410
   D29       -0.00892   0.00184   0.00000   0.00616   0.00616  -0.00276
   D30        1.08113  -0.00327   0.00000  -0.02081  -0.02081   1.06033
   D31       -2.06050  -0.00117   0.00000  -0.00601  -0.00603  -2.06653
   D32       -0.00004  -0.00340   0.00000  -0.06211  -0.06199  -0.06203
   D33       -3.14157  -0.00181   0.00000  -0.00073  -0.00088   3.14074
   D34        3.14152  -0.00124   0.00000  -0.04692  -0.04677   3.09475
   D35       -0.00001   0.00035   0.00000   0.01446   0.01434   0.01433
   D36       -0.00006  -0.00054   0.00000  -0.08283  -0.08291  -0.08297
   D37        2.09437  -0.00203   0.00000  -0.08755  -0.08766   2.00671
   D38       -2.09442   0.00009   0.00000  -0.08122  -0.08127  -2.17569
   D39        3.14159   0.00102   0.00000  -0.02257  -0.02249   3.11910
   D40       -1.04716  -0.00047   0.00000  -0.02729  -0.02724  -1.07440
   D41        1.04724   0.00165   0.00000  -0.02096  -0.02085   1.02638
         Item               Value     Threshold  Converged?
 Maximum Force            0.026389     0.000450     NO 
 RMS     Force            0.004919     0.000300     NO 
 Maximum Displacement     0.204536     0.001800     NO 
 RMS     Displacement     0.048299     0.001200     NO 
 Predicted change in Energy=-2.439037D-03
 GradGradGradGradGradGradGradGradGradGradGradGradGradGradGradGradGradGrad

                          Input orientation:                          
 ---------------------------------------------------------------------
 Center     Atomic      Atomic             Coordinates (Angstroms)
 Number     Number       Type             X           Y           Z
 ---------------------------------------------------------------------
      1          1           0        0.734846    3.588341    1.753927
      2          6           0        1.343178    3.433657    0.862659
      3          1           0        0.817960    3.833948   -0.006835
      4          1           0        1.510385    2.364752    0.715764
      5          6           0        2.684247    4.151540    1.002522
      6          8           0        2.924537    4.870564    1.969050
      7          7           0        3.569198    3.955287    0.010904
      8          1           0        3.329984    3.359862   -0.769113
      9          6           0        4.864258    4.609898    0.000582
     10          1           0        5.421107    4.315796    0.893159
     11          6           0        5.663037    4.206562   -1.235999
     12          1           0        5.121551    4.506030   -2.134896
     13          1           0        6.635066    4.702294   -1.224513
     14          1           0        5.813467    3.125340   -1.244643
     15          6           0        4.707667    6.130943   -0.008462
     16          8           0        4.126595    6.692568   -0.933524
     17          7           0        5.250291    6.788864    1.026740
     18          1           0        5.679479    6.267076    1.777048
     19          6           0        5.178485    8.231604    1.146705
     20          1           0        4.711278    8.637480    0.249183
     21          1           0        4.581270    8.505924    2.018930
     22          1           0        6.183516    8.644167    1.253310
 ---------------------------------------------------------------------
                    Distance matrix (angstroms):
                    1          2          3          4          5
     1  H    0.000000
     2  C    1.090116   0.000000
     3  H    1.779750   1.091837   0.000000
     4  H    1.782249   1.091831   1.777678   0.000000
     5  C    2.163785   1.527541   2.145389   2.157034   0.000000
     6  O    2.546590   2.406137   3.068608   3.138415   1.228377
     7  N    3.347585   2.439825   2.753970   2.695430   1.343488
     8  H    3.626661   2.572066   2.667600   2.550695   2.045097
     9  C    4.601070   3.811132   4.120035   4.098858   2.442627
    10  H    4.819871   4.172362   4.714990   4.373990   2.743965
    11  C    5.797321   4.864456   5.012431   4.944307   3.726554
    12  H    5.933657   4.940792   4.847808   5.074629   3.988673
    13  H    6.702581   5.828362   6.006287   5.957444   4.568587
    14  H    5.915926   4.951693   5.195131   4.789385   3.986835
    15  C    5.035290   4.399316   4.517301   4.993126   3.005720
    16  O    5.325653   4.646955   4.469623   5.319277   3.505063
    17  N    5.582239   5.152656   5.426358   5.801411   3.679761
    18  H    5.623660   5.260026   5.721601   5.808253   3.747905
    19  C    6.455582   6.149029   6.299540   6.932577   4.784238
    20  H    6.600764   6.228983   6.188489   7.057658   4.979963
    21  H    6.248826   6.127813   6.331949   6.988746   4.857205
    22  H    7.449832   7.122562   7.315419   7.845901   5.700129
                    6          7          8          9         10
     6  O    0.000000
     7  N    2.255583   0.000000
     8  H    3.153433   1.010040   0.000000
     9  C    2.775848   1.451139   2.123445   0.000000
    10  H    2.774558   2.082765   2.837209   1.092370   0.000000
    11  C    4.267625   2.449913   2.525475   1.526388   2.145642
    12  H    4.669275   2.705102   2.527603   2.153429   3.048777
    13  H    4.898488   3.388779   3.596259   2.155262   2.471358
    14  H    4.660423   2.702213   2.539452   2.157659   2.478171
    15  C    2.945956   2.455599   3.186768   1.529111   2.148645
    16  O    3.631746   2.948787   3.430532   2.398795   3.265207
    17  N    3.158631   3.447775   4.320963   2.439244   2.482556
    18  H    3.094643   3.594011   4.522715   2.562548   2.157662
    19  C    4.129543   4.708156   5.551683   3.811705   3.931502
    20  H    4.509994   4.825356   5.549609   4.038146   4.426682
    21  H    3.995384   5.075899   5.985052   4.396911   4.419259
    22  H    5.037192   5.510338   6.336933   4.425505   4.409736
                   11         12         13         14         15
    11  C    0.000000
    12  H    1.091285   0.000000
    13  H    1.091202   1.777089   0.000000
    14  H    1.091671   1.782583   1.778262   0.000000
    15  C    2.474434   2.708019   2.689737   3.432868   0.000000
    16  O    2.938089   2.685923   3.215321   3.958212   1.228335
    17  N    3.458125   3.901775   3.367420   4.347155   1.341247
    18  H    3.650266   4.326185   3.517251   4.361086   2.037400
    19  C    4.702450   4.965084   4.494478   5.674124   2.443125
    20  H    4.769135   4.787593   4.621518   5.816358   2.519747
    21  H    5.499936   5.791833   5.404220   6.412480   3.125192
    22  H    5.114674   5.452696   4.677805   6.069115   3.175924
                   16         17         18         19         20
    16  O    0.000000
    17  N    2.261549   0.000000
    18  H    3.152728   1.009667   0.000000
    19  C    2.793288   1.449499   2.123135   0.000000
    20  H    2.350178   2.076659   2.981712   1.090213   0.000000
    21  H    3.494563   2.092922   2.505396   1.092104   1.779386
    22  H    3.580769   2.089113   2.485743   1.091632   1.782077
                   21         22
    21  H    0.000000
    22  H    1.781145   0.000000
 Stoichiometry    C6H12N2O2
 Framework group  C1[X(C6H12N2O2)]
 Deg. of freedom    60
 Full point group                 C1      NOp   1
 Largest Abelian subgroup         C1      NOp   1
 Largest concise Abelian subgroup C1      NOp   1
                         Standard orientation:                         
 ---------------------------------------------------------------------
 Center     Atomic      Atomic             Coordinates (Angstroms)
 Number     Number       Type             X           Y           Z
 ---------------------------------------------------------------------
      1          1           0       -3.523009   -1.824736    0.241407
      2          6           0       -3.193799   -0.804782    0.440576
      3          1           0       -3.163344   -0.639448    1.519392
      4          1           0       -3.897345   -0.100066   -0.007189
      5          6           0       -1.796985   -0.574792   -0.133355
      6          8           0       -1.156964   -1.492763   -0.639925
      7          7           0       -1.316479    0.676581   -0.043139
      8          1           0       -1.873510    1.401876    0.385631
      9          6           0        0.012528    1.021488   -0.512801
     10          1           0        0.082169    0.804384   -1.581112
     11          6           0        0.295639    2.504751   -0.290002
     12          1           0        0.240339    2.731543    0.776023
     13          1           0        1.295234    2.747721   -0.654005
     14          1           0       -0.437340    3.107873   -0.829196
     15          6           0        1.080197    0.215966    0.228413
     16          8           0        1.202532    0.315205    1.446605
     17          7           0        1.861582   -0.569328   -0.527694
     18          1           0        1.684660   -0.639120   -1.519286
     19          6           0        2.914597   -1.386808    0.041457
     20          1           0        2.988224   -1.174830    1.108325
     21          1           0        2.685542   -2.445166   -0.100328
     22          1           0        3.865050   -1.155276   -0.442994
 ---------------------------------------------------------------------
 Rotational constants (GHZ):      1.8492219      0.9446900      0.7377153
 Standard basis: 6-31G(d) (6D, 7F)
 There are   174 symmetry adapted basis functions of A   symmetry.
 Integral buffers will be    131072 words long.
 Raffenetti 2 integral format.
 Two-electron integral symmetry is turned on.
   174 basis functions,   328 primitive gaussians,   174 cartesian basis functions
    39 alpha electrons       39 beta electrons
       nuclear repulsion energy       564.1646103501 Hartrees.
 NAtoms=   22 NActive=   22 NUniq=   22 SFac= 7.50D-01 NAtFMM=   80 NAOKFM=F Big=F
 One-electron integrals computed using PRISM.
 NBasis=   174 RedAO= T  NBF=   174
 NBsUse=   174 1.00D-06 NBFU=   174
 Initial guess read from the read-write file.
 B after Tr=     0.000000    0.000000    0.000000
         Rot=    1.000000    0.000000    0.000000    0.000000 Ang=   0.00 deg.
 Initial guess orbital symmetries:
       Occupied  (A) (A) (A) (A) (A) (A) (A) (A) (A) (A) (A) (A)
                 (A) (A) (A) (A) (A) (A) (A) (A) (A) (A) (A) (A)
                 (A) (A) (A) (A) (A) (A) (A) (A) (A) (A) (A) (A)
                 (A) (A) (A)
       Virtual   (A) (A) (A) (A) (A) (A) (A) (A) (A) (A) (A) (A)
                 (A) (A) (A) (A) (A) (A) (A) (A) (A) (A) (A) (A)
                 (A) (A) (A) (A) (A) (A) (A) (A) (A) (A) (A) (A)
                 (A) (A) (A) (A) (A) (A) (A) (A) (A) (A) (A) (A)
                 (A) (A) (A) (A) (A) (A) (A) (A) (A) (A) (A) (A)
                 (A) (A) (A) (A) (A) (A) (A) (A) (A) (A) (A) (A)
                 (A) (A) (A) (A) (A) (A) (A) (A) (A) (A) (A) (A)
                 (A) (A) (A) (A) (A) (A) (A) (A) (A) (A) (A) (A)
                 (A) (A) (A) (A) (A) (A) (A) (A) (A) (A) (A) (A)
                 (A) (A) (A) (A) (A) (A) (A) (A) (A) (A) (A) (A)
                 (A) (A) (A) (A) (A) (A) (A) (A) (A) (A) (A) (A)
                 (A) (A) (A)
 Harris functional with IExCor=  402 diagonalized for initial guess.
 ExpMin= 1.61D-01 ExpMax= 5.48D+03 ExpMxC= 8.25D+02 IAcc=1 IRadAn=         1 AccDes= 0.00D+00
 HarFok:  IExCor=  402 AccDes= 0.00D+00 IRadAn=         1 IDoV= 1
 ScaDFX=  1.000000  1.000000  1.000000  1.000000
 FoFCou: FMM=F IPFlag=           0 FMFlag=      100000 FMFlg1=           0
         NFxFlg=           0 DoJE=T BraDBF=F KetDBF=T FulRan=T
         Omega=  0.000000  0.000000  1.000000  0.000000  0.000000 ICntrl=     500 IOpCl=  0
         NMat0=    1 NMatS0=    1 NMatT0=    0 NMatD0=    1 NMtDS0=    0 NMtDT0=    0
         I1Cent=           4 NGrid=           0.
 Petite list used in FoFCou.
 Requested convergence on RMS density matrix=1.00D-08 within 128 cycles.
 Requested convergence on MAX density matrix=1.00D-06.
 Requested convergence on             energy=1.00D-06.
 No special actions if energy rises.
 Integral accuracy reduced to 1.0D-05 until final iterations.
 Initial convergence to 1.0D-05 achieved.  Increase integral accuracy.
 SCF Done:  E(RB3LYP) =  -495.844659650     A.U. after   11 cycles
             Convg  =    0.7867D-08             -V/T =  2.0090
 Calling FoFJK, ICntrl=      2127 FMM=F ISym2X=0 I1Cent= 0 IOpClX= 0 NMat=1 NMatS=1 NMatT=0.
 ***** Axes restored to original set *****
 -------------------------------------------------------------------
 Center     Atomic                   Forces (Hartrees/Bohr)
 Number     Number              X              Y              Z
 -------------------------------------------------------------------
      1        1           0.002234827    0.001304704    0.000619049
      2        6           0.007001956    0.000986297   -0.003584625
      3        1          -0.003541229   -0.001265580   -0.002415447
      4        1          -0.002685288   -0.003542353   -0.001559832
      5        6          -0.019532013    0.003983684    0.022049127
      6        8           0.004617928    0.000272263   -0.000714830
      7        7           0.010791934   -0.005704568   -0.013620291
      8        1          -0.000717485    0.001210408   -0.000964534
      9        6           0.006408934    0.000767706    0.000399134
     10        1           0.000379684   -0.002699571    0.004339232
     11        6          -0.004147678   -0.003355874    0.001639122
     12        1           0.000452948    0.001637955   -0.002093193
     13        1           0.001754109   -0.000204341   -0.001337374
     14        1           0.002210346   -0.002803672   -0.001527134
     15        6          -0.014183653    0.002407176   -0.009529286
     16        8          -0.000338710   -0.001175728   -0.002818685
     17        7           0.010814183    0.006223014    0.005477043
     18        1          -0.003595226   -0.000643991    0.001021017
     19        6           0.001420170   -0.000876476    0.002503827
     20        1          -0.000058378   -0.002293545   -0.000410718
     21        1          -0.001351881    0.002354561    0.001887018
     22        1           0.002064522    0.003417930    0.000641382
 -------------------------------------------------------------------
 Cartesian Forces:  Max     0.022049127 RMS     0.005546649

 GradGradGradGradGradGradGradGradGradGradGradGradGradGradGradGradGradGrad
 Berny optimization.
 Using GEDIIS/GDIIS optimizer.
 Internal  Forces:  Max     0.018721491 RMS     0.003472523
 Search for a local minimum.
 Step number   2 out of a maximum of  132
 All quantities printed in internal units (Hartrees-Bohrs-Radians)
 Mixed Optimization -- RFO/linear search
 Update second derivatives using D2CorX and points    1    2
 DE= -2.44D-03 DEPred=-2.44D-03 R= 1.00D+00
 SS=  1.41D+00  RLast= 3.00D-01 DXNew= 5.0454D-01 8.9998D-01
 Trust test= 1.00D+00 RLast= 3.00D-01 DXMaxT set to 5.05D-01
 Use linear search instead of GDIIS.
 Linear search step of   0.594 exceeds DXMaxT=   0.505 but not scaled.
 Quartic linear search produced a step of  2.00000.
 Iteration  1 RMS(Cart)=  0.09575191 RMS(Int)=  0.00838192
 Iteration  2 RMS(Cart)=  0.00890077 RMS(Int)=  0.00061050
 Iteration  3 RMS(Cart)=  0.00006426 RMS(Int)=  0.00060857
 Iteration  4 RMS(Cart)=  0.00000002 RMS(Int)=  0.00060857
 Iteration  1 RMS(Cart)=  0.00002490 RMS(Int)=  0.00000627
 Iteration  2 RMS(Cart)=  0.00001354 RMS(Int)=  0.00000699
 Iteration  3 RMS(Cart)=  0.00000747 RMS(Int)=  0.00000790
 Iteration  4 RMS(Cart)=  0.00000420 RMS(Int)=  0.00000854
 Iteration  5 RMS(Cart)=  0.00000242 RMS(Int)=  0.00000895
 Iteration  6 RMS(Cart)=  0.00000143 RMS(Int)=  0.00000920
 Iteration  7 RMS(Cart)=  0.00000086 RMS(Int)=  0.00000935
 Variable       Old X    -DE/DX   Delta X   Delta X   Delta X     New X
                                 (Linear)    (Quad)   (Total)
    R1        2.06002  -0.00055   0.00040   0.00000   0.00040   2.06042
    R2        2.06327   0.00316   0.00731   0.00000   0.00731   2.07059
    R3        2.06326   0.00327   0.00678   0.00000   0.00678   2.07004
    R4        2.88663  -0.00083  -0.00947   0.00000  -0.00947   2.87717
    R5        2.32130   0.00050  -0.00252   0.00000  -0.00252   2.31878
    R6        2.53882   0.01872   0.03209   0.00000   0.03209   2.57091
    R7        1.90870   0.00020  -0.00009   0.00000  -0.00009   1.90861
    R8        2.74225   0.00287   0.00817   0.00000   0.00817   2.75042
    R9        2.06428   0.00446   0.00907   0.00000   0.00907   2.07335
   R10        2.88446   0.00408   0.00514   0.00000   0.00514   2.88960
   R11        2.88960   0.00990   0.02684   0.00000   0.02684   2.91644
   R12        2.06223   0.00195   0.00502   0.00000   0.00502   2.06725
   R13        2.06207   0.00145   0.00446   0.00000   0.00446   2.06653
   R14        2.06296   0.00309   0.00660   0.00000   0.00660   2.06956
   R15        2.32122   0.00175  -0.00275   0.00000  -0.00275   2.31847
   R16        2.53459   0.01636   0.02356   0.00000   0.02356   2.55815
   R17        1.90799  -0.00044  -0.00096   0.00000  -0.00096   1.90703
   R18        2.73916   0.00287   0.00157   0.00000   0.00157   2.74073
   R19        2.06020  -0.00049   0.00101   0.00000   0.00101   2.06122
   R20        2.06378   0.00284   0.00800   0.00000   0.00800   2.07178
   R21        2.06289   0.00326   0.00605   0.00000   0.00605   2.06893
    A1        1.90777  -0.00011  -0.00698   0.00000  -0.00708   1.90069
    A2        1.91174  -0.00015   0.00134   0.00000   0.00159   1.91333
    A3        1.92663  -0.00549  -0.02478   0.00000  -0.02469   1.90194
    A4        1.90228  -0.00361  -0.01587   0.00000  -0.01627   1.88601
    A5        1.89963   0.00449   0.00720   0.00000   0.00693   1.90656
    A6        1.91555   0.00488   0.03915   0.00000   0.03907   1.95462
    A7        2.11632   0.00746   0.02641   0.00000   0.02637   2.14269
    A8        2.02869  -0.00446  -0.01280   0.00000  -0.01284   2.01584
    A9        2.13816  -0.00300  -0.01364   0.00000  -0.01367   2.12448
   A10        2.09452  -0.00054   0.00045   0.00000  -0.00042   2.09411
   A11        2.12610   0.00115  -0.00303   0.00000  -0.00390   2.12220
   A12        2.06212  -0.00061   0.00171   0.00000   0.00084   2.06296
   A13        1.90463  -0.00042  -0.01301   0.00000  -0.01291   1.89172
   A14        1.93220  -0.00275  -0.01369   0.00000  -0.01369   1.91852
   A15        1.93625   0.00014  -0.00551   0.00000  -0.00538   1.93087
   A16        1.90081   0.00067   0.00943   0.00000   0.00908   1.90989
   A17        1.90165   0.00095   0.01114   0.00000   0.01088   1.91253
   A18        1.88772   0.00149   0.01270   0.00000   0.01252   1.90025
   A19        1.91255   0.00051   0.00280   0.00000   0.00274   1.91529
   A20        1.91515   0.00142   0.00817   0.00000   0.00813   1.92328
   A21        1.91797   0.00294   0.01374   0.00000   0.01363   1.93160
   A22        1.90287  -0.00170  -0.01447   0.00000  -0.01446   1.88841
   A23        1.91096  -0.00095   0.00146   0.00000   0.00134   1.91230
   A24        1.90423  -0.00228  -0.01185   0.00000  -0.01193   1.89229
   A25        2.10332  -0.00148   0.00042   0.00000   0.00022   2.10355
   A26        2.02856  -0.00248  -0.01290   0.00000  -0.01311   2.01546
   A27        2.15120   0.00394   0.01228   0.00000   0.01207   2.16327
   A28        2.08522  -0.00261  -0.01849   0.00000  -0.02145   2.06377
   A29        2.13185   0.00360   0.00872   0.00000   0.00565   2.13750
   A30        2.06455  -0.00107   0.00664   0.00000   0.00339   2.06794
   A31        1.90038  -0.00460  -0.02151   0.00000  -0.02141   1.87897
   A32        1.92112   0.00255   0.01993   0.00000   0.01985   1.94097
   A33        1.91627   0.00389   0.01048   0.00000   0.01036   1.92663
   A34        1.90672   0.00018  -0.00686   0.00000  -0.00672   1.90000
   A35        1.91160  -0.00001   0.00290   0.00000   0.00296   1.91456
   A36        1.90767  -0.00203  -0.00501   0.00000  -0.00529   1.90238
    D1       -0.09131   0.00017  -0.18246   0.00000  -0.18270  -0.27401
    D2        3.05665  -0.00028  -0.16964   0.00000  -0.16968   2.88697
    D3        2.00252  -0.00049  -0.20168   0.00000  -0.20190   1.80063
    D4       -1.13270  -0.00094  -0.18886   0.00000  -0.18888  -1.32158
    D5       -2.20018   0.00071  -0.19385   0.00000  -0.19368  -2.39387
    D6        0.94778   0.00026  -0.18103   0.00000  -0.18067   0.76711
    D7       -0.00060  -0.00043  -0.00119   0.00000  -0.00108  -0.00167
    D8        3.10879  -0.00043  -0.06571   0.00000  -0.06553   3.04326
    D9       -3.13573  -0.00093   0.01181   0.00000   0.01163  -3.12410
   D10       -0.02635  -0.00093  -0.05271   0.00000  -0.05282  -0.07918
   D11        1.04817  -0.00070   0.00197   0.00000   0.00191   1.05008
   D12        3.14000  -0.00184  -0.00325   0.00000  -0.00322   3.13678
   D13       -1.04721  -0.00169   0.00000   0.00000   0.00000  -1.04721
   D14       -2.12506  -0.00070  -0.06141   0.00000  -0.06146  -2.18652
   D15       -0.03323  -0.00184  -0.06662   0.00000  -0.06658  -0.09981
   D16        2.06275  -0.00169  -0.06337   0.00000  -0.06337   1.99938
   D17        1.05892   0.00126   0.02336   0.00000   0.02339   1.08231
   D18       -3.13544   0.00036   0.01235   0.00000   0.01232  -3.12313
   D19       -1.04160   0.00027   0.01133   0.00000   0.01131  -1.03028
   D20       -3.13014  -0.00053   0.00490   0.00000   0.00486  -3.12529
   D21       -1.04132  -0.00143  -0.00611   0.00000  -0.00622  -1.04754
   D22        1.05253  -0.00152  -0.00713   0.00000  -0.00722   1.04531
   D23       -1.06583   0.00182   0.03038   0.00000   0.03050  -1.03533
   D24        1.02299   0.00092   0.01937   0.00000   0.01943   1.04242
   D25        3.11684   0.00083   0.01835   0.00000   0.01843   3.13526
   D26       -1.06193  -0.00014  -0.02956   0.00000  -0.02944  -1.09137
   D27        2.09440   0.00136   0.00000   0.00000   0.00000   2.09440
   D28        3.12410  -0.00032  -0.01723   0.00000  -0.01708   3.10702
   D29       -0.00276   0.00119   0.01232   0.00000   0.01236   0.00961
   D30        1.06033  -0.00249  -0.04162   0.00000  -0.04162   1.01871
   D31       -2.06653  -0.00098  -0.01206   0.00000  -0.01218  -2.07871
   D32       -0.06203  -0.00279  -0.12399   0.00000  -0.12327  -0.18530
   D33        3.14074  -0.00131  -0.00176   0.00000  -0.00273   3.13801
   D34        3.09475  -0.00118  -0.09354   0.00000  -0.09257   3.00217
   D35        0.01433   0.00029   0.02868   0.00000   0.02796   0.04229
   D36       -0.08297  -0.00062  -0.16581   0.00000  -0.16618  -0.24915
   D37        2.00671  -0.00170  -0.17532   0.00000  -0.17589   1.83082
   D38       -2.17569  -0.00014  -0.16255   0.00000  -0.16282  -2.33851
   D39        3.11910   0.00089  -0.04497   0.00000  -0.04453   3.07457
   D40       -1.07440  -0.00019  -0.05448   0.00000  -0.05425  -1.12865
   D41        1.02638   0.00138  -0.04171   0.00000  -0.04117   0.98521
         Item               Value     Threshold  Converged?
 Maximum Force            0.018721     0.000450     NO 
 RMS     Force            0.003494     0.000300     NO 
 Maximum Displacement     0.395177     0.001800     NO 
 RMS     Displacement     0.096861     0.001200     NO 
 Predicted change in Energy=-2.975024D-03
 GradGradGradGradGradGradGradGradGradGradGradGradGradGradGradGradGradGrad

                          Input orientation:                          
 ---------------------------------------------------------------------
 Center     Atomic      Atomic             Coordinates (Angstroms)
 Number     Number       Type             X           Y           Z
 ---------------------------------------------------------------------
      1          1           0        0.831190    3.461823    1.826046
      2          6           0        1.354152    3.457225    0.869330
      3          1           0        0.763502    4.021740    0.139243
      4          1           0        1.448686    2.427924    0.506646
      5          6           0        2.710221    4.127257    1.043217
      6          8           0        2.988226    4.821141    2.016294
      7          7           0        3.596840    3.926378    0.031076
      8          1           0        3.334945    3.362506   -0.764880
      9          6           0        4.885843    4.601617    0.001296
     10          1           0        5.447369    4.315297    0.899343
     11          6           0        5.666966    4.178710   -1.243361
     12          1           0        5.119276    4.476719   -2.142213
     13          1           0        6.644201    4.669211   -1.260542
     14          1           0        5.823592    3.094838   -1.251768
     15          6           0        4.696972    6.133120   -0.024202
     16          8           0        4.124266    6.674785   -0.964333
     17          7           0        5.246392    6.804966    1.014694
     18          1           0        5.587995    6.272302    1.800809
     19          6           0        5.163637    8.247490    1.140150
     20          1           0        4.842458    8.645486    0.176731
     21          1           0        4.433585    8.537886    1.904778
     22          1           0        6.141090    8.664080    1.404149
 ---------------------------------------------------------------------
                    Distance matrix (angstroms):
                    1          2          3          4          5
     1  H    0.000000
     2  C    1.090328   0.000000
     3  H    1.778594   1.095706   0.000000
     4  H    1.786355   1.095417   1.773334   0.000000
     5  C    2.141583   1.522532   2.148957   2.183372   0.000000
     6  O    2.556706   2.417849   3.018569   3.221290   1.227045
     7  N    3.329647   2.439759   2.837005   2.661972   1.360469
     8  H    3.604379   2.569661   2.804344   2.459308   2.060180
     9  C    4.590104   3.812605   4.165211   4.098093   2.458444
    10  H    4.785008   4.182298   4.754212   4.439127   2.747369
    11  C    5.772341   4.856375   5.097077   4.890978   3.738106
    12  H    5.929989   4.927973   4.938098   4.968625   4.009069
    13  H    6.691480   5.830085   6.079575   5.927874   4.590994
    14  H    5.876368   4.960472   5.329032   4.761995   4.003241
    15  C    5.050101   4.374159   4.467306   4.955970   3.018286
    16  O    5.380863   4.624776   4.421681   5.230520   3.538316
    17  N    5.597223   5.135956   5.348744   5.817145   3.688238
    18  H    5.525090   5.168921   5.576877   5.795513   3.668344
    19  C    6.491776   6.126350   6.182229   6.933219   4.796349
    20  H    6.758763   6.290154   6.165899   7.091164   5.070663
    21  H    6.224939   6.030604   6.081299   6.942336   4.813098
    22  H    7.445570   7.093106   7.215938   7.855814   5.699464
                    6          7          8          9         10
     6  O    0.000000
     7  N    2.260996   0.000000
     8  H    3.159550   1.009993   0.000000
     9  C    2.776573   1.455460   2.127841   0.000000
    10  H    2.747879   2.080770   2.853030   1.097169   0.000000
    11  C    4.267753   2.444030   2.516636   1.529110   2.158254
    12  H    4.685422   2.709958   2.514429   2.159797   3.063456
    13  H    4.911913   3.392121   3.592260   2.165324   2.494548
    14  H    4.658289   2.701032   2.549916   2.172540   2.501668
    15  C    2.967276   2.466386   3.174905   1.543316   2.172675
    16  O    3.689271   2.970313   3.410865   2.410490   3.284977
    17  N    3.168293   3.460462   4.321000   2.451880   2.500430
[...]
    14  H    5.727627   4.985348   5.631228   4.751388   3.984917
    15  C    5.078233   4.293362   4.400852   4.750904   2.992072
    16  O    5.469340   4.548855   4.415296   4.907792   3.543817
    17  N    5.635993   5.045712   5.151071   5.688166   3.651663
    18  H    5.324543   4.903385   5.155895   5.610048   3.448861
    19  C    6.494679   5.925438   5.795120   6.662132   4.694371
    20  H    7.065330   6.367509   6.150399   6.999434   5.210379
    21  H    6.095973   5.601868   5.327415   6.442132   4.551035
    22  H    7.275555   6.798652   6.734489   7.567953   5.503785
                    6          7          8          9         10
     6  O    0.000000
     7  N    2.271083   0.000000
     8  H    3.140085   1.012318   0.000000
     9  C    2.757385   1.462763   2.114660   0.000000
    10  H    2.643331   2.068156   2.923522   1.094855   0.000000
    11  C    4.247490   2.448436   2.559185   1.528729   2.162648
    12  H    4.722488   2.748649   2.494340   2.163749   3.068544
    13  H    4.880090   3.397725   3.624552   2.166728   2.488269
    14  H    4.600882   2.674440   2.691427   2.172008   2.522947
    15  C    2.999879   2.470538   2.988111   1.545559   2.176143
    16  O    3.784601   2.987507   3.137599   2.414427   3.287976
    17  N    3.171686   3.469684   4.184198   2.457665   2.504993
    18  H    2.724119   3.460561   4.337097   2.553902   2.189841
    19  C    4.119694   4.696457   5.317200   3.825701   3.957381
    20  H    4.849276   5.019321   5.468764   4.109770   4.460260
    21  H    3.904654   4.838350   5.447884   4.271581   4.440052
    22  H    4.780312   5.526085   6.224595   4.538054   4.454019
                   11         12         13         14         15
    11  C    0.000000
    12  H    1.095084   0.000000
    13  H    1.094336   1.769104   0.000000
    14  H    1.094980   1.788628   1.776753   0.000000
    15  C    2.514648   2.714964   2.779980   3.476163   0.000000
    16  O    2.960161   2.674459   3.287896   3.971420   1.225930
    17  N    3.504942   3.916409   3.458488   4.410934   1.364168
    18  H    3.776634   4.396521   3.769185   4.505084   2.015297
    19  C    4.776159   4.993682   4.650219   5.758379   2.446801
    20  H    4.786973   4.796647   4.603962   5.847769   2.610270
    21  H    5.405142   5.562001   5.457656   6.348463   2.914705
    22  H    5.433776   5.774001   5.139007   6.375766   3.319930
                   16         17         18         19         20
    16  O    0.000000
    17  N    2.287599   0.000000
    18  H    3.121281   1.012376   0.000000
    19  C    2.800602   1.455684   2.114478   0.000000
    20  H    2.525009   2.077303   2.971795   1.091042   0.000000
    21  H    3.130334   2.127451   2.569318   1.097914   1.774144
    22  H    3.810727   2.090645   2.429954   1.093479   1.783495
                   21         22
    21  H    0.000000
    22  H    1.785627   0.000000
 Stoichiometry    C6H12N2O2
 Framework group  C1[X(C6H12N2O2)]
 Deg. of freedom    60
 Full point group                 C1      NOp   1
 Largest Abelian subgroup         C1      NOp   1
 Largest concise Abelian subgroup C1      NOp   1
                         Standard orientation:                         
 ---------------------------------------------------------------------
 Center     Atomic      Atomic             Coordinates (Angstroms)
 Number     Number       Type             X           Y           Z
 ---------------------------------------------------------------------
      1          1           0       -3.678992   -1.541774   -0.022919
      2          6           0       -3.057736   -0.886512    0.592105
      3          1           0       -2.800634   -1.433432    1.506675
      4          1           0       -3.630218    0.004547    0.867825
      5          6           0       -1.782191   -0.564926   -0.167711
      6          8           0       -1.197538   -1.396726   -0.855310
      7          7           0       -1.327492    0.724476   -0.054417
      8          1           0       -1.682224    1.279306    0.714424
      9          6           0        0.017984    1.055871   -0.522975
     10          1           0        0.055534    0.811845   -1.589628
     11          6           0        0.285611    2.547206   -0.319732
     12          1           0        0.308831    2.781367    0.749772
     13          1           0        1.257310    2.819483   -0.743099
     14          1           0       -0.487410    3.148789   -0.809136
     15          6           0        1.074078    0.226419    0.242159
     16          8           0        1.229244    0.369809    1.449747
     17          7           0        1.850846   -0.581376   -0.535692
     18          1           0        1.422659   -0.888298   -1.400192
     19          6           0        2.814696   -1.485084    0.075307
     20          1           0        3.301815   -0.963905    0.900813
     21          1           0        2.337239   -2.390179    0.473119
     22          1           0        3.564314   -1.771964   -0.667302
 ---------------------------------------------------------------------
 Rotational constants (GHZ):      1.7399492      0.9690978      0.7525882

 **********************************************************************

            Population analysis using the SCF density.

 **********************************************************************

 Orbital symmetries:
       Occupied  (A) (A) (A) (A) (A) (A) (A) (A) (A) (A) (A) (A)
                 (A) (A) (A) (A) (A) (A) (A) (A) (A) (A) (A) (A)
                 (A) (A) (A) (A) (A) (A) (A) (A) (A) (A) (A) (A)
                 (A) (A) (A)
       Virtual   (A) (A) (A) (A) (A) (A) (A) (A) (A) (A) (A) (A)
                 (A) (A) (A) (A) (A) (A) (A) (A) (A) (A) (A) (A)
                 (A) (A) (A) (A) (A) (A) (A) (A) (A) (A) (A) (A)
                 (A) (A) (A) (A) (A) (A) (A) (A) (A) (A) (A) (A)
                 (A) (A) (A) (A) (A) (A) (A) (A) (A) (A) (A) (A)
                 (A) (A) (A) (A) (A) (A) (A) (A) (A) (A) (A) (A)
                 (A) (A) (A) (A) (A) (A) (A) (A) (A) (A) (A) (A)
                 (A) (A) (A) (A) (A) (A) (A) (A) (A) (A) (A) (A)
                 (A) (A) (A) (A) (A) (A) (A) (A) (A) (A) (A) (A)
                 (A) (A) (A) (A) (A) (A) (A) (A) (A) (A) (A) (A)
                 (A) (A) (A) (A) (A) (A) (A) (A) (A) (A) (A) (A)
                 (A) (A) (A)
 The electronic state is 1-A.
 Alpha  occ. eigenvalues --  -19.11414 -19.10809 -14.36118 -14.35455 -10.28925
 Alpha  occ. eigenvalues --  -10.27753 -10.23455 -10.21148 -10.19313 -10.18900
 Alpha  occ. eigenvalues --   -1.03559  -1.02370  -0.92295  -0.91352  -0.78027
 Alpha  occ. eigenvalues --   -0.72996  -0.70598  -0.63748  -0.58849  -0.56993
 Alpha  occ. eigenvalues --   -0.52633  -0.48877  -0.48080  -0.46067  -0.44405
 Alpha  occ. eigenvalues --   -0.43689  -0.41970  -0.41456  -0.40128  -0.39442
 Alpha  occ. eigenvalues --   -0.38607  -0.38080  -0.36995  -0.35713  -0.34883
 Alpha  occ. eigenvalues --   -0.27241  -0.25729  -0.24978  -0.23400
 Alpha virt. eigenvalues --    0.01853   0.02975   0.07891   0.09089   0.11891
 Alpha virt. eigenvalues --    0.12834   0.13383   0.14997   0.15549   0.16234
 Alpha virt. eigenvalues --    0.16719   0.17711   0.18192   0.19072   0.20098
 Alpha virt. eigenvalues --    0.21682   0.23880   0.24542   0.26012   0.33458
 Alpha virt. eigenvalues --    0.33947   0.38697   0.41273   0.50373   0.51768
 Alpha virt. eigenvalues --    0.52086   0.53316   0.54583   0.54820   0.57269
 Alpha virt. eigenvalues --    0.57886   0.60130   0.61233   0.62553   0.64907
 Alpha virt. eigenvalues --    0.67990   0.69266   0.70215   0.72292   0.76630
 Alpha virt. eigenvalues --    0.76900   0.78197   0.79377   0.81856   0.83298
 Alpha virt. eigenvalues --    0.84164   0.86156   0.86650   0.87314   0.88277
 Alpha virt. eigenvalues --    0.88850   0.89810   0.90760   0.92760   0.93436
 Alpha virt. eigenvalues --    0.94584   0.95220   0.96125   0.97539   1.01673
 Alpha virt. eigenvalues --    1.03688   1.07433   1.10443   1.12560   1.14173
 Alpha virt. eigenvalues --    1.16422   1.19013   1.24350   1.28587   1.32479
 Alpha virt. eigenvalues --    1.33919   1.40940   1.44006   1.44979   1.47730
 Alpha virt. eigenvalues --    1.52012   1.58403   1.63404   1.64202   1.67960
 Alpha virt. eigenvalues --    1.71328   1.75510   1.79419   1.80801   1.82317
 Alpha virt. eigenvalues --    1.84017   1.85057   1.87825   1.89623   1.92470
 Alpha virt. eigenvalues --    1.94153   1.96508   1.99431   2.01317   2.03101
 Alpha virt. eigenvalues --    2.04424   2.06204   2.10799   2.12386   2.18361
 Alpha virt. eigenvalues --    2.19119   2.21409   2.24098   2.25512   2.27730
 Alpha virt. eigenvalues --    2.30934   2.33920   2.36113   2.37580   2.38552
 Alpha virt. eigenvalues --    2.45734   2.49585   2.53214   2.58051   2.64947
 Alpha virt. eigenvalues --    2.65315   2.68822   2.71471   2.74154   2.88268
 Alpha virt. eigenvalues --    2.89651   2.98469   2.99991   3.11999   3.13796
 Alpha virt. eigenvalues --    3.91318   3.99489   4.04508   4.16882   4.20182
 Alpha virt. eigenvalues --    4.23680   4.34117   4.42744   4.46798   4.65782
          Condensed to atoms (all electrons):
              1          2          3          4          5          6
     1  H    0.514311   0.357984  -0.022123  -0.025006  -0.018206   0.002668
     2  C    0.357984   5.324867   0.362123   0.342824   0.346340  -0.080879
     3  H   -0.022123   0.362123   0.518074  -0.025822  -0.020691  -0.000202
     4  H   -0.025006   0.342824  -0.025822   0.570124  -0.024530   0.002899
     5  C   -0.018206   0.346340  -0.020691  -0.024530   4.297100   0.581268
     6  O    0.002668  -0.080879  -0.000202   0.002899   0.581268   8.091232
     7  N    0.003373  -0.119909   0.000343   0.006234   0.273846  -0.098473
     8  H    0.000030   0.001117  -0.000109   0.001110  -0.016754   0.003359
     9  C   -0.000184   0.008555  -0.000191  -0.000012  -0.026144   0.006067
    10  H    0.000026   0.000118  -0.000015  -0.000034  -0.004344   0.005814
    11  C    0.000003  -0.000192   0.000003  -0.000037   0.005329   0.000701
    12  H    0.000000  -0.000008  -0.000001  -0.000001  -0.000141  -0.000011
    13  H    0.000000   0.000004   0.000000   0.000000  -0.000042   0.000005
    14  H    0.000000  -0.000005   0.000001   0.000003   0.000057  -0.000005
    15  C   -0.000008  -0.000452   0.000095   0.000021   0.003502   0.005355
    16  O    0.000000  -0.000058   0.000025  -0.000002   0.000752  -0.000195
    17  N    0.000001  -0.000031   0.000000   0.000000   0.000526  -0.005127
    18  H    0.000000   0.000073  -0.000003  -0.000001   0.000197   0.008557
    19  C    0.000000  -0.000001   0.000001   0.000000  -0.000050  -0.000123
    20  H    0.000000   0.000000   0.000000   0.000000  -0.000002  -0.000002
    21  H    0.000000   0.000002  -0.000001   0.000000   0.000012   0.000242
    22  H    0.000000   0.000000   0.000000   0.000000   0.000000  -0.000006
              7          8          9         10         11         12
     1  H    0.003373   0.000030  -0.000184   0.000026   0.000003   0.000000
     2  C   -0.119909   0.001117   0.008555   0.000118  -0.000192  -0.000008
     3  H    0.000343  -0.000109  -0.000191  -0.000015   0.000003  -0.000001
     4  H    0.006234   0.001110  -0.000012  -0.000034  -0.000037  -0.000001
     5  C    0.273846  -0.016754  -0.026144  -0.004344   0.005329  -0.000141
     6  O   -0.098473   0.003359   0.006067   0.005814   0.000701  -0.000011
     7  N    7.111550   0.294683   0.257094  -0.045440  -0.046091  -0.003975
     8  H    0.294683   0.412280  -0.033614   0.005606  -0.002190   0.004662
     9  C    0.257094  -0.033614   5.052849   0.357832   0.350422  -0.033687
    10  H   -0.045440   0.005606   0.357832   0.601142  -0.036043   0.005380
    11  C   -0.046091  -0.002190   0.350422  -0.036043   5.139461   0.367021
    12  H   -0.003975   0.004662  -0.033687   0.005380   0.367021   0.538475
    13  H    0.003636  -0.000071  -0.027717  -0.002068   0.371367  -0.024888
    14  H   -0.000345   0.000231  -0.030566  -0.004683   0.366971  -0.030330
    15  C   -0.061103  -0.000824   0.325700  -0.049517  -0.033848  -0.007439
    16  O    0.000511   0.001796  -0.081966   0.003431  -0.004134   0.011018
    17  N    0.002285  -0.000010  -0.102833   0.007654   0.000319   0.000722
    18  H   -0.000765  -0.000008  -0.000164   0.003413   0.000373  -0.000022
    19  C   -0.000183   0.000004   0.006935  -0.000214  -0.000195  -0.000009
    20  H   -0.000010  -0.000001   0.000526  -0.000046   0.000028  -0.000011
    21  H    0.000020   0.000000  -0.000154   0.000015  -0.000010   0.000000
    22  H    0.000000   0.000000  -0.000090  -0.000037   0.000008   0.000000
             13         14         15         16         17         18
     1  H    0.000000   0.000000  -0.000008   0.000000   0.000001   0.000000
     2  C    0.000004  -0.000005  -0.000452  -0.000058  -0.000031   0.000073
     3  H    0.000000   0.000001   0.000095   0.000025   0.000000  -0.000003
     4  H    0.000000   0.000003   0.000021  -0.000002   0.000000  -0.000001
     5  C   -0.000042   0.000057   0.003502   0.000752   0.000526   0.000197
     6  O    0.000005  -0.000005   0.005355  -0.000195  -0.005127   0.008557
     7  N    0.003636  -0.000345  -0.061103   0.000511   0.002285  -0.000765
     8  H   -0.000071   0.000231  -0.000824   0.001796  -0.000010  -0.000008
     9  C   -0.027717  -0.030566   0.325700  -0.081966  -0.102833  -0.000164
    10  H   -0.002068  -0.004683  -0.049517   0.003431   0.007654   0.003413
    11  C    0.371367   0.366971  -0.033848  -0.004134   0.000319   0.000373
    12  H   -0.024888  -0.030330  -0.007439   0.011018   0.000722  -0.000022
    13  H    0.541150  -0.026416  -0.000963  -0.000231   0.001136  -0.000019
    14  H   -0.026416   0.564216   0.004784   0.000119  -0.000124  -0.000009
    15  C   -0.000963   0.004784   4.413209   0.579396   0.253933  -0.016352
    16  O   -0.000231   0.000119   0.579396   8.103429  -0.099215   0.003175
    17  N    0.001136  -0.000124   0.253933  -0.099215   7.068592   0.295948
    18  H   -0.000019  -0.000009  -0.016352   0.003175   0.295948   0.394249
    19  C   -0.000028   0.000003  -0.026902   0.001593   0.271773  -0.032570
    20  H   -0.000009   0.000000  -0.002590   0.011629  -0.038575   0.004060
    21  H    0.000002   0.000000  -0.001609   0.001254  -0.044592  -0.000020
    22  H   -0.000002   0.000000   0.004370   0.000504  -0.036000  -0.002261
             19         20         21         22
     1  H    0.000000   0.000000   0.000000   0.000000
     2  C   -0.000001   0.000000   0.000002   0.000000
     3  H    0.000001   0.000000  -0.000001   0.000000
     4  H    0.000000   0.000000   0.000000   0.000000
     5  C   -0.000050  -0.000002   0.000012   0.000000
     6  O   -0.000123  -0.000002   0.000242  -0.000006
     7  N   -0.000183  -0.000010   0.000020   0.000000
     8  H    0.000004  -0.000001   0.000000   0.000000
     9  C    0.006935   0.000526  -0.000154  -0.000090
    10  H   -0.000214  -0.000046   0.000015  -0.000037
    11  C   -0.000195   0.000028  -0.000010   0.000008
    12  H   -0.000009  -0.000011   0.000000   0.000000
    13  H   -0.000028  -0.000009   0.000002  -0.000002
    14  H    0.000003   0.000000   0.000000   0.000000
    15  C   -0.026902  -0.002590  -0.001609   0.004370
    16  O    0.001593   0.011629   0.001254   0.000504
    17  N    0.271773  -0.038575  -0.044592  -0.036000
    18  H   -0.032570   0.004060  -0.000020  -0.002261
    19  C    4.947286   0.381685   0.383962   0.374022
    20  H    0.381685   0.509976  -0.032700  -0.023875
    21  H    0.383962  -0.032700   0.564756  -0.037770
    22  H    0.374022  -0.023875  -0.037770   0.569055
 Mulliken atomic charges:
              1
     1  H    0.187131
     2  C   -0.542471
     3  H    0.188495
     4  H    0.152230
     5  C    0.601975
     6  O   -0.523142
     7  N   -0.577283
     8  H    0.328705
     9  C   -0.028659
    10  H    0.152011
    11  C   -0.479265
    12  H    0.173245
    13  H    0.165153
    14  H    0.156099
    15  C    0.611243
    16  O   -0.532830
    17  N   -0.576383
    18  H    0.342150
    19  C   -0.306990
    20  H    0.189915
    21  H    0.166590
    22  H    0.152083
 Sum of Mulliken atomic charges =   0.00000
 Mulliken charges with hydrogens summed into heavy atoms:
              1
     2  C   -0.014615
     5  C    0.601975
     6  O   -0.523142
     7  N   -0.248578
     9  C    0.123352
    11  C    0.015231
    15  C    0.611243
    16  O   -0.532830
    17  N   -0.234233
    19  C    0.201598
 Sum of Mulliken charges with hydrogens summed into heavy atoms =   0.00000
 Electronic spatial extent (au):  <R**2>=           1674.4057
 Charge=              0.0000 electrons
 Dipole moment (field-independent basis, Debye):
    X=             -0.8480    Y=              1.1506    Z=             -0.8727  Tot=              1.6747
 Quadrupole moment (field-independent basis, Debye-Ang):
   XX=            -52.5998   YY=            -58.3671   ZZ=            -62.8870
   XY=             -5.0283   XZ=             -7.6387   YZ=             -2.1160
 Traceless Quadrupole moment (field-independent basis, Debye-Ang):
   XX=              5.3515   YY=             -0.4158   ZZ=             -4.9357
   XY=             -5.0283   XZ=             -7.6387   YZ=             -2.1160
 Octapole moment (field-independent basis, Debye-Ang**2):
  XXX=             -5.5630  YYY=              3.6956  ZZZ=             -7.6652  XYY=              5.9848
  XXY=            -11.9063  XXZ=              3.7536  XZZ=             -2.8582  YZZ=             -2.5274
  YYZ=              4.9221  XYZ=              1.2086
 Hexadecapole moment (field-independent basis, Debye-Ang**3):
 XXXX=          -1194.9556 YYYY=           -669.9468 ZZZZ=           -233.0418 XXXY=             -9.4036
 XXXZ=             -0.8088 YYYX=            -10.8827 YYYZ=              0.6190 ZZZX=            -10.9031
 ZZZY=              5.4687 XXYY=           -303.4600 XXZZ=           -251.4735 YYZZ=           -147.5318
 XXYZ=              5.3597 YYXZ=            -10.0509 ZZXY=             -7.7913
 N-N= 5.626957966139D+02 E-N=-2.281638770631D+03  KE= 4.912505319304D+02
 1\1\GINC-NODE006\FOpt\RB3LYP\6-31G(d)\C6H12N2O2\STEBOSS\11-Feb-2017\0\
 \# b3lyp/6-31G* Opt=(ModRedundant, maxcycles=1000, calcfc) geom=nocrow
 d\\Phi Psi fixed scan\\0,1\H,1.0586898681,3.1645645371,1.8949341877\C,
 1.3931391408,3.5642579855,0.9347404169\H,0.7249684268,4.3911027957,0.6
 672759733\H,1.3107451624,2.7873363997,0.1683535402\C,2.8058854301,4.10
 01873233,1.0918350991\O,3.1760529214,4.6964773909,2.0987694202\N,3.656
 2489489,3.861593612,0.0420252045\H,3.2422100565,3.6123869502,-0.847500
 6097\C,4.9397595044,4.560777807,-0.0164360108\H,5.4922367409,4.2938128
 742,0.8903198723\C,5.7191700687,4.1122830842,-1.2527144789\H,5.1977570
 247,4.4324584361,-2.1609131102\H,6.7141749275,4.5677899541,-1.25986311
 09\H,5.835463006,3.0235388411,-1.262320759\C,4.7183349692,6.0896380553
 ,-0.0645021034\O,4.1497295231,6.6110745973,-1.0172334028\N,5.274467813
 8,6.7881470571,0.9668829717\H,5.3839278121,6.2691985587,1.8292149432\C
 ,5.0530428294,8.2217636892,1.0882540959\H,5.1098035002,8.6655651875,0.
 0931705381\H,4.0671852827,8.4526432338,1.5127474072\H,5.8284070424,8.6
 559016299,1.7254599155\\Version=EM64L-G09RevA.02\State=1-A\HF=-495.849
 8865\RMSD=7.468e-09\RMSF=7.668e-04\Dipole=0.2261285,-0.6167405,-0.0510
 789\Quadrupole=3.0381415,1.7944305,-4.832572,3.1102323,2.0676002,5.616
 8177\PG=C01 [X(C6H12N2O2)]\\@


 I am not a vegetarian because I love animals;
 I am a vegetarian because I hate plants.
                               -- A. Whitney Brown
 Job cpu time:  0 days  1 hours 29 minutes 40.0 seconds.
 File lengths (MBytes):  RWF=    186 Int=      0 D2E=      0 Chk=      4 Scr=      2
 Normal termination of Gaussian 09 at Sat Feb 11 00:20:20 2017.
