 Entering Gaussian System, Link 0=g09
 Initial command:
 /home/steboss/local//g09/l1.exe /tmp/Gau-19150.inp -scrdir=/tmp/
 Entering Link 1 = /home/steboss/local//g09/l1.exe PID=     19152.
  
 Copyright (c) 1988,1990,1992,1993,1995,1998,2003,2009, Gaussian, Inc.
                  All Rights Reserved.
  
 This is part of the Gaussian(R) 09 program.  It is based on
 the Gaussian(R) 03 system (copyright 2003, Gaussian, Inc.),
 the Gaussian(R) 98 system (copyright 1998, Gaussian, Inc.),
 the Gaussian(R) 94 system (copyright 1995, Gaussian, Inc.),
 the Gaussian 92(TM) system (copyright 1992, Gaussian, Inc.),
 the Gaussian 90(TM) system (copyright 1990, Gaussian, Inc.),
 the Gaussian 88(TM) system (copyright 1988, Gaussian, Inc.),
 the Gaussian 86(TM) system (copyright 1986, Carnegie Mellon
 University), and the Gaussian 82(TM) system (copyright 1983,
 Carnegie Mellon University). Gaussian is a federally registered
 trademark of Gaussian, Inc.
  
 This software contains proprietary and confidential information,
 including trade secrets, belonging to Gaussian, Inc.
  
 This software is provided under written license and may be
 used, copied, transmitted, or stored only in accord with that
 written license.
  
 The following legend is applicable only to US Government
 contracts under FAR:
  
                    RESTRICTED RIGHTS LEGEND
  
 Use, reproduction and disclosure by the US Government is
 subject to restrictions as set forth in subparagraphs (a)
 and (c) of the Commercial Computer Software - Restricted
 Rights clause in FAR 52.227-19.
  
 Gaussian, Inc.
 340 Quinnipiac St., Bldg. 40, Wallingford CT 06492
  
  
 ---------------------------------------------------------------
 Warning -- This program may not be used in any manner that
 competes with the business of Gaussian, Inc. or will provide
 assistance to any competitor of Gaussian, Inc.  The licensee
 of this program is prohibited from giving any competitor of
 Gaussian, Inc. access to this program.  By using this program,
 the user acknowledges that Gaussian, Inc. is engaged in the
 business of creating and licensing software in the field of
 computational chemistry and represents and warrants to the
 licensee that it is not a competitor of Gaussian, Inc. and that
 it will not use this program in any manner prohibited above.
 ---------------------------------------------------------------
  

 Cite this work as:
 Gaussian 09, Revision A.02,
 M. J. Frisch, G. W. Trucks, H. B. Schlegel, G. E. Scuseria, 
 M. A. Robb, J. R. Cheeseman, G. Scalmani, V. Barone, B. Mennucci, 
 G. A. Petersson, H. Nakatsuji, M. Caricato, X. Li, H. P. Hratchian, 
 A. F. Izmaylov, J. Bloino, G. Zheng, J. L. Sonnenberg, M. Hada, 
 M. Ehara, K. Toyota, R. Fukuda, J. Hasegawa, M. Ishida, T. Nakajima, 
 Y. Honda, O. Kitao, H. Nakai, T. Vreven, J. A. Montgomery, Jr., 
 J. E. Peralta, F. Ogliaro, M. Bearpark, J. J. Heyd, E. Brothers, 
 K. N. Kudin, V. N. Staroverov, R. Kobayashi, J. Normand, 
 K. Raghavachari, A. Rendell, J. C. Burant, S. S. Iyengar, J. Tomasi, 
 M. Cossi, N. Rega, J. M. Millam, M. Klene, J. E. Knox, J. B. Cross, 
 V. Bakken, C. Adamo, J. Jaramillo, R. Gomperts, R. E. Stratmann, 
 O. Yazyev, A. J. Austin, R. Cammi, C. Pomelli, J. W. Ochterski, 
 R. L. Martin, K. Morokuma, V. G. Zakrzewski, G. A. Voth, 
 P. Salvador, J. J. Dannenberg, S. Dapprich, A. D. Daniels, 
 O. Farkas, J. B. Foresman, J. V. Ortiz, J. Cioslowski, 
 and D. J. Fox, Gaussian, Inc., Wallingford CT, 2009.
 
 ******************************************
 Gaussian 09:  EM64L-G09RevA.02 11-Jun-2009
                19-Jan-2017 
 ******************************************
 %chk=structure_30.chk
 %NProcShared=8
 Will use up to    8 processors via shared memory.
 -------------------
 #SP MP2/aug-cc-pVDZ
 -------------------
 1/38=1/1;
 2/12=2,17=6,18=5,40=1/2;
 3/5=16,7=10,11=9,16=1,25=1,30=1/1,2,3;
 4//1;
 5/5=2,38=5/2;
 8/10=1/1;
 9/16=-3/6;
 6/7=2,8=2,9=2,10=2/1;
 99/5=1,9=1/99;
 ------------------
 Phi Psi fixed scan
 ------------------
 Symbolic Z-matrix:
 Charge =  0 Multiplicity = 1
 H                    -3.3733   -3.9439    1.1451 
 C                    -3.8375   -2.9831    1.3892 
 H                    -3.409    -2.6069    2.3232 
 H                    -4.9066   -3.1657    1.5349 
 C                    -3.657    -2.0388    0.2099 
 O                    -4.1032   -2.2939   -0.9053 
 N                    -2.9709   -0.8916    0.4752 
 H                    -2.5449   -0.7103    1.3766 
 C                    -2.6552    0.0692   -0.5621 
 H                    -2.354    -0.4817   -1.4624 
 C                    -3.8658    0.9572   -0.9157 
 H                    -4.1861    1.534    -0.0419 
 H                    -3.6291    1.6562   -1.7263 
 H                    -4.6867    0.3144   -1.2418 
 C                    -1.4791    0.9143   -0.047 
 O                    -1.1674    0.9342    1.1407 
 N                    -0.8243    1.6415   -0.9976 
 H                    -1.1799    1.6112   -1.9433 
 C                     0.2025    2.6446   -0.6837 
 H                     0.5951    2.9691   -1.6558 
 C                    -0.3635    3.8625    0.0537 
 H                    -0.8068    3.5561    1.0041 
 H                     0.4412    4.5698    0.2629 
 H                    -1.1283    4.3525   -0.558 
 C                     1.4169    2.0544    0.0749 
 O                     2.1103    2.7645    0.7965 
 N                     1.7054    0.759    -0.1926 
 H                     1.0928    0.1826   -0.7568 
 C                     2.8027    0.0613    0.4464 
 H                     3.6875    0.7087    0.4115 
 C                     2.4944   -0.2792    1.9187 
 H                     1.6096   -0.9203    1.981 
 H                     3.3379   -0.795     2.3916 
 H                     2.2976    0.6467    2.464 
 C                     3.0462   -1.2169   -0.3715 
 O                     2.1693   -1.6942   -1.0879 
 N                     4.2734   -1.7797   -0.2083 
 H                     4.9427   -1.3082    0.3836 
 C                     4.6613   -3.0301   -0.8395 
 H                     3.8113   -3.3761   -1.4285 
 H                     5.5224   -2.8863   -1.5021 
 H                     4.913    -3.7895   -0.0901 
 
                          Input orientation:                          
 ---------------------------------------------------------------------
 Center     Atomic      Atomic             Coordinates (Angstroms)
 Number     Number       Type             X           Y           Z
 ---------------------------------------------------------------------
      1          1           0       -3.373300   -3.943900    1.145100
      2          6           0       -3.837500   -2.983100    1.389200
      3          1           0       -3.409000   -2.606900    2.323200
      4          1           0       -4.906600   -3.165700    1.534900
      5          6           0       -3.657000   -2.038800    0.209900
      6          8           0       -4.103200   -2.293900   -0.905300
      7          7           0       -2.970900   -0.891600    0.475200
      8          1           0       -2.544900   -0.710300    1.376600
      9          6           0       -2.655200    0.069200   -0.562100
     10          1           0       -2.354000   -0.481700   -1.462400
     11          6           0       -3.865800    0.957200   -0.915700
     12          1           0       -4.186100    1.534000   -0.041900
     13          1           0       -3.629100    1.656200   -1.726300
     14          1           0       -4.686700    0.314400   -1.241800
     15          6           0       -1.479100    0.914300   -0.047000
     16          8           0       -1.167400    0.934200    1.140700
     17          7           0       -0.824300    1.641500   -0.997600
     18          1           0       -1.179900    1.611200   -1.943300
     19          6           0        0.202500    2.644600   -0.683700
     20          1           0        0.595100    2.969100   -1.655800
     21          6           0       -0.363500    3.862500    0.053700
     22          1           0       -0.806800    3.556100    1.004100
     23          1           0        0.441200    4.569800    0.262900
     24          1           0       -1.128300    4.352500   -0.558000
     25          6           0        1.416900    2.054400    0.074900
     26          8           0        2.110300    2.764500    0.796500
     27          7           0        1.705400    0.759000   -0.192600
     28          1           0        1.092800    0.182600   -0.756800
     29          6           0        2.802700    0.061300    0.446400
     30          1           0        3.687500    0.708700    0.411500
     31          6           0        2.494400   -0.279200    1.918700
     32          1           0        1.609600   -0.920300    1.981000
     33          1           0        3.337900   -0.795000    2.391600
     34          1           0        2.297600    0.646700    2.464000
     35          6           0        3.046200   -1.216900   -0.371500
     36          8           0        2.169300   -1.694200   -1.087900
     37          7           0        4.273400   -1.779700   -0.208300
     38          1           0        4.942700   -1.308200    0.383600
     39          6           0        4.661300   -3.030100   -0.839500
     40          1           0        3.811300   -3.376100   -1.428500
     41          1           0        5.522400   -2.886300   -1.502100
     42          1           0        4.913000   -3.789500   -0.090100
 ---------------------------------------------------------------------
                    Distance matrix (angstroms):
                    1          2          3          4          5
     1  H    0.000000
     2  C    1.094625   0.000000
     3  H    1.782348   1.094301   0.000000
     4  H    1.763108   1.094324   1.782268   0.000000
     5  C    2.141142   1.521523   2.202335   2.141735   0.000000
     6  O    2.731189   2.410461   3.317091   2.712944   1.227942
     7  N    3.150750   2.441468   2.559158   3.168821   1.362786
     8  H    3.346044   2.614688   2.289064   3.410524   2.088748
     9  C    4.419861   3.810766   4.006829   4.464391   2.458303
    10  H    4.452511   4.073008   4.467692   4.764812   2.630391
    11  C    5.339498   4.565011   4.837556   4.907852   3.207271
    12  H    5.663656   4.751185   4.831629   5.009251   3.620532
    13  H    6.298531   5.592216   5.883954   5.959711   4.171651
    14  H    5.055238   4.303116   4.782859   4.457523   2.950469
    15  C    5.348944   4.776447   4.662747   5.558468   3.678321
    16  O    5.353679   4.747255   4.354591   5.562930   3.987885
    17  N    6.502712   6.013577   5.979740   6.796168   4.798630
    18  H    6.723716   6.267056   6.400334   6.986053   4.908645
    19  C    7.716164   7.231149   7.047172   8.048893   6.134207
    20  H    8.448835   8.021761   7.934547   8.836574   6.829367
    21  C    8.437413   7.791949   7.501922   8.498783   6.759947
    22  H    7.928228   7.217658   6.818654   7.891306   6.329084
    23  H    9.370794   8.753406   8.400827   9.489727   7.776352
    24  H    8.761896   8.058684   7.869953   8.670589   6.916120
    25  C    7.750545   7.396791   7.076149   8.328727   6.520504
    26  O    8.671449   8.292317   7.851460   9.216799   7.528449
    27  N    7.049816   6.872346   6.619337   7.880740   6.061767
    28  H    6.371128   6.239778   6.126493   7.242638   5.331953
    29  C    7.394105   7.365426   7.016187   8.428029   6.796622
    30  H    8.487623   8.438656   8.062761   9.493764   7.844175
    31  C    6.961206   6.905389   6.358611   7.953237   6.622380
    32  H    5.888139   5.854594   5.305475   6.906641   5.667884
    33  H    7.517283   7.568286   6.986295   8.621249   7.432058
    34  H    7.414325   7.209029   6.570466   8.203543   6.910147
    35  C    7.137688   7.321533   7.131838   8.407093   6.778380
    36  O    6.384971   6.624118   6.601974   7.688482   5.979030
    37  N    8.061481   8.353854   8.130930   9.446277   7.945645
    38  H    8.756863   8.994912   8.671768  10.088831   8.632427
    39  C    8.326372   8.786291   8.678221   9.859050   8.442632
    40  H    7.652731   8.160761   8.173106   9.210200   7.761973
    41  H    9.341288   9.796771   9.720128  10.865794   9.376064
    42  H    8.379280   8.911221   8.745184   9.972677   8.752134
                    6          7          8          9         10
     6  O    0.000000
     7  N    2.270315   0.000000
     8  H    3.184832   1.013345   0.000000
     9  C    2.792621   1.448722   2.092449   0.000000
    10  H    2.579560   2.074338   2.854579   1.097612   0.000000
    11  C    3.259773   2.480627   3.127295   1.542443   2.157511
    12  H    3.924940   2.761818   3.121308   2.181720   3.072044
    13  H    4.062278   3.430906   4.050161   2.195999   2.503226
    14  H    2.693870   2.710442   3.534591   2.156179   2.474657
    15  C    4.232626   2.399882   2.408712   1.537118   2.172009
    16  O    4.819302   2.651235   2.158132   2.421013   3.192009
    17  N    5.123190   3.632303   3.758757   2.452342   2.657819
    18  H    4.987277   3.914183   4.274848   2.542044   2.447449
    19  C    6.555680   4.890626   4.800875   3.848886   4.112884
    20  H    7.094818   5.671201   5.709031   4.491108   4.543414
    21  C    7.266794   5.438535   5.236322   4.474396   5.013255
    22  H    6.981014   4.974445   4.621895   4.245944   4.978080
    23  H    8.314243   6.443166   6.167380   5.524827   6.025567
    24  H    7.290081   5.653606   5.601908   4.547318   5.068508
    25  C    7.095069   5.300183   5.003384   4.574799   4.797372
    26  O    8.190917   6.268085   5.837948   5.640960   5.964094
    27  N    6.600604   5.003820   4.763012   4.430258   4.430627
    28  H    5.757909   4.380113   4.310630   3.754767   3.580446
    29  C    7.420614   5.851778   5.482469   5.550298   5.525389
    30  H    8.452489   6.848307   6.464348   6.448775   6.436480
    31  C    7.454014   5.685792   5.086675   5.726616   5.914375
    32  H    6.546265   4.821746   4.203483   5.063101   5.268728
    33  H    8.275640   6.594155   5.970321   6.737094   6.881075
    34  H    7.808300   5.837704   5.145259   5.832754   6.190903
    35  C    7.249744   6.085081   5.879872   5.847764   5.558124
    36  O    6.303748   5.432228   5.409760   5.163511   4.697941
    37  N    8.421261   7.330469   7.081295   7.179770   6.868770
    38  H    9.190276   7.925087   7.576786   7.779439   7.571833
    39  C    8.795611   8.034432   7.888085   7.950710   7.489778
    40  H    8.005261   7.469608   7.441529   7.378100   6.810993
    41  H    9.662261   8.945652   8.837603   8.745955   8.235372
    42  H    9.175687   8.418626   8.200790   8.508231   8.101484
                   11         12         13         14         15
    11  C    0.000000
    12  H    1.094905   0.000000
    13  H    1.096221   1.778310   0.000000
    14  H    1.092433   1.782634   1.775862   0.000000
    15  C    2.540240   2.777031   2.827183   3.475072   0.000000
    16  O    3.392738   3.297098   3.847199   4.294873   1.228082
    17  N    3.118605   3.496658   2.897951   4.091328   1.364267
    18  H    2.949193   3.557881   2.459206   3.804134   2.042338
    19  C    4.410466   4.572215   4.092079   5.444776   2.495417
    20  H    4.949254   5.246338   4.424087   5.925896   3.333579
    21  C    4.652592   4.476977   4.324385   5.740853   3.153821
    22  H    4.449426   4.074638   4.362348   5.532297   2.921627
    23  H    5.743712   5.542643   5.386402   6.831391   4.140806
    24  H    4.376062   4.190518   3.858621   5.425499   3.493623
    25  C    5.485623   5.628327   5.372616   6.481916   3.114724
    26  O    6.473927   6.470062   6.366597   7.507121   4.125351
    27  N    5.621426   5.944166   5.622641   6.492875   3.191607
    28  H    5.021252   5.495830   5.040612   5.801312   2.766563
    29  C    6.864900   7.158953   6.973692   7.681484   4.393730
    30  H    7.673041   7.929708   7.681184   8.544946   5.190978
    31  C    7.072104   7.194493   7.384379   7.868247   4.590983
    32  H    6.472703   6.611040   6.915664   7.180134   4.125362
    33  H    8.117988   8.243588   8.456038   8.878433   5.663212
    34  H    7.036070   7.007510   7.328266   7.913522   4.543148
    35  C    7.266265   7.744821   7.392551   7.930955   5.012550
    36  O    6.594089   7.204617   6.727123   7.145831   4.604190
    37  N    8.616125   9.086883   8.749814   9.259415   6.354125
    38  H    9.187486   9.570483   9.312094   9.899500   6.809144
    39  C    9.413597   9.987175   9.564442   9.936429   7.341039
    40  H    8.830533   9.486314   8.987340   9.266642   6.950137
    41  H   10.161430  10.766903  10.219321  10.702241   8.098326
    42  H   10.013995  10.542087  10.261592  10.503459   7.936406
                   16         17         18         19         20
    16  O    0.000000
    17  N    2.278227   0.000000
    18  H    3.157458   1.010801   0.000000
    19  C    2.851408   1.469374   2.136712   0.000000
    20  H    3.881705   2.051937   2.253258   1.097458   0.000000
    21  C    3.225332   2.500082   3.118152   1.532121   2.153942
    22  H    2.650104   2.769982   3.550916   2.167530   3.063488
    23  H    4.071328   3.430057   4.030955   2.158570   2.503465
    24  H    3.817314   2.763184   3.071880   2.168813   2.467604
    25  C    3.011542   2.518674   3.318573   1.548734   2.123053
    26  O    3.769853   3.618259   4.434188   2.417658   2.889891
    27  N    3.171965   2.797537   3.480826   2.460767   2.873719
    28  H    3.045310   2.421084   2.934935   2.619050   2.969931
    29  C    4.123797   4.211567   4.896321   3.835571   4.212843
    30  H    4.914533   4.817885   5.481895   4.134295   4.352709
    31  C    3.935277   4.817433   5.655894   4.535846   5.189975
    32  H    3.443400   4.621552   5.439663   4.667876   5.420605
    33  H    4.985239   5.894669   6.707583   5.578445   6.170320
    34  H    3.720216   4.766399   5.696276   4.276571   5.026410
    35  C    4.966730   4.852136   5.322464   4.805755   5.017959
    36  O    4.796740   4.482933   4.782731   4.780885   4.954491
    37  N    6.227950   6.189842   6.651835   6.030975   6.178693
    38  H    6.552471   6.623197   7.171024   6.263645   6.430869
    39  C    7.321927   7.206986   7.541860   7.218545   7.293197
    40  H    7.068729   6.844762   7.074621   7.058824   7.117385
    41  H    8.144571   7.812560   8.083501   7.717640   7.654255
    42  H    7.797402   7.952102   8.350170   7.996175   8.171557
                   21         22         23         24         25
    21  C    0.000000
    22  H    1.092546   0.000000
    23  H    1.091595   1.770443   0.000000
    24  H    1.095078   1.782631   1.784496   0.000000
    25  C    2.537617   2.839605   2.704546   3.487100   0.000000
    26  O    2.806607   3.029720   2.515896   3.852914   1.227091
    27  N    3.738011   3.945505   4.040777   4.590927   1.353828
    28  H    4.039726   4.253205   4.551032   4.728728   2.073741
    29  C    4.962676   5.055012   5.092831   5.905589   2.455789
    30  H    5.146365   5.353279   5.046646   6.116301   2.660795
    31  C    5.366516   5.142367   5.519973   6.380489   3.163273
    32  H    5.521122   5.179911   5.870113   6.461040   3.538247
    33  H    6.392061   6.167314   6.457810   7.425890   4.144445
    34  H    4.819997   4.498135   4.866392   5.882366   2.909476
    35  C    6.132467   6.286447   6.377647   6.962718   3.681752
    36  O    6.212507   6.387432   6.636918   6.907788   3.996275
    37  N    7.307798   7.466532   7.431281   8.179519   4.789584
    38  H    7.416248   7.556665   7.404658   8.353872   4.881971
    39  C    8.576384   8.756541   8.762591   9.386240   6.100361
    40  H    8.486648   8.677545   8.795211   9.213505   6.122393
    41  H    9.089039   9.372531   9.193870   9.875392   6.614573
    42  H    9.295979   9.373965   9.486807  10.149305   6.811836
                   26         27         28         29         30
    26  O    0.000000
    27  N    2.272508   0.000000
    28  H    3.180292   1.012836   0.000000
    29  C    2.812344   1.448853   2.094317   0.000000
    30  H    2.619561   2.072725   2.893817   1.096912   0.000000
    31  C    3.266646   2.481525   3.055494   1.542289   2.161270
    32  H    3.902754   2.748411   2.996501   2.177619   3.071586
    33  H    4.089179   3.429003   3.988558   2.191687   2.510803
    34  H    2.701983   2.724121   3.469940   2.160678   2.479601
    35  C    4.253431   2.394563   2.433686   1.536896   2.175383
    36  O    4.840914   2.652349   2.188803   2.415999   3.213574
    37  N    5.132093   3.611076   3.777260   2.445582   2.630507
    38  H    4.977937   3.883997   4.283074   2.541471   2.375751
    39  C    6.539227   4.849031   4.802340   3.829450   4.061024
    40  H    6.749148   4.802220   4.528330   4.043296   4.481798
    41  H    6.989816   5.438060   5.440126   4.458897   4.466850
    42  H    7.183043   5.566692   5.551216   4.423783   4.689057
                   31         32         33         34         35
    31  C    0.000000
    32  H    1.094423   0.000000
    33  H    1.095982   1.780818   0.000000
    34  H    1.092416   1.778236   1.779316   0.000000
    35  C    2.535504   2.772372   2.810304   3.474690   0.000000
    36  O    3.338796   3.214083   3.779035   4.255851   1.228820
    37  N    3.152851   3.553510   2.933304   4.114899   1.359926
    38  H    3.067498   3.716411   2.621225   3.891819   2.043336
    39  C    4.457642   4.660402   4.145729   5.478964   2.472906
    40  H    4.746447   4.743746   4.634582   5.798773   2.522850
    41  H    5.260003   5.595279   4.930160   6.213805   3.193230
    42  H    4.712442   4.840890   4.196046   5.748358   3.190987
                   36         37         38         39         40
    36  O    0.000000
    37  N    2.282158   0.000000
    38  H    3.163235   1.010258   0.000000
    39  C    2.838379   1.453403   2.130751   0.000000
    40  H    2.375071   2.061775   2.973211   1.090476   0.000000
    41  H    3.582729   2.111512   2.526325   1.095997   1.781343
    42  H    3.593574   2.112429   2.526286   1.096194   1.782121
                   41         42
    41  H    0.000000
    42  H    1.783503   0.000000
 Stoichiometry    C12H22N4O4
 Framework group  C1[X(C12H22N4O4)]
 Deg. of freedom   120
 Full point group                 C1      NOp   1
 Largest Abelian subgroup         C1      NOp   1
 Largest concise Abelian subgroup C1      NOp   1
                         Standard orientation:                         
 ---------------------------------------------------------------------
 Center     Atomic      Atomic             Coordinates (Angstroms)
 Number     Number       Type             X           Y           Z
 ---------------------------------------------------------------------
      1          1           0       -3.373261   -3.943921    1.145099
      2          6           0       -3.837469   -2.983125    1.389199
      3          1           0       -3.408972   -2.606922    2.323199
      4          1           0       -4.906567   -3.165734    1.534899
      5          6           0       -3.656977   -2.038824    0.209899
      6          8           0       -4.103175   -2.293927   -0.905301
      7          7           0       -2.970886   -0.891618    0.475199
      8          1           0       -2.544888   -0.710314    1.376599
      9          6           0       -2.655194    0.069185   -0.562101
     10          1           0       -2.353990   -0.481713   -1.462401
     11          6           0       -3.865801    0.957175   -0.915701
     12          1           0       -4.186106    1.533972   -0.041901
     13          1           0       -3.629107    1.656177   -1.726301
     14          1           0       -4.686696    0.314368   -1.241801
     15          6           0       -1.479101    0.914294   -0.047001
     16          8           0       -1.167401    0.934197    1.140699
     17          7           0       -0.824307    1.641500   -0.997601
     18          1           0       -1.179907    1.611197   -1.943301
     19          6           0        0.202485    2.644608   -0.683701
     20          1           0        0.595082    2.969111   -1.655801
     21          6           0       -0.363525    3.862503    0.053699
     22          1           0       -0.806823    3.556100    1.004099
     23          1           0        0.441169    4.569810    0.262899
     24          1           0       -1.128329    4.352497   -0.558001
     25          6           0        1.416890    2.054418    0.074899
     26          8           0        2.110284    2.764524    0.796499
     27          7           0        1.705400    0.759021   -0.192601
     28          1           0        1.092805    0.182615   -0.756801
     29          6           0        2.802706    0.061330    0.446399
     30          1           0        3.687501    0.708737    0.411499
     31          6           0        2.494409   -0.279173    1.918699
     32          1           0        1.609614   -0.920280    1.980999
     33          1           0        3.337913   -0.794966    2.391599
     34          1           0        2.297601    0.646725    2.463999
     35          6           0        3.046217   -1.216868   -0.371501
     36          8           0        2.169320   -1.694176   -1.087901
     37          7           0        4.273421   -1.779658   -0.208301
     38          1           0        4.942717   -1.308153    0.383599
     39          6           0        4.661331   -3.030055   -0.839501
     40          1           0        3.811334   -3.376062   -1.428501
     41          1           0        5.522430   -2.886248   -1.502101
     42          1           0        4.913038   -3.789453   -0.090101
 ---------------------------------------------------------------------
 Rotational constants (GHZ):      0.3725872      0.1993490      0.1470699
 Standard basis: Aug-CC-pVDZ (5D, 7F)
 There are   658 symmetry adapted basis functions of A   symmetry.
 Integral buffers will be    131072 words long.
 Raffenetti 1 integral format.
 Two-electron integral symmetry is turned on.
   658 basis functions,  1102 primitive gaussians,   698 cartesian basis functions
    77 alpha electrons       77 beta electrons
       nuclear repulsion energy      1653.8144624748 Hartrees.
 NAtoms=   42 NActive=   42 NUniq=   42 SFac= 7.50D-01 NAtFMM=   80 NAOKFM=F Big=F
 One-electron integrals computed using PRISM.
 PrsmSu:  requested number of processors reduced to:   7 ShMem   1 Linda.
 NBasis=   658 RedAO= T  NBF=   658
 NBsUse=   658 1.00D-06 NBFU=   658
 Harris functional with IExCor=  205 diagonalized for initial guess.
 ExpMin= 2.97D-02 ExpMax= 1.17D+04 ExpMxC= 4.01D+02 IAcc=3 IRadAn=         0 AccDes= 0.00D+00
 HarFok:  IExCor=  205 AccDes= 0.00D+00 IRadAn=         0 IDoV= 1
 ScaDFX=  1.000000  1.000000  1.000000  1.000000
 FoFCou: FMM=F IPFlag=           0 FMFlag=      100000 FMFlg1=           0
         NFxFlg=           0 DoJE=T BraDBF=F KetDBF=T FulRan=T
         Omega=  0.000000  0.000000  1.000000  0.000000  0.000000 ICntrl=     500 IOpCl=  0
         NMat0=    1 NMatS0=    1 NMatT0=    0 NMatD0=    1 NMtDS0=    0 NMtDT0=    0
         I1Cent=           4 NGrid=           0.
 Petite list used in FoFCou.
 Initial guess orbital symmetries:
       Occupied  (A) (A) (A) (A) (A) (A) (A) (A) (A) (A) (A) (A)
                 (A) (A) (A) (A) (A) (A) (A) (A) (A) (A) (A) (A)
                 (A) (A) (A) (A) (A) (A) (A) (A) (A) (A) (A) (A)
                 (A) (A) (A) (A) (A) (A) (A) (A) (A) (A) (A) (A)
                 (A) (A) (A) (A) (A) (A) (A) (A) (A) (A) (A) (A)
                 (A) (A) (A) (A) (A) (A) (A) (A) (A) (A) (A) (A)
                 (A) (A) (A) (A) (A)
       Virtual   (A) (A) (A) (A) (A) (A) (A) (A) (A) (A) (A) (A)
                 (A) (A) (A) (A) (A) (A) (A) (A) (A) (A) (A) (A)
                 (A) (A) (A) (A) (A) (A) (A) (A) (A) (A) (A) (A)
                 (A) (A) (A) (A) (A) (A) (A) (A) (A) (A) (A) (A)
                 (A) (A) (A) (A) (A) (A) (A) (A) (A) (A) (A) (A)
                 (A) (A) (A) (A) (A) (A) (A) (A) (A) (A) (A) (A)
                 (A) (A) (A) (A) (A) (A) (A) (A) (A) (A) (A) (A)
                 (A) (A) (A) (A) (A) (A) (A) (A) (A) (A) (A) (A)
                 (A) (A) (A) (A) (A) (A) (A) (A) (A) (A) (A) (A)
                 (A) (A) (A) (A) (A) (A) (A) (A) (A) (A) (A) (A)
                 (A) (A) (A) (A) (A) (A) (A) (A) (A) (A) (A) (A)
                 (A) (A) (A) (A) (A) (A) (A) (A) (A) (A) (A) (A)
                 (A) (A) (A) (A) (A) (A) (A) (A) (A) (A) (A) (A)
                 (A) (A) (A) (A) (A) (A) (A) (A) (A) (A) (A) (A)
                 (A) (A) (A) (A) (A) (A) (A) (A) (A) (A) (A) (A)
                 (A) (A) (A) (A) (A) (A) (A) (A) (A) (A) (A) (A)
                 (A) (A) (A) (A) (A) (A) (A) (A) (A) (A) (A) (A)
                 (A) (A) (A) (A) (A) (A) (A) (A) (A) (A) (A) (A)
                 (A) (A) (A) (A) (A) (A) (A) (A) (A) (A) (A) (A)
                 (A) (A) (A) (A) (A) (A) (A) (A) (A) (A) (A) (A)
                 (A) (A) (A) (A) (A) (A) (A) (A) (A) (A) (A) (A)
                 (A) (A) (A) (A) (A) (A) (A) (A) (A) (A) (A) (A)
                 (A) (A) (A) (A) (A) (A) (A) (A) (A) (A) (A) (A)
                 (A) (A) (A) (A) (A) (A) (A) (A) (A) (A) (A) (A)
                 (A) (A) (A) (A) (A) (A) (A) (A) (A) (A) (A) (A)
                 (A) (A) (A) (A) (A) (A) (A) (A) (A) (A) (A) (A)
                 (A) (A) (A) (A) (A) (A) (A) (A) (A) (A) (A) (A)
                 (A) (A) (A) (A) (A) (A) (A) (A) (A) (A) (A) (A)
                 (A) (A) (A) (A) (A) (A) (A) (A) (A) (A) (A) (A)
                 (A) (A) (A) (A) (A) (A) (A) (A) (A) (A) (A) (A)
                 (A) (A) (A) (A) (A) (A) (A) (A) (A) (A) (A) (A)
                 (A) (A) (A) (A) (A) (A) (A) (A) (A) (A) (A) (A)
                 (A) (A) (A) (A) (A) (A) (A) (A) (A) (A) (A) (A)
                 (A) (A) (A) (A) (A) (A) (A) (A) (A) (A) (A) (A)
                 (A) (A) (A) (A) (A) (A) (A) (A) (A) (A) (A) (A)
                 (A) (A) (A) (A) (A) (A) (A) (A) (A) (A) (A) (A)
                 (A) (A) (A) (A) (A) (A) (A) (A) (A) (A) (A) (A)
                 (A) (A) (A) (A) (A) (A) (A) (A) (A) (A) (A) (A)
                 (A) (A) (A) (A) (A) (A) (A) (A) (A) (A) (A) (A)
                 (A) (A) (A) (A) (A) (A) (A) (A) (A) (A) (A) (A)
                 (A) (A) (A) (A) (A) (A) (A) (A) (A) (A) (A) (A)
                 (A) (A) (A) (A) (A) (A) (A) (A) (A) (A) (A) (A)
                 (A) (A) (A) (A) (A) (A) (A) (A) (A) (A) (A) (A)
                 (A) (A) (A) (A) (A) (A) (A) (A) (A) (A) (A) (A)
                 (A) (A) (A) (A) (A) (A) (A) (A) (A) (A) (A) (A)
                 (A) (A) (A) (A) (A) (A) (A) (A) (A) (A) (A) (A)
                 (A) (A) (A) (A) (A) (A) (A) (A) (A) (A) (A) (A)
                 (A) (A) (A) (A) (A) (A) (A) (A) (A) (A) (A) (A)
                 (A) (A) (A) (A) (A)
 The electronic state of the initial guess is 1-A.
 Requested convergence on RMS density matrix=1.00D-08 within 128 cycles.
 Requested convergence on MAX density matrix=1.00D-06.
 Requested convergence on             energy=1.00D-06.
 No special actions if energy rises.
 Initial convergence to 1.0D-05 achieved.  Increase integral accuracy.
 SCF Done:  E(RHF) =  -984.695645534     A.U. after   15 cycles
             Convg  =    0.3001D-08             -V/T =  2.0017
 ExpMin= 2.97D-02 ExpMax= 1.17D+04 ExpMxC= 4.01D+02 IAcc=3 IRadAn=         5 AccDes= 0.00D+00
 HarFok:  IExCor=  205 AccDes= 0.00D+00 IRadAn=         5 IDoV=-2
 ScaDFX=  1.000000  1.000000  1.000000  1.000000
 Range of M.O.s used for correlation:    21   658
 NBasis=   658 NAE=    77 NBE=    77 NFC=    20 NFV=     0
 NROrb=    638 NOA=    57 NOB=    57 NVA=   581 NVB=   581

 **** Warning!!: The largest alpha MO coefficient is  0.86775893D+02

 Disk-based method using OVN memory for 57 occupieds at a time.
 Estimated scratch disk usage= 21290726869 words.
 Actual    scratch disk usage= 21289026005 words.
 GetIJB would need an additional    27943200 words of memory to use all   8 processors.
 JobTyp=1 Pass  1:  I=   1 to  57 NPSUse=  1 ParTrn=F ParDer=F DoDerP=F.
 Spin components of T(2) and E(2):
     alpha-alpha T2 =       0.1372228385D+00 E2=     -0.4158547945D+00
     alpha-beta  T2 =       0.7461881667D+00 E2=     -0.2363592326D+01
     beta-beta   T2 =       0.1372228385D+00 E2=     -0.4158547945D+00
 ANorm=    0.1421490008D+01
 E2 =    -0.3195301915D+01 EUMP2 =    -0.98789094744820D+03

 **********************************************************************

            Population analysis using the SCF density.

 **********************************************************************

 Orbital symmetries:
       Occupied  (A) (A) (A) (A) (A) (A) (A) (A) (A) (A) (A) (A)
                 (A) (A) (A) (A) (A) (A) (A) (A) (A) (A) (A) (A)
                 (A) (A) (A) (A) (A) (A) (A) (A) (A) (A) (A) (A)
                 (A) (A) (A) (A) (A) (A) (A) (A) (A) (A) (A) (A)
                 (A) (A) (A) (A) (A) (A) (A) (A) (A) (A) (A) (A)
                 (A) (A) (A) (A) (A) (A) (A) (A) (A) (A) (A) (A)
                 (A) (A) (A) (A) (A)
       Virtual   (A) (A) (A) (A) (A) (A) (A) (A) (A) (A) (A) (A)
                 (A) (A) (A) (A) (A) (A) (A) (A) (A) (A) (A) (A)
                 (A) (A) (A) (A) (A) (A) (A) (A) (A) (A) (A) (A)
                 (A) (A) (A) (A) (A) (A) (A) (A) (A) (A) (A) (A)
                 (A) (A) (A) (A) (A) (A) (A) (A) (A) (A) (A) (A)
                 (A) (A) (A) (A) (A) (A) (A) (A) (A) (A) (A) (A)
                 (A) (A) (A) (A) (A) (A) (A) (A) (A) (A) (A) (A)
                 (A) (A) (A) (A) (A) (A) (A) (A) (A) (A) (A) (A)
                 (A) (A) (A) (A) (A) (A) (A) (A) (A) (A) (A) (A)
                 (A) (A) (A) (A) (A) (A) (A) (A) (A) (A) (A) (A)
                 (A) (A) (A) (A) (A) (A) (A) (A) (A) (A) (A) (A)
                 (A) (A) (A) (A) (A) (A) (A) (A) (A) (A) (A) (A)
                 (A) (A) (A) (A) (A) (A) (A) (A) (A) (A) (A) (A)
                 (A) (A) (A) (A) (A) (A) (A) (A) (A) (A) (A) (A)
                 (A) (A) (A) (A) (A) (A) (A) (A) (A) (A) (A) (A)
                 (A) (A) (A) (A) (A) (A) (A) (A) (A) (A) (A) (A)
                 (A) (A) (A) (A) (A) (A) (A) (A) (A) (A) (A) (A)
                 (A) (A) (A) (A) (A) (A) (A) (A) (A) (A) (A) (A)
                 (A) (A) (A) (A) (A) (A) (A) (A) (A) (A) (A) (A)
                 (A) (A) (A) (A) (A) (A) (A) (A) (A) (A) (A) (A)
                 (A) (A) (A) (A) (A) (A) (A) (A) (A) (A) (A) (A)
                 (A) (A) (A) (A) (A) (A) (A) (A) (A) (A) (A) (A)
                 (A) (A) (A) (A) (A) (A) (A) (A) (A) (A) (A) (A)
                 (A) (A) (A) (A) (A) (A) (A) (A) (A) (A) (A) (A)
                 (A) (A) (A) (A) (A) (A) (A) (A) (A) (A) (A) (A)
                 (A) (A) (A) (A) (A) (A) (A) (A) (A) (A) (A) (A)
                 (A) (A) (A) (A) (A) (A) (A) (A) (A) (A) (A) (A)
                 (A) (A) (A) (A) (A) (A) (A) (A) (A) (A) (A) (A)
                 (A) (A) (A) (A) (A) (A) (A) (A) (A) (A) (A) (A)
                 (A) (A) (A) (A) (A) (A) (A) (A) (A) (A) (A) (A)
                 (A) (A) (A) (A) (A) (A) (A) (A) (A) (A) (A) (A)
                 (A) (A) (A) (A) (A) (A) (A) (A) (A) (A) (A) (A)
                 (A) (A) (A) (A) (A) (A) (A) (A) (A) (A) (A) (A)
                 (A) (A) (A) (A) (A) (A) (A) (A) (A) (A) (A) (A)
                 (A) (A) (A) (A) (A) (A) (A) (A) (A) (A) (A) (A)
                 (A) (A) (A) (A) (A) (A) (A) (A) (A) (A) (A) (A)
                 (A) (A) (A) (A) (A) (A) (A) (A) (A) (A) (A) (A)
                 (A) (A) (A) (A) (A) (A) (A) (A) (A) (A) (A) (A)
                 (A) (A) (A) (A) (A) (A) (A) (A) (A) (A) (A) (A)
                 (A) (A) (A) (A) (A) (A) (A) (A) (A) (A) (A) (A)
                 (A) (A) (A) (A) (A) (A) (A) (A) (A) (A) (A) (A)
                 (A) (A) (A) (A) (A) (A) (A) (A) (A) (A) (A) (A)
                 (A) (A) (A) (A) (A) (A) (A) (A) (A) (A) (A) (A)
                 (A) (A) (A) (A) (A) (A) (A) (A) (A) (A) (A) (A)
                 (A) (A) (A) (A) (A) (A) (A) (A) (A) (A) (A) (A)
                 (A) (A) (A) (A) (A) (A) (A) (A) (A) (A) (A) (A)
                 (A) (A) (A) (A) (A) (A) (A) (A) (A) (A) (A) (A)
                 (A) (A) (A) (A) (A) (A) (A) (A) (A) (A) (A) (A)
                 (A) (A) (A) (A) (A)
 The electronic state is 1-A.
 Alpha  occ. eigenvalues --  -20.55351 -20.54312 -20.52914 -20.52429 -15.61532
 Alpha  occ. eigenvalues --  -15.60716 -15.59034 -15.58664 -11.37872 -11.37087
 Alpha  occ. eigenvalues --  -11.36066 -11.35882 -11.30363 -11.29805 -11.29401
 Alpha  occ. eigenvalues --  -11.27676 -11.24262 -11.24029 -11.23265 -11.22669
 Alpha  occ. eigenvalues --   -1.40858  -1.39804  -1.38227  -1.37809  -1.25952
 Alpha  occ. eigenvalues --   -1.24490  -1.23724  -1.23303  -1.07203  -1.04720
 Alpha  occ. eigenvalues --   -1.02690  -0.98686  -0.96355  -0.91655  -0.89938
 Alpha  occ. eigenvalues --   -0.86704  -0.82121  -0.79755  -0.78691  -0.78354
 Alpha  occ. eigenvalues --   -0.74349  -0.72779  -0.68902  -0.67474  -0.66864
 Alpha  occ. eigenvalues --   -0.66321  -0.64276  -0.64092  -0.63369  -0.63052
 Alpha  occ. eigenvalues --   -0.61369  -0.61229  -0.60270  -0.59128  -0.58618
 Alpha  occ. eigenvalues --   -0.58053  -0.56827  -0.56115  -0.55799  -0.55352
 Alpha  occ. eigenvalues --   -0.54870  -0.54305  -0.53263  -0.53104  -0.52612
 Alpha  occ. eigenvalues --   -0.51991  -0.51979  -0.49985  -0.49388  -0.44415
 Alpha  occ. eigenvalues --   -0.43790  -0.43528  -0.42057  -0.40654  -0.40456
 Alpha  occ. eigenvalues --   -0.38990  -0.38615
 Alpha virt. eigenvalues --    0.02658   0.02936   0.03669   0.04311   0.04576
 Alpha virt. eigenvalues --    0.04627   0.04987   0.05831   0.06021   0.06192
 Alpha virt. eigenvalues --    0.06699   0.06961   0.07094   0.07715   0.07874
 Alpha virt. eigenvalues --    0.08643   0.08866   0.09200   0.09498   0.09996
 Alpha virt. eigenvalues --    0.10207   0.10825   0.11862   0.12055   0.12427
 Alpha virt. eigenvalues --    0.12975   0.13557   0.13896   0.14088   0.14389
 Alpha virt. eigenvalues --    0.14530   0.14898   0.15061   0.15346   0.15556
 Alpha virt. eigenvalues --    0.15730   0.16040   0.16109   0.16692   0.16748
 Alpha virt. eigenvalues --    0.17222   0.17511   0.17679   0.18005   0.18099
 Alpha virt. eigenvalues --    0.18471   0.18625   0.19059   0.19195   0.19623
 Alpha virt. eigenvalues --    0.19802   0.20065   0.20335   0.20500   0.20613
 Alpha virt. eigenvalues --    0.20726   0.20938   0.21405   0.21704   0.22075
 Alpha virt. eigenvalues --    0.22339   0.22773   0.22975   0.23771   0.23927
 Alpha virt. eigenvalues --    0.24293   0.24981   0.25144   0.25284   0.26145
 Alpha virt. eigenvalues --    0.26380   0.26943   0.27135   0.28178   0.28473
 Alpha virt. eigenvalues --    0.28887   0.29159   0.29679   0.30087   0.30444
 Alpha virt. eigenvalues --    0.31016   0.31199   0.31846   0.31999   0.32546
 Alpha virt. eigenvalues --    0.32625   0.32731   0.32828   0.33459   0.33603
 Alpha virt. eigenvalues --    0.33884   0.34663   0.34738   0.34965   0.35392
 Alpha virt. eigenvalues --    0.35640   0.36434   0.36538   0.36872   0.37259
 Alpha virt. eigenvalues --    0.37725   0.38097   0.38491   0.38805   0.39169
 Alpha virt. eigenvalues --    0.39503   0.40039   0.40356   0.40662   0.41035
 Alpha virt. eigenvalues --    0.41423   0.41796   0.41900   0.42087   0.42336
 Alpha virt. eigenvalues --    0.42626   0.42755   0.43029   0.43318   0.43651
 Alpha virt. eigenvalues --    0.44095   0.44450   0.44685   0.45207   0.45367
 Alpha virt. eigenvalues --    0.45699   0.46027   0.46293   0.46649   0.47226
 Alpha virt. eigenvalues --    0.47379   0.47602   0.48016   0.48297   0.49113
 Alpha virt. eigenvalues --    0.49185   0.49401   0.49790   0.49939   0.50411
 Alpha virt. eigenvalues --    0.50513   0.51058   0.51214   0.51578   0.51842
 Alpha virt. eigenvalues --    0.52015   0.52472   0.52715   0.53544   0.53705
 Alpha virt. eigenvalues --    0.54508   0.54787   0.55059   0.55154   0.55618
 Alpha virt. eigenvalues --    0.55978   0.56179   0.56280   0.56867   0.57095
 Alpha virt. eigenvalues --    0.57630   0.58012   0.58387   0.58473   0.59335
 Alpha virt. eigenvalues --    0.59470   0.59940   0.60141   0.60570   0.61150
 Alpha virt. eigenvalues --    0.61350   0.61412   0.61767   0.62287   0.62704
 Alpha virt. eigenvalues --    0.62996   0.63260   0.63755   0.63947   0.64411
 Alpha virt. eigenvalues --    0.64507   0.64782   0.65296   0.65737   0.66296
 Alpha virt. eigenvalues --    0.66473   0.66800   0.67232   0.67253   0.67650
 Alpha virt. eigenvalues --    0.68009   0.68407   0.68807   0.69104   0.69495
 Alpha virt. eigenvalues --    0.69874   0.70146   0.70717   0.71084   0.71406
 Alpha virt. eigenvalues --    0.72004   0.72831   0.73154   0.73311   0.73554
 Alpha virt. eigenvalues --    0.73798   0.74233   0.74411   0.74751   0.75109
 Alpha virt. eigenvalues --    0.75543   0.75852   0.76306   0.76958   0.77257
 Alpha virt. eigenvalues --    0.77542   0.77613   0.77751   0.78272   0.78888
 Alpha virt. eigenvalues --    0.79245   0.80136   0.80538   0.81519   0.81851
 Alpha virt. eigenvalues --    0.82235   0.82355   0.82769   0.83154   0.83494
 Alpha virt. eigenvalues --    0.84025   0.84552   0.84978   0.85246   0.85376
 Alpha virt. eigenvalues --    0.86015   0.86510   0.87156   0.87400   0.87992
 Alpha virt. eigenvalues --    0.89037   0.89321   0.89684   0.90623   0.91060
 Alpha virt. eigenvalues --    0.91231   0.92483   0.92945   0.93013   0.93270
 Alpha virt. eigenvalues --    0.93704   0.94236   0.94628   0.94808   0.95635
 Alpha virt. eigenvalues --    0.95886   0.96440   0.97034   0.97916   0.98381
 Alpha virt. eigenvalues --    0.98589   0.99331   0.99693   1.00489   1.00689
 Alpha virt. eigenvalues --    1.00810   1.01353   1.02387   1.02801   1.03510
 Alpha virt. eigenvalues --    1.03927   1.04317   1.04947   1.05511   1.06111
 Alpha virt. eigenvalues --    1.06944   1.07518   1.08482   1.08848   1.09305
 Alpha virt. eigenvalues --    1.09931   1.10780   1.11105   1.12041   1.12363
 Alpha virt. eigenvalues --    1.12880   1.13203   1.13439   1.14906   1.15099
 Alpha virt. eigenvalues --    1.16114   1.16708   1.16908   1.17333   1.18320
 Alpha virt. eigenvalues --    1.18511   1.19108   1.19341   1.20112   1.21087
 Alpha virt. eigenvalues --    1.21382   1.21800   1.22246   1.23509   1.23724
 Alpha virt. eigenvalues --    1.24613   1.25482   1.26560   1.27538   1.28273
 Alpha virt. eigenvalues --    1.28492   1.28748   1.29857   1.31487   1.32308
 Alpha virt. eigenvalues --    1.33364   1.33741   1.34409   1.34869   1.35307
 Alpha virt. eigenvalues --    1.36053   1.37305   1.38091   1.39108   1.39950
 Alpha virt. eigenvalues --    1.40988   1.41449   1.41725   1.42534   1.44260
 Alpha virt. eigenvalues --    1.44801   1.45643   1.46869   1.47347   1.47848
 Alpha virt. eigenvalues --    1.48834   1.49371   1.50212   1.51556   1.53262
 Alpha virt. eigenvalues --    1.54273   1.54666   1.56116   1.56607   1.57770
 Alpha virt. eigenvalues --    1.58109   1.58449   1.59654   1.60504   1.62914
 Alpha virt. eigenvalues --    1.63135   1.64298   1.65239   1.66218   1.66586
 Alpha virt. eigenvalues --    1.67537   1.68945   1.69662   1.70912   1.71663
 Alpha virt. eigenvalues --    1.71864   1.73019   1.73892   1.74723   1.75379
 Alpha virt. eigenvalues --    1.76294   1.76838   1.77722   1.78692   1.79256
 Alpha virt. eigenvalues --    1.80524   1.81101   1.82346   1.83184   1.84975
 Alpha virt. eigenvalues --    1.85410   1.86310   1.87488   1.88174   1.88764
 Alpha virt. eigenvalues --    1.89142   1.89193   1.89655   1.89930   1.90531
 Alpha virt. eigenvalues --    1.91136   1.91887   1.92343   1.92929   1.93220
 Alpha virt. eigenvalues --    1.94380   1.95487   1.96141   1.96759   1.97467
 Alpha virt. eigenvalues --    1.98835   1.98927   1.99676   2.00639   2.00872
 Alpha virt. eigenvalues --    2.01308   2.02462   2.02828   2.03171   2.04480
 Alpha virt. eigenvalues --    2.05468   2.06209   2.06309   2.07566   2.08162
 Alpha virt. eigenvalues --    2.09293   2.09620   2.09778   2.10448   2.11758
 Alpha virt. eigenvalues --    2.12219   2.12975   2.13407   2.14629   2.15338
 Alpha virt. eigenvalues --    2.16734   2.16991   2.17555   2.17893   2.19384
 Alpha virt. eigenvalues --    2.19671   2.20873   2.21570   2.22641   2.23716
 Alpha virt. eigenvalues --    2.24353   2.25270   2.25817   2.26740   2.27033
 Alpha virt. eigenvalues --    2.27635   2.28239   2.28861   2.29446   2.30256
 Alpha virt. eigenvalues --    2.31118   2.31863   2.32355   2.32627   2.33212
 Alpha virt. eigenvalues --    2.33836   2.34460   2.35664   2.36408   2.36966
 Alpha virt. eigenvalues --    2.37664   2.38706   2.39543   2.40253   2.41359
 Alpha virt. eigenvalues --    2.41720   2.42432   2.43740   2.44669   2.45079
 Alpha virt. eigenvalues --    2.45507   2.46980   2.47305   2.48262   2.49844
 Alpha virt. eigenvalues --    2.51151   2.51621   2.53266   2.54030   2.54823
 Alpha virt. eigenvalues --    2.55178   2.55500   2.56285   2.57763   2.58772
 Alpha virt. eigenvalues --    2.59550   2.60088   2.60789   2.62293   2.62558
 Alpha virt. eigenvalues --    2.63020   2.63864   2.64442   2.65385   2.66264
 Alpha virt. eigenvalues --    2.67659   2.68765   2.69978   2.70686   2.71178
 Alpha virt. eigenvalues --    2.71890   2.72190   2.73084   2.73862   2.75476
 Alpha virt. eigenvalues --    2.75680   2.76818   2.78390   2.78796   2.79558
 Alpha virt. eigenvalues --    2.79635   2.80809   2.82188   2.83234   2.85204
 Alpha virt. eigenvalues --    2.86791   2.88280   2.88693   2.89765   2.90880
 Alpha virt. eigenvalues --    2.91263   2.92439   2.92647   2.93989   2.94680
 Alpha virt. eigenvalues --    2.95806   2.96735   2.97963   2.99421   2.99956
 Alpha virt. eigenvalues --    3.01122   3.02413   3.02980   3.04262   3.05403
 Alpha virt. eigenvalues --    3.05802   3.07147   3.07939   3.09866   3.10373
 Alpha virt. eigenvalues --    3.11616   3.14083   3.15173   3.17524   3.18724
 Alpha virt. eigenvalues --    3.20078   3.22003   3.23142   3.24557   3.24880
 Alpha virt. eigenvalues --    3.28649   3.32074   3.32731   3.34878   3.41076
 Alpha virt. eigenvalues --    3.43369   3.45511   3.48312   3.52953   3.56400
 Alpha virt. eigenvalues --    3.60509   3.61352   3.65018   3.68729   3.71291
 Alpha virt. eigenvalues --    3.75227   3.79886   3.83726   3.84575   3.84727
 Alpha virt. eigenvalues --    3.86262   3.88043   3.88468   3.91120   3.92146
 Alpha virt. eigenvalues --    3.94073   3.98859   4.00095   4.01730   4.04578
 Alpha virt. eigenvalues --    4.06815   4.07002   4.11077   4.11638   4.14047
 Alpha virt. eigenvalues --    4.15625   4.21307   4.24038   4.26998   4.32284
 Alpha virt. eigenvalues --    4.38302
          Condensed to atoms (all electrons):
              1          2          3          4          5          6
     1  H    0.740976   0.373219  -0.078926  -0.064185  -0.098330   0.022583
     2  C    0.373219   4.601178   0.354526   0.378595   0.165658  -0.062146
     3  H   -0.078926   0.354526   1.123209  -0.075059   0.142337  -0.014275
     4  H   -0.064185   0.378595  -0.075059   0.760767  -0.083767   0.021584
     5  C   -0.098330   0.165658   0.142337  -0.083767   5.725874   0.189717
     6  O    0.022583  -0.062146  -0.014275   0.021584   0.189717   8.751600
     7  N    0.072213  -0.071124  -0.238787   0.032171  -0.048689  -0.108025
     8  H   -0.004228  -0.052280  -0.007658  -0.001904  -0.170718  -0.004337
     9  C   -0.038158  -0.037052   0.010329   0.019991   0.084416   0.020806
    10  H   -0.004230   0.001292   0.000973   0.001380   0.064350  -0.002446
    11  C    0.001138  -0.010089  -0.012966  -0.003588  -0.112728   0.030132
    12  H    0.000142   0.004248   0.000302  -0.000870   0.014281  -0.003794
    13  H   -0.000047  -0.000867  -0.001883   0.000678  -0.063834   0.004838
    14  H   -0.000438   0.012987   0.003234  -0.001184   0.062505   0.019988
    15  C    0.029431  -0.031465  -0.035136  -0.012605  -0.387708   0.008161
    16  O   -0.000598   0.000516  -0.000788   0.000366  -0.019148   0.000056
    17  N   -0.000493   0.007705   0.006326  -0.000179   0.094651   0.002575
    18  H   -0.000107  -0.000828   0.000025  -0.000132  -0.007618   0.000419
    19  C   -0.000368  -0.004445  -0.000492   0.000030  -0.009305  -0.000170
    20  H   -0.000006  -0.000190  -0.000057   0.000004  -0.000961  -0.000111
    21  C    0.000053   0.000254  -0.000163  -0.000035  -0.000755   0.000351
    22  H    0.000039  -0.000176  -0.000237  -0.000005  -0.002207   0.000086
    23  H    0.000001   0.000026   0.000017  -0.000002   0.000355   0.000016
    24  H   -0.000003  -0.000085  -0.000036  -0.000002  -0.000729  -0.000025
    25  C    0.000039   0.000706  -0.000457  -0.000033  -0.010425   0.000500
    26  O    0.000005   0.000038   0.000045   0.000002   0.000444  -0.000002
    27  N   -0.000222  -0.003425  -0.001498  -0.000122  -0.017621   0.000681
    28  H   -0.000077   0.003008   0.000931   0.000231   0.007893  -0.000765
    29  C    0.000084   0.005724   0.002803   0.000217   0.018605  -0.000175
    30  H    0.000012   0.000203   0.000104   0.000003   0.000549  -0.000017
    31  C   -0.000232  -0.001354  -0.000463  -0.000040  -0.005503   0.000103
    32  H    0.000228  -0.002366  -0.001430  -0.000249  -0.001595   0.000023
    33  H   -0.000015  -0.000039  -0.000181   0.000002  -0.000343   0.000001
    34  H   -0.000050  -0.000023   0.000058   0.000011  -0.000242   0.000018
    35  C    0.000293  -0.001929  -0.000913  -0.000114  -0.007268  -0.000068
    36  O   -0.000008   0.000939   0.000241   0.000038   0.002045  -0.000007
    37  N   -0.000011  -0.000004   0.000031   0.000000   0.000202   0.000007
    38  H   -0.000004  -0.000009  -0.000010   0.000000  -0.000006   0.000001
    39  C    0.000007  -0.000007  -0.000005  -0.000001   0.000026  -0.000009
    40  H   -0.000005  -0.000018  -0.000009  -0.000002  -0.000095   0.000021
    41  H    0.000001  -0.000006  -0.000002   0.000000  -0.000003  -0.000001
    42  H   -0.000001   0.000002   0.000002   0.000000   0.000011  -0.000001
              7          8          9         10         11         12
     1  H    0.072213  -0.004228  -0.038158  -0.004230   0.001138   0.000142
     2  C   -0.071124  -0.052280  -0.037052   0.001292  -0.010089   0.004248
     3  H   -0.238787  -0.007658   0.010329   0.000973  -0.012966   0.000302
     4  H    0.032171  -0.001904   0.019991   0.001380  -0.003588  -0.000870
     5  C   -0.048689  -0.170718   0.084416   0.064350  -0.112728   0.014281
     6  O   -0.108025  -0.004337   0.020806  -0.002446   0.030132  -0.003794
     7  N    8.001415   0.246098  -1.287057  -0.209567   0.163947  -0.153242
     8  H    0.246098   0.954714   0.315444   0.021027  -0.025645   0.005575
     9  C   -1.287057   0.315444  12.197405   0.223083  -0.326087   0.213033
    10  H   -0.209567   0.021027   0.223083   1.397594  -0.037712   0.089902
    11  C    0.163947  -0.025645  -0.326087  -0.037712   4.406328   0.260380
    12  H   -0.153242   0.005575   0.213033   0.089902   0.260380   1.144275
    13  H    0.138940   0.001231  -0.392699  -0.108364   0.309727  -0.166195
    14  H    0.020493  -0.014536  -0.058698  -0.039936   0.372288  -0.222001
    15  C    0.483722  -0.225486  -4.516404  -0.220044   0.029545  -0.142721
    16  O   -0.097575   0.085670   0.361963   0.006041  -0.015979   0.028008
    17  N    0.123009  -0.037367   0.374371  -0.052653   0.040080  -0.042119
    18  H    0.001200   0.002060  -0.289755   0.021839   0.011757   0.002933
    19  C    0.051322   0.010440  -0.387960  -0.019827  -0.000908  -0.006155
    20  H    0.004963  -0.000088  -0.034047  -0.000440   0.010236   0.000531
    21  C   -0.006096  -0.003762  -0.094355   0.002525   0.011197  -0.003525
    22  H    0.002314  -0.000494  -0.056190   0.000846   0.015256  -0.001066
    23  H    0.000287  -0.000548   0.027477   0.000272  -0.003370  -0.000057
    24  H   -0.002436   0.000353  -0.053683  -0.000866   0.008146   0.001207
    25  C   -0.024920  -0.005033   0.094655   0.003335   0.011530   0.005307
    26  O    0.001710  -0.000471  -0.008236  -0.000398   0.000189  -0.000061
    27  N   -0.009098   0.001718  -0.036946   0.010579   0.009099   0.000411
    28  H    0.005489  -0.005033  -0.067947  -0.005392  -0.005755   0.001421
    29  C   -0.003971   0.000035   0.057799  -0.003680  -0.008168   0.000367
    30  H   -0.000658  -0.000441   0.003555  -0.000012  -0.000102   0.000058
    31  C   -0.000262  -0.001296   0.006349   0.001511   0.002365   0.000139
    32  H   -0.001157   0.000407  -0.024776  -0.000964   0.002007   0.000108
    33  H   -0.000088   0.000363   0.005386   0.000630  -0.000239  -0.000011
    34  H    0.000656   0.000062  -0.001481  -0.000397   0.000461   0.000071
    35  C    0.002270   0.002223   0.003340   0.009312   0.001156   0.000034
    36  O    0.002813  -0.000067  -0.004784  -0.000896  -0.001696  -0.000084
    37  N   -0.000267  -0.000285  -0.000782  -0.001362   0.000192   0.000011
    38  H    0.000071   0.000016  -0.001204  -0.000072   0.000012  -0.000002
    39  C   -0.000018   0.000145   0.000813   0.000052   0.000066   0.000006
    40  H   -0.000072   0.000041   0.000334   0.000015   0.000054   0.000002
    41  H    0.000002   0.000001   0.000019   0.000030  -0.000001   0.000000
    42  H    0.000004   0.000008   0.000017  -0.000029   0.000007   0.000001
             13         14         15         16         17         18
     1  H   -0.000047  -0.000438   0.029431  -0.000598  -0.000493  -0.000107
     2  C   -0.000867   0.012987  -0.031465   0.000516   0.007705  -0.000828
     3  H   -0.001883   0.003234  -0.035136  -0.000788   0.006326   0.000025
     4  H    0.000678  -0.001184  -0.012605   0.000366  -0.000179  -0.000132
     5  C   -0.063834   0.062505  -0.387708  -0.019148   0.094651  -0.007618
     6  O    0.004838   0.019988   0.008161   0.000056   0.002575   0.000419
     7  N    0.138940   0.020493   0.483722  -0.097575   0.123009   0.001200
     8  H    0.001231  -0.014536  -0.225486   0.085670  -0.037367   0.002060
     9  C   -0.392699  -0.058698  -4.516404   0.361963   0.374371  -0.289755
    10  H   -0.108364  -0.039936  -0.220044   0.006041  -0.052653   0.021839
    11  C    0.309727   0.372288   0.029545  -0.015979   0.040080   0.011757
    12  H   -0.166195  -0.222001  -0.142721   0.028008  -0.042119   0.002933
    13  H    1.291440  -0.164031   0.227564  -0.014841  -0.003409  -0.005638
    14  H   -0.164031   1.040850   0.004829  -0.006139   0.043497  -0.000235
    15  C    0.227564   0.004829  10.916357  -0.120661  -1.374240   0.180706
    16  O   -0.014841  -0.006139  -0.120661   8.843135  -0.106278   0.003176
    17  N   -0.003409   0.043497  -1.374240  -0.106278   9.095185   0.131881
    18  H   -0.005638  -0.000235   0.180706   0.003176   0.131881   1.084919
    19  C    0.041531  -0.005553   0.382789  -0.227466  -1.116109   0.023205
    20  H    0.004078  -0.000703  -0.002052   0.016203  -0.332754   0.000067
    21  C   -0.013945   0.004520  -0.053290   0.058392   0.112933   0.023498
    22  H    0.001656   0.000971   0.024373   0.028426  -0.232294  -0.001182
    23  H   -0.000155  -0.000044  -0.062480   0.005258   0.213038  -0.006779
    24  H   -0.004412   0.001184   0.106895  -0.005126  -0.116976   0.020417
    25  C    0.002469  -0.001313  -0.535022   0.075830   0.661190  -0.134374
    26  O   -0.000134   0.000037   0.059321   0.006616  -0.101476   0.003573
    27  N    0.000245   0.000347   0.058047  -0.043583  -0.349949   0.069934
    28  H    0.000207  -0.000362   0.063188   0.015303   0.033051  -0.008612
    29  C   -0.001434  -0.000229   0.061237   0.051386   0.011238   0.014639
    30  H   -0.000106  -0.000007  -0.004505   0.000803   0.004687   0.000645
    31  C    0.000151   0.000103  -0.057579  -0.015988  -0.003291  -0.003289
    32  H    0.000029   0.000039   0.022927   0.000929  -0.002103   0.001517
    33  H   -0.000019  -0.000011  -0.022066  -0.003394   0.000891  -0.000259
    34  H    0.000105   0.000016   0.045519   0.002413  -0.005119  -0.000470
    35  C    0.000584  -0.000075   0.021760  -0.030038  -0.034767  -0.003311
    36  O   -0.000106  -0.000056  -0.016607   0.002307   0.010688   0.000042
    37  N    0.000002   0.000018   0.000576   0.000292   0.004843   0.000487
    38  H    0.000002   0.000002   0.001745   0.000206  -0.001405   0.000020
    39  C    0.000006   0.000005   0.000073  -0.000438   0.000816  -0.000038
    40  H    0.000003   0.000006  -0.000110  -0.000065  -0.000078   0.000036
    41  H    0.000000   0.000000   0.000100  -0.000041   0.000038   0.000000
    42  H    0.000001   0.000000   0.000076   0.000026   0.000015  -0.000006
             19         20         21         22         23         24
     1  H   -0.000368  -0.000006   0.000053   0.000039   0.000001  -0.000003
     2  C   -0.004445  -0.000190   0.000254  -0.000176   0.000026  -0.000085
     3  H   -0.000492  -0.000057  -0.000163  -0.000237   0.000017  -0.000036
     4  H    0.000030   0.000004  -0.000035  -0.000005  -0.000002  -0.000002
     5  C   -0.009305  -0.000961  -0.000755  -0.002207   0.000355  -0.000729
     6  O   -0.000170  -0.000111   0.000351   0.000086   0.000016  -0.000025
     7  N    0.051322   0.004963  -0.006096   0.002314   0.000287  -0.002436
     8  H    0.010440  -0.000088  -0.003762  -0.000494  -0.000548   0.000353
     9  C   -0.387960  -0.034047  -0.094355  -0.056190   0.027477  -0.053683
    10  H   -0.019827  -0.000440   0.002525   0.000846   0.000272  -0.000866
    11  C   -0.000908   0.010236   0.011197   0.015256  -0.003370   0.008146
    12  H   -0.006155   0.000531  -0.003525  -0.001066  -0.000057   0.001207
    13  H    0.041531   0.004078  -0.013945   0.001656  -0.000155  -0.004412
    14  H   -0.005553  -0.000703   0.004520   0.000971  -0.000044   0.001184
    15  C    0.382789  -0.002052  -0.053290   0.024373  -0.062480   0.106895
    16  O   -0.227466   0.016203   0.058392   0.028426   0.005258  -0.005126
    17  N   -1.116109  -0.332754   0.112933  -0.232294   0.213038  -0.116976
    18  H    0.023205   0.000067   0.023498  -0.001182  -0.006779   0.020417
    19  C    8.778845   0.064805  -0.129001   0.253416  -0.316794   0.192631
    20  H    0.064805   1.502940  -0.081311   0.080941  -0.030194  -0.068474
    21  C   -0.129001  -0.081311   4.487397   0.283036   0.345910   0.153887
    22  H    0.253416   0.080941   0.283036   1.058882  -0.205493  -0.158787
    23  H   -0.316794  -0.030194   0.345910  -0.205493   1.240388  -0.254218
    24  H    0.192631  -0.068474   0.153887  -0.158787  -0.254218   1.280591
    25  C   -1.580854   0.095793   0.144843  -0.123006   0.244780  -0.076823
    26  O    0.055714   0.020322  -0.056341   0.036911  -0.050913   0.010789
    27  N    0.403430  -0.025460  -0.043582   0.057798  -0.073653   0.015030
    28  H   -0.113771   0.006507  -0.000874  -0.010369   0.004368   0.002376
    29  C    0.030397  -0.012213  -0.040772  -0.004725  -0.004784  -0.001297
    30  H   -0.019649  -0.005872   0.002051  -0.002519   0.003671  -0.000633
    31  C    0.001835   0.009005  -0.001019   0.007022  -0.000914  -0.001252
    32  H   -0.018404  -0.000794   0.005298   0.000027   0.001049  -0.000293
    33  H    0.003208  -0.000098   0.002538   0.001010  -0.000270   0.000149
    34  H   -0.001502   0.000462  -0.004939  -0.001973  -0.001325   0.000959
    35  C    0.010649   0.006472   0.000253   0.003900  -0.004308   0.001842
    36  O    0.021089   0.000305   0.000102   0.000076   0.000167  -0.000157
    37  N    0.000618  -0.000587   0.000621  -0.000120   0.000024   0.000032
    38  H    0.000250   0.000036   0.000077   0.000032  -0.000026   0.000013
    39  C   -0.000045  -0.000125   0.000144  -0.000024  -0.000052   0.000036
    40  H    0.000041  -0.000078   0.000046  -0.000006  -0.000012   0.000011
    41  H    0.000130   0.000004  -0.000012   0.000004  -0.000004   0.000001
    42  H   -0.000115   0.000027  -0.000015  -0.000006   0.000001  -0.000001
             25         26         27         28         29         30
     1  H    0.000039   0.000005  -0.000222  -0.000077   0.000084   0.000012
     2  C    0.000706   0.000038  -0.003425   0.003008   0.005724   0.000203
     3  H   -0.000457   0.000045  -0.001498   0.000931   0.002803   0.000104
     4  H   -0.000033   0.000002  -0.000122   0.000231   0.000217   0.000003
     5  C   -0.010425   0.000444  -0.017621   0.007893   0.018605   0.000549
     6  O    0.000500  -0.000002   0.000681  -0.000765  -0.000175  -0.000017
     7  N   -0.024920   0.001710  -0.009098   0.005489  -0.003971  -0.000658
     8  H   -0.005033  -0.000471   0.001718  -0.005033   0.000035  -0.000441
     9  C    0.094655  -0.008236  -0.036946  -0.067947   0.057799   0.003555
    10  H    0.003335  -0.000398   0.010579  -0.005392  -0.003680  -0.000012
    11  C    0.011530   0.000189   0.009099  -0.005755  -0.008168  -0.000102
    12  H    0.005307  -0.000061   0.000411   0.001421   0.000367   0.000058
    13  H    0.002469  -0.000134   0.000245   0.000207  -0.001434  -0.000106
    14  H   -0.001313   0.000037   0.000347  -0.000362  -0.000229  -0.000007
    15  C   -0.535022   0.059321   0.058047   0.063188   0.061237  -0.004505
    16  O    0.075830   0.006616  -0.043583   0.015303   0.051386   0.000803
    17  N    0.661190  -0.101476  -0.349949   0.033051   0.011238   0.004687
    18  H   -0.134374   0.003573   0.069934  -0.008612   0.014639   0.000645
    19  C   -1.580854   0.055714   0.403430  -0.113771   0.030397  -0.019649
    20  H    0.095793   0.020322  -0.025460   0.006507  -0.012213  -0.005872
    21  C    0.144843  -0.056341  -0.043582  -0.000874  -0.040772   0.002051
    22  H   -0.123006   0.036911   0.057798  -0.010369  -0.004725  -0.002519
    23  H    0.244780  -0.050913  -0.073653   0.004368  -0.004784   0.003671
    24  H   -0.076823   0.010789   0.015030   0.002376  -0.001297  -0.000633
    25  C    7.383918   0.148630  -0.623532  -0.059939  -0.276887   0.146466
    26  O    0.148630   8.923070  -0.242303   0.023298   0.088574  -0.007541
    27  N   -0.623532  -0.242303   8.654184  -0.031823  -1.351307  -0.168183
    28  H   -0.059939   0.023298  -0.031823   1.146321   0.279131  -0.000658
    29  C   -0.276887   0.088574  -1.351307   0.279131  10.370959  -0.065422
    30  H    0.146466  -0.007541  -0.168183  -0.000658  -0.065422   1.506521
    31  C   -0.050358  -0.026312   0.366204  -0.068703  -0.584327  -0.011980
    32  H    0.123842  -0.009571  -0.137213   0.008562   0.168983   0.097311
    33  H   -0.049305  -0.005908   0.227989  -0.011237  -0.656694  -0.089865
    34  H    0.027019   0.046052  -0.122149   0.005514   0.152679  -0.031738
    35  C   -0.358195  -0.024031   0.625399  -0.227200  -2.367214  -0.066833
    36  O    0.004053   0.001148  -0.085310   0.045345   0.214914  -0.019413
    37  N   -0.001193   0.005976  -0.070251   0.016028   0.309795  -0.053916
    38  H    0.010362  -0.000700   0.000849   0.004808  -0.097648   0.037186
    39  C   -0.002360   0.000945  -0.008304  -0.008034  -0.037344  -0.000364
    40  H    0.001559   0.000167   0.001654  -0.002236   0.055877   0.004446
    41  H   -0.002867  -0.000061  -0.003775  -0.001861  -0.025905  -0.001900
    42  H    0.002409   0.000046   0.004320   0.001618  -0.022168  -0.004140
             31         32         33         34         35         36
     1  H   -0.000232   0.000228  -0.000015  -0.000050   0.000293  -0.000008
     2  C   -0.001354  -0.002366  -0.000039  -0.000023  -0.001929   0.000939
     3  H   -0.000463  -0.001430  -0.000181   0.000058  -0.000913   0.000241
     4  H   -0.000040  -0.000249   0.000002   0.000011  -0.000114   0.000038
     5  C   -0.005503  -0.001595  -0.000343  -0.000242  -0.007268   0.002045
     6  O    0.000103   0.000023   0.000001   0.000018  -0.000068  -0.000007
     7  N   -0.000262  -0.001157  -0.000088   0.000656   0.002270   0.002813
     8  H   -0.001296   0.000407   0.000363   0.000062   0.002223  -0.000067
     9  C    0.006349  -0.024776   0.005386  -0.001481   0.003340  -0.004784
    10  H    0.001511  -0.000964   0.000630  -0.000397   0.009312  -0.000896
    11  C    0.002365   0.002007  -0.000239   0.000461   0.001156  -0.001696
    12  H    0.000139   0.000108  -0.000011   0.000071   0.000034  -0.000084
    13  H    0.000151   0.000029  -0.000019   0.000105   0.000584  -0.000106
    14  H    0.000103   0.000039  -0.000011   0.000016  -0.000075  -0.000056
    15  C   -0.057579   0.022927  -0.022066   0.045519   0.021760  -0.016607
    16  O   -0.015988   0.000929  -0.003394   0.002413  -0.030038   0.002307
    17  N   -0.003291  -0.002103   0.000891  -0.005119  -0.034767   0.010688
    18  H   -0.003289   0.001517  -0.000259  -0.000470  -0.003311   0.000042
    19  C    0.001835  -0.018404   0.003208  -0.001502   0.010649   0.021089
    20  H    0.009005  -0.000794  -0.000098   0.000462   0.006472   0.000305
    21  C   -0.001019   0.005298   0.002538  -0.004939   0.000253   0.000102
    22  H    0.007022   0.000027   0.001010  -0.001973   0.003900   0.000076
    23  H   -0.000914   0.001049  -0.000270  -0.001325  -0.004308   0.000167
    24  H   -0.001252  -0.000293   0.000149   0.000959   0.001842  -0.000157
    25  C   -0.050358   0.123842  -0.049305   0.027019  -0.358195   0.004053
    26  O   -0.026312  -0.009571  -0.005908   0.046052  -0.024031   0.001148
    27  N    0.366204  -0.137213   0.227989  -0.122149   0.625399  -0.085310
    28  H   -0.068703   0.008562  -0.011237   0.005514  -0.227200   0.045345
    29  C   -0.584327   0.168983  -0.656694   0.152679  -2.367214   0.214914
    30  H   -0.011980   0.097311  -0.089865  -0.031738  -0.066833  -0.019413
    31  C    4.414250   0.230620   0.420705   0.240826   0.266315  -0.032659
    32  H    0.230620   1.091396  -0.233055  -0.141615  -0.183837   0.016530
    33  H    0.420705  -0.233055   1.499548  -0.261201   0.378864  -0.025517
    34  H    0.240826  -0.141615  -0.261201   1.117819  -0.034409   0.002548
    35  C    0.266315  -0.183837   0.378864  -0.034409   6.967875   0.153764
    36  O   -0.032659   0.016530  -0.025517   0.002548   0.153764   8.774048
    37  N   -0.023997   0.009426  -0.038013   0.010392  -0.161398  -0.234447
    38  H   -0.029678   0.003688  -0.002442  -0.001625   0.070577   0.014257
    39  C   -0.008861  -0.010459   0.015046   0.002975  -0.095369   0.004658
    40  H   -0.014850  -0.002637   0.002734  -0.000128  -0.070462   0.005993
    41  H    0.004594   0.000950   0.000167  -0.000115   0.028509   0.014262
    42  H    0.010884  -0.001557   0.000446   0.001242  -0.012761   0.012199
             37         38         39         40         41         42
     1  H   -0.000011  -0.000004   0.000007  -0.000005   0.000001  -0.000001
     2  C   -0.000004  -0.000009  -0.000007  -0.000018  -0.000006   0.000002
     3  H    0.000031  -0.000010  -0.000005  -0.000009  -0.000002   0.000002
     4  H    0.000000   0.000000  -0.000001  -0.000002   0.000000   0.000000
     5  C    0.000202  -0.000006   0.000026  -0.000095  -0.000003   0.000011
     6  O    0.000007   0.000001  -0.000009   0.000021  -0.000001  -0.000001
     7  N   -0.000267   0.000071  -0.000018  -0.000072   0.000002   0.000004
     8  H   -0.000285   0.000016   0.000145   0.000041   0.000001   0.000008
     9  C   -0.000782  -0.001204   0.000813   0.000334   0.000019   0.000017
    10  H   -0.001362  -0.000072   0.000052   0.000015   0.000030  -0.000029
    11  C    0.000192   0.000012   0.000066   0.000054  -0.000001   0.000007
    12  H    0.000011  -0.000002   0.000006   0.000002   0.000000   0.000001
    13  H    0.000002   0.000002   0.000006   0.000003   0.000000   0.000001
    14  H    0.000018   0.000002   0.000005   0.000006   0.000000   0.000000
    15  C    0.000576   0.001745   0.000073  -0.000110   0.000100   0.000076
    16  O    0.000292   0.000206  -0.000438  -0.000065  -0.000041   0.000026
    17  N    0.004843  -0.001405   0.000816  -0.000078   0.000038   0.000015
    18  H    0.000487   0.000020  -0.000038   0.000036   0.000000  -0.000006
    19  C    0.000618   0.000250  -0.000045   0.000041   0.000130  -0.000115
    20  H   -0.000587   0.000036  -0.000125  -0.000078   0.000004   0.000027
    21  C    0.000621   0.000077   0.000144   0.000046  -0.000012  -0.000015
    22  H   -0.000120   0.000032  -0.000024  -0.000006   0.000004  -0.000006
    23  H    0.000024  -0.000026  -0.000052  -0.000012  -0.000004   0.000001
    24  H    0.000032   0.000013   0.000036   0.000011   0.000001  -0.000001
    25  C   -0.001193   0.010362  -0.002360   0.001559  -0.002867   0.002409
    26  O    0.005976  -0.000700   0.000945   0.000167  -0.000061   0.000046
    27  N   -0.070251   0.000849  -0.008304   0.001654  -0.003775   0.004320
    28  H    0.016028   0.004808  -0.008034  -0.002236  -0.001861   0.001618
    29  C    0.309795  -0.097648  -0.037344   0.055877  -0.025905  -0.022168
    30  H   -0.053916   0.037186  -0.000364   0.004446  -0.001900  -0.004140
    31  C   -0.023997  -0.029678  -0.008861  -0.014850   0.004594   0.010884
    32  H    0.009426   0.003688  -0.010459  -0.002637   0.000950  -0.001557
    33  H   -0.038013  -0.002442   0.015046   0.002734   0.000167   0.000446
    34  H    0.010392  -0.001625   0.002975  -0.000128  -0.000115   0.001242
    35  C   -0.161398   0.070577  -0.095369  -0.070462   0.028509  -0.012761
    36  O   -0.234447   0.014257   0.004658   0.005993   0.014262   0.012199
    37  N    7.349356   0.183956   0.269158  -0.001178  -0.096717  -0.036943
    38  H    0.183956   1.046752  -0.126097  -0.004307   0.013644   0.006661
    39  C    0.269158  -0.126097   4.124113   0.474713   0.353088   0.327634
    40  H   -0.001178  -0.004307   0.474713   0.937595  -0.124220  -0.120285
    41  H   -0.096717   0.013644   0.353088  -0.124220   1.088578  -0.145797
    42  H   -0.036943   0.006661   0.327634  -0.120285  -0.145797   1.074730
 Mulliken atomic charges:
              1
     1  H    0.050274
     2  C    0.369105
     3  H   -0.174059
     4  H    0.028006
     5  C    0.475682
     6  O   -0.877894
     7  N   -0.091998
     8  H   -0.085954
     9  C   -0.302284
    10  H   -0.147301
    11  C    0.867740
    12  H   -0.030850
    13  H   -0.083366
    14  H   -0.072367
    15  C    1.091240
    16  O   -0.885174
    17  N   -0.059648
    18  H   -0.136365
    19  C   -0.367483
    20  H   -0.227086
    21  C    0.893866
    22  H   -0.056142
    23  H   -0.070711
    24  H   -0.050237
    25  C    0.727658
    26  O   -0.899165
    27  N   -0.058606
    28  H   -0.043947
    29  C   -0.329079
    30  H   -0.251793
    31  C    0.961221
    32  H   -0.011821
    33  H   -0.159407
    34  H   -0.047375
    35  C    1.129108
    36  O   -0.882760
    37  N   -0.440575
    38  H   -0.129990
    39  C    0.723427
    40  H   -0.144495
    41  H   -0.100831
    42  H   -0.098561
 Sum of Mulliken atomic charges =   0.00000
 Mulliken charges with hydrogens summed into heavy atoms:
              1
     2  C    0.273325
     5  C    0.475682
     6  O   -0.877894
     7  N   -0.177952
     9  C   -0.449585
    11  C    0.681157
    15  C    1.091240
    16  O   -0.885174
    17  N   -0.196014
    19  C   -0.594569
    21  C    0.716776
    25  C    0.727658
    26  O   -0.899165
    27  N   -0.102553
    29  C   -0.580873
    31  C    0.742618
    35  C    1.129108
    36  O   -0.882760
    37  N   -0.570565
    39  C    0.379540
 Sum of Mulliken charges with hydrogens summed into heavy atoms =   0.00000
 Electronic spatial extent (au):  <R**2>=           7570.0538
 Charge=              0.0000 electrons
 Dipole moment (field-independent basis, Debye):
    X=              2.8351    Y=             -0.1385    Z=             -0.1265  Tot=              2.8413
 Quadrupole moment (field-independent basis, Debye-Ang):
   XX=           -109.7075   YY=           -126.9290   ZZ=           -121.3353
   XY=            -22.4821   XZ=             -6.9165   YZ=            -20.8792
 Traceless Quadrupole moment (field-independent basis, Debye-Ang):
   XX=              9.6164   YY=             -7.6050   ZZ=             -2.0114
   XY=            -22.4821   XZ=             -6.9165   YZ=            -20.8792
 Octapole moment (field-independent basis, Debye-Ang**2):
  XXX=            172.3829  YYY=            -26.1064  ZZZ=             -6.7263  XYY=              4.6275
  XXY=            -30.0095  XXZ=             48.3524  XZZ=             -2.2568  YZZ=              5.1147
  YYZ=             -1.8065  XYZ=             26.6792
 Hexadecapole moment (field-independent basis, Debye-Ang**3):
 XXXX=          -5702.3947 YYYY=          -3108.5082 ZZZZ=           -734.0053 XXXY=           -440.0746
 XXXZ=           -188.2300 YYYX=           -157.2246 YYYZ=            -93.9282 ZZZX=             -0.3306
 ZZZY=            -23.9668 XXYY=          -1573.5611 XXZZ=          -1154.6864 YYZZ=           -650.0229
 XXYZ=           -155.3746 YYXZ=           -126.5789 ZZXY=            -19.6482
 N-N= 1.653814462475D+03 E-N=-5.615623788470D+03  KE= 9.830558738670D+02
 1\1\GINC-TACHIKOMA\SP\RMP2-FC\Aug-CC-pVDZ\C12H22N4O4\STEBOSS\19-Jan-20
 17\0\\#SP MP2/aug-cc-pVDZ\\Phi Psi fixed scan\\0,1\H,0,-3.3733,-3.9439
 ,1.1451\C,0,-3.8375,-2.9831,1.3892\H,0,-3.409,-2.6069,2.3232\H,0,-4.90
 66,-3.1657,1.5349\C,0,-3.657,-2.0388,0.2099\O,0,-4.1032,-2.2939,-0.905
 3\N,0,-2.9709,-0.8916,0.4752\H,0,-2.5449,-0.7103,1.3766\C,0,-2.6552,0.
 0692,-0.5621\H,0,-2.354,-0.4817,-1.4624\C,0,-3.8658,0.9572,-0.9157\H,0
 ,-4.1861,1.534,-0.0419\H,0,-3.6291,1.6562,-1.7263\H,0,-4.6867,0.3144,-
 1.2418\C,0,-1.4791,0.9143,-0.047\O,0,-1.1674,0.9342,1.1407\N,0,-0.8243
 ,1.6415,-0.9976\H,0,-1.1799,1.6112,-1.9433\C,0,0.2025,2.6446,-0.6837\H
 ,0,0.5951,2.9691,-1.6558\C,0,-0.3635,3.8625,0.0537\H,0,-0.8068,3.5561,
 1.0041\H,0,0.4412,4.5698,0.2629\H,0,-1.1283,4.3525,-0.558\C,0,1.4169,2
 .0544,0.0749\O,0,2.1103,2.7645,0.7965\N,0,1.7054,0.759,-0.1926\H,0,1.0
 928,0.1826,-0.7568\C,0,2.8027,0.0613,0.4464\H,0,3.6875,0.7087,0.4115\C
 ,0,2.4944,-0.2792,1.9187\H,0,1.6096,-0.9203,1.981\H,0,3.3379,-0.795,2.
 3916\H,0,2.2976,0.6467,2.464\C,0,3.0462,-1.2169,-0.3715\O,0,2.1693,-1.
 6942,-1.0879\N,0,4.2734,-1.7797,-0.2083\H,0,4.9427,-1.3082,0.3836\C,0,
 4.6613,-3.0301,-0.8395\H,0,3.8113,-3.3761,-1.4285\H,0,5.5224,-2.8863,-
 1.5021\H,0,4.913,-3.7895,-0.0901\\Version=EM64L-G09RevA.02\State=1-A\H
 F=-984.6956455\MP2=-987.8909474\RMSD=3.001e-09\PG=C01 [X(C12H22N4O4)]\
 \@


 IT IS THE BEHAVIOR AND DISTRIBUTION OF THE ELECTRONS 
 AROUND THE NUCLEUS THAT GIVES THE FUNDAMENTAL 
 CHARACTER OF AN ATOM:  IT MUST BE THE SAME FOR MOLECULES.

                               -- C. A. COULSON, 1951
 Job cpu time:  0 days 17 hours 20 minutes  6.0 seconds.
 File lengths (MBytes):  RWF= 162657 Int=      0 D2E=      0 Chk=     19 Scr=      1
 Normal termination of Gaussian 09 at Thu Jan 19 12:52:51 2017.
