 Entering Gaussian System, Link 0=g09
 Initial command:
 /home/steboss/Software/g09/l1.exe /tmp/Gau-20269.inp -scrdir=/tmp/
 Entering Link 1 = /home/steboss/Software/g09/l1.exe PID=     20271.
  
 Copyright (c) 1988,1990,1992,1993,1995,1998,2003,2009, Gaussian, Inc.
                  All Rights Reserved.
  
 This is part of the Gaussian(R) 09 program.  It is based on
 the Gaussian(R) 03 system (copyright 2003, Gaussian, Inc.),
 the Gaussian(R) 98 system (copyright 1998, Gaussian, Inc.),
 the Gaussian(R) 94 system (copyright 1995, Gaussian, Inc.),
 the Gaussian 92(TM) system (copyright 1992, Gaussian, Inc.),
 the Gaussian 90(TM) system (copyright 1990, Gaussian, Inc.),
 the Gaussian 88(TM) system (copyright 1988, Gaussian, Inc.),
 the Gaussian 86(TM) system (copyright 1986, Carnegie Mellon
 University), and the Gaussian 82(TM) system (copyright 1983,
 Carnegie Mellon University). Gaussian is a federally registered
 trademark of Gaussian, Inc.
  
 This software contains proprietary and confidential information,
 including trade secrets, belonging to Gaussian, Inc.
  
 This software is provided under written license and may be
 used, copied, transmitted, or stored only in accord with that
 written license.
  
 The following legend is applicable only to US Government
 contracts under FAR:
  
                    RESTRICTED RIGHTS LEGEND
  
 Use, reproduction and disclosure by the US Government is
 subject to restrictions as set forth in subparagraphs (a)
 and (c) of the Commercial Computer Software - Restricted
 Rights clause in FAR 52.227-19.
  
 Gaussian, Inc.
 340 Quinnipiac St., Bldg. 40, Wallingford CT 06492
  
  
 ---------------------------------------------------------------
 Warning -- This program may not be used in any manner that
 competes with the business of Gaussian, Inc. or will provide
 assistance to any competitor of Gaussian, Inc.  The licensee
 of this program is prohibited from giving any competitor of
 Gaussian, Inc. access to this program.  By using this program,
 the user acknowledges that Gaussian, Inc. is engaged in the
 business of creating and licensing software in the field of
 computational chemistry and represents and warrants to the
 licensee that it is not a competitor of Gaussian, Inc. and that
 it will not use this program in any manner prohibited above.
 ---------------------------------------------------------------
  

 Cite this work as:
 Gaussian 09, Revision A.02,
 M. J. Frisch, G. W. Trucks, H. B. Schlegel, G. E. Scuseria, 
 M. A. Robb, J. R. Cheeseman, G. Scalmani, V. Barone, B. Mennucci, 
 G. A. Petersson, H. Nakatsuji, M. Caricato, X. Li, H. P. Hratchian, 
 A. F. Izmaylov, J. Bloino, G. Zheng, J. L. Sonnenberg, M. Hada, 
 M. Ehara, K. Toyota, R. Fukuda, J. Hasegawa, M. Ishida, T. Nakajima, 
 Y. Honda, O. Kitao, H. Nakai, T. Vreven, J. A. Montgomery, Jr., 
 J. E. Peralta, F. Ogliaro, M. Bearpark, J. J. Heyd, E. Brothers, 
 K. N. Kudin, V. N. Staroverov, R. Kobayashi, J. Normand, 
 K. Raghavachari, A. Rendell, J. C. Burant, S. S. Iyengar, J. Tomasi, 
 M. Cossi, N. Rega, J. M. Millam, M. Klene, J. E. Knox, J. B. Cross, 
 V. Bakken, C. Adamo, J. Jaramillo, R. Gomperts, R. E. Stratmann, 
 O. Yazyev, A. J. Austin, R. Cammi, C. Pomelli, J. W. Ochterski, 
 R. L. Martin, K. Morokuma, V. G. Zakrzewski, G. A. Voth, 
 P. Salvador, J. J. Dannenberg, S. Dapprich, A. D. Daniels, 
 O. Farkas, J. B. Foresman, J. V. Ortiz, J. Cioslowski, 
 and D. J. Fox, Gaussian, Inc., Wallingford CT, 2009.
 
 ******************************************
 Gaussian 09:  EM64L-G09RevA.02 11-Jun-2009
                26-Dec-2016 
 ******************************************
 %chk=structure_0.chk
 -------------------------------------------------------------------
 # HF/6-31G* Opt=(ModRedundant, maxcycles=1000, calcfc) geom=nocrowd
 -------------------------------------------------------------------
 1/6=1000,10=4,18=120,19=15,38=1/1,3;
 2/9=110,12=1,17=6,18=5,40=1/2;
 3/5=1,6=6,7=1,11=9,16=1,25=1,30=1,71=2/1,2,3;
 4//1;
 5/5=2,38=5/2;
 8/6=4,10=90,11=11/1;
 11/6=1,8=1,9=11,15=111,16=1/1,2,10;
 10/6=1,7=6,13=1/2;
 6/7=2,8=2,9=2,10=2,28=1/1;
 7/10=1,18=20,25=1/1,2,3,16;
 1/6=1000,10=4,18=20,19=15/3(2);
 2/9=110,12=1/2;
 99//99;
 2/9=110,12=1/2;
 3/5=1,6=6,7=1,11=9,16=1,25=1,30=1,71=1/1,2,3;
 4/5=5,16=3/1;
 5/5=2,38=5/2;
 7//1,2,3,16;
 1/6=1000,18=20,19=15/3(-5);
 2/9=110,12=1/2;
 6/7=2,8=2,9=2,10=2,19=2,28=1/1;
 99/9=1/99;
 ------------------
 Phi Psi fixed scan
 ------------------
 Symbolic Z-matrix:
 Charge =  0 Multiplicity = 1
 H                     2.        1.        0. 
 C                     2.        2.09      0. 
 H                     1.4863    2.4539    0.8898 
 H                     1.4863    2.4539   -0.8898 
 C                     3.4274    2.6408    0. 
 O                     4.3906    1.8774    0. 
 N                     3.5554    3.9697    0. 
 H                     2.7331    4.5562    0. 
 C                     4.8533    4.6139    0. 
 H                     5.4076    4.3155    0.8898 
 C                     5.6613    4.2208   -1.2322 
 H                     5.1233    4.5214   -2.1312 
 H                     6.6305    4.7189   -1.2058 
 H                     5.8085    3.1409   -1.2414 
 C                     4.7127    6.1294    0. 
 O                     3.6006    6.6527    0. 
 N                     5.846     6.8349    0. 
 H                     6.737     6.3592    0. 
 C                     5.8461    8.2839    0. 
 H                     5.3323    8.6477   -0.8898 
 C                     5.1347    8.8329    1.2322 
 H                     5.6431    8.4846    2.1312 
 H                     5.1499    9.9224    1.2058 
 H                     4.1019    8.4846    1.2414 
 C                     7.266     8.8318    0. 
 O                     7.4667    10.0443   0. 
 N                     8.2534    7.9333    0. 
 H                     8.0383    6.9465    0. 
 C                     9.6477    8.3279    0. 
 H                     9.8579    8.9213   -0.8898 
 C                     9.9822    9.1618    1.2321 
 H                     9.7855    8.5778    2.1312 
 H                     11.0348   9.4439    1.2058 
 H                     9.3659    10.0608   1.2414 
 C                     10.5615   7.1107    0. 
 O                     10.0892   5.9761    0. 
 N                     11.875    7.3494    0. 
 H                     12.2155   8.3003    0. 
 C                     12.8483   6.276     0. 
 H                     12.3316   5.3163    0. 
 H                     13.4733   6.3516   -0.8899 
 H                     13.4733   6.3516    0.8898 
 
 The following ModRedundant input section has been read:
 D   15   17   19   25 F                                                       
 D   17   19   25   27 F                                                       

 GradGradGradGradGradGradGradGradGradGradGradGradGradGradGradGradGradGrad
 Berny optimization.
 Initialization pass.
                           ----------------------------
                           !    Initial Parameters    !
                           ! (Angstroms and Degrees)  !
 --------------------------                            --------------------------
 ! Name  Definition              Value          Derivative Info.                !
 --------------------------------------------------------------------------------
 ! R1    R(1,2)                  1.09           calculate D2E/DX2 analytically  !
 ! R2    R(2,3)                  1.09           calculate D2E/DX2 analytically  !
 ! R3    R(2,4)                  1.09           calculate D2E/DX2 analytically  !
 ! R4    R(2,5)                  1.53           calculate D2E/DX2 analytically  !
 ! R5    R(5,6)                  1.229          calculate D2E/DX2 analytically  !
 ! R6    R(5,7)                  1.3351         calculate D2E/DX2 analytically  !
 ! R7    R(7,8)                  1.01           calculate D2E/DX2 analytically  !
 ! R8    R(7,9)                  1.449          calculate D2E/DX2 analytically  !
 ! R9    R(9,10)                 1.09           calculate D2E/DX2 analytically  !
 ! R10   R(9,11)                 1.525          calculate D2E/DX2 analytically  !
 ! R11   R(9,15)                 1.522          calculate D2E/DX2 analytically  !
 ! R12   R(11,12)                1.09           calculate D2E/DX2 analytically  !
 ! R13   R(11,13)                1.09           calculate D2E/DX2 analytically  !
 ! R14   R(11,14)                1.0899         calculate D2E/DX2 analytically  !
 ! R15   R(15,16)                1.2291         calculate D2E/DX2 analytically  !
 ! R16   R(15,17)                1.335          calculate D2E/DX2 analytically  !
 ! R17   R(17,18)                1.01           calculate D2E/DX2 analytically  !
 ! R18   R(17,19)                1.449          calculate D2E/DX2 analytically  !
 ! R19   R(19,20)                1.09           calculate D2E/DX2 analytically  !
 ! R20   R(19,21)                1.5251         calculate D2E/DX2 analytically  !
 ! R21   R(19,25)                1.5219         calculate D2E/DX2 analytically  !
 ! R22   R(21,22)                1.0899         calculate D2E/DX2 analytically  !
 ! R23   R(21,23)                1.0899         calculate D2E/DX2 analytically  !
 ! R24   R(21,24)                1.09           calculate D2E/DX2 analytically  !
 ! R25   R(25,26)                1.229          calculate D2E/DX2 analytically  !
 ! R26   R(25,27)                1.335          calculate D2E/DX2 analytically  !
 ! R27   R(27,28)                1.01           calculate D2E/DX2 analytically  !
 ! R28   R(27,29)                1.4491         calculate D2E/DX2 analytically  !
 ! R29   R(29,30)                1.09           calculate D2E/DX2 analytically  !
 ! R30   R(29,31)                1.5249         calculate D2E/DX2 analytically  !
 ! R31   R(29,35)                1.522          calculate D2E/DX2 analytically  !
 ! R32   R(31,32)                1.09           calculate D2E/DX2 analytically  !
 ! R33   R(31,33)                1.0901         calculate D2E/DX2 analytically  !
 ! R34   R(31,34)                1.09           calculate D2E/DX2 analytically  !
 ! R35   R(35,36)                1.229          calculate D2E/DX2 analytically  !
 ! R36   R(35,37)                1.335          calculate D2E/DX2 analytically  !
 ! R37   R(37,38)                1.01           calculate D2E/DX2 analytically  !
 ! R38   R(37,39)                1.449          calculate D2E/DX2 analytically  !
 ! R39   R(39,40)                1.09           calculate D2E/DX2 analytically  !
 ! R40   R(39,41)                1.0901         calculate D2E/DX2 analytically  !
 ! R41   R(39,42)                1.09           calculate D2E/DX2 analytically  !
 ! A1    A(1,2,3)              109.5032         calculate D2E/DX2 analytically  !
 ! A2    A(1,2,4)              109.5032         calculate D2E/DX2 analytically  !
 ! A3    A(1,2,5)              111.1004         calculate D2E/DX2 analytically  !
 ! A4    A(3,2,4)              109.4413         calculate D2E/DX2 analytically  !
 ! A5    A(3,2,5)              108.6329         calculate D2E/DX2 analytically  !
 ! A6    A(4,2,5)              108.6329         calculate D2E/DX2 analytically  !
 ! A7    A(2,5,6)              120.5004         calculate D2E/DX2 analytically  !
 ! A8    A(2,5,7)              116.6022         calculate D2E/DX2 analytically  !
 ! A9    A(6,5,7)              122.8974         calculate D2E/DX2 analytically  !
 ! A10   A(5,7,8)              119.9963         calculate D2E/DX2 analytically  !
 ! A11   A(5,7,9)              121.8988         calculate D2E/DX2 analytically  !
 ! A12   A(8,7,9)              118.1048         calculate D2E/DX2 analytically  !
 ! A13   A(7,9,10)             109.5            calculate D2E/DX2 analytically  !
 ! A14   A(7,9,11)             111.0992         calculate D2E/DX2 analytically  !
 ! A15   A(7,9,15)             111.0966         calculate D2E/DX2 analytically  !
 ! A16   A(10,9,11)            108.6382         calculate D2E/DX2 analytically  !
 ! A17   A(10,9,15)            108.6373         calculate D2E/DX2 analytically  !
 ! A18   A(11,9,15)            107.7947         calculate D2E/DX2 analytically  !
 ! A19   A(9,11,12)            109.5007         calculate D2E/DX2 analytically  !
 ! A20   A(9,11,13)            109.4959         calculate D2E/DX2 analytically  !
 ! A21   A(9,11,14)            109.4978         calculate D2E/DX2 analytically  !
 ! A22   A(12,11,13)           109.441          calculate D2E/DX2 analytically  !
 ! A23   A(12,11,14)           109.4482         calculate D2E/DX2 analytically  !
 ! A24   A(13,11,14)           109.4436         calculate D2E/DX2 analytically  !
 ! A25   A(9,15,16)            120.4998         calculate D2E/DX2 analytically  !
 ! A26   A(9,15,17)            116.6026         calculate D2E/DX2 analytically  !
 ! A27   A(16,15,17)           122.8976         calculate D2E/DX2 analytically  !
 ! A28   A(15,17,18)           119.9995         calculate D2E/DX2 analytically  !
 ! A29   A(15,17,19)           121.907          calculate D2E/DX2 analytically  !
 ! A30   A(18,17,19)           118.0936         calculate D2E/DX2 analytically  !
 ! A31   A(17,19,20)           109.4954         calculate D2E/DX2 analytically  !
 ! A32   A(17,19,21)           111.0974         calculate D2E/DX2 analytically  !
 ! A33   A(17,19,25)           111.1042         calculate D2E/DX2 analytically  !
 ! A34   A(20,19,21)           108.6349         calculate D2E/DX2 analytically  !
 ! A35   A(20,19,25)           108.6399         calculate D2E/DX2 analytically  !
 ! A36   A(21,19,25)           107.7944         calculate D2E/DX2 analytically  !
 ! A37   A(19,21,22)           109.4996         calculate D2E/DX2 analytically  !
 ! A38   A(19,21,23)           109.4977         calculate D2E/DX2 analytically  !
 ! A39   A(19,21,24)           109.4988         calculate D2E/DX2 analytically  !
 ! A40   A(22,21,23)           109.4452         calculate D2E/DX2 analytically  !
 ! A41   A(22,21,24)           109.4447         calculate D2E/DX2 analytically  !
 ! A42   A(23,21,24)           109.4412         calculate D2E/DX2 analytically  !
 ! A43   A(19,25,26)           120.4989         calculate D2E/DX2 analytically  !
 ! A44   A(19,25,27)           116.5987         calculate D2E/DX2 analytically  !
 ! A45   A(26,25,27)           122.9024         calculate D2E/DX2 analytically  !
 ! A46   A(25,27,28)           120.0043         calculate D2E/DX2 analytically  !
 ! A47   A(25,27,29)           121.8969         calculate D2E/DX2 analytically  !
 ! A48   A(28,27,29)           118.0988         calculate D2E/DX2 analytically  !
 ! A49   A(27,29,30)           109.5003         calculate D2E/DX2 analytically  !
 ! A50   A(27,29,31)           111.0991         calculate D2E/DX2 analytically  !
 ! A51   A(27,29,35)           111.095          calculate D2E/DX2 analytically  !
 ! A52   A(30,29,31)           108.6373         calculate D2E/DX2 analytically  !
 ! A53   A(30,29,35)           108.6385         calculate D2E/DX2 analytically  !
 ! A54   A(31,29,35)           107.796          calculate D2E/DX2 analytically  !
 ! A55   A(29,31,32)           109.5052         calculate D2E/DX2 analytically  !
 ! A56   A(29,31,33)           109.5023         calculate D2E/DX2 analytically  !
 ! A57   A(29,31,34)           109.5052         calculate D2E/DX2 analytically  !
 ! A58   A(32,31,33)           109.4394         calculate D2E/DX2 analytically  !
 ! A59   A(32,31,34)           109.4399         calculate D2E/DX2 analytically  !
 ! A60   A(33,31,34)           109.4352         calculate D2E/DX2 analytically  !
 ! A61   A(29,35,36)           120.5025         calculate D2E/DX2 analytically  !
 ! A62   A(29,35,37)           116.5971         calculate D2E/DX2 analytically  !
 ! A63   A(36,35,37)           122.9004         calculate D2E/DX2 analytically  !
 ! A64   A(35,37,38)           120.0014         calculate D2E/DX2 analytically  !
 ! A65   A(35,37,39)           121.9002         calculate D2E/DX2 analytically  !
 ! A66   A(38,37,39)           118.0985         calculate D2E/DX2 analytically  !
 ! A67   A(37,39,40)           109.5021         calculate D2E/DX2 analytically  !
 ! A68   A(37,39,41)           109.497          calculate D2E/DX2 analytically  !
 ! A69   A(37,39,42)           109.4985         calculate D2E/DX2 analytically  !
 ! A70   A(40,39,41)           109.4429         calculate D2E/DX2 analytically  !
 ! A71   A(40,39,42)           109.4444         calculate D2E/DX2 analytically  !
 ! A72   A(41,39,42)           109.4423         calculate D2E/DX2 analytically  !
 ! D1    D(1,2,5,6)              0.0            calculate D2E/DX2 analytically  !
 ! D2    D(1,2,5,7)            180.0            calculate D2E/DX2 analytically  !
 ! D3    D(3,2,5,6)            120.5145         calculate D2E/DX2 analytically  !
 ! D4    D(3,2,5,7)            -59.4855         calculate D2E/DX2 analytically  !
 ! D5    D(4,2,5,6)           -120.5145         calculate D2E/DX2 analytically  !
 ! D6    D(4,2,5,7)             59.4855         calculate D2E/DX2 analytically  !
 ! D7    D(2,5,7,8)              0.0            calculate D2E/DX2 analytically  !
 ! D8    D(2,5,7,9)            180.0            calculate D2E/DX2 analytically  !
 ! D9    D(6,5,7,8)            180.0            calculate D2E/DX2 analytically  !
 ! D10   D(6,5,7,9)              0.0            calculate D2E/DX2 analytically  !
 ! D11   D(5,7,9,10)           -60.0002         calculate D2E/DX2 analytically  !
 ! D12   D(5,7,9,11)            60.0024         calculate D2E/DX2 analytically  !
 ! D13   D(5,7,9,15)           180.0            calculate D2E/DX2 analytically  !
 ! D14   D(8,7,9,10)           119.9998         calculate D2E/DX2 analytically  !
 ! D15   D(8,7,9,11)          -119.9976         calculate D2E/DX2 analytically  !
 ! D16   D(8,7,9,15)             0.0            calculate D2E/DX2 analytically  !
 ! D17   D(7,9,11,12)           60.0024         calculate D2E/DX2 analytically  !
 ! D18   D(7,9,11,13)          179.9986         calculate D2E/DX2 analytically  !
 ! D19   D(7,9,11,14)          -60.0038         calculate D2E/DX2 analytically  !
 ! D20   D(10,9,11,12)        -179.4843         calculate D2E/DX2 analytically  !
 ! D21   D(10,9,11,13)         -59.4881         calculate D2E/DX2 analytically  !
 ! D22   D(10,9,11,14)          60.5095         calculate D2E/DX2 analytically  !
 ! D23   D(15,9,11,12)         -61.938          calculate D2E/DX2 analytically  !
 ! D24   D(15,9,11,13)          58.0582         calculate D2E/DX2 analytically  !
 ! D25   D(15,9,11,14)         178.0558         calculate D2E/DX2 analytically  !
 ! D26   D(7,9,15,16)            0.0            calculate D2E/DX2 analytically  !
 ! D27   D(7,9,15,17)          180.0            calculate D2E/DX2 analytically  !
 ! D28   D(10,9,15,16)        -120.5111         calculate D2E/DX2 analytically  !
 ! D29   D(10,9,15,17)          59.4889         calculate D2E/DX2 analytically  !
 ! D30   D(11,9,15,16)         121.942          calculate D2E/DX2 analytically  !
 ! D31   D(11,9,15,17)         -58.058          calculate D2E/DX2 analytically  !
 ! D32   D(9,15,17,18)           0.0            calculate D2E/DX2 analytically  !
 ! D33   D(9,15,17,19)         180.0            calculate D2E/DX2 analytically  !
 ! D34   D(16,15,17,18)        180.0            calculate D2E/DX2 analytically  !
 ! D35   D(16,15,17,19)          0.0            calculate D2E/DX2 analytically  !
 ! D36   D(15,17,19,20)        -59.9952         calculate D2E/DX2 analytically  !
 ! D37   D(15,17,19,21)         59.9991         calculate D2E/DX2 analytically  !
 ! D38   D(15,17,19,25)        180.0            frozen, calculate D2E/DX2 analyt!
 ! D39   D(18,17,19,20)        120.0048         calculate D2E/DX2 analytically  !
 ! D40   D(18,17,19,21)       -120.0009         calculate D2E/DX2 analytically  !
 ! D41   D(18,17,19,25)          0.0            calculate D2E/DX2 analytically  !
 ! D42   D(17,19,21,22)         60.0039         calculate D2E/DX2 analytically  !
 ! D43   D(17,19,21,23)       -179.9943         calculate D2E/DX2 analytically  !
 ! D44   D(17,19,21,24)        -59.998          calculate D2E/DX2 analytically  !
 ! D45   D(20,19,21,22)       -179.4919         calculate D2E/DX2 analytically  !
 ! D46   D(20,19,21,23)        -59.4901         calculate D2E/DX2 analytically  !
 ! D47   D(20,19,21,24)         60.5062         calculate D2E/DX2 analytically  !
 ! D48   D(25,19,21,22)        -61.9445         calculate D2E/DX2 analytically  !
 ! D49   D(25,19,21,23)         58.0573         calculate D2E/DX2 analytically  !
 ! D50   D(25,19,21,24)        178.0536         calculate D2E/DX2 analytically  !
 ! D51   D(17,19,25,26)        180.0            calculate D2E/DX2 analytically  !
 ! D52   D(17,19,25,27)          0.0            frozen, calculate D2E/DX2 analyt!
 ! D53   D(20,19,25,26)         59.4883         calculate D2E/DX2 analytically  !
 ! D54   D(20,19,25,27)       -120.5117         calculate D2E/DX2 analytically  !
 ! D55   D(21,19,25,26)        -58.0558         calculate D2E/DX2 analytically  !
 ! D56   D(21,19,25,27)        121.9442         calculate D2E/DX2 analytically  !
 ! D57   D(19,25,27,28)          0.0            calculate D2E/DX2 analytically  !
 ! D58   D(19,25,27,29)        180.0            calculate D2E/DX2 analytically  !
 ! D59   D(26,25,27,28)        180.0            calculate D2E/DX2 analytically  !
 ! D60   D(26,25,27,29)          0.0            calculate D2E/DX2 analytically  !
 ! D61   D(25,27,29,30)        -59.9996         calculate D2E/DX2 analytically  !
 ! D62   D(25,27,29,31)         60.002          calculate D2E/DX2 analytically  !
 ! D63   D(25,27,29,35)        180.0            calculate D2E/DX2 analytically  !
 ! D64   D(28,27,29,30)        120.0004         calculate D2E/DX2 analytically  !
 ! D65   D(28,27,29,31)       -119.998          calculate D2E/DX2 analytically  !
 ! D66   D(28,27,29,35)          0.0            calculate D2E/DX2 analytically  !
 ! D67   D(27,29,31,32)         59.9983         calculate D2E/DX2 analytically  !
 ! D68   D(27,29,31,33)        179.9992         calculate D2E/DX2 analytically  !
 ! D69   D(27,29,31,34)        -60.005          calculate D2E/DX2 analytically  !
 ! D70   D(30,29,31,32)       -179.4887         calculate D2E/DX2 analytically  !
 ! D71   D(30,29,31,33)        -59.4878         calculate D2E/DX2 analytically  !
 ! D72   D(30,29,31,34)         60.5079         calculate D2E/DX2 analytically  !
 ! D73   D(35,29,31,32)        -61.9409         calculate D2E/DX2 analytically  !
 ! D74   D(35,29,31,33)         58.0601         calculate D2E/DX2 analytically  !
 ! D75   D(35,29,31,34)        178.0558         calculate D2E/DX2 analytically  !
 ! D76   D(27,29,35,36)          0.0            calculate D2E/DX2 analytically  !
 ! D77   D(27,29,35,37)        180.0            calculate D2E/DX2 analytically  !
 ! D78   D(30,29,35,36)       -120.5111         calculate D2E/DX2 analytically  !
 ! D79   D(30,29,35,37)         59.4889         calculate D2E/DX2 analytically  !
 ! D80   D(31,29,35,36)        121.9417         calculate D2E/DX2 analytically  !
 ! D81   D(31,29,35,37)        -58.0583         calculate D2E/DX2 analytically  !
 ! D82   D(29,35,37,38)          0.0            calculate D2E/DX2 analytically  !
 ! D83   D(29,35,37,39)        180.0            calculate D2E/DX2 analytically  !
 ! D84   D(36,35,37,38)        180.0            calculate D2E/DX2 analytically  !
 ! D85   D(36,35,37,39)          0.0            calculate D2E/DX2 analytically  !
 ! D86   D(35,37,39,40)          0.0            calculate D2E/DX2 analytically  !
 ! D87   D(35,37,39,41)        120.0            calculate D2E/DX2 analytically  !
 ! D88   D(35,37,39,42)       -120.0028         calculate D2E/DX2 analytically  !
 ! D89   D(38,37,39,40)        180.0            calculate D2E/DX2 analytically  !
 ! D90   D(38,37,39,41)        -60.0            calculate D2E/DX2 analytically  !
 ! D91   D(38,37,39,42)         59.9972         calculate D2E/DX2 analytically  !
 --------------------------------------------------------------------------------
 Trust Radius=3.00D-01 FncErr=1.00D-07 GrdErr=1.00D-07
 Number of steps in this run= 252 maximum allowed number of steps= 252.
 GradGradGradGradGradGradGradGradGradGradGradGradGradGradGradGradGradGrad

                          Input orientation:                          
 ---------------------------------------------------------------------
 Center     Atomic      Atomic             Coordinates (Angstroms)
 Number     Number       Type             X           Y           Z
 ---------------------------------------------------------------------
      1          1           0        2.000000    1.000000    0.000000
      2          6           0        2.000000    2.090000    0.000000
      3          1           0        1.486300    2.453900    0.889800
      4          1           0        1.486300    2.453900   -0.889800
      5          6           0        3.427400    2.640800    0.000000
      6          8           0        4.390600    1.877400    0.000000
      7          7           0        3.555400    3.969700    0.000000
      8          1           0        2.733100    4.556200    0.000000
      9          6           0        4.853300    4.613900    0.000000
     10          1           0        5.407600    4.315500    0.889800
     11          6           0        5.661300    4.220800   -1.232200
     12          1           0        5.123300    4.521400   -2.131200
     13          1           0        6.630500    4.718900   -1.205800
     14          1           0        5.808500    3.140900   -1.241400
     15          6           0        4.712700    6.129400    0.000000
     16          8           0        3.600600    6.652700    0.000000
     17          7           0        5.846000    6.834900    0.000000
     18          1           0        6.737000    6.359200    0.000000
     19          6           0        5.846100    8.283900    0.000000
     20          1           0        5.332300    8.647700   -0.889800
     21          6           0        5.134700    8.832900    1.232200
     22          1           0        5.643100    8.484600    2.131200
     23          1           0        5.149900    9.922400    1.205800
     24          1           0        4.101900    8.484600    1.241400
     25          6           0        7.266000    8.831800    0.000000
     26          8           0        7.466700   10.044300    0.000000
     27          7           0        8.253400    7.933300    0.000000
     28          1           0        8.038300    6.946500    0.000000
     29          6           0        9.647700    8.327900    0.000000
     30          1           0        9.857900    8.921300   -0.889800
     31          6           0        9.982200    9.161800    1.232100
     32          1           0        9.785500    8.577800    2.131200
     33          1           0       11.034800    9.443900    1.205800
     34          1           0        9.365900   10.060800    1.241400
     35          6           0       10.561500    7.110700    0.000000
     36          8           0       10.089200    5.976100    0.000000
     37          7           0       11.875000    7.349400    0.000000
     38          1           0       12.215500    8.300300    0.000000
     39          6           0       12.848300    6.276000    0.000000
     40          1           0       12.331600    5.316300    0.000000
     41          1           0       13.473300    6.351600   -0.889900
     42          1           0       13.473300    6.351600    0.889800
 ---------------------------------------------------------------------
                    Distance matrix (angstroms):
                    1          2          3          4          5
     1  H    0.000000
     2  C    1.090000   0.000000
     3  H    1.780297   1.089979   0.000000
     4  H    1.780297   1.089979   1.779600   0.000000
     5  C    2.174786   1.529984   2.143489   2.143489   0.000000
     6  O    2.546527   2.400035   3.091772   3.091772   1.229038
     7  N    3.352370   2.439783   2.714879   2.714879   1.335050
     8  H    3.630977   2.572854   2.601138   2.601138   2.037354
     9  C    4.604519   3.809382   4.098052   4.098052   2.434402
    10  H    4.836943   4.166093   4.340754   4.691388   2.741816
    11  C    5.029611   4.411773   5.005541   4.546405   3.000838
    12  H    5.166941   4.495411   5.160307   4.363874   3.309796
    13  H    6.060173   5.459542   5.998713   5.629642   4.004036
    14  H    4.541938   4.141272   4.867792   4.390559   2.731449
    15  C    5.802541   4.865747   4.970986   4.970986   3.717839
    16  O    5.874942   4.835303   4.784551   4.784551   4.015637
    17  N    6.988403   6.107847   6.244349   6.244349   4.841498
    18  H    7.152635   6.376930   6.604011   6.604011   4.977946
    19  C    8.236971   7.290877   7.334064   7.334064   6.139600
    20  H    8.389475   7.409413   7.504789   7.290739   6.364215
    21  C    8.526370   7.537331   7.356609   7.648879   6.540282
    22  H    8.592638   7.661925   7.428957   7.923053   6.603131
    23  H    9.538608   8.527738   8.324681   8.578578   7.579094
    24  H    7.872629   6.844704   6.582881   6.910334   6.012156
    25  C    9.437576   8.554684   8.652993   8.652993   7.284458
    26  O   10.568073   9.651720   9.704180   9.704180   8.433727
    27  N    9.336791   8.558573   8.752669   8.752669   7.162460
    28  H    8.474782   7.748978   7.993992   7.993992   6.308681
    29  C   10.591763   9.869079  10.094755  10.094755   8.428241
    30  H   11.193093  10.450119  10.727438  10.578797   9.032594
    31  C   11.482533  10.735173  10.830208  11.030807   9.327750
    32  H   11.071544  10.356040  10.388453  10.747340   8.956306
    33  H   12.425016  11.711593  11.837813  12.017716  10.276607
    34  H   11.742898  10.923883  10.957949  11.157734   9.584532
    35  C   10.518552   9.925055  10.238984  10.238984   8.418752
    36  O    9.497196   8.974237   9.338497   9.338497   7.450088
    37  N   11.740124  11.188249  11.518800  11.518800   9.671239
    38  H   12.555908  11.955094  12.251035  12.251035  10.452782
    39  C   12.063241  11.627906  12.020617  12.020617  10.097922
    40  H   11.196982  10.823630  11.251916  11.251916   9.297477
    41  H   12.691263  12.271502  12.729791  12.604770  10.746258
    42  H   12.691256  12.271495  12.604770  12.729777  10.746250
                    6          7          8          9         10
     6  O    0.000000
     7  N    2.252838   0.000000
     8  H    3.150123   1.010029   0.000000
     9  C    2.775342   1.448978   2.120985   0.000000
    10  H    2.787537   2.083739   2.828892   1.089970   0.000000
    11  C    2.936753   2.452791   3.194552   1.525027   2.139209
    12  H    3.474133   2.702720   3.202543   2.150225   3.041326
    13  H    3.813821   3.386959   4.082910   2.150214   2.459625
    14  H    2.268909   2.702673   3.605861   2.150165   2.466256
    15  C    4.264183   2.450234   2.528591   1.522008   2.136554
    16  O    4.840206   2.683381   2.268891   2.392898   3.085368
    17  N    5.166720   3.668272   3.857800   2.432754   2.707640
    18  H    5.058866   3.978981   4.391130   2.567956   2.595334
    19  C    6.569758   4.884632   4.856595   3.801914   4.090504
    20  H    6.893149   5.082598   4.928281   4.158453   4.684080
    21  C    7.102885   5.259584   5.057288   4.404255   4.538570
    22  H    7.054492   5.411546   5.333145   4.488665   4.356366
    23  H    8.170221   6.279412   6.007577   5.451798   5.621707
    24  H    6.729005   4.714240   4.341315   4.133763   4.382907
    25  C    7.525397   6.116254   6.231207   4.859198   4.964107
    26  O    8.727007   7.224890   7.247497   6.026533   6.152299
    27  N    7.182976   6.146652   6.471361   4.751747   4.688155
    28  H    6.245117   5.381239   5.818821   3.947816   3.825505
    29  C    8.321421   7.490663   7.876383   6.064657   5.905044
    30  H    8.961007   8.064217   8.402893   6.662692   6.647220
    31  C    9.265341   8.353426   8.676351   6.964702   6.673137
    32  H    8.862410   8.036837   8.393547   6.676909   6.234925
    33  H   10.141561   9.346777   9.708851   7.936863   7.620087
    34  H    9.657263   8.509082   8.708371   7.181459   6.985716
    35  C    8.091195   7.677976   8.234641   6.230374   5.930225
    36  O    7.019500   6.834924   7.491884   5.410198   5.046456
    37  N    9.271409   8.979873   9.559095   7.535730   7.198858
    38  H   10.123374   9.682532  10.194812   8.233561   7.938380
    39  C    9.533120   9.574811  10.260360   8.165942   7.745923
    40  H    8.653642   8.878909   9.628549   7.511214   7.052313
    41  H   10.163947  10.238658  10.925533   8.838321   8.506971
    42  H   10.163939  10.238649  10.925525   8.838311   8.318727
                   11         12         13         14         15
    11  C    0.000000
    12  H    1.089957   0.000000
    13  H    1.090023   1.779613   0.000000
    14  H    1.089925   1.779613   1.779617   0.000000
    15  C    2.461892   2.701161   2.668599   3.416575   0.000000
    16  O    3.417446   3.376843   3.791283   4.329969   1.229068
    17  N    2.895850   3.227474   2.558681   3.897193   1.334953
    18  H    2.692248   3.244002   2.038598   3.572204   2.037302
    19  C    4.249853   4.384160   3.844277   5.290835   2.434433
    20  H    4.452294   4.314059   4.149777   5.538523   2.741803
    21  C    5.255668   5.468238   5.010614   6.242721   3.000885
    22  H    5.430726   5.843389   5.127477   6.321148   3.309777
    23  H    6.222027   6.348786   5.923209   7.239564   4.003991
    24  H    5.170147   5.303267   5.153940   6.134485   2.731505
    25  C    5.035345   5.264288   4.332870   6.004309   3.717836
    26  O    6.220204   6.366786   5.523864   7.207471   4.786539
    27  N    4.692543   5.097117   3.797384   5.521386   3.973740
    28  H    3.820718   4.349753   2.897940   4.582104   3.424510
    29  C    5.854739   6.285034   4.856164   6.571568   5.402557
    30  H    6.310578   6.581537   5.308119   7.066420   5.921109
    31  C    7.011165   7.513588   6.075904   7.732348   6.203318
    32  H    6.877858   7.507233   5.998392   7.533315   6.022456
    33  H    7.880299   8.385249   6.894875   8.545806   7.239393
    34  H    7.344955   7.749777   6.481288   8.167277   6.216852
    35  C    5.820807   6.389093   4.756829   6.315964   5.930549
    36  O    4.919928   5.596278   3.872610   5.282407   5.378685
    37  N    7.065163   7.623979   5.989847   7.486987   7.265462
    38  H    7.817811   8.313928   6.743338   8.319263   7.810558
    39  C    7.575958   8.203430   6.522235   7.805684   8.136921
    40  H    6.871051   7.558668   5.857763   6.987437   7.662165
    41  H    8.104617   8.637879   7.041975   8.317530   8.808485
    42  H    8.370815   9.066343   7.340379   8.579031   8.808475
                   16         17         18         19         20
    16  O    0.000000
    17  N    2.252780   0.000000
    18  H    3.150103   1.010035   0.000000
    19  C    2.775443   1.449000   2.120890   0.000000
    20  H    2.787571   2.083717   2.828809   1.089993   0.000000
    21  C    2.936844   2.452808   3.194507   1.525060   2.139212
    22  H    3.474144   2.702719   3.202492   2.150233   3.041322
    23  H    3.813820   3.386911   4.082797   2.150193   2.459608
    24  H    2.268972   2.702678   3.605850   2.150253   2.466272
    25  C    4.264227   2.450308   2.528555   1.521943   2.136547
    26  O    5.142925   3.595402   3.756651   2.392771   2.701462
    27  N    4.825814   2.646140   2.185694   2.432697   3.136070
    28  H    4.447415   2.195139   1.427691   2.567952   3.317870
    29  C    6.274848   4.084357   3.513966   3.801855   4.417770
    30  H    6.715065   4.608704   4.134745   4.158433   4.533863
    31  C    6.966956   4.903130   4.461385   4.404101   5.136957
    32  H    6.819165   4.806181   4.330999   4.488570   5.381665
    33  H    8.031941   5.931651   5.425902   5.451803   6.127314
    34  H    6.811380   4.933275   4.706807   4.133696   4.775855
    35  C    6.975951   4.723559   3.897634   4.859156   5.522558
    36  O    6.523781   4.329236   3.374020   4.830097   5.527865
    37  N    8.303679   6.050913   5.232546   6.100895   6.729357
    38  H    8.771037   6.535895   5.812214   6.369421   6.949163
    39  C    9.255369   7.024569   6.111866   7.284399   7.931391
    40  H    8.832685   6.661017   5.690974   7.132206   7.802575
    41  H    9.917297   7.694232   6.794830   7.918326   8.458602
    42  H    9.917288   7.694220   6.794817   7.918315   8.643780
                   21         22         23         24         25
    21  C    0.000000
    22  H    1.089947   0.000000
    23  H    1.089926   1.779573   0.000000
    24  H    1.089988   1.779618   1.779562   0.000000
    25  C    2.461861   2.701179   2.668565   3.416599   0.000000
    26  O    2.902418   3.209392   2.614646   3.910961   1.228998
    27  N    3.471871   3.414617   3.878426   4.368061   1.335013
    28  H    3.675284   3.555945   4.318887   4.404778   2.037352
    29  C    4.705370   4.539096   4.922051   5.685202   2.434422
    30  H    5.178737   5.204007   5.249667   6.153394   2.741842
    31  C    4.858645   4.482719   4.891863   5.919173   3.000785
    32  H    4.743756   4.143448   4.914581   5.753585   3.309745
    33  H    5.931711   5.554012   5.904321   6.999045   4.004057
    34  H    4.405778   4.139492   4.218421   5.494916   2.731500
    35  C    5.825328   5.533559   6.216512   6.719755   3.717863
    36  O    5.850358   5.531943   6.436142   6.609191   4.015654
    37  N    7.010758   6.683358   7.300771   7.953039   4.841528
    38  H    7.206921   6.911760   7.349004   8.210088   4.977956
    39  C    8.219226   7.831656   8.603229   9.105960   6.139559
    40  H    8.104330   7.701699   8.616666   8.905457   6.165958
    41  H    8.955021   8.659605   9.296320   9.844555   6.743433
    42  H    8.706683   8.209921   9.062530   9.617507   6.743420
                   26         27         28         29         30
    26  O    0.000000
    27  N    2.252824   0.000000
    28  H    3.150094   1.009971   0.000000
    29  C    2.775390   1.449062   2.120951   0.000000
    30  H    2.787599   2.083821   2.828873   1.089978   0.000000
    31  C    2.936770   2.452760   3.194428   1.524910   2.139100
    32  H    3.474114   2.702725   3.202477   2.150221   3.041328
    33  H    3.813892   3.387042   4.082888   2.150222   2.459623
    34  H    2.268988   2.702774   3.605892   2.150216   2.466280
    35  C    4.264246   2.450305   2.528537   1.522040   2.136602
    36  O    4.840223   2.683429   2.268891   2.392882   3.085360
    37  N    5.166778   3.668368   3.857797   2.432761   2.707638
    38  H    5.058917   3.979061   4.391102   2.567948   2.595316
    39  C    6.569757   4.884644   4.856508   3.801859   4.090458
    40  H    6.783895   4.845658   4.592382   4.033987   4.461722
    41  H    7.106842   5.526396   5.539409   4.396919   4.435592
    42  H    7.106829   5.526380   5.539393   4.396899   4.779273
                   31         32         33         34         35
    31  C    0.000000
    32  H    1.090013   0.000000
    33  H    1.090064   1.779675   0.000000
    34  H    1.090006   1.779634   1.779624   0.000000
    35  C    2.461843   2.701217   2.668668   3.416668   0.000000
    36  O    3.417339   3.376846   3.791273   4.330013   1.228977
    37  N    2.895782   3.227536   2.558675   3.897223   1.335013
    38  H    2.692189   3.244059   2.038585   3.572206   2.037367
    39  C    4.249758   4.384181   3.844259   5.290831   2.434374
    40  H    4.671790   4.654248   4.491406   5.731207   2.520541
    41  H    4.958617   5.261452   4.461004   5.930543   3.137951
    42  H    4.494683   4.482958   3.950754   5.545496   3.137922
                   36         37         38         39         40
    36  O    0.000000
    37  N    2.252784   0.000000
    38  H    3.150088   1.010025   0.000000
    39  C    2.775351   1.448965   2.120902   0.000000
    40  H    2.337455   2.083742   2.986258   1.089955   0.000000
    41  H    3.519241   2.083768   2.484233   1.090074   1.779676
    42  H    3.519215   2.083725   2.484197   1.089993   1.779626
                   41         42
    41  H    0.000000
    42  H    1.779700   0.000000
 Stoichiometry    C12H22N4O4
 Framework group  C1[X(C12H22N4O4)]
 Deg. of freedom   120
 Full point group                 C1      NOp   1
 Largest Abelian subgroup         C1      NOp   1
 Largest concise Abelian subgroup C1      NOp   1
                         Standard orientation:                         
 ---------------------------------------------------------------------
 Center     Atomic      Atomic             Coordinates (Angstroms)
 Number     Number       Type             X           Y           Z
 ---------------------------------------------------------------------
      1          1           0       -6.966473   -1.932354    0.416170
      2          6           0       -6.392005   -1.015201    0.286113
      3          1           0       -6.603437   -0.333473    1.109884
      4          1           0       -6.669297   -0.542653   -0.656152
      5          6           0       -4.889798   -1.304603    0.264371
      6          8           0       -4.474344   -2.454972    0.385135
      7          7           0       -4.080744   -0.253944    0.109752
      8          1           0       -4.469801    0.673261    0.014437
      9          6           0       -2.639262   -0.396455    0.072876
     10          1           0       -2.292978   -0.835303    1.008576
     11          6           0       -2.206020   -1.298223   -1.078134
     12          1           0       -2.537645   -0.867203   -2.022724
     13          1           0       -1.119640   -1.387195   -1.081506
     14          1           0       -2.650527   -2.285598   -0.953876
     15          6           0       -1.959915    0.952883   -0.112283
     16          8           0       -2.628331    1.979760   -0.208986
     17          7           0       -0.625877    0.948767   -0.161545
     18          1           0       -0.120096    0.078557   -0.077334
     19          6           0        0.137882    2.167940   -0.334435
     20          1           0       -0.139548    2.640456   -1.276691
     21          6           0       -0.131179    3.149936    0.800949
     22          1           0        0.150176    2.694392    1.750319
     23          1           0        0.454955    4.055549    0.645221
     24          1           0       -1.191290    3.402683    0.819817
     25          6           0        1.632192    1.880053   -0.356062
     26          8           0        2.441625    2.794425   -0.494552
     27          7           0        1.996990    0.603244   -0.218433
     28          1           0        1.294284   -0.113624   -0.107317
     29          6           0        3.388771    0.199869   -0.222558
     30          1           0        3.847051    0.483714   -1.169903
     31          6           0        4.157867    0.869932    0.910958
     32          1           0        3.716346    0.587970    1.866826
     33          1           0        5.199266    0.549030    0.883629
     34          1           0        4.108754    1.952525    0.793931
     35          6           0        3.523113   -1.306283   -0.049169
     36          8           0        2.524139   -2.011858    0.071658
     37          7           0        4.764127   -1.798220   -0.037181
     38          1           0        5.554382   -1.177700   -0.140151
     39          6           0        5.024775   -3.214758    0.120882
     40          1           0        4.080281   -3.749748    0.219473
     41          1           0        5.562333   -3.585394   -0.751999
     42          1           0        5.628197   -3.376202    1.014136
 ---------------------------------------------------------------------
 Rotational constants (GHZ):      0.4958339      0.1456826      0.1161342
 Standard basis: 6-31G(d) (6D, 7F)
 There are   344 symmetry adapted basis functions of A   symmetry.
 Integral buffers will be    131072 words long.
 Raffenetti 1 integral format.
 Two-electron integral symmetry is turned on.
   344 basis functions,   648 primitive gaussians,   344 cartesian basis functions
    77 alpha electrons       77 beta electrons
       nuclear repulsion energy      1620.2986639157 Hartrees.
 NAtoms=   42 NActive=   42 NUniq=   42 SFac= 7.50D-01 NAtFMM=   80 NAOKFM=F Big=F
 One-electron integrals computed using PRISM.
 NBasis=   344 RedAO= T  NBF=   344
 NBsUse=   344 1.00D-06 NBFU=   344
 Harris functional with IExCor=  205 diagonalized for initial guess.
 ExpMin= 1.61D-01 ExpMax= 5.48D+03 ExpMxC= 8.25D+02 IAcc=1 IRadAn=         1 AccDes= 0.00D+00
 HarFok:  IExCor=  205 AccDes= 0.00D+00 IRadAn=         1 IDoV= 1
 ScaDFX=  1.000000  1.000000  1.000000  1.000000
 FoFCou: FMM=F IPFlag=           0 FMFlag=      100000 FMFlg1=           0
         NFxFlg=           0 DoJE=T BraDBF=F KetDBF=T FulRan=T
         Omega=  0.000000  0.000000  1.000000  0.000000  0.000000 ICntrl=     500 IOpCl=  0
         NMat0=    1 NMatS0=    1 NMatT0=    0 NMatD0=    1 NMtDS0=    0 NMtDT0=    0
         I1Cent=           4 NGrid=           0.
 Petite list used in FoFCou.
 Initial guess orbital symmetries:
       Occupied  (A) (A) (A) (A) (A) (A) (A) (A) (A) (A) (A) (A)
                 (A) (A) (A) (A) (A) (A) (A) (A) (A) (A) (A) (A)
                 (A) (A) (A) (A) (A) (A) (A) (A) (A) (A) (A) (A)
                 (A) (A) (A) (A) (A) (A) (A) (A) (A) (A) (A) (A)
                 (A) (A) (A) (A) (A) (A) (A) (A) (A) (A) (A) (A)
                 (A) (A) (A) (A) (A) (A) (A) (A) (A) (A) (A) (A)
                 (A) (A) (A) (A) (A)
       Virtual   (A) (A) (A) (A) (A) (A) (A) (A) (A) (A) (A) (A)
                 (A) (A) (A) (A) (A) (A) (A) (A) (A) (A) (A) (A)
                 (A) (A) (A) (A) (A) (A) (A) (A) (A) (A) (A) (A)
                 (A) (A) (A) (A) (A) (A) (A) (A) (A) (A) (A) (A)
                 (A) (A) (A) (A) (A) (A) (A) (A) (A) (A) (A) (A)
                 (A) (A) (A) (A) (A) (A) (A) (A) (A) (A) (A) (A)
                 (A) (A) (A) (A) (A) (A) (A) (A) (A) (A) (A) (A)
                 (A) (A) (A) (A) (A) (A) (A) (A) (A) (A) (A) (A)
                 (A) (A) (A) (A) (A) (A) (A) (A) (A) (A) (A) (A)
                 (A) (A) (A) (A) (A) (A) (A) (A) (A) (A) (A) (A)
                 (A) (A) (A) (A) (A) (A) (A) (A) (A) (A) (A) (A)
                 (A) (A) (A) (A) (A) (A) (A) (A) (A) (A) (A) (A)
                 (A) (A) (A) (A) (A) (A) (A) (A) (A) (A) (A) (A)
                 (A) (A) (A) (A) (A) (A) (A) (A) (A) (A) (A) (A)
                 (A) (A) (A) (A) (A) (A) (A) (A) (A) (A) (A) (A)
                 (A) (A) (A) (A) (A) (A) (A) (A) (A) (A) (A) (A)
                 (A) (A) (A) (A) (A) (A) (A) (A) (A) (A) (A) (A)
                 (A) (A) (A) (A) (A) (A) (A) (A) (A) (A) (A) (A)
                 (A) (A) (A) (A) (A) (A) (A) (A) (A) (A) (A) (A)
                 (A) (A) (A) (A) (A) (A) (A) (A) (A) (A) (A) (A)
                 (A) (A) (A) (A) (A) (A) (A) (A) (A) (A) (A) (A)
                 (A) (A) (A) (A) (A) (A) (A) (A) (A) (A) (A) (A)
                 (A) (A) (A)
 The electronic state of the initial guess is 1-A.
 Requested convergence on RMS density matrix=1.00D-08 within 128 cycles.
 Requested convergence on MAX density matrix=1.00D-06.
 Requested convergence on             energy=1.00D-06.
 No special actions if energy rises.
 Integral accuracy reduced to 1.0D-05 until final iterations.
 Initial convergence to 1.0D-05 achieved.  Increase integral accuracy.
 SCF Done:  E(RHF) =  -984.525910469     A.U. after   15 cycles
             Convg  =    0.3367D-08             -V/T =  2.0019
 Range of M.O.s used for correlation:     1   344
 NBasis=   344 NAE=    77 NBE=    77 NFC=     0 NFV=     0
 NROrb=    344 NOA=    77 NOB=    77 NVA=   267 NVB=   267
 Symmetrizing basis deriv contribution to polar:
 IMax=3 JMax=2 DiffMx= 0.00D+00
 G2DrvN: will do    43 centers at a time, making    1 passes doing MaxLOS=2.
 Calling FoFCou, ICntrl=  3107 FMM=F I1Cent=   0 AccDes= 0.00D+00.
 FoFDir/FoFCou used for L=0 through L=2.
 End of G2Drv Frequency-dependent properties file   721 does not exist.
 End of G2Drv Frequency-dependent properties file   722 does not exist.
          IDoAtm=111111111111111111111111111111111111111111
          Differentiating once with respect to nuclear coordinates.
          There are   129 degrees of freedom in the 1st order CPHF.  IDoFFX=5.
    123 vectors produced by pass  0 Test12= 2.06D-10 1.00D-07 XBig12= 1.03D-01 5.96D-02.
 AX will form   123 AO Fock derivatives at one time.
    123 vectors produced by pass  1 Test12= 2.06D-10 1.00D-07 XBig12= 1.30D-02 4.89D-02.
    123 vectors produced by pass  2 Test12= 2.06D-10 1.00D-07 XBig12= 1.48D-04 2.02D-03.
    123 vectors produced by pass  3 Test12= 2.06D-10 1.00D-07 XBig12= 1.85D-06 2.25D-04.
    123 vectors produced by pass  4 Test12= 2.06D-10 1.00D-07 XBig12= 1.02D-08 1.15D-05.
     39 vectors produced by pass  5 Test12= 2.06D-10 1.00D-07 XBig12= 4.97D-11 8.74D-07.
 Inverted reduced A of dimension   654 with in-core refinement.
 End of Minotr Frequency-dependent properties file   721 does not exist.
 End of Minotr Frequency-dependent properties file   722 does not exist.

 **********************************************************************

            Population analysis using the SCF density.

 **********************************************************************

 Orbital symmetries:
       Occupied  (A) (A) (A) (A) (A) (A) (A) (A) (A) (A) (A) (A)
                 (A) (A) (A) (A) (A) (A) (A) (A) (A) (A) (A) (A)
                 (A) (A) (A) (A) (A) (A) (A) (A) (A) (A) (A) (A)
                 (A) (A) (A) (A) (A) (A) (A) (A) (A) (A) (A) (A)
                 (A) (A) (A) (A) (A) (A) (A) (A) (A) (A) (A) (A)
                 (A) (A) (A) (A) (A) (A) (A) (A) (A) (A) (A) (A)
                 (A) (A) (A) (A) (A)
       Virtual   (A) (A) (A) (A) (A) (A) (A) (A) (A) (A) (A) (A)
                 (A) (A) (A) (A) (A) (A) (A) (A) (A) (A) (A) (A)
                 (A) (A) (A) (A) (A) (A) (A) (A) (A) (A) (A) (A)
                 (A) (A) (A) (A) (A) (A) (A) (A) (A) (A) (A) (A)
                 (A) (A) (A) (A) (A) (A) (A) (A) (A) (A) (A) (A)
                 (A) (A) (A) (A) (A) (A) (A) (A) (A) (A) (A) (A)
                 (A) (A) (A) (A) (A) (A) (A) (A) (A) (A) (A) (A)
                 (A) (A) (A) (A) (A) (A) (A) (A) (A) (A) (A) (A)
                 (A) (A) (A) (A) (A) (A) (A) (A) (A) (A) (A) (A)
                 (A) (A) (A) (A) (A) (A) (A) (A) (A) (A) (A) (A)
                 (A) (A) (A) (A) (A) (A) (A) (A) (A) (A) (A) (A)
                 (A) (A) (A) (A) (A) (A) (A) (A) (A) (A) (A) (A)
                 (A) (A) (A) (A) (A) (A) (A) (A) (A) (A) (A) (A)
                 (A) (A) (A) (A) (A) (A) (A) (A) (A) (A) (A) (A)
                 (A) (A) (A) (A) (A) (A) (A) (A) (A) (A) (A) (A)
                 (A) (A) (A) (A) (A) (A) (A) (A) (A) (A) (A) (A)
                 (A) (A) (A) (A) (A) (A) (A) (A) (A) (A) (A) (A)
                 (A) (A) (A) (A) (A) (A) (A) (A) (A) (A) (A) (A)
                 (A) (A) (A) (A) (A) (A) (A) (A) (A) (A) (A) (A)
                 (A) (A) (A) (A) (A) (A) (A) (A) (A) (A) (A) (A)
                 (A) (A) (A) (A) (A) (A) (A) (A) (A) (A) (A) (A)
                 (A) (A) (A) (A) (A) (A) (A) (A) (A) (A) (A) (A)
                 (A) (A) (A)
 The electronic state is 1-A.
 Alpha  occ. eigenvalues --  -20.54397 -20.53964 -20.53098 -20.51305 -15.61301
 Alpha  occ. eigenvalues --  -15.61148 -15.61033 -15.58724 -11.37207 -11.36705
 Alpha  occ. eigenvalues --  -11.36452 -11.34641 -11.30024 -11.29060 -11.28761
 Alpha  occ. eigenvalues --  -11.27512 -11.23346 -11.23262 -11.22141 -11.21488
 Alpha  occ. eigenvalues --   -1.40423  -1.39962  -1.38862  -1.36973  -1.27525
 Alpha  occ. eigenvalues --   -1.25646  -1.24610  -1.23622  -1.08544  -1.06316
 Alpha  occ. eigenvalues --   -1.03147  -0.98346  -0.97142  -0.92204  -0.90082
 Alpha  occ. eigenvalues --   -0.87461  -0.83706  -0.81597  -0.78652  -0.78051
 Alpha  occ. eigenvalues --   -0.77240  -0.72654  -0.69158  -0.68724  -0.67870
 Alpha  occ. eigenvalues --   -0.66963  -0.65664  -0.64569  -0.63923  -0.62772
 Alpha  occ. eigenvalues --   -0.61717  -0.61246  -0.60413  -0.59687  -0.58740
 Alpha  occ. eigenvalues --   -0.57820  -0.57443  -0.56601  -0.55994  -0.55736
 Alpha  occ. eigenvalues --   -0.55326  -0.54975  -0.54010  -0.53235  -0.52860
 Alpha  occ. eigenvalues --   -0.52312  -0.51207  -0.50268  -0.48987  -0.43859
 Alpha  occ. eigenvalues --   -0.43515  -0.42176  -0.41766  -0.40982  -0.40663
 Alpha  occ. eigenvalues --   -0.39787  -0.38516
 Alpha virt. eigenvalues --    0.16899   0.17871   0.18472   0.19361   0.20047
 Alpha virt. eigenvalues --    0.21072   0.23869   0.25374   0.27097   0.27569
 Alpha virt. eigenvalues --    0.27932   0.28691   0.28978   0.29815   0.29920
 Alpha virt. eigenvalues --    0.30424   0.31010   0.31238   0.31668   0.32785
 Alpha virt. eigenvalues --    0.33202   0.33913   0.34680   0.34884   0.35576
 Alpha virt. eigenvalues --    0.36217   0.36323   0.37953   0.38869   0.40020
 Alpha virt. eigenvalues --    0.40516   0.41201   0.42706   0.43675   0.46236
 Alpha virt. eigenvalues --    0.47045   0.49223   0.52194   0.53069   0.55066
 Alpha virt. eigenvalues --    0.58029   0.59044   0.61205   0.62764   0.67118
 Alpha virt. eigenvalues --    0.70209   0.71118   0.71850   0.72219   0.72267
 Alpha virt. eigenvalues --    0.73738   0.74207   0.75251   0.76174   0.76652
 Alpha virt. eigenvalues --    0.76951   0.77004   0.78433   0.79919   0.80232
 Alpha virt. eigenvalues --    0.82161   0.83117   0.84223   0.86298   0.87974
 Alpha virt. eigenvalues --    0.88770   0.89820   0.90875   0.91765   0.92179
 Alpha virt. eigenvalues --    0.92822   0.93514   0.95442   0.95822   0.98058
 Alpha virt. eigenvalues --    0.98423   0.99040   0.99879   1.00420   1.00550
 Alpha virt. eigenvalues --    1.02621   1.03148   1.04071   1.04996   1.06986
 Alpha virt. eigenvalues --    1.08394   1.08699   1.09719   1.10322   1.11618
 Alpha virt. eigenvalues --    1.12081   1.13372   1.13862   1.14292   1.14884
 Alpha virt. eigenvalues --    1.15654   1.15680   1.16003   1.16534   1.17193
 Alpha virt. eigenvalues --    1.18260   1.18525   1.19072   1.19645   1.20208
 Alpha virt. eigenvalues --    1.20767   1.21195   1.21606   1.21988   1.22969
 Alpha virt. eigenvalues --    1.24568   1.25451   1.25510   1.27391   1.29046
 Alpha virt. eigenvalues --    1.30072   1.32334   1.33272   1.35814   1.38217
 Alpha virt. eigenvalues --    1.38628   1.39183   1.39538   1.41875   1.44118
 Alpha virt. eigenvalues --    1.47900   1.48880   1.49894   1.51475   1.52568
 Alpha virt. eigenvalues --    1.53867   1.55853   1.56578   1.58119   1.59151
 Alpha virt. eigenvalues --    1.61106   1.61475   1.64008   1.66891   1.67866
 Alpha virt. eigenvalues --    1.69403   1.69731   1.71046   1.73162   1.73923
 Alpha virt. eigenvalues --    1.75447   1.76451   1.78914   1.80162   1.88173
 Alpha virt. eigenvalues --    1.91077   1.93130   1.95956   1.98662   1.99226
 Alpha virt. eigenvalues --    2.00178   2.02102   2.03470   2.04623   2.05892
 Alpha virt. eigenvalues --    2.06757   2.07781   2.09692   2.09738   2.10541
 Alpha virt. eigenvalues --    2.12220   2.12772   2.13321   2.13937   2.14208
 Alpha virt. eigenvalues --    2.14825   2.15788   2.16933   2.17560   2.18168
 Alpha virt. eigenvalues --    2.20199   2.21292   2.22342   2.24342   2.25642
 Alpha virt. eigenvalues --    2.25836   2.26896   2.28919   2.30328   2.32935
 Alpha virt. eigenvalues --    2.34473   2.35441   2.36155   2.36387   2.37846
 Alpha virt. eigenvalues --    2.40204   2.41738   2.44086   2.45584   2.45966
 Alpha virt. eigenvalues --    2.49518   2.51783   2.53655   2.54901   2.57576
 Alpha virt. eigenvalues --    2.57683   2.60201   2.60689   2.61662   2.62374
 Alpha virt. eigenvalues --    2.63242   2.63384   2.64851   2.65636   2.66864
 Alpha virt. eigenvalues --    2.68549   2.70037   2.73214   2.76162   2.77014
 Alpha virt. eigenvalues --    2.77466   2.77781   2.79049   2.81015   2.84152
 Alpha virt. eigenvalues --    2.86511   2.88218   2.90877   2.93187   2.95247
 Alpha virt. eigenvalues --    2.95910   2.98356   3.00642   3.03472   3.06160
 Alpha virt. eigenvalues --    3.06832   3.08351   3.11998   3.16413   3.18881
 Alpha virt. eigenvalues --    3.21877   3.26584   3.29556   3.31981   3.33946
 Alpha virt. eigenvalues --    3.36026   3.38003   3.42391   3.52155   3.53768
 Alpha virt. eigenvalues --    3.60665   3.64027   4.38768   4.43243   4.43778
 Alpha virt. eigenvalues --    4.47163   4.47995   4.50849   4.56570   4.60813
 Alpha virt. eigenvalues --    4.63070   4.65307   4.65877   4.71216   4.72427
 Alpha virt. eigenvalues --    4.81187   4.84734   4.87366   4.88105   5.03130
 Alpha virt. eigenvalues --    5.05540   5.18154
          Condensed to atoms (all electrons):
              1          2          3          4          5          6
     1  H    0.458214   0.385690  -0.018759  -0.018753  -0.030764   0.003522
     2  C    0.385690   5.244969   0.374671   0.374831   0.378026  -0.067216
     3  H   -0.018759   0.374671   0.510788  -0.023658  -0.034571   0.001264
     4  H   -0.018753   0.374831  -0.023658   0.512060  -0.035434   0.001180
     5  C   -0.030764   0.378026  -0.034571  -0.035434   4.187385   0.587440
     6  O    0.003522  -0.067216   0.001264   0.001180   0.587440   8.209379
     7  N    0.003856  -0.120075   0.003500   0.003715   0.246067  -0.107610
     8  H   -0.000019  -0.001172   0.000641   0.000483  -0.017418   0.002014
     9  C   -0.000076   0.004557  -0.000242  -0.000091  -0.029932   0.014430
    10  H    0.000002  -0.000009  -0.000004  -0.000002  -0.001703   0.002909
    11  C    0.000006  -0.000504   0.000008   0.000030  -0.003896  -0.015777
    12  H    0.000000  -0.000042   0.000000   0.000002   0.000009  -0.000022
    13  H    0.000000   0.000007   0.000000  -0.000001   0.000276   0.000268
    14  H    0.000001   0.000300  -0.000005  -0.000025   0.000455   0.011120
    15  C    0.000000   0.000011  -0.000011  -0.000006   0.004051   0.000556
    16  O    0.000000  -0.000039  -0.000001  -0.000001   0.000266  -0.000003
    17  N    0.000000   0.000000   0.000000   0.000000  -0.000092  -0.000002
    18  H    0.000000   0.000000   0.000000   0.000000   0.000002   0.000001
    19  C    0.000000   0.000000   0.000000   0.000000   0.000001   0.000000
    20  H    0.000000   0.000000   0.000000   0.000000   0.000000   0.000000
    21  C    0.000000   0.000000   0.000000   0.000000   0.000000   0.000000
    22  H    0.000000   0.000000   0.000000   0.000000   0.000000   0.000000
    23  H    0.000000   0.000000   0.000000   0.000000   0.000000   0.000000
    24  H    0.000000   0.000000   0.000000   0.000000   0.000000   0.000000
    25  C    0.000000   0.000000   0.000000   0.000000   0.000000   0.000000
    26  O    0.000000   0.000000   0.000000   0.000000   0.000000   0.000000
    27  N    0.000000   0.000000   0.000000   0.000000   0.000000   0.000000
    28  H    0.000000   0.000000   0.000000   0.000000   0.000000   0.000000
    29  C    0.000000   0.000000   0.000000   0.000000   0.000000   0.000000
    30  H    0.000000   0.000000   0.000000   0.000000   0.000000   0.000000
    31  C    0.000000   0.000000   0.000000   0.000000   0.000000   0.000000
    32  H    0.000000   0.000000   0.000000   0.000000   0.000000   0.000000
    33  H    0.000000   0.000000   0.000000   0.000000   0.000000   0.000000
    34  H    0.000000   0.000000   0.000000   0.000000   0.000000   0.000000
    35  C    0.000000   0.000000   0.000000   0.000000   0.000000   0.000000
    36  O    0.000000   0.000000   0.000000   0.000000   0.000000   0.000000
    37  N    0.000000   0.000000   0.000000   0.000000   0.000000   0.000000
    38  H    0.000000   0.000000   0.000000   0.000000   0.000000   0.000000
    39  C    0.000000   0.000000   0.000000   0.000000   0.000000   0.000000
    40  H    0.000000   0.000000   0.000000   0.000000   0.000000   0.000000
    41  H    0.000000   0.000000   0.000000   0.000000   0.000000   0.000000
    42  H    0.000000   0.000000   0.000000   0.000000   0.000000   0.000000
              7          8          9         10         11         12
     1  H    0.003856  -0.000019  -0.000076   0.000002   0.000006   0.000000
     2  C   -0.120075  -0.001172   0.004557  -0.000009  -0.000504  -0.000042
     3  H    0.003500   0.000641  -0.000242  -0.000004   0.000008   0.000000
     4  H    0.003715   0.000483  -0.000091  -0.000002   0.000030   0.000002
     5  C    0.246067  -0.017418  -0.029932  -0.001703  -0.003896   0.000009
     6  O   -0.107610   0.002014   0.014430   0.002909  -0.015777  -0.000022
     7  N    7.421119   0.311391   0.197637  -0.041369  -0.063427   0.001586
     8  H    0.311391   0.288169  -0.026454   0.002346   0.003002   0.000239
     9  C    0.197637  -0.026454   5.012251   0.406521   0.335072  -0.042401
    10  H   -0.041369   0.002346   0.406521   0.496443  -0.045615   0.004501
    11  C   -0.063427   0.003002   0.335072  -0.045615   5.215574   0.384807
    12  H    0.001586   0.000239  -0.042401   0.004501   0.384807   0.525781
    13  H    0.004868  -0.000078  -0.042289   0.000122   0.376864  -0.024026
    14  H   -0.005471  -0.000194  -0.026541  -0.003929   0.386918  -0.020136
    15  C   -0.037456  -0.005769   0.390534  -0.039603  -0.065876  -0.003081
    16  O   -0.006696   0.020069  -0.072025   0.000881   0.000014   0.000572
    17  N    0.002819   0.000757  -0.113976   0.002246   0.001764   0.000252
    18  H    0.000009  -0.000015  -0.000216   0.000636   0.002910  -0.000111
    19  C   -0.000039  -0.000025   0.003508  -0.000173  -0.000084  -0.000039
    20  H    0.000000  -0.000001   0.000080  -0.000003  -0.000015   0.000004
    21  C    0.000001   0.000009  -0.000655   0.000037   0.000002   0.000002
    22  H    0.000000   0.000000  -0.000024   0.000000   0.000000   0.000000
    23  H    0.000000   0.000000   0.000007   0.000000   0.000000   0.000000
    24  H   -0.000002  -0.000001   0.000225  -0.000015  -0.000006   0.000000
    25  C    0.000000   0.000000   0.000074  -0.000001  -0.000035  -0.000001
    26  O    0.000000   0.000000   0.000000   0.000000   0.000000   0.000000
    27  N    0.000000   0.000000  -0.000089  -0.000004   0.000003   0.000000
    28  H    0.000000   0.000000   0.000008  -0.000010  -0.000325   0.000008
    29  C    0.000000   0.000000   0.000000   0.000000   0.000000   0.000000
    30  H    0.000000   0.000000   0.000000   0.000000   0.000000   0.000000
    31  C    0.000000   0.000000   0.000000   0.000000   0.000000   0.000000
    32  H    0.000000   0.000000   0.000000   0.000000   0.000000   0.000000
    33  H    0.000000   0.000000   0.000000   0.000000   0.000000   0.000000
    34  H    0.000000   0.000000   0.000000   0.000000   0.000000   0.000000
    35  C    0.000000   0.000000   0.000000   0.000000   0.000000   0.000000
    36  O    0.000000   0.000000   0.000002   0.000000  -0.000031   0.000000
    37  N    0.000000   0.000000   0.000000   0.000000   0.000000   0.000000
    38  H    0.000000   0.000000   0.000000   0.000000   0.000000   0.000000
    39  C    0.000000   0.000000   0.000000   0.000000   0.000000   0.000000
    40  H    0.000000   0.000000   0.000000   0.000000   0.000000   0.000000
    41  H    0.000000   0.000000   0.000000   0.000000   0.000000   0.000000
    42  H    0.000000   0.000000   0.000000   0.000000   0.000000   0.000000
             13         14         15         16         17         18
     1  H    0.000000   0.000001   0.000000   0.000000   0.000000   0.000000
     2  C    0.000007   0.000300   0.000011  -0.000039   0.000000   0.000000
     3  H    0.000000  -0.000005  -0.000011  -0.000001   0.000000   0.000000
     4  H   -0.000001  -0.000025  -0.000006  -0.000001   0.000000   0.000000
     5  C    0.000276   0.000455   0.004051   0.000266  -0.000092   0.000002
     6  O    0.000268   0.011120   0.000556  -0.000003  -0.000002   0.000001
     7  N    0.004868  -0.005471  -0.037456  -0.006696   0.002819   0.000009
     8  H   -0.000078  -0.000194  -0.005769   0.020069   0.000757  -0.000015
     9  C   -0.042289  -0.026541   0.390534  -0.072025  -0.113976  -0.000216
    10  H    0.000122  -0.003929  -0.039603   0.000881   0.002246   0.000636
    11  C    0.376864   0.386918  -0.065876   0.000014   0.001764   0.002910
    12  H   -0.024026  -0.020136  -0.003081   0.000572   0.000252  -0.000111
    13  H    0.558119  -0.018943  -0.006896   0.000007   0.000926   0.003576
    14  H   -0.018943   0.421420   0.004165  -0.000057   0.000098  -0.000157
    15  C   -0.006896   0.004165   4.153872   0.581708   0.255974  -0.017865
    16  O    0.000007  -0.000057   0.581708   8.224023  -0.104475   0.002218
    17  N    0.000926   0.000098   0.255974  -0.104475   7.573007   0.293515
    18  H    0.003576  -0.000157  -0.017865   0.002218   0.293515   0.309381
    19  C    0.000285   0.000003  -0.025422   0.012557   0.121284  -0.021631
    20  H   -0.000026  -0.000001  -0.001781   0.002573  -0.045402   0.002857
    21  C    0.000002   0.000000  -0.005112  -0.014533  -0.064450   0.002587
    22  H   -0.000001   0.000000  -0.000093   0.000037   0.001546   0.000392
    23  H    0.000000   0.000000   0.000226   0.000218   0.004371  -0.000068
    24  H    0.000000   0.000000   0.000691   0.007042  -0.004504  -0.000239
    25  C    0.000018   0.000000   0.003262   0.000491  -0.034040  -0.012885
    26  O    0.000000   0.000000  -0.000054   0.000000   0.002157   0.000030
    27  N   -0.000052   0.000000   0.000484  -0.000007  -0.015059   0.014386
    28  H    0.000139   0.000004   0.000189   0.000007   0.001976   0.013318
    29  C   -0.000016   0.000000   0.000012   0.000000   0.000449   0.000342
    30  H   -0.000001   0.000000   0.000000   0.000000  -0.000017   0.000001
    31  C    0.000000   0.000000   0.000000   0.000000  -0.000007  -0.000023
    32  H    0.000000   0.000000   0.000000   0.000000  -0.000005   0.000001
    33  H    0.000000   0.000000   0.000000   0.000000   0.000000   0.000000
    34  H    0.000000   0.000000   0.000000   0.000000  -0.000006  -0.000002
    35  C    0.000018   0.000000  -0.000001   0.000000  -0.000042  -0.000101
    36  O    0.000288   0.000000  -0.000003   0.000000  -0.000048  -0.000953
    37  N    0.000000   0.000000   0.000000   0.000000   0.000000  -0.000005
    38  H    0.000000   0.000000   0.000000   0.000000   0.000000   0.000000
    39  C    0.000000   0.000000   0.000000   0.000000   0.000000   0.000000
    40  H    0.000000   0.000000   0.000000   0.000000   0.000000   0.000000
    41  H    0.000000   0.000000   0.000000   0.000000   0.000000   0.000000
    42  H    0.000000   0.000000   0.000000   0.000000   0.000000   0.000000
             19         20         21         22         23         24
     1  H    0.000000   0.000000   0.000000   0.000000   0.000000   0.000000
     2  C    0.000000   0.000000   0.000000   0.000000   0.000000   0.000000
     3  H    0.000000   0.000000   0.000000   0.000000   0.000000   0.000000
     4  H    0.000000   0.000000   0.000000   0.000000   0.000000   0.000000
     5  C    0.000001   0.000000   0.000000   0.000000   0.000000   0.000000
     6  O    0.000000   0.000000   0.000000   0.000000   0.000000   0.000000
     7  N   -0.000039   0.000000   0.000001   0.000000   0.000000  -0.000002
     8  H   -0.000025  -0.000001   0.000009   0.000000   0.000000  -0.000001
     9  C    0.003508   0.000080  -0.000655  -0.000024   0.000007   0.000225
    10  H   -0.000173  -0.000003   0.000037   0.000000   0.000000  -0.000015
    11  C   -0.000084  -0.000015   0.000002   0.000000   0.000000  -0.000006
    12  H   -0.000039   0.000004   0.000002   0.000000   0.000000   0.000000
    13  H    0.000285  -0.000026   0.000002  -0.000001   0.000000   0.000000
    14  H    0.000003  -0.000001   0.000000   0.000000   0.000000   0.000000
    15  C   -0.025422  -0.001781  -0.005112  -0.000093   0.000226   0.000691
    16  O    0.012557   0.002573  -0.014533   0.000037   0.000218   0.007042
    17  N    0.121284  -0.045402  -0.064450   0.001546   0.004371  -0.004504
    18  H   -0.021631   0.002857   0.002587   0.000392  -0.000068  -0.000239
    19  C    5.047035   0.409809   0.344394  -0.043365  -0.036423  -0.031845
    20  H    0.409809   0.467067  -0.038509   0.004277   0.000047  -0.003474
    21  C    0.344394  -0.038509   5.181758   0.384674   0.385030   0.390453
    22  H   -0.043365   0.004277   0.384674   0.544260  -0.020654  -0.022509
    23  H   -0.036423   0.000047   0.385030  -0.020654   0.485343  -0.019763
    24  H   -0.031845  -0.003474   0.390453  -0.022509  -0.019763   0.446644
    25  C    0.392580  -0.033712  -0.053492  -0.005548  -0.004842   0.004842
    26  O   -0.068904   0.000932  -0.000791   0.000093   0.005730   0.000104
    27  N   -0.106833   0.001136   0.000151   0.000984   0.000380  -0.000067
    28  H   -0.002693  -0.000083   0.000273  -0.000042  -0.000023   0.000000
    29  C    0.004417  -0.000113  -0.000136  -0.000078  -0.000012   0.000002
    30  H   -0.000018   0.000017  -0.000012   0.000001  -0.000001   0.000000
    31  C   -0.000649  -0.000004   0.000065   0.000015   0.000007   0.000000
    32  H   -0.000012   0.000001  -0.000011   0.000029  -0.000001   0.000000
    33  H    0.000008   0.000000  -0.000001   0.000000   0.000000   0.000000
    34  H    0.000233  -0.000001  -0.000006   0.000003   0.000004   0.000000
    35  C    0.000071  -0.000001  -0.000001  -0.000001   0.000000   0.000000
    36  O   -0.000031   0.000000   0.000000   0.000000   0.000000   0.000000
    37  N    0.000000   0.000000   0.000000   0.000000   0.000000   0.000000
    38  H    0.000000   0.000000   0.000000   0.000000   0.000000   0.000000
    39  C    0.000000   0.000000   0.000000   0.000000   0.000000   0.000000
    40  H    0.000000   0.000000   0.000000   0.000000   0.000000   0.000000
    41  H    0.000000   0.000000   0.000000   0.000000   0.000000   0.000000
    42  H    0.000000   0.000000   0.000000   0.000000   0.000000   0.000000
             25         26         27         28         29         30
     1  H    0.000000   0.000000   0.000000   0.000000   0.000000   0.000000
     2  C    0.000000   0.000000   0.000000   0.000000   0.000000   0.000000
     3  H    0.000000   0.000000   0.000000   0.000000   0.000000   0.000000
     4  H    0.000000   0.000000   0.000000   0.000000   0.000000   0.000000
     5  C    0.000000   0.000000   0.000000   0.000000   0.000000   0.000000
     6  O    0.000000   0.000000   0.000000   0.000000   0.000000   0.000000
     7  N    0.000000   0.000000   0.000000   0.000000   0.000000   0.000000
     8  H    0.000000   0.000000   0.000000   0.000000   0.000000   0.000000
     9  C    0.000074   0.000000  -0.000089   0.000008   0.000000   0.000000
    10  H   -0.000001   0.000000  -0.000004  -0.000010   0.000000   0.000000
    11  C   -0.000035   0.000000   0.000003  -0.000325   0.000000   0.000000
    12  H   -0.000001   0.000000   0.000000   0.000008   0.000000   0.000000
    13  H    0.000018   0.000000  -0.000052   0.000139  -0.000016  -0.000001
    14  H    0.000000   0.000000   0.000000   0.000004   0.000000   0.000000
    15  C    0.003262  -0.000054   0.000484   0.000189   0.000012   0.000000
    16  O    0.000491   0.000000  -0.000007   0.000007   0.000000   0.000000
    17  N   -0.034040   0.002157  -0.015059   0.001976   0.000449  -0.000017
    18  H   -0.012885   0.000030   0.014386   0.013318   0.000342   0.000001
    19  C    0.392580  -0.068904  -0.106833  -0.002693   0.004417  -0.000018
    20  H   -0.033712   0.000932   0.001136  -0.000083  -0.000113   0.000017
    21  C   -0.053492  -0.000791   0.000151   0.000273  -0.000136  -0.000012
    22  H   -0.005548   0.000093   0.000984  -0.000042  -0.000078   0.000001
    23  H   -0.004842   0.005730   0.000380  -0.000023  -0.000012  -0.000001
    24  H    0.004842   0.000104  -0.000067   0.000000   0.000002   0.000000
    25  C    4.135949   0.561163   0.284957  -0.013607  -0.030846  -0.001846
    26  O    0.561163   8.243222  -0.101477   0.002052   0.013498   0.002805
    27  N    0.284957  -0.101477   7.479787   0.277465   0.184006  -0.040950
    28  H   -0.013607   0.002052   0.277465   0.290617  -0.029370   0.002499
    29  C   -0.030846   0.013498   0.184006  -0.029370   5.042222   0.405149
    30  H   -0.001846   0.002805  -0.040950   0.002499   0.405149   0.490128
    31  C   -0.003851  -0.014933  -0.062840   0.003426   0.336182  -0.043917
    32  H   -0.000180  -0.000012   0.001429   0.000307  -0.042615   0.004406
    33  H    0.000284   0.000252   0.004904  -0.000083  -0.042031   0.000071
    34  H    0.000661   0.009810  -0.005193  -0.000227  -0.027178  -0.003917
    35  C    0.003462   0.000426  -0.034311  -0.006477   0.377976  -0.036734
    36  O    0.000275  -0.000002  -0.010127   0.031726  -0.077218   0.001008
    37  N   -0.000098  -0.000001   0.002621   0.000997  -0.115003   0.002172
    38  H    0.000004   0.000001   0.000030  -0.000034   0.001138   0.000444
    39  C    0.000001   0.000000  -0.000049  -0.000012   0.003608  -0.000210
    40  H    0.000000   0.000000  -0.000003  -0.000012   0.000574  -0.000016
    41  H    0.000000   0.000000   0.000000   0.000000  -0.000112   0.000010
    42  H    0.000000   0.000000   0.000001   0.000000  -0.000005  -0.000001
             31         32         33         34         35         36
     1  H    0.000000   0.000000   0.000000   0.000000   0.000000   0.000000
     2  C    0.000000   0.000000   0.000000   0.000000   0.000000   0.000000
     3  H    0.000000   0.000000   0.000000   0.000000   0.000000   0.000000
     4  H    0.000000   0.000000   0.000000   0.000000   0.000000   0.000000
     5  C    0.000000   0.000000   0.000000   0.000000   0.000000   0.000000
     6  O    0.000000   0.000000   0.000000   0.000000   0.000000   0.000000
     7  N    0.000000   0.000000   0.000000   0.000000   0.000000   0.000000
     8  H    0.000000   0.000000   0.000000   0.000000   0.000000   0.000000
     9  C    0.000000   0.000000   0.000000   0.000000   0.000000   0.000002
    10  H    0.000000   0.000000   0.000000   0.000000   0.000000   0.000000
    11  C    0.000000   0.000000   0.000000   0.000000   0.000000  -0.000031
    12  H    0.000000   0.000000   0.000000   0.000000   0.000000   0.000000
    13  H    0.000000   0.000000   0.000000   0.000000   0.000018   0.000288
    14  H    0.000000   0.000000   0.000000   0.000000   0.000000   0.000000
    15  C    0.000000   0.000000   0.000000   0.000000  -0.000001  -0.000003
    16  O    0.000000   0.000000   0.000000   0.000000   0.000000   0.000000
    17  N   -0.000007  -0.000005   0.000000  -0.000006  -0.000042  -0.000048
    18  H   -0.000023   0.000001   0.000000  -0.000002  -0.000101  -0.000953
    19  C   -0.000649  -0.000012   0.000008   0.000233   0.000071  -0.000031
    20  H   -0.000004   0.000001   0.000000  -0.000001  -0.000001   0.000000
    21  C    0.000065  -0.000011  -0.000001  -0.000006  -0.000001   0.000000
    22  H    0.000015   0.000029   0.000000   0.000003  -0.000001   0.000000
    23  H    0.000007  -0.000001   0.000000   0.000004   0.000000   0.000000
    24  H    0.000000   0.000000   0.000000   0.000000   0.000000   0.000000
    25  C   -0.003851  -0.000180   0.000284   0.000661   0.003462   0.000275
    26  O   -0.014933  -0.000012   0.000252   0.009810   0.000426  -0.000002
    27  N   -0.062840   0.001429   0.004904  -0.005193  -0.034311  -0.010127
    28  H    0.003426   0.000307  -0.000083  -0.000227  -0.006477   0.031726
    29  C    0.336182  -0.042615  -0.042031  -0.027178   0.377976  -0.077218
    30  H   -0.043917   0.004406   0.000071  -0.003917  -0.036734   0.001008
    31  C    5.202024   0.386188   0.380331   0.387939  -0.062785   0.000001
    32  H    0.386188   0.520265  -0.023602  -0.020255  -0.002820   0.000628
    33  H    0.380331  -0.023602   0.559684  -0.019845  -0.007087   0.000021
    34  H    0.387939  -0.020255  -0.019845   0.424503   0.003885  -0.000063
    35  C   -0.062785  -0.002820  -0.007087   0.003885   4.139336   0.587308
    36  O    0.000001   0.000628   0.000021  -0.000063   0.587308   8.218234
    37  N    0.002111   0.000167   0.000521   0.000097   0.295546  -0.098191
    38  H    0.000012  -0.000012   0.002650  -0.000079  -0.021021   0.002349
    39  C   -0.000076  -0.000041   0.000160   0.000003  -0.025683  -0.004739
    40  H   -0.000048  -0.000001  -0.000008   0.000000  -0.002029   0.009442
    41  H   -0.000003   0.000001   0.000002   0.000000   0.000785   0.000364
    42  H    0.000010   0.000002  -0.000002  -0.000001   0.000924   0.000373
             37         38         39         40         41         42
     1  H    0.000000   0.000000   0.000000   0.000000   0.000000   0.000000
     2  C    0.000000   0.000000   0.000000   0.000000   0.000000   0.000000
     3  H    0.000000   0.000000   0.000000   0.000000   0.000000   0.000000
     4  H    0.000000   0.000000   0.000000   0.000000   0.000000   0.000000
     5  C    0.000000   0.000000   0.000000   0.000000   0.000000   0.000000
     6  O    0.000000   0.000000   0.000000   0.000000   0.000000   0.000000
     7  N    0.000000   0.000000   0.000000   0.000000   0.000000   0.000000
     8  H    0.000000   0.000000   0.000000   0.000000   0.000000   0.000000
     9  C    0.000000   0.000000   0.000000   0.000000   0.000000   0.000000
    10  H    0.000000   0.000000   0.000000   0.000000   0.000000   0.000000
    11  C    0.000000   0.000000   0.000000   0.000000   0.000000   0.000000
    12  H    0.000000   0.000000   0.000000   0.000000   0.000000   0.000000
    13  H    0.000000   0.000000   0.000000   0.000000   0.000000   0.000000
    14  H    0.000000   0.000000   0.000000   0.000000   0.000000   0.000000
    15  C    0.000000   0.000000   0.000000   0.000000   0.000000   0.000000
    16  O    0.000000   0.000000   0.000000   0.000000   0.000000   0.000000
    17  N    0.000000   0.000000   0.000000   0.000000   0.000000   0.000000
    18  H   -0.000005   0.000000   0.000000   0.000000   0.000000   0.000000
    19  C    0.000000   0.000000   0.000000   0.000000   0.000000   0.000000
    20  H    0.000000   0.000000   0.000000   0.000000   0.000000   0.000000
    21  C    0.000000   0.000000   0.000000   0.000000   0.000000   0.000000
    22  H    0.000000   0.000000   0.000000   0.000000   0.000000   0.000000
    23  H    0.000000   0.000000   0.000000   0.000000   0.000000   0.000000
    24  H    0.000000   0.000000   0.000000   0.000000   0.000000   0.000000
    25  C   -0.000098   0.000004   0.000001   0.000000   0.000000   0.000000
    26  O   -0.000001   0.000001   0.000000   0.000000   0.000000   0.000000
    27  N    0.002621   0.000030  -0.000049  -0.000003   0.000000   0.000001
    28  H    0.000997  -0.000034  -0.000012  -0.000012   0.000000   0.000000
    29  C   -0.115003   0.001138   0.003608   0.000574  -0.000112  -0.000005
    30  H    0.002172   0.000444  -0.000210  -0.000016   0.000010  -0.000001
    31  C    0.002111   0.000012  -0.000076  -0.000048  -0.000003   0.000010
    32  H    0.000167  -0.000012  -0.000041  -0.000001   0.000001   0.000002
    33  H    0.000521   0.002650   0.000160  -0.000008   0.000002  -0.000002
    34  H    0.000097  -0.000079   0.000003   0.000000   0.000000  -0.000001
    35  C    0.295546  -0.021021  -0.025683  -0.002029   0.000785   0.000924
    36  O   -0.098191   0.002349  -0.004739   0.009442   0.000364   0.000373
    37  N    7.324598   0.322529   0.183090  -0.031621  -0.046683  -0.047666
    38  H    0.322529   0.315152  -0.020930   0.002250  -0.001538  -0.000657
[...]
    32  H    0.000000   0.000000   0.000000   0.000000  -0.000006   0.000033
    33  H    0.000000   0.000000   0.000000   0.000000   0.000000   0.000001
    34  H    0.000000   0.000000   0.000000   0.000000  -0.000004  -0.000005
    35  C    0.000001   0.000000   0.000000   0.000000  -0.000061   0.000010
    36  O    0.000076   0.000000  -0.000002   0.000000  -0.000073  -0.000009
    37  N    0.000000   0.000000   0.000000   0.000000   0.000000   0.000000
    38  H    0.000000   0.000000   0.000000   0.000000   0.000000   0.000000
    39  C    0.000000   0.000000   0.000000   0.000000   0.000000   0.000000
    40  H    0.000000   0.000000   0.000000   0.000000   0.000000   0.000000
    41  H    0.000000   0.000000   0.000000   0.000000   0.000000   0.000000
    42  H    0.000000   0.000000   0.000000   0.000000   0.000000   0.000000
             19         20         21         22         23         24
     1  H    0.000000   0.000000   0.000000   0.000000   0.000000   0.000000
     2  C    0.000000   0.000000   0.000000   0.000000   0.000000   0.000000
     3  H    0.000000   0.000000   0.000000   0.000000   0.000000   0.000000
     4  H    0.000000   0.000000   0.000000   0.000000   0.000000   0.000000
     5  C    0.000002   0.000000   0.000000   0.000000   0.000000   0.000000
     6  O    0.000000   0.000000   0.000000   0.000000   0.000000   0.000000
     7  N   -0.000052  -0.000001   0.000000   0.000000   0.000000   0.000002
     8  H   -0.000037  -0.000003   0.000012   0.000000   0.000000   0.000000
     9  C    0.004068   0.000050  -0.000485  -0.000046   0.000005   0.000176
    10  H   -0.000310  -0.000008   0.000078  -0.000006   0.000000  -0.000024
    11  C   -0.000168  -0.000002  -0.000003   0.000001   0.000000  -0.000001
    12  H   -0.000025   0.000000   0.000001   0.000000   0.000000   0.000000
    13  H    0.000044  -0.000007   0.000003   0.000000   0.000000   0.000000
    14  H    0.000004   0.000000   0.000000   0.000000   0.000000   0.000000
    15  C   -0.024715  -0.002692  -0.005202  -0.000290   0.000191   0.002490
    16  O    0.011421   0.003336  -0.007228   0.000090   0.000018   0.005311
    17  N    0.155363  -0.037936  -0.062740   0.000327   0.004194  -0.004939
    18  H   -0.025841   0.004026   0.000295   0.001917  -0.000067  -0.000308
    19  C    5.046355   0.404166   0.347874  -0.040991  -0.033614  -0.032938
    20  H    0.404166   0.457664  -0.035923   0.003895  -0.000037  -0.003567
    21  C    0.347874  -0.035923   5.165177   0.385779   0.386131   0.392280
    22  H   -0.040991   0.003895   0.385779   0.543984  -0.021236  -0.025343
    23  H   -0.033614  -0.000037   0.386131  -0.021236   0.474304  -0.021434
    24  H   -0.032938  -0.003567   0.392280  -0.025343  -0.021434   0.473352
    25  C    0.393725  -0.033287  -0.054307  -0.005166  -0.004115   0.004784
    26  O   -0.074860   0.000843  -0.001297   0.000258   0.006025   0.000166
    27  N   -0.102661   0.001199   0.001264   0.000587   0.000347  -0.000067
    28  H   -0.002378  -0.000420   0.000537  -0.000060  -0.000022  -0.000001
    29  C    0.004589  -0.000132  -0.000132  -0.000054  -0.000012   0.000002
    30  H    0.000288   0.000011  -0.000022   0.000000  -0.000001   0.000000
    31  C   -0.000354  -0.000001   0.000032   0.000010   0.000002   0.000000
    32  H    0.000003   0.000000  -0.000003   0.000002   0.000000   0.000000
    33  H    0.000004   0.000000   0.000000   0.000000   0.000000   0.000000
    34  H    0.000060   0.000000   0.000002   0.000012   0.000000   0.000000
    35  C    0.000065   0.000002  -0.000001   0.000000   0.000000   0.000000
    36  O   -0.000024   0.000001   0.000000   0.000000   0.000000   0.000000
    37  N    0.000001   0.000000   0.000000   0.000000   0.000000   0.000000
    38  H    0.000000   0.000000   0.000000   0.000000   0.000000   0.000000
    39  C    0.000000   0.000000   0.000000   0.000000   0.000000   0.000000
    40  H    0.000000   0.000000   0.000000   0.000000   0.000000   0.000000
    41  H    0.000000   0.000000   0.000000   0.000000   0.000000   0.000000
    42  H    0.000000   0.000000   0.000000   0.000000   0.000000   0.000000
             25         26         27         28         29         30
     1  H    0.000000   0.000000   0.000000   0.000000   0.000000   0.000000
     2  C    0.000000   0.000000   0.000000   0.000000   0.000000   0.000000
     3  H    0.000000   0.000000   0.000000   0.000000   0.000000   0.000000
     4  H    0.000000   0.000000   0.000000   0.000000   0.000000   0.000000
     5  C    0.000000   0.000000   0.000000   0.000000   0.000000   0.000000
     6  O    0.000000   0.000000   0.000000   0.000000   0.000000   0.000000
     7  N    0.000000   0.000000   0.000000   0.000001   0.000000   0.000000
     8  H    0.000000   0.000000   0.000000   0.000000   0.000000   0.000000
     9  C    0.000037   0.000000  -0.000046   0.000018   0.000000   0.000000
    10  H   -0.000002   0.000000  -0.000011  -0.000009   0.000000   0.000000
    11  C   -0.000005   0.000000  -0.000001   0.000000   0.000000   0.000000
    12  H    0.000000   0.000000   0.000000  -0.000003   0.000000   0.000000
    13  H   -0.000007   0.000000  -0.000028   0.000330  -0.000001   0.000000
    14  H    0.000000   0.000000   0.000000   0.000001   0.000000   0.000000
    15  C    0.003163  -0.000053  -0.000046  -0.000205   0.000011   0.000000
    16  O    0.000350   0.000000  -0.000003  -0.000005   0.000000   0.000000
    17  N   -0.037954   0.002151  -0.007409   0.007720   0.000162  -0.000024
    18  H   -0.007708  -0.000048   0.010769  -0.002542  -0.000262   0.000023
    19  C    0.393725  -0.074860  -0.102661  -0.002378   0.004589   0.000288
    20  H   -0.033287   0.000843   0.001199  -0.000420  -0.000132   0.000011
    21  C   -0.054307  -0.001297   0.001264   0.000537  -0.000132  -0.000022
    22  H   -0.005166   0.000258   0.000587  -0.000060  -0.000054   0.000000
    23  H   -0.004115   0.006025   0.000347  -0.000022  -0.000012  -0.000001
    24  H    0.004784   0.000166  -0.000067  -0.000001   0.000002   0.000000
    25  C    4.133417   0.577480   0.287924  -0.013761  -0.028259   0.000277
    26  O    0.577480   8.195493  -0.103066   0.001837   0.008422   0.007007
    27  N    0.287924  -0.103066   7.432533   0.295960   0.196794  -0.044745
    28  H   -0.013761   0.001837   0.295960   0.282922  -0.032202   0.001925
    29  C   -0.028259   0.008422   0.196794  -0.032202   5.053026   0.409875
    30  H    0.000277   0.007007  -0.044745   0.001925   0.409875   0.482049
    31  C   -0.002402  -0.003898  -0.064165   0.003567   0.336394  -0.041521
    32  H    0.000333  -0.000010   0.000748   0.000096  -0.038207   0.003993
    33  H    0.000030   0.000015   0.004524  -0.000083  -0.037375   0.000177
    34  H    0.001931   0.004485  -0.005660  -0.000135  -0.029646  -0.003662
    35  C    0.002803   0.000486  -0.039331  -0.007741   0.382654  -0.040992
    36  O    0.000411  -0.000005  -0.013910   0.029213  -0.073600   0.001396
    37  N   -0.000070  -0.000001   0.002601   0.001211  -0.118678   0.002783
    38  H   -0.000004   0.000000   0.000049  -0.000040   0.000465   0.000899
    39  C    0.000001   0.000000  -0.000069  -0.000041   0.004184  -0.000142
    40  H    0.000000   0.000000  -0.000001  -0.000004   0.000159  -0.000002
    41  H    0.000000   0.000000   0.000002   0.000001  -0.000162   0.000002
    42  H    0.000000   0.000000   0.000000   0.000000   0.000010  -0.000008
             31         32         33         34         35         36
     1  H    0.000000   0.000000   0.000000   0.000000   0.000000   0.000000
     2  C    0.000000   0.000000   0.000000   0.000000   0.000000   0.000000
     3  H    0.000000   0.000000   0.000000   0.000000   0.000000   0.000000
     4  H    0.000000   0.000000   0.000000   0.000000   0.000000   0.000000
     5  C    0.000000   0.000000   0.000000   0.000000   0.000000   0.000000
     6  O    0.000000   0.000000   0.000000   0.000000   0.000000   0.000000
     7  N    0.000000   0.000000   0.000000   0.000000   0.000000   0.000000
     8  H    0.000000   0.000000   0.000000   0.000000   0.000000   0.000000
     9  C    0.000000   0.000000   0.000000   0.000000   0.000000   0.000000
    10  H    0.000000   0.000000   0.000000   0.000000   0.000000   0.000000
    11  C    0.000000   0.000000   0.000000   0.000000   0.000000  -0.000008
    12  H    0.000000   0.000000   0.000000   0.000000   0.000000   0.000000
    13  H    0.000000   0.000000   0.000000   0.000000   0.000001   0.000076
    14  H    0.000000   0.000000   0.000000   0.000000   0.000000   0.000000
    15  C    0.000000   0.000000   0.000000   0.000000   0.000000  -0.000002
    16  O    0.000000   0.000000   0.000000   0.000000   0.000000   0.000000
    17  N    0.000006  -0.000006   0.000000  -0.000004  -0.000061  -0.000073
    18  H   -0.000040   0.000033   0.000001  -0.000005   0.000010  -0.000009
    19  C   -0.000354   0.000003   0.000004   0.000060   0.000065  -0.000024
    20  H   -0.000001   0.000000   0.000000   0.000000   0.000002   0.000001
    21  C    0.000032  -0.000003   0.000000   0.000002  -0.000001   0.000000
    22  H    0.000010   0.000002   0.000000   0.000012   0.000000   0.000000
    23  H    0.000002   0.000000   0.000000   0.000000   0.000000   0.000000
    24  H    0.000000   0.000000   0.000000   0.000000   0.000000   0.000000
    25  C   -0.002402   0.000333   0.000030   0.001931   0.002803   0.000411
    26  O   -0.003898  -0.000010   0.000015   0.004485   0.000486  -0.000005
    27  N   -0.064165   0.000748   0.004524  -0.005660  -0.039331  -0.013910
    28  H    0.003567   0.000096  -0.000083  -0.000135  -0.007741   0.029213
    29  C    0.336394  -0.038207  -0.037375  -0.029646   0.382654  -0.073600
    30  H   -0.041521   0.003993   0.000177  -0.003662  -0.040992   0.001396
    31  C    5.137635   0.388522   0.382789   0.392062  -0.051731  -0.000477
    32  H    0.388522   0.516242  -0.024722  -0.023386  -0.003869   0.000916
    33  H    0.382789  -0.024722   0.541149  -0.023152  -0.003888   0.000011
    34  H    0.392062  -0.023386  -0.023152   0.471911   0.004066  -0.000071
    35  C   -0.051731  -0.003869  -0.003888   0.004066   4.152782   0.596285
    36  O   -0.000477   0.000916   0.000011  -0.000071   0.596285   8.181440
    37  N    0.003302   0.000393   0.001926  -0.000024   0.287138  -0.104271
    38  H    0.000388   0.000002   0.001046  -0.000050  -0.022714   0.002516
    39  C   -0.000211  -0.000019   0.000021   0.000003  -0.028592   0.008249
    40  H   -0.000018   0.000003  -0.000008   0.000000  -0.003179   0.002964
    41  H   -0.000002   0.000000   0.000003   0.000000  -0.003706   0.001262
    42  H   -0.000001  -0.000001  -0.000007   0.000000   0.004519   0.000359
             37         38         39         40         41         42
     1  H    0.000000   0.000000   0.000000   0.000000   0.000000   0.000000
     2  C    0.000000   0.000000   0.000000   0.000000   0.000000   0.000000
     3  H    0.000000   0.000000   0.000000   0.000000   0.000000   0.000000
     4  H    0.000000   0.000000   0.000000   0.000000   0.000000   0.000000
     5  C    0.000000   0.000000   0.000000   0.000000   0.000000   0.000000
     6  O    0.000000   0.000000   0.000000   0.000000   0.000000   0.000000
     7  N    0.000000   0.000000   0.000000   0.000000   0.000000   0.000000
     8  H    0.000000   0.000000   0.000000   0.000000   0.000000   0.000000
     9  C    0.000000   0.000000   0.000000   0.000000   0.000000   0.000000
    10  H    0.000000   0.000000   0.000000   0.000000   0.000000   0.000000
    11  C    0.000000   0.000000   0.000000   0.000000   0.000000   0.000000
    12  H    0.000000   0.000000   0.000000   0.000000   0.000000   0.000000
    13  H    0.000000   0.000000   0.000000   0.000000   0.000000   0.000000
    14  H    0.000000   0.000000   0.000000   0.000000   0.000000   0.000000
    15  C    0.000000   0.000000   0.000000   0.000000   0.000000   0.000000
    16  O    0.000000   0.000000   0.000000   0.000000   0.000000   0.000000
    17  N    0.000000   0.000000   0.000000   0.000000   0.000000   0.000000
    18  H    0.000000   0.000000   0.000000   0.000000   0.000000   0.000000
    19  C    0.000001   0.000000   0.000000   0.000000   0.000000   0.000000
    20  H    0.000000   0.000000   0.000000   0.000000   0.000000   0.000000
    21  C    0.000000   0.000000   0.000000   0.000000   0.000000   0.000000
    22  H    0.000000   0.000000   0.000000   0.000000   0.000000   0.000000
    23  H    0.000000   0.000000   0.000000   0.000000   0.000000   0.000000
    24  H    0.000000   0.000000   0.000000   0.000000   0.000000   0.000000
    25  C   -0.000070  -0.000004   0.000001   0.000000   0.000000   0.000000
    26  O   -0.000001   0.000000   0.000000   0.000000   0.000000   0.000000
    27  N    0.002601   0.000049  -0.000069  -0.000001   0.000002   0.000000
    28  H    0.001211  -0.000040  -0.000041  -0.000004   0.000001   0.000000
    29  C   -0.118678   0.000465   0.004184   0.000159  -0.000162   0.000010
    30  H    0.002783   0.000899  -0.000142  -0.000002   0.000002  -0.000008
    31  C    0.003302   0.000388  -0.000211  -0.000018  -0.000002  -0.000001
    32  H    0.000393   0.000002  -0.000019   0.000003   0.000000  -0.000001
    33  H    0.001926   0.001046   0.000021  -0.000008   0.000003  -0.000007
    34  H   -0.000024  -0.000050   0.000003   0.000000   0.000000   0.000000
    35  C    0.287138  -0.022714  -0.028592  -0.003179  -0.003706   0.004519
    36  O   -0.104271   0.002516   0.008249   0.002964   0.001262   0.000359
    37  N    7.322645   0.328579   0.193870  -0.040476  -0.045504  -0.036905
    38  H    0.328579   0.319620  -0.022005   0.002506   0.001313  -0.004542
    39  C    0.193870  -0.022005   4.909628   0.404333   0.406429   0.397478
    40  H   -0.040476   0.002506   0.404333   0.487337  -0.032689  -0.024891
    41  H   -0.045504   0.001313   0.406429  -0.032689   0.516940  -0.030444
    42  H   -0.036905  -0.004542   0.397478  -0.024891  -0.030444   0.520522
 Mulliken atomic charges:
              1
     1  H    0.203294
     2  C   -0.575928
     3  H    0.208338
     4  H    0.173337
     5  C    0.754759
     6  O   -0.620681
     7  N   -0.823056
     8  H    0.418031
     9  C   -0.033270
    10  H    0.215167
    11  C   -0.484913
    12  H    0.174819
    13  H    0.175026
    14  H    0.210936
    15  C    0.783125
    16  O   -0.614669
    17  N   -0.838518
    18  H    0.384307
    19  C   -0.029064
    20  H    0.238825
    21  C   -0.512122
    22  H    0.156330
    23  H    0.209322
    24  H    0.210059
    25  C    0.780382
    26  O   -0.621433
    27  N   -0.854081
    28  H    0.434314
    29  C   -0.038025
    30  H    0.220412
    31  C   -0.479883
    32  H    0.178938
    33  H    0.157541
    34  H    0.211264
    35  C    0.774995
    36  O   -0.632650
    37  N   -0.798516
    38  H    0.391973
    39  C   -0.273115
    40  H    0.203967
    41  H    0.186552
    42  H    0.173910
 Sum of Mulliken atomic charges =   0.00000
 Mulliken charges with hydrogens summed into heavy atoms:
              1
     2  C    0.009041
     5  C    0.754759
     6  O   -0.620681
     7  N   -0.405025
     9  C    0.181897
    11  C    0.075868
    15  C    0.783125
    16  O   -0.614669
    17  N   -0.454211
    19  C    0.209761
    21  C    0.063589
    25  C    0.780382
    26  O   -0.621433
    27  N   -0.419767
    29  C    0.182387
    31  C    0.067859
    35  C    0.774995
    36  O   -0.632650
    37  N   -0.406544
    39  C    0.291315
 Sum of Mulliken charges with hydrogens summed into heavy atoms =   0.00000
 Electronic spatial extent (au):  <R**2>=           9142.0462
 Charge=              0.0000 electrons
 Dipole moment (field-independent basis, Debye):
    X=              4.1016    Y=             -0.4671    Z=             -0.1806  Tot=              4.1321
 Quadrupole moment (field-independent basis, Debye-Ang):
   XX=            -86.3600   YY=           -139.1312   ZZ=           -123.8557
   XY=            -16.6543   XZ=              6.1930   YZ=              8.6621
 Traceless Quadrupole moment (field-independent basis, Debye-Ang):
   XX=             30.0889   YY=            -22.6822   ZZ=             -7.4067
   XY=            -16.6543   XZ=              6.1930   YZ=              8.6621
 Octapole moment (field-independent basis, Debye-Ang**2):
  XXX=            135.1950  YYY=            -22.6252  ZZZ=             -5.3895  XYY=             15.5220
  XXY=            -27.6931  XXZ=            -31.9766  XZZ=             20.7690  YZZ=              6.0558
  YYZ=             -8.8178  XYZ=            -27.8331
 Hexadecapole moment (field-independent basis, Debye-Ang**3):
 XXXX=          -7177.6548 YYYY=          -2256.7033 ZZZZ=           -560.3292 XXXY=           -423.8264
 XXXZ=             83.1768 YYYX=           -206.5808 YYYZ=             29.8818 ZZZX=             -3.4788
 ZZZY=              2.6574 XXYY=          -2016.1709 XXZZ=          -1695.8330 YYZZ=           -473.2354
 XXYZ=            156.8450 YYXZ=             43.2077 ZZXY=            -22.5365
 N-N= 1.611933314982D+03 E-N=-5.531414956627D+03  KE= 9.830912354746D+02
 1\1\GINC-NODE007\FOpt\RHF\6-31G(d)\C12H22N4O4\MANAGER\26-Dec-2016\0\\#
  HF/6-31G* Opt=(ModRedundant, maxcycles=1000, calcfc) geom=nocrowd\\Ph
 i Psi fixed scan\\0,1\H,1.6538685748,1.6678839806,-0.3089287391\C,1.73
 09492292,2.512405261,0.3675307901\H,1.3869581981,2.1904584445,1.341196
 6723\H,1.094906669,3.3094219084,0.0019078804\C,3.1864386327,2.91216084
 94,0.4751178756\O,3.9730162548,2.2689819414,1.119908995\N,3.5446594921
 ,4.0146408053,-0.2150028695\H,2.8705207918,4.5563484962,-0.7070069495\
 C,4.8958198431,4.5178733697,-0.2083919736\H,5.2975083262,4.3905389347,
 0.789705088\C,5.7994885452,3.7750101602,-1.2025533533\H,5.4282278982,3
 .8995626505,-2.2140826628\H,6.8193891811,4.1405867837,-1.161381683\H,5
 .8007916158,2.721587416,-0.956204511\C,4.8346461889,6.0051570223,-0.54
 74576635\O,3.8746932856,6.4912138588,-1.07872173\N,5.9754690608,6.7056
 594489,-0.2833605687\H,6.5336767257,6.2841673317,0.4283971506\C,5.9564
 287788,8.1678079092,-0.2420047647\H,5.6860708033,8.5197062727,-1.22820
 70944\C,4.9622563952,8.7307926751,0.7822286911\H,5.2115843214,8.386395
 5037,1.7822909668\H,5.0032145803,9.8106056345,0.7741737015\H,3.9585119
 477,8.4116216109,0.5425365756\C,7.3394461508,8.744935138,0.069708882\O
 ,7.4696344346,9.9334305111,0.1932958879\N,8.3603248195,7.8791006745,0.
 2596875142\H,8.3201717907,6.9669854561,-0.1399771921\C,9.703338993,8.3
 644543059,0.4950340304\H,9.8556578096,9.2737822429,-0.0751427943\C,9.9
 337739138,8.6650136624,1.9806555967\H,9.8174820115,7.7630249289,2.5712
 551277\H,10.9259109651,9.0664620945,2.15679636\H,9.2085246348,9.396592
 8335,2.311122577\C,10.6663278028,7.2920882179,-0.0130343517\O,10.28293
 67831,6.1889737635,-0.3086600399\N,11.9572018661,7.6564524368,-0.08653
 8501\H,12.2021418308,8.6047868811,0.0794481951\C,12.9782328919,6.74769
 50564,-0.5684445204\H,12.9111553411,5.8044697868,-0.0457713201\H,12.87
 47581075,6.5605511299,-1.6307896086\H,13.9478845135,7.1876126104,-0.37
 97356669\\Version=EM64L-G09RevA.02\State=1-A\HF=-984.558033\RMSD=7.720
 e-09\RMSF=1.409e-03\Dipole=1.48856,0.6509792,-0.0573578\Quadrupole=23.
 3738156,-19.114362,-4.2594536,10.8668768,0.9057527,6.3033991\PG=C01 [X
 (C12H22N4O4)]\\@


 O WAD SOME POWER THE GIFTIE GIE US       
 TO SEE OURSELS AS OTHERS SEE US.....     
 IT WOULD FRAE MONIE A BLUNDER FREE US,   
                     AND FOOLISH NOTION...
 WHAT AIRS IN DRESS AND GAIT WAD LEA'E US,
                     AND EV'N DEVOTION....
                                          
              (ROBERT BURNS 'TO A LOUSE') 
 Job cpu time:  0 days  4 hours 53 minutes 32.4 seconds.
 File lengths (MBytes):  RWF=    553 Int=      0 D2E=      0 Chk=     11 Scr=      1
 Normal termination of Gaussian 09 at Mon Dec 26 20:53:50 2016.
