 Entering Gaussian System, Link 0=g09
 Initial command:
 /home/steboss/Software/g09/l1.exe /tmp/Gau-31449.inp -scrdir=/tmp/
 Entering Link 1 = /home/steboss/Software/g09/l1.exe PID=     31451.
  
 Copyright (c) 1988,1990,1992,1993,1995,1998,2003,2009, Gaussian, Inc.
                  All Rights Reserved.
  
 This is part of the Gaussian(R) 09 program.  It is based on
 the Gaussian(R) 03 system (copyright 2003, Gaussian, Inc.),
 the Gaussian(R) 98 system (copyright 1998, Gaussian, Inc.),
 the Gaussian(R) 94 system (copyright 1995, Gaussian, Inc.),
 the Gaussian 92(TM) system (copyright 1992, Gaussian, Inc.),
 the Gaussian 90(TM) system (copyright 1990, Gaussian, Inc.),
 the Gaussian 88(TM) system (copyright 1988, Gaussian, Inc.),
 the Gaussian 86(TM) system (copyright 1986, Carnegie Mellon
 University), and the Gaussian 82(TM) system (copyright 1983,
 Carnegie Mellon University). Gaussian is a federally registered
 trademark of Gaussian, Inc.
  
 This software contains proprietary and confidential information,
 including trade secrets, belonging to Gaussian, Inc.
  
 This software is provided under written license and may be
 used, copied, transmitted, or stored only in accord with that
 written license.
  
 The following legend is applicable only to US Government
 contracts under FAR:
  
                    RESTRICTED RIGHTS LEGEND
  
 Use, reproduction and disclosure by the US Government is
 subject to restrictions as set forth in subparagraphs (a)
 and (c) of the Commercial Computer Software - Restricted
 Rights clause in FAR 52.227-19.
  
 Gaussian, Inc.
 340 Quinnipiac St., Bldg. 40, Wallingford CT 06492
  
  
 ---------------------------------------------------------------
 Warning -- This program may not be used in any manner that
 competes with the business of Gaussian, Inc. or will provide
 assistance to any competitor of Gaussian, Inc.  The licensee
 of this program is prohibited from giving any competitor of
 Gaussian, Inc. access to this program.  By using this program,
 the user acknowledges that Gaussian, Inc. is engaged in the
 business of creating and licensing software in the field of
 computational chemistry and represents and warrants to the
 licensee that it is not a competitor of Gaussian, Inc. and that
 it will not use this program in any manner prohibited above.
 ---------------------------------------------------------------
  

 Cite this work as:
 Gaussian 09, Revision A.02,
 M. J. Frisch, G. W. Trucks, H. B. Schlegel, G. E. Scuseria, 
 M. A. Robb, J. R. Cheeseman, G. Scalmani, V. Barone, B. Mennucci, 
 G. A. Petersson, H. Nakatsuji, M. Caricato, X. Li, H. P. Hratchian, 
 A. F. Izmaylov, J. Bloino, G. Zheng, J. L. Sonnenberg, M. Hada, 
 M. Ehara, K. Toyota, R. Fukuda, J. Hasegawa, M. Ishida, T. Nakajima, 
 Y. Honda, O. Kitao, H. Nakai, T. Vreven, J. A. Montgomery, Jr., 
 J. E. Peralta, F. Ogliaro, M. Bearpark, J. J. Heyd, E. Brothers, 
 K. N. Kudin, V. N. Staroverov, R. Kobayashi, J. Normand, 
 K. Raghavachari, A. Rendell, J. C. Burant, S. S. Iyengar, J. Tomasi, 
 M. Cossi, N. Rega, J. M. Millam, M. Klene, J. E. Knox, J. B. Cross, 
 V. Bakken, C. Adamo, J. Jaramillo, R. Gomperts, R. E. Stratmann, 
 O. Yazyev, A. J. Austin, R. Cammi, C. Pomelli, J. W. Ochterski, 
 R. L. Martin, K. Morokuma, V. G. Zakrzewski, G. A. Voth, 
 P. Salvador, J. J. Dannenberg, S. Dapprich, A. D. Daniels, 
 O. Farkas, J. B. Foresman, J. V. Ortiz, J. Cioslowski, 
 and D. J. Fox, Gaussian, Inc., Wallingford CT, 2009.
 
 ******************************************
 Gaussian 09:  EM64L-G09RevA.02 11-Jun-2009
                26-Dec-2016 
 ******************************************
 %chk=structure_210.chk
 -------------------------------------------------------------------
 # HF/6-31G* Opt=(ModRedundant, maxcycles=1000, calcfc) geom=nocrowd
 -------------------------------------------------------------------
 1/6=1000,10=4,18=120,19=15,38=1/1,3;
 2/9=110,12=1,17=6,18=5,40=1/2;
 3/5=1,6=6,7=1,11=9,16=1,25=1,30=1,71=2/1,2,3;
 4//1;
 5/5=2,38=5/2;
 8/6=4,10=90,11=11/1;
 11/6=1,8=1,9=11,15=111,16=1/1,2,10;
 10/6=1,7=6,13=1/2;
 6/7=2,8=2,9=2,10=2,28=1/1;
 7/10=1,18=20,25=1/1,2,3,16;
 1/6=1000,10=4,18=20,19=15/3(2);
 2/9=110,12=1/2;
 99//99;
 2/9=110,12=1/2;
 3/5=1,6=6,7=1,11=9,16=1,25=1,30=1,71=1/1,2,3;
 4/5=5,16=3/1;
 5/5=2,38=5/2;
 7//1,2,3,16;
 1/6=1000,18=20,19=15/3(-5);
 2/9=110,12=1/2;
 6/7=2,8=2,9=2,10=2,19=2,28=1/1;
 99/9=1/99;
 ------------------
 Phi Psi fixed scan
 ------------------
 Symbolic Z-matrix:
 Charge =  0 Multiplicity = 1
 H                     2.        1.        0. 
 C                     2.        2.09      0. 
 H                     1.4863    2.4539    0.8898 
 H                     1.4863    2.4539   -0.8898 
 C                     3.4274    2.6408    0. 
 O                     4.3906    1.8774    0. 
 N                     3.5554    3.9697    0. 
 H                     2.7331    4.5562    0. 
 C                     4.8533    4.6139    0. 
 H                     5.4076    4.3155    0.8898 
 C                     5.6613    4.2208   -1.2322 
 H                     5.1233    4.5214   -2.1312 
 H                     6.6305    4.7189   -1.2058 
 H                     5.8085    3.1409   -1.2414 
 C                     4.7127    6.1294    0. 
 O                     3.6006    6.6527    0. 
 N                     5.846     6.8349    0. 
 H                     6.737     6.3592    0. 
 C                     5.8461    8.2839    0. 
 H                     5.3323    8.6477   -0.8898 
 C                     5.1347    8.8329    1.2322 
 H                     5.6431    8.4846    2.1312 
 H                     5.1499    9.9224    1.2058 
 H                     4.1019    8.4846    1.2414 
 C                     7.266     8.8318    0. 
 O                     8.1781    8.2008   -0.5295 
 N                     7.4515    10.0114   0.5968 
 H                     6.67      10.4926   1.0185 
 C                     8.7559    10.639    0.6638 
 H                     9.4473    9.9853    1.1954 
 C                     9.3104    10.9029  -0.7321 
 H                     8.6334    11.5635  -1.2737 
 H                     10.2899   11.3742  -0.6514 
 H                     9.4048    9.9598   -1.2704 
 C                     8.6859    11.9714   1.396 
 O                     7.6168    12.3837   1.8403 
 N                     9.8314    12.6456   1.5211 
 H                     10.6854   12.2655   1.1388 
 C                     9.8966    13.9257   2.197 
 H                     8.9033    14.2008   2.5517 
 H                     10.5779   13.8551   3.0449 
 H                     10.2576   14.6853   1.5037 
 
 The following ModRedundant input section has been read:
 D   15   17   19   25 F                                                       
 D   17   19   25   27 F                                                       

 GradGradGradGradGradGradGradGradGradGradGradGradGradGradGradGradGradGrad
 Berny optimization.
 Initialization pass.
                           ----------------------------
                           !    Initial Parameters    !
                           ! (Angstroms and Degrees)  !
 --------------------------                            --------------------------
 ! Name  Definition              Value          Derivative Info.                !
 --------------------------------------------------------------------------------
 ! R1    R(1,2)                  1.09           calculate D2E/DX2 analytically  !
 ! R2    R(2,3)                  1.09           calculate D2E/DX2 analytically  !
 ! R3    R(2,4)                  1.09           calculate D2E/DX2 analytically  !
 ! R4    R(2,5)                  1.53           calculate D2E/DX2 analytically  !
 ! R5    R(5,6)                  1.229          calculate D2E/DX2 analytically  !
 ! R6    R(5,7)                  1.3351         calculate D2E/DX2 analytically  !
 ! R7    R(7,8)                  1.01           calculate D2E/DX2 analytically  !
 ! R8    R(7,9)                  1.449          calculate D2E/DX2 analytically  !
 ! R9    R(9,10)                 1.09           calculate D2E/DX2 analytically  !
 ! R10   R(9,11)                 1.525          calculate D2E/DX2 analytically  !
 ! R11   R(9,15)                 1.522          calculate D2E/DX2 analytically  !
 ! R12   R(11,12)                1.09           calculate D2E/DX2 analytically  !
 ! R13   R(11,13)                1.09           calculate D2E/DX2 analytically  !
 ! R14   R(11,14)                1.0899         calculate D2E/DX2 analytically  !
 ! R15   R(15,16)                1.2291         calculate D2E/DX2 analytically  !
 ! R16   R(15,17)                1.335          calculate D2E/DX2 analytically  !
 ! R17   R(17,18)                1.01           calculate D2E/DX2 analytically  !
 ! R18   R(17,19)                1.449          calculate D2E/DX2 analytically  !
 ! R19   R(19,20)                1.09           calculate D2E/DX2 analytically  !
 ! R20   R(19,21)                1.5251         calculate D2E/DX2 analytically  !
 ! R21   R(19,25)                1.5219         calculate D2E/DX2 analytically  !
 ! R22   R(21,22)                1.0899         calculate D2E/DX2 analytically  !
 ! R23   R(21,23)                1.0899         calculate D2E/DX2 analytically  !
 ! R24   R(21,24)                1.09           calculate D2E/DX2 analytically  !
 ! R25   R(25,26)                1.229          calculate D2E/DX2 analytically  !
 ! R26   R(25,27)                1.3349         calculate D2E/DX2 analytically  !
 ! R27   R(27,28)                1.01           calculate D2E/DX2 analytically  !
 ! R28   R(27,29)                1.4491         calculate D2E/DX2 analytically  !
 ! R29   R(29,30)                1.0899         calculate D2E/DX2 analytically  !
 ! R30   R(29,31)                1.525          calculate D2E/DX2 analytically  !
 ! R31   R(29,35)                1.5219         calculate D2E/DX2 analytically  !
 ! R32   R(31,32)                1.09           calculate D2E/DX2 analytically  !
 ! R33   R(31,33)                1.09           calculate D2E/DX2 analytically  !
 ! R34   R(31,34)                1.09           calculate D2E/DX2 analytically  !
 ! R35   R(35,36)                1.229          calculate D2E/DX2 analytically  !
 ! R36   R(35,37)                1.3351         calculate D2E/DX2 analytically  !
 ! R37   R(37,38)                1.0099         calculate D2E/DX2 analytically  !
 ! R38   R(37,39)                1.4491         calculate D2E/DX2 analytically  !
 ! R39   R(39,40)                1.09           calculate D2E/DX2 analytically  !
 ! R40   R(39,41)                1.09           calculate D2E/DX2 analytically  !
 ! R41   R(39,42)                1.0899         calculate D2E/DX2 analytically  !
 ! A1    A(1,2,3)              109.5032         calculate D2E/DX2 analytically  !
 ! A2    A(1,2,4)              109.5032         calculate D2E/DX2 analytically  !
 ! A3    A(1,2,5)              111.1004         calculate D2E/DX2 analytically  !
 ! A4    A(3,2,4)              109.4413         calculate D2E/DX2 analytically  !
 ! A5    A(3,2,5)              108.6329         calculate D2E/DX2 analytically  !
 ! A6    A(4,2,5)              108.6329         calculate D2E/DX2 analytically  !
 ! A7    A(2,5,6)              120.5004         calculate D2E/DX2 analytically  !
 ! A8    A(2,5,7)              116.6022         calculate D2E/DX2 analytically  !
 ! A9    A(6,5,7)              122.8974         calculate D2E/DX2 analytically  !
 ! A10   A(5,7,8)              119.9963         calculate D2E/DX2 analytically  !
 ! A11   A(5,7,9)              121.8988         calculate D2E/DX2 analytically  !
 ! A12   A(8,7,9)              118.1048         calculate D2E/DX2 analytically  !
 ! A13   A(7,9,10)             109.5            calculate D2E/DX2 analytically  !
 ! A14   A(7,9,11)             111.0992         calculate D2E/DX2 analytically  !
 ! A15   A(7,9,15)             111.0966         calculate D2E/DX2 analytically  !
 ! A16   A(10,9,11)            108.6382         calculate D2E/DX2 analytically  !
 ! A17   A(10,9,15)            108.6373         calculate D2E/DX2 analytically  !
 ! A18   A(11,9,15)            107.7947         calculate D2E/DX2 analytically  !
 ! A19   A(9,11,12)            109.5007         calculate D2E/DX2 analytically  !
 ! A20   A(9,11,13)            109.4959         calculate D2E/DX2 analytically  !
 ! A21   A(9,11,14)            109.4978         calculate D2E/DX2 analytically  !
 ! A22   A(12,11,13)           109.441          calculate D2E/DX2 analytically  !
 ! A23   A(12,11,14)           109.4482         calculate D2E/DX2 analytically  !
 ! A24   A(13,11,14)           109.4436         calculate D2E/DX2 analytically  !
 ! A25   A(9,15,16)            120.4998         calculate D2E/DX2 analytically  !
 ! A26   A(9,15,17)            116.6026         calculate D2E/DX2 analytically  !
 ! A27   A(16,15,17)           122.8976         calculate D2E/DX2 analytically  !
 ! A28   A(15,17,18)           119.9995         calculate D2E/DX2 analytically  !
 ! A29   A(15,17,19)           121.907          calculate D2E/DX2 analytically  !
 ! A30   A(18,17,19)           118.0936         calculate D2E/DX2 analytically  !
 ! A31   A(17,19,20)           109.4954         calculate D2E/DX2 analytically  !
 ! A32   A(17,19,21)           111.0974         calculate D2E/DX2 analytically  !
 ! A33   A(17,19,25)           111.1042         calculate D2E/DX2 analytically  !
 ! A34   A(20,19,21)           108.6349         calculate D2E/DX2 analytically  !
 ! A35   A(20,19,25)           108.6399         calculate D2E/DX2 analytically  !
 ! A36   A(21,19,25)           107.7944         calculate D2E/DX2 analytically  !
 ! A37   A(19,21,22)           109.4996         calculate D2E/DX2 analytically  !
 ! A38   A(19,21,23)           109.4977         calculate D2E/DX2 analytically  !
 ! A39   A(19,21,24)           109.4988         calculate D2E/DX2 analytically  !
 ! A40   A(22,21,23)           109.4452         calculate D2E/DX2 analytically  !
 ! A41   A(22,21,24)           109.4447         calculate D2E/DX2 analytically  !
 ! A42   A(23,21,24)           109.4412         calculate D2E/DX2 analytically  !
 ! A43   A(19,25,26)           120.5009         calculate D2E/DX2 analytically  !
 ! A44   A(19,25,27)           116.5996         calculate D2E/DX2 analytically  !
 ! A45   A(26,25,27)           122.8994         calculate D2E/DX2 analytically  !
 ! A46   A(25,27,28)           120.0087         calculate D2E/DX2 analytically  !
 ! A47   A(25,27,29)           121.9017         calculate D2E/DX2 analytically  !
 ! A48   A(28,27,29)           118.0896         calculate D2E/DX2 analytically  !
 ! A49   A(27,29,30)           109.5001         calculate D2E/DX2 analytically  !
 ! A50   A(27,29,31)           111.0957         calculate D2E/DX2 analytically  !
 ! A51   A(27,29,35)           111.1006         calculate D2E/DX2 analytically  !
 ! A52   A(30,29,31)           108.6375         calculate D2E/DX2 analytically  !
 ! A53   A(30,29,35)           108.6385         calculate D2E/DX2 analytically  !
 ! A54   A(31,29,35)           107.7938         calculate D2E/DX2 analytically  !
 ! A55   A(29,31,32)           109.5034         calculate D2E/DX2 analytically  !
 ! A56   A(29,31,33)           109.4999         calculate D2E/DX2 analytically  !
 ! A57   A(29,31,34)           109.4999         calculate D2E/DX2 analytically  !
 ! A58   A(32,31,33)           109.4441         calculate D2E/DX2 analytically  !
 ! A59   A(32,31,34)           109.4379         calculate D2E/DX2 analytically  !
 ! A60   A(33,31,34)           109.4421         calculate D2E/DX2 analytically  !
 ! A61   A(29,35,36)           120.5068         calculate D2E/DX2 analytically  !
 ! A62   A(29,35,37)           116.5977         calculate D2E/DX2 analytically  !
 ! A63   A(36,35,37)           122.8955         calculate D2E/DX2 analytically  !
 ! A64   A(35,37,38)           120.0009         calculate D2E/DX2 analytically  !
 ! A65   A(35,37,39)           121.8996         calculate D2E/DX2 analytically  !
 ! A66   A(38,37,39)           118.0995         calculate D2E/DX2 analytically  !
 ! A67   A(37,39,40)           109.4957         calculate D2E/DX2 analytically  !
 ! A68   A(37,39,41)           109.4964         calculate D2E/DX2 analytically  !
 ! A69   A(37,39,42)           109.5035         calculate D2E/DX2 analytically  !
 ! A70   A(40,39,41)           109.439          calculate D2E/DX2 analytically  !
 ! A71   A(40,39,42)           109.4461         calculate D2E/DX2 analytically  !
 ! A72   A(41,39,42)           109.4465         calculate D2E/DX2 analytically  !
 ! D1    D(1,2,5,6)              0.0            calculate D2E/DX2 analytically  !
 ! D2    D(1,2,5,7)            180.0            calculate D2E/DX2 analytically  !
 ! D3    D(3,2,5,6)            120.5145         calculate D2E/DX2 analytically  !
 ! D4    D(3,2,5,7)            -59.4855         calculate D2E/DX2 analytically  !
 ! D5    D(4,2,5,6)           -120.5145         calculate D2E/DX2 analytically  !
 ! D6    D(4,2,5,7)             59.4855         calculate D2E/DX2 analytically  !
 ! D7    D(2,5,7,8)              0.0            calculate D2E/DX2 analytically  !
 ! D8    D(2,5,7,9)            180.0            calculate D2E/DX2 analytically  !
 ! D9    D(6,5,7,8)            180.0            calculate D2E/DX2 analytically  !
 ! D10   D(6,5,7,9)              0.0            calculate D2E/DX2 analytically  !
 ! D11   D(5,7,9,10)           -60.0002         calculate D2E/DX2 analytically  !
 ! D12   D(5,7,9,11)            60.0024         calculate D2E/DX2 analytically  !
 ! D13   D(5,7,9,15)           180.0            calculate D2E/DX2 analytically  !
 ! D14   D(8,7,9,10)           119.9998         calculate D2E/DX2 analytically  !
 ! D15   D(8,7,9,11)          -119.9976         calculate D2E/DX2 analytically  !
 ! D16   D(8,7,9,15)             0.0            calculate D2E/DX2 analytically  !
 ! D17   D(7,9,11,12)           60.0024         calculate D2E/DX2 analytically  !
 ! D18   D(7,9,11,13)          179.9986         calculate D2E/DX2 analytically  !
 ! D19   D(7,9,11,14)          -60.0038         calculate D2E/DX2 analytically  !
 ! D20   D(10,9,11,12)        -179.4843         calculate D2E/DX2 analytically  !
 ! D21   D(10,9,11,13)         -59.4881         calculate D2E/DX2 analytically  !
 ! D22   D(10,9,11,14)          60.5095         calculate D2E/DX2 analytically  !
 ! D23   D(15,9,11,12)         -61.938          calculate D2E/DX2 analytically  !
 ! D24   D(15,9,11,13)          58.0582         calculate D2E/DX2 analytically  !
 ! D25   D(15,9,11,14)         178.0558         calculate D2E/DX2 analytically  !
 ! D26   D(7,9,15,16)            0.0            calculate D2E/DX2 analytically  !
 ! D27   D(7,9,15,17)          180.0            calculate D2E/DX2 analytically  !
 ! D28   D(10,9,15,16)        -120.5111         calculate D2E/DX2 analytically  !
 ! D29   D(10,9,15,17)          59.4889         calculate D2E/DX2 analytically  !
 ! D30   D(11,9,15,16)         121.942          calculate D2E/DX2 analytically  !
 ! D31   D(11,9,15,17)         -58.058          calculate D2E/DX2 analytically  !
 ! D32   D(9,15,17,18)           0.0            calculate D2E/DX2 analytically  !
 ! D33   D(9,15,17,19)         180.0            calculate D2E/DX2 analytically  !
 ! D34   D(16,15,17,18)        180.0            calculate D2E/DX2 analytically  !
 ! D35   D(16,15,17,19)          0.0            calculate D2E/DX2 analytically  !
 ! D36   D(15,17,19,20)        -59.9952         calculate D2E/DX2 analytically  !
 ! D37   D(15,17,19,21)         59.9991         calculate D2E/DX2 analytically  !
 ! D38   D(15,17,19,25)        180.0            frozen, calculate D2E/DX2 analyt!
 ! D39   D(18,17,19,20)        120.0048         calculate D2E/DX2 analytically  !
 ! D40   D(18,17,19,21)       -120.0009         calculate D2E/DX2 analytically  !
 ! D41   D(18,17,19,25)          0.0            calculate D2E/DX2 analytically  !
 ! D42   D(17,19,21,22)         60.0039         calculate D2E/DX2 analytically  !
 ! D43   D(17,19,21,23)       -179.9943         calculate D2E/DX2 analytically  !
 ! D44   D(17,19,21,24)        -59.998          calculate D2E/DX2 analytically  !
 ! D45   D(20,19,21,22)       -179.4919         calculate D2E/DX2 analytically  !
 ! D46   D(20,19,21,23)        -59.4901         calculate D2E/DX2 analytically  !
 ! D47   D(20,19,21,24)         60.5062         calculate D2E/DX2 analytically  !
 ! D48   D(25,19,21,22)        -61.9445         calculate D2E/DX2 analytically  !
 ! D49   D(25,19,21,23)         58.0573         calculate D2E/DX2 analytically  !
 ! D50   D(25,19,21,24)        178.0536         calculate D2E/DX2 analytically  !
 ! D51   D(17,19,25,26)         30.0019         calculate D2E/DX2 analytically  !
 ! D52   D(17,19,25,27)       -150.001          frozen, calculate D2E/DX2 analyt!
 ! D53   D(20,19,25,26)        -90.5097         calculate D2E/DX2 analytically  !
 ! D54   D(20,19,25,27)         89.4873         calculate D2E/DX2 analytically  !
 ! D55   D(21,19,25,26)        151.9461         calculate D2E/DX2 analytically  !
 ! D56   D(21,19,25,27)        -28.0569         calculate D2E/DX2 analytically  !
 ! D57   D(19,25,27,28)          0.0052         calculate D2E/DX2 analytically  !
 ! D58   D(19,25,27,29)        179.9973         calculate D2E/DX2 analytically  !
 ! D59   D(26,25,27,28)       -179.9978         calculate D2E/DX2 analytically  !
 ! D60   D(26,25,27,29)         -0.0057         calculate D2E/DX2 analytically  !
 ! D61   D(25,27,29,30)        -59.9958         calculate D2E/DX2 analytically  !
 ! D62   D(25,27,29,31)         60.0037         calculate D2E/DX2 analytically  !
 ! D63   D(25,27,29,35)       -179.9996         calculate D2E/DX2 analytically  !
 ! D64   D(28,27,29,30)        119.9965         calculate D2E/DX2 analytically  !
 ! D65   D(28,27,29,31)       -120.0041         calculate D2E/DX2 analytically  !
 ! D66   D(28,27,29,35)         -0.0073         calculate D2E/DX2 analytically  !
 ! D67   D(27,29,31,32)         59.9979         calculate D2E/DX2 analytically  !
 ! D68   D(27,29,31,33)       -179.998          calculate D2E/DX2 analytically  !
 ! D69   D(27,29,31,34)        -59.9986         calculate D2E/DX2 analytically  !
 ! D70   D(30,29,31,32)       -179.4914         calculate D2E/DX2 analytically  !
 ! D71   D(30,29,31,33)        -59.4874         calculate D2E/DX2 analytically  !
 ! D72   D(30,29,31,34)         60.5121         calculate D2E/DX2 analytically  !
 ! D73   D(35,29,31,32)        -61.9447         calculate D2E/DX2 analytically  !
 ! D74   D(35,29,31,33)         58.0594         calculate D2E/DX2 analytically  !
 ! D75   D(35,29,31,34)        178.0588         calculate D2E/DX2 analytically  !
 ! D76   D(27,29,35,36)          0.0039         calculate D2E/DX2 analytically  !
 ! D77   D(27,29,35,37)       -179.9993         calculate D2E/DX2 analytically  !
 ! D78   D(30,29,35,36)       -120.5105         calculate D2E/DX2 analytically  !
 ! D79   D(30,29,35,37)         59.4864         calculate D2E/DX2 analytically  !
 ! D80   D(31,29,35,36)        121.9435         calculate D2E/DX2 analytically  !
 ! D81   D(31,29,35,37)        -58.0597         calculate D2E/DX2 analytically  !
 ! D82   D(29,35,37,38)          0.0062         calculate D2E/DX2 analytically  !
 ! D83   D(29,35,37,39)        179.9986         calculate D2E/DX2 analytically  !
 ! D84   D(36,35,37,38)       -179.9971         calculate D2E/DX2 analytically  !
 ! D85   D(36,35,37,39)         -0.0047         calculate D2E/DX2 analytically  !
 ! D86   D(35,37,39,40)          0.0069         calculate D2E/DX2 analytically  !
 ! D87   D(35,37,39,41)        119.9979         calculate D2E/DX2 analytically  !
 ! D88   D(35,37,39,42)       -119.9972         calculate D2E/DX2 analytically  !
 ! D89   D(38,37,39,40)        179.9994         calculate D2E/DX2 analytically  !
 ! D90   D(38,37,39,41)        -60.0096         calculate D2E/DX2 analytically  !
 ! D91   D(38,37,39,42)         59.9953         calculate D2E/DX2 analytically  !
 --------------------------------------------------------------------------------
 Trust Radius=3.00D-01 FncErr=1.00D-07 GrdErr=1.00D-07
 Number of steps in this run= 252 maximum allowed number of steps= 252.
 GradGradGradGradGradGradGradGradGradGradGradGradGradGradGradGradGradGrad

                          Input orientation:                          
 ---------------------------------------------------------------------
 Center     Atomic      Atomic             Coordinates (Angstroms)
 Number     Number       Type             X           Y           Z
 ---------------------------------------------------------------------
      1          1           0        2.000000    1.000000    0.000000
      2          6           0        2.000000    2.090000    0.000000
      3          1           0        1.486300    2.453900    0.889800
      4          1           0        1.486300    2.453900   -0.889800
      5          6           0        3.427400    2.640800    0.000000
      6          8           0        4.390600    1.877400    0.000000
      7          7           0        3.555400    3.969700    0.000000
      8          1           0        2.733100    4.556200    0.000000
      9          6           0        4.853300    4.613900    0.000000
     10          1           0        5.407600    4.315500    0.889800
     11          6           0        5.661300    4.220800   -1.232200
     12          1           0        5.123300    4.521400   -2.131200
     13          1           0        6.630500    4.718900   -1.205800
     14          1           0        5.808500    3.140900   -1.241400
     15          6           0        4.712700    6.129400    0.000000
     16          8           0        3.600600    6.652700    0.000000
     17          7           0        5.846000    6.834900    0.000000
     18          1           0        6.737000    6.359200    0.000000
     19          6           0        5.846100    8.283900    0.000000
     20          1           0        5.332300    8.647700   -0.889800
     21          6           0        5.134700    8.832900    1.232200
     22          1           0        5.643100    8.484600    2.131200
     23          1           0        5.149900    9.922400    1.205800
     24          1           0        4.101900    8.484600    1.241400
     25          6           0        7.266000    8.831800    0.000000
     26          8           0        8.178100    8.200800   -0.529500
     27          7           0        7.451500   10.011400    0.596800
     28          1           0        6.670000   10.492600    1.018500
     29          6           0        8.755900   10.639000    0.663800
     30          1           0        9.447300    9.985300    1.195400
     31          6           0        9.310400   10.902900   -0.732100
     32          1           0        8.633400   11.563500   -1.273700
     33          1           0       10.289900   11.374200   -0.651400
     34          1           0        9.404800    9.959800   -1.270400
     35          6           0        8.685900   11.971400    1.396000
     36          8           0        7.616800   12.383700    1.840300
     37          7           0        9.831400   12.645600    1.521100
     38          1           0       10.685400   12.265500    1.138800
     39          6           0        9.896600   13.925700    2.197000
     40          1           0        8.903300   14.200800    2.551700
     41          1           0       10.577900   13.855100    3.044900
     42          1           0       10.257600   14.685300    1.503700
 ---------------------------------------------------------------------
                    Distance matrix (angstroms):
                    1          2          3          4          5
     1  H    0.000000
     2  C    1.090000   0.000000
     3  H    1.780297   1.089979   0.000000
     4  H    1.780297   1.089979   1.779600   0.000000
     5  C    2.174786   1.529984   2.143489   2.143489   0.000000
     6  O    2.546527   2.400035   3.091772   3.091772   1.229038
     7  N    3.352370   2.439783   2.714879   2.714879   1.335050
     8  H    3.630977   2.572854   2.601138   2.601138   2.037354
     9  C    4.604519   3.809382   4.098052   4.098052   2.434402
    10  H    4.836943   4.166093   4.340754   4.691388   2.741816
    11  C    5.029611   4.411773   5.005541   4.546405   3.000838
    12  H    5.166941   4.495411   5.160307   4.363874   3.309796
    13  H    6.060173   5.459542   5.998713   5.629642   4.004036
    14  H    4.541938   4.141272   4.867792   4.390559   2.731449
    15  C    5.802541   4.865747   4.970986   4.970986   3.717839
    16  O    5.874942   4.835303   4.784551   4.784551   4.015637
    17  N    6.988403   6.107847   6.244349   6.244349   4.841498
    18  H    7.152635   6.376930   6.604011   6.604011   4.977946
    19  C    8.236971   7.290877   7.334064   7.334064   6.139600
    20  H    8.389475   7.409413   7.504789   7.290739   6.364215
    21  C    8.526370   7.537331   7.356609   7.648879   6.540282
    22  H    8.592638   7.661925   7.428957   7.923053   6.603131
    23  H    9.538608   8.527738   8.324681   8.578578   7.579094
    24  H    7.872629   6.844704   6.582881   6.910334   6.012156
    25  C    9.437576   8.554684   8.652993   8.652993   7.284458
    26  O    9.502674   8.705812   8.934286   8.828186   7.332334
    27  N   10.548950   9.634501   9.632511   9.742145   8.418747
    28  H   10.628062   9.666950   9.565982   9.753617   8.555849
    29  C   11.789535  10.916420  10.949613  11.056972   9.633522
    30  H   11.731448  10.919113  10.963252  11.155607   9.571304
    31  C   12.330667  11.473671  11.628960  11.516380  10.168970
    32  H   12.538415  11.634926  11.779074  11.585043  10.408618
    33  H   13.295518  12.463673  12.627368  12.535229  11.126118
    34  H   11.692861  10.880199  11.122394  10.917236   9.534725
    35  C   12.923687  12.012166  11.944592  12.150799  10.800960
    36  O   12.826682  11.869937  11.708433  11.984882  10.763915
    37  N   14.116110  13.231223  13.187493  13.391187  11.975850
    38  H   14.270407  13.426609  13.451875  13.601697  12.108273
    39  C   15.305451  14.396767  14.284401  14.555538  13.191904
    40  H   15.113830  14.171739  13.991550  14.312424  13.043399
    41  H   15.751361  14.875126  14.740726  15.103854  13.644105
    42  H   16.054174  15.135741  15.063855  15.240462  13.927768
                    6          7          8          9         10
     6  O    0.000000
     7  N    2.252838   0.000000
     8  H    3.150123   1.010029   0.000000
     9  C    2.775342   1.448978   2.120985   0.000000
    10  H    2.787537   2.083739   2.828892   1.089970   0.000000
    11  C    2.936753   2.452791   3.194552   1.525027   2.139209
    12  H    3.474133   2.702720   3.202543   2.150225   3.041326
    13  H    3.813821   3.386959   4.082910   2.150214   2.459625
    14  H    2.268909   2.702673   3.605861   2.150165   2.466256
    15  C    4.264183   2.450234   2.528591   1.522008   2.136554
    16  O    4.840206   2.683381   2.268891   2.392898   3.085368
    17  N    5.166720   3.668272   3.857800   2.432754   2.707640
    18  H    5.058866   3.978981   4.391130   2.567956   2.595334
    19  C    6.569758   4.884632   4.856595   3.801914   4.090504
    20  H    6.893149   5.082598   4.928281   4.158453   4.684080
    21  C    7.102885   5.259584   5.057288   4.404255   4.538570
    22  H    7.054492   5.411546   5.333145   4.488665   4.356366
    23  H    8.170221   6.279412   6.007577   5.451798   5.621707
    24  H    6.729005   4.714240   4.341315   4.133763   4.382907
    25  C    7.525397   6.116254   6.231207   4.859198   4.964107
    26  O    7.389920   6.289033   6.573546   4.919402   4.978518
    27  N    8.711328   7.213730   7.237311   6.019952   6.058602
    28  H    8.969653   7.299747   7.195649   6.236734   6.306091
    29  C    9.811326   8.483242   8.585756   7.209213   7.158830
    30  H    9.630018   8.504758   8.716914   7.168386   6.968443
    31  C   10.305341   9.040202   9.169375   7.742947   7.826637
    32  H   10.651019   9.223567   9.248681   8.013015   8.223139
    33  H   11.198896  10.030176  10.198758   8.699575   8.719942
    34  H    9.595901   8.468217   8.678962   7.135034   7.245840
    35  C   11.058357   9.607187   9.610923   8.412517   8.343638
    36  O   11.143492   9.522451   9.407815   8.449463   8.419018
    37  N   12.160188  10.815413  10.869131   9.570968   9.452995
    38  H   12.199754  10.997912  11.134148   9.687995   9.545663
    39  C   13.427747  12.006647  11.997086  10.815327  10.687181
    40  H   13.369436  11.823139  11.730339  10.715518  10.616072
    41  H   13.820977  12.502322  12.541206  11.289032  11.062569
    42  H   14.167749  12.728106  12.707395  11.528255  11.464385
                   11         12         13         14         15
    11  C    0.000000
    12  H    1.089957   0.000000
    13  H    1.090023   1.779613   0.000000
    14  H    1.089925   1.779613   1.779617   0.000000
    15  C    2.461892   2.701161   2.668599   3.416575   0.000000
    16  O    3.417446   3.376843   3.791283   4.329969   1.229068
    17  N    2.895850   3.227474   2.558681   3.897193   1.334953
    18  H    2.692248   3.244002   2.038598   3.572204   2.037302
    19  C    4.249853   4.384160   3.844277   5.290835   2.434433
    20  H    4.452294   4.314059   4.149777   5.538523   2.741803
    21  C    5.255668   5.468238   5.010614   6.242721   3.000885
    22  H    5.430726   5.843389   5.127477   6.321148   3.309777
    23  H    6.222027   6.348786   5.923209   7.239564   4.003991
    24  H    5.170147   5.303267   5.153940   6.134485   2.731505
    25  C    5.035345   5.264288   4.332870   6.004309   3.717836
    26  O    4.761142   5.043335   3.869893   5.632441   4.071863
    27  N    6.330964   6.557637   5.651014   7.299466   4.788227
    28  H    6.739332   6.925902   6.187462   7.739304   4.889364
    29  C    7.373239   7.644137   6.562036   8.278796   6.092995
    30  H    7.311395   7.721234   6.437010   8.125557   6.222008
    31  C    7.629973   7.759693   6.756339   8.530612   6.667917
    32  H    7.921511   7.915004   7.131954   8.883766   6.820824
    33  H    8.540047   8.708871   7.615221   9.392458   7.683580
    34  H    6.852107   6.974841   5.930257   7.709190   6.188835
    35  C    8.725104   8.979742   7.974509   9.654690   7.201673
    36  O    8.938522   9.154568   8.306664   9.909398   7.137000
    37  N    9.795287  10.075124   8.972977  10.684309   8.424708
    38  H    9.776524  10.079729   8.882034  10.616394   8.638387
    39  C   11.130241  11.399937  10.344642  12.035243   9.616752
    40  H   11.154769  11.397751  10.449443  12.094907   9.445623
    41  H   11.631263  11.985935  10.822226  12.486538  10.166535
    42  H   11.752314  11.953175  10.946523  12.672933  10.305846
                   16         17         18         19         20
    16  O    0.000000
    17  N    2.252780   0.000000
    18  H    3.150103   1.010035   0.000000
    19  C    2.775443   1.449000   2.120890   0.000000
    20  H    2.787571   2.083717   2.828809   1.089993   0.000000
    21  C    2.936844   2.452808   3.194507   1.525060   2.139212
    22  H    3.474144   2.702719   3.202492   2.150233   3.041322
    23  H    3.813820   3.386911   4.082797   2.150193   2.459608
    24  H    2.268972   2.702678   3.605850   2.150253   2.466272
    25  C    4.264227   2.450308   2.528555   1.521943   2.136547
    26  O    4.861120   2.754041   2.397630   2.392802   2.903121
    27  N    5.144557   3.608871   3.768985   2.432640   2.925862
    28  H    5.020298   3.885240   4.257561   2.567978   2.972323
    29  C    6.550445   4.835217   4.778418   3.801850   4.254408
    30  H    6.835138   4.931872   4.682233   4.158411   4.803172
    31  C    7.155556   5.393205   5.272909   4.404146   4.575596
    32  H    7.146142   5.634853   5.683607   4.488555   4.421146
    33  H    8.213624   6.385751   6.180424   5.451755   5.662900
    34  H    6.799968   4.903465   4.657831   4.133631   4.295546
    35  C    7.489837   6.033032   6.102771   4.859109   5.245807
    36  O    7.236085   6.108324   6.360452   4.830160   5.160434
    37  N    8.777896   7.208425   7.169929   6.100884   6.483637
    38  H    9.110147   7.362613   7.195214   6.369366   6.771955
    39  C    9.867267   8.456572   8.488922   7.284454   7.630102
    40  H    9.570978   8.373454   8.526120   7.132135   7.445326
    41  H   10.479919   8.996972   8.956140   7.918309   8.373482
    42  H   10.540371   9.129738   9.164043   7.918356   8.151076
                   21         22         23         24         25
    21  C    0.000000
    22  H    1.089947   0.000000
    23  H    1.089926   1.779573   0.000000
    24  H    1.089988   1.779618   1.779562   0.000000
    25  C    2.461861   2.701179   2.668565   3.416599   0.000000
    26  O    3.572873   3.685932   3.891679   4.453317   1.229007
    27  N    2.675847   2.820605   2.382470   3.737171   1.334929
    28  H    2.270995   2.514893   1.634293   3.267550   2.037355
    29  C    4.086339   4.060077   3.716250   5.160889   2.434421
    30  H    4.464068   4.195207   4.297873   5.552253   2.741827
    31  C    5.057652   5.243639   4.693250   6.072178   3.000833
    32  H    5.096726   5.478582   4.579946   6.028254   3.309725
    33  H    6.048326   6.138844   5.654778   7.086877   4.004009
    34  H    5.076088   5.281807   4.923123   6.050298   2.731440
    35  C    4.742155   4.685822   4.091195   5.761487   3.717798
    36  O    4.374790   4.379851   3.542059   5.283577   4.015689
    37  N    6.056330   5.935318   5.425097   7.086559   4.841497
    38  H    6.527001   6.380035   6.011353   7.592641   4.977897
    39  C    7.038689   6.906675   6.288088   8.006078   6.139600
    40  H    6.690125   6.593987   5.848433   7.579266   6.165881
    41  H    7.624749   7.350467   6.950655   8.604270   6.743415
    42  H    7.782570   7.754744   6.990176   8.741288   6.743460
                   26         27         28         29         30
    26  O    0.000000
    27  N    2.252725   0.000000
    28  H    3.150082   1.010013   0.000000
    29  C    2.775362   1.449079   2.120902   0.000000
    30  H    2.787578   2.083800   2.828788   1.089934   0.000000
    31  C    2.936749   2.452806   3.194473   1.525008   2.139156
    32  H    3.474030   2.702716   3.202491   2.150259   3.041316
    33  H    3.813794   3.386996   4.082825   2.150215   2.459611
    34  H    2.268878   2.702680   3.605838   2.150236   2.466298
    35  C    4.264134   2.450319   2.528479   1.521942   2.136484
    36  O    4.840213   2.683547   2.268930   2.392839   3.085279
    37  N    5.166683   3.668414   3.857780   2.432716   2.707547
    38  H    5.058811   3.979050   4.391023   2.567897   2.595266
    39  C    6.569743   4.884762   4.856540   3.801881   4.090455
    40  H    6.783783   4.845661   4.592285   4.033895   4.461606
    41  H    7.106791   5.526446   5.539349   4.396888   4.435567
    42  H    7.106825   5.526482   5.539407   4.396940   4.779292
                   31         32         33         34         35
    31  C    0.000000
    32  H    1.089978   0.000000
    33  H    1.089980   1.779630   0.000000
    34  H    1.090007   1.779585   1.779632   0.000000
    35  C    2.461809   2.701192   2.668578   3.416583   0.000000
    36  O    3.417352   3.376862   3.791190   4.329976   1.228971
    37  N    2.895748   3.227546   2.558600   3.897176   1.335053
    38  H    2.692131   3.244020   2.038542   3.572175   2.037314
    39  C    4.249774   4.384224   3.844245   5.290850   2.434478
    40  H    4.671747   4.654233   4.491345   5.731146   2.520542
    41  H    4.958606   5.261446   4.460991   5.930543   3.137971
    42  H    4.494723   4.483036   3.950808   5.545561   3.138008
                   36         37         38         39         40
    36  O    0.000000
    37  N    2.252761   0.000000
    38  H    3.149981   1.009923   0.000000
    39  C    2.775335   1.449051   2.120909   0.000000
    40  H    2.337311   2.083783   2.986227   1.090017   0.000000
    41  H    3.519118   2.083775   2.484271   1.089995   1.779618
    42  H    3.519160   2.083825   2.484270   1.089944   1.779655
                   41         42
    41  H    0.000000
    42  H    1.779641   0.000000
 Stoichiometry    C12H22N4O4
 Framework group  C1[X(C12H22N4O4)]
 Deg. of freedom   120
 Full point group                 C1      NOp   1
 Largest Abelian subgroup         C1      NOp   1
 Largest concise Abelian subgroup C1      NOp   1
                         Standard orientation:                         
 ---------------------------------------------------------------------
 Center     Atomic      Atomic             Coordinates (Angstroms)
 Number     Number       Type             X           Y           Z
 ---------------------------------------------------------------------
      1          1           0       -8.040486   -0.498506   -0.520425
      2          6           0       -7.116715   -0.918453   -0.122438
      3          1           0       -6.956830   -1.910806   -0.544015
      4          1           0       -7.188487   -0.992509    0.962651
      5          6           0       -5.915385   -0.038633   -0.473968
      6          8           0       -6.066706    0.992376   -1.125624
      7          7           0       -4.723280   -0.452695   -0.038311
      8          1           0       -4.649374   -1.307755    0.494203
      9          6           0       -3.509433    0.292066   -0.305600
     10          1           0       -3.361258    0.371948   -1.382493
     11          6           0       -3.587192    1.697505    0.281259
     12          1           0       -3.726312    1.633993    1.360433
     13          1           0       -2.662874    2.233461    0.065535
     14          1           0       -4.427852    2.230923   -0.162242
     15          6           0       -2.297405   -0.399380    0.302183
     16          8           0       -2.426190   -1.451801    0.923821
     17          7           0       -1.116308    0.195838    0.121004
     18          1           0       -1.060959    1.060768   -0.397652
     19          6           0        0.111764   -0.362345    0.650032
     20          1           0        0.039857   -0.436440    1.735124
     21          6           0        0.371357   -1.753945    0.082696
     22          1           0        0.454820   -1.694700   -1.002435
     23          1           0        1.299089   -2.148447    0.496967
     24          1           0       -0.454100   -2.414642    0.347599
     25          6           0        1.306778    0.512854    0.300347
     26          8           0        1.172442    1.726988    0.165110
     27          7           0        2.479628   -0.107654    0.153959
     28          1           0        2.540183   -1.108533    0.275204
     29          6           0        3.691473    0.613903   -0.178632
     30          1           0        3.562456    1.120396   -1.135071
     31          6           0        4.018760    1.656750    0.884854
     32          1           0        4.159734    1.163776    1.846704
     33          1           0        4.932734    2.182892    0.609385
     34          1           0        3.197992    2.370091    0.959698
     35          6           0        4.879968   -0.330811   -0.284941
     36          8           0        4.737075   -1.536835   -0.096639
     37          7           0        6.057101    0.221245   -0.588186
     38          1           0        6.124665    1.218309   -0.733943
     39          6           0        7.263515   -0.570834   -0.718271
     40          1           0        7.031689   -1.619772   -0.533553
     41          1           0        7.664649   -0.459935   -1.725684
     42          1           0        8.002792   -0.229553    0.006281
 ---------------------------------------------------------------------
 Rotational constants (GHZ):      1.2227450      0.0953454      0.0912957
 Standard basis: 6-31G(d) (6D, 7F)
 There are   344 symmetry adapted basis functions of A   symmetry.
 Integral buffers will be    131072 words long.
 Raffenetti 1 integral format.
 Two-electron integral symmetry is turned on.
   344 basis functions,   648 primitive gaussians,   344 cartesian basis functions
    77 alpha electrons       77 beta electrons
       nuclear repulsion energy      1579.8169717844 Hartrees.
 NAtoms=   42 NActive=   42 NUniq=   42 SFac= 7.50D-01 NAtFMM=   80 NAOKFM=F Big=F
 One-electron integrals computed using PRISM.
 NBasis=   344 RedAO= T  NBF=   344
 NBsUse=   344 1.00D-06 NBFU=   344
 Harris functional with IExCor=  205 diagonalized for initial guess.
 ExpMin= 1.61D-01 ExpMax= 5.48D+03 ExpMxC= 8.25D+02 IAcc=1 IRadAn=         1 AccDes= 0.00D+00
 HarFok:  IExCor=  205 AccDes= 0.00D+00 IRadAn=         1 IDoV= 1
 ScaDFX=  1.000000  1.000000  1.000000  1.000000
 FoFCou: FMM=F IPFlag=           0 FMFlag=      100000 FMFlg1=           0
         NFxFlg=           0 DoJE=T BraDBF=F KetDBF=T FulRan=T
         Omega=  0.000000  0.000000  1.000000  0.000000  0.000000 ICntrl=     500 IOpCl=  0
         NMat0=    1 NMatS0=    1 NMatT0=    0 NMatD0=    1 NMtDS0=    0 NMtDT0=    0
         I1Cent=           4 NGrid=           0.
 Petite list used in FoFCou.
 Initial guess orbital symmetries:
       Occupied  (A) (A) (A) (A) (A) (A) (A) (A) (A) (A) (A) (A)
                 (A) (A) (A) (A) (A) (A) (A) (A) (A) (A) (A) (A)
                 (A) (A) (A) (A) (A) (A) (A) (A) (A) (A) (A) (A)
                 (A) (A) (A) (A) (A) (A) (A) (A) (A) (A) (A) (A)
                 (A) (A) (A) (A) (A) (A) (A) (A) (A) (A) (A) (A)
                 (A) (A) (A) (A) (A) (A) (A) (A) (A) (A) (A) (A)
                 (A) (A) (A) (A) (A)
       Virtual   (A) (A) (A) (A) (A) (A) (A) (A) (A) (A) (A) (A)
                 (A) (A) (A) (A) (A) (A) (A) (A) (A) (A) (A) (A)
                 (A) (A) (A) (A) (A) (A) (A) (A) (A) (A) (A) (A)
                 (A) (A) (A) (A) (A) (A) (A) (A) (A) (A) (A) (A)
                 (A) (A) (A) (A) (A) (A) (A) (A) (A) (A) (A) (A)
                 (A) (A) (A) (A) (A) (A) (A) (A) (A) (A) (A) (A)
                 (A) (A) (A) (A) (A) (A) (A) (A) (A) (A) (A) (A)
                 (A) (A) (A) (A) (A) (A) (A) (A) (A) (A) (A) (A)
                 (A) (A) (A) (A) (A) (A) (A) (A) (A) (A) (A) (A)
                 (A) (A) (A) (A) (A) (A) (A) (A) (A) (A) (A) (A)
                 (A) (A) (A) (A) (A) (A) (A) (A) (A) (A) (A) (A)
                 (A) (A) (A) (A) (A) (A) (A) (A) (A) (A) (A) (A)
                 (A) (A) (A) (A) (A) (A) (A) (A) (A) (A) (A) (A)
                 (A) (A) (A) (A) (A) (A) (A) (A) (A) (A) (A) (A)
                 (A) (A) (A) (A) (A) (A) (A) (A) (A) (A) (A) (A)
                 (A) (A) (A) (A) (A) (A) (A) (A) (A) (A) (A) (A)
                 (A) (A) (A) (A) (A) (A) (A) (A) (A) (A) (A) (A)
                 (A) (A) (A) (A) (A) (A) (A) (A) (A) (A) (A) (A)
                 (A) (A) (A) (A) (A) (A) (A) (A) (A) (A) (A) (A)
                 (A) (A) (A) (A) (A) (A) (A) (A) (A) (A) (A) (A)
                 (A) (A) (A) (A) (A) (A) (A) (A) (A) (A) (A) (A)
                 (A) (A) (A) (A) (A) (A) (A) (A) (A) (A) (A) (A)
                 (A) (A) (A)
 The electronic state of the initial guess is 1-A.
 Requested convergence on RMS density matrix=1.00D-08 within 128 cycles.
 Requested convergence on MAX density matrix=1.00D-06.
 Requested convergence on             energy=1.00D-06.
 No special actions if energy rises.
 Integral accuracy reduced to 1.0D-05 until final iterations.
 Initial convergence to 1.0D-05 achieved.  Increase integral accuracy.
 SCF Done:  E(RHF) =  -984.536044240     A.U. after   15 cycles
             Convg  =    0.3727D-08             -V/T =  2.0019
 Range of M.O.s used for correlation:     1   344
 NBasis=   344 NAE=    77 NBE=    77 NFC=     0 NFV=     0
 NROrb=    344 NOA=    77 NOB=    77 NVA=   267 NVB=   267
 Symmetrizing basis deriv contribution to polar:
 IMax=3 JMax=2 DiffMx= 0.00D+00
 G2DrvN: will do    43 centers at a time, making    1 passes doing MaxLOS=2.
 Calling FoFCou, ICntrl=  3107 FMM=F I1Cent=   0 AccDes= 0.00D+00.
 FoFDir/FoFCou used for L=0 through L=2.
 End of G2Drv Frequency-dependent properties file   721 does not exist.
 End of G2Drv Frequency-dependent properties file   722 does not exist.
          IDoAtm=111111111111111111111111111111111111111111
          Differentiating once with respect to nuclear coordinates.
          There are   129 degrees of freedom in the 1st order CPHF.  IDoFFX=5.
    123 vectors produced by pass  0 Test12= 2.06D-10 1.00D-07 XBig12= 9.08D-02 5.28D-02.
 AX will form   123 AO Fock derivatives at one time.
    123 vectors produced by pass  1 Test12= 2.06D-10 1.00D-07 XBig12= 5.06D-03 2.42D-02.
    123 vectors produced by pass  2 Test12= 2.06D-10 1.00D-07 XBig12= 7.38D-05 1.81D-03.
    123 vectors produced by pass  3 Test12= 2.06D-10 1.00D-07 XBig12= 7.81D-07 1.18D-04.
    123 vectors produced by pass  4 Test12= 2.06D-10 1.00D-07 XBig12= 4.31D-09 9.01D-06.
     35 vectors produced by pass  5 Test12= 2.06D-10 1.00D-07 XBig12= 2.28D-11 5.77D-07.
 Inverted reduced A of dimension   650 with in-core refinement.
 End of Minotr Frequency-dependent properties file   721 does not exist.
 End of Minotr Frequency-dependent properties file   722 does not exist.

 **********************************************************************

            Population analysis using the SCF density.

 **********************************************************************

 Orbital symmetries:
       Occupied  (A) (A) (A) (A) (A) (A) (A) (A) (A) (A) (A) (A)
                 (A) (A) (A) (A) (A) (A) (A) (A) (A) (A) (A) (A)
                 (A) (A) (A) (A) (A) (A) (A) (A) (A) (A) (A) (A)
                 (A) (A) (A) (A) (A) (A) (A) (A) (A) (A) (A) (A)
                 (A) (A) (A) (A) (A) (A) (A) (A) (A) (A) (A) (A)
                 (A) (A) (A) (A) (A) (A) (A) (A) (A) (A) (A) (A)
                 (A) (A) (A) (A) (A)
       Virtual   (A) (A) (A) (A) (A) (A) (A) (A) (A) (A) (A) (A)
                 (A) (A) (A) (A) (A) (A) (A) (A) (A) (A) (A) (A)
                 (A) (A) (A) (A) (A) (A) (A) (A) (A) (A) (A) (A)
                 (A) (A) (A) (A) (A) (A) (A) (A) (A) (A) (A) (A)
                 (A) (A) (A) (A) (A) (A) (A) (A) (A) (A) (A) (A)
                 (A) (A) (A) (A) (A) (A) (A) (A) (A) (A) (A) (A)
                 (A) (A) (A) (A) (A) (A) (A) (A) (A) (A) (A) (A)
                 (A) (A) (A) (A) (A) (A) (A) (A) (A) (A) (A) (A)
                 (A) (A) (A) (A) (A) (A) (A) (A) (A) (A) (A) (A)
                 (A) (A) (A) (A) (A) (A) (A) (A) (A) (A) (A) (A)
                 (A) (A) (A) (A) (A) (A) (A) (A) (A) (A) (A) (A)
                 (A) (A) (A) (A) (A) (A) (A) (A) (A) (A) (A) (A)
                 (A) (A) (A) (A) (A) (A) (A) (A) (A) (A) (A) (A)
                 (A) (A) (A) (A) (A) (A) (A) (A) (A) (A) (A) (A)
                 (A) (A) (A) (A) (A) (A) (A) (A) (A) (A) (A) (A)
                 (A) (A) (A) (A) (A) (A) (A) (A) (A) (A) (A) (A)
                 (A) (A) (A) (A) (A) (A) (A) (A) (A) (A) (A) (A)
                 (A) (A) (A) (A) (A) (A) (A) (A) (A) (A) (A) (A)
                 (A) (A) (A) (A) (A) (A) (A) (A) (A) (A) (A) (A)
                 (A) (A) (A) (A) (A) (A) (A) (A) (A) (A) (A) (A)
                 (A) (A) (A) (A) (A) (A) (A) (A) (A) (A) (A) (A)
                 (A) (A) (A) (A) (A) (A) (A) (A) (A) (A) (A) (A)
                 (A) (A) (A)
 The electronic state is 1-A.
 Alpha  occ. eigenvalues --  -20.53902 -20.53545 -20.53378 -20.51053 -15.60993
 Alpha  occ. eigenvalues --  -15.60151 -15.60104 -15.58413 -11.36788 -11.36438
 Alpha  occ. eigenvalues --  -11.36068 -11.34394 -11.29654 -11.29239 -11.28320
 Alpha  occ. eigenvalues --  -11.27329 -11.23134 -11.23081 -11.22496 -11.21567
 Alpha  occ. eigenvalues --   -1.40128  -1.39498  -1.38879  -1.36706  -1.25418
 Alpha  occ. eigenvalues --   -1.25317  -1.25062  -1.23306  -1.08923  -1.05940
 Alpha  occ. eigenvalues --   -1.02725  -0.98105  -0.96833  -0.91672  -0.90241
 Alpha  occ. eigenvalues --   -0.87710  -0.81873  -0.80279  -0.79017  -0.77817
 Alpha  occ. eigenvalues --   -0.77034  -0.72283  -0.69111  -0.68213  -0.67351
 Alpha  occ. eigenvalues --   -0.66886  -0.65270  -0.64409  -0.63934  -0.62454
 Alpha  occ. eigenvalues --   -0.62176  -0.60594  -0.60230  -0.59366  -0.58430
 Alpha  occ. eigenvalues --   -0.57481  -0.57231  -0.56620  -0.56131  -0.55709
 Alpha  occ. eigenvalues --   -0.55133  -0.54744  -0.54370  -0.53339  -0.52665
 Alpha  occ. eigenvalues --   -0.51904  -0.51640  -0.50436  -0.48747  -0.43400
 Alpha  occ. eigenvalues --   -0.42909  -0.42191  -0.41159  -0.40594  -0.40262
 Alpha  occ. eigenvalues --   -0.39642  -0.38189
 Alpha virt. eigenvalues --    0.16875   0.18312   0.19320   0.20202   0.21007
 Alpha virt. eigenvalues --    0.23034   0.24207   0.24568   0.25602   0.27441
 Alpha virt. eigenvalues --    0.28494   0.28650   0.29098   0.29131   0.29815
 Alpha virt. eigenvalues --    0.30419   0.30899   0.31276   0.31532   0.31842
 Alpha virt. eigenvalues --    0.33371   0.34051   0.34362   0.35289   0.36019
 Alpha virt. eigenvalues --    0.36301   0.36867   0.37989   0.38755   0.40386
 Alpha virt. eigenvalues --    0.41604   0.42451   0.42827   0.43190   0.44939
 Alpha virt. eigenvalues --    0.46752   0.50033   0.52275   0.53455   0.54478
 Alpha virt. eigenvalues --    0.56002   0.59031   0.60968   0.62462   0.63125
 Alpha virt. eigenvalues --    0.70430   0.71792   0.72128   0.72681   0.73471
 Alpha virt. eigenvalues --    0.74064   0.74804   0.75315   0.75613   0.76392
 Alpha virt. eigenvalues --    0.76752   0.77053   0.79360   0.79750   0.81201
 Alpha virt. eigenvalues --    0.82881   0.83476   0.85088   0.87059   0.88190
 Alpha virt. eigenvalues --    0.88530   0.89923   0.91363   0.92053   0.92444
 Alpha virt. eigenvalues --    0.92717   0.93661   0.94942   0.96929   0.97542
 Alpha virt. eigenvalues --    0.98927   0.99173   0.99770   1.00818   1.01025
 Alpha virt. eigenvalues --    1.02753   1.03098   1.05368   1.06530   1.08312
 Alpha virt. eigenvalues --    1.08474   1.08610   1.09700   1.10402   1.11502
 Alpha virt. eigenvalues --    1.12345   1.13725   1.13973   1.14163   1.14981
 Alpha virt. eigenvalues --    1.15375   1.15956   1.16175   1.16673   1.17016
 Alpha virt. eigenvalues --    1.17632   1.18223   1.18966   1.19694   1.20096
 Alpha virt. eigenvalues --    1.20235   1.20850   1.21273   1.22340   1.22882
 Alpha virt. eigenvalues --    1.23638   1.24940   1.25939   1.28153   1.28755
 Alpha virt. eigenvalues --    1.28861   1.31855   1.33786   1.35161   1.36686
 Alpha virt. eigenvalues --    1.37633   1.38678   1.40555   1.42466   1.45625
 Alpha virt. eigenvalues --    1.49147   1.49656   1.50045   1.51242   1.53168
 Alpha virt. eigenvalues --    1.55236   1.55725   1.57794   1.59361   1.59901
 Alpha virt. eigenvalues --    1.61201   1.61995   1.63447   1.64769   1.67607
 Alpha virt. eigenvalues --    1.69471   1.70502   1.71596   1.72217   1.74110
 Alpha virt. eigenvalues --    1.74613   1.76018   1.77407   1.79248   1.90161
 Alpha virt. eigenvalues --    1.90545   1.93255   1.93855   1.98396   1.99223
 Alpha virt. eigenvalues --    2.00163   2.01667   2.02354   2.04933   2.06937
 Alpha virt. eigenvalues --    2.07280   2.08638   2.09568   2.09770   2.11927
 Alpha virt. eigenvalues --    2.12888   2.13212   2.13517   2.14368   2.14535
 Alpha virt. eigenvalues --    2.14825   2.16582   2.17694   2.18245   2.19285
 Alpha virt. eigenvalues --    2.20645   2.21757   2.22033   2.23012   2.24510
 Alpha virt. eigenvalues --    2.25403   2.27695   2.29383   2.30484   2.33487
 Alpha virt. eigenvalues --    2.33892   2.34993   2.35736   2.36501   2.37358
 Alpha virt. eigenvalues --    2.40414   2.41773   2.44888   2.46003   2.46771
 Alpha virt. eigenvalues --    2.49799   2.51483   2.52713   2.54289   2.57757
 Alpha virt. eigenvalues --    2.58153   2.60120   2.60678   2.61384   2.62370
 Alpha virt. eigenvalues --    2.62864   2.63612   2.64409   2.65417   2.67715
 Alpha virt. eigenvalues --    2.68288   2.70625   2.72392   2.74900   2.77229
 Alpha virt. eigenvalues --    2.77613   2.79176   2.80239   2.82022   2.85683
 Alpha virt. eigenvalues --    2.88942   2.89757   2.91562   2.93532   2.94466
 Alpha virt. eigenvalues --    2.96616   2.98435   3.00652   3.02295   3.05318
 Alpha virt. eigenvalues --    3.07409   3.08290   3.12123   3.14560   3.19370
 Alpha virt. eigenvalues --    3.23990   3.26023   3.29567   3.32219   3.34366
 Alpha virt. eigenvalues --    3.35391   3.38154   3.42389   3.50902   3.55634
 Alpha virt. eigenvalues --    3.61305   3.63194   4.38978   4.43871   4.44473
 Alpha virt. eigenvalues --    4.46771   4.47549   4.50411   4.53572   4.57607
 Alpha virt. eigenvalues --    4.63207   4.65313   4.70554   4.70797   4.72646
 Alpha virt. eigenvalues --    4.80583   4.85379   4.85934   4.87772   5.01586
 Alpha virt. eigenvalues --    5.05259   5.12256
          Condensed to atoms (all electrons):
              1          2          3          4          5          6
     1  H    0.459110   0.385622  -0.018844  -0.018788  -0.030779   0.003560
     2  C    0.385622   5.245381   0.374564   0.374807   0.377968  -0.067293
     3  H   -0.018844   0.374564   0.511820  -0.023710  -0.034549   0.001265
     4  H   -0.018788   0.374807  -0.023710   0.512445  -0.035396   0.001177
     5  C   -0.030779   0.377968  -0.034549  -0.035396   4.185767   0.587434
     6  O    0.003560  -0.067293   0.001265   0.001177   0.587434   8.210679
     7  N    0.003865  -0.120258   0.003517   0.003738   0.247790  -0.107580
     8  H   -0.000019  -0.001185   0.000639   0.000480  -0.017486   0.002019
     9  C   -0.000075   0.004521  -0.000240  -0.000091  -0.030040   0.014327
    10  H    0.000002  -0.000009  -0.000004  -0.000002  -0.001713   0.002907
    11  C    0.000006  -0.000510   0.000008   0.000031  -0.003998  -0.015724
    12  H    0.000000  -0.000042   0.000000   0.000002   0.000024  -0.000019
    13  H    0.000000   0.000007   0.000000  -0.000001   0.000282   0.000261
    14  H    0.000001   0.000296  -0.000005  -0.000025   0.000421   0.010780
    15  C    0.000000   0.000010  -0.000011  -0.000006   0.004055   0.000550
    16  O    0.000000  -0.000039  -0.000001  -0.000001   0.000279  -0.000003
    17  N    0.000000   0.000000   0.000000   0.000000  -0.000081  -0.000002
    18  H    0.000000   0.000000   0.000000   0.000000   0.000000   0.000001
    19  C    0.000000   0.000000   0.000000   0.000000   0.000001   0.000000
    20  H    0.000000   0.000000   0.000000   0.000000   0.000000   0.000000
    21  C    0.000000   0.000000   0.000000   0.000000   0.000000   0.000000
    22  H    0.000000   0.000000   0.000000   0.000000   0.000000   0.000000
    23  H    0.000000   0.000000   0.000000   0.000000   0.000000   0.000000
    24  H    0.000000   0.000000   0.000000   0.000000   0.000000   0.000000
    25  C    0.000000   0.000000   0.000000   0.000000   0.000000   0.000000
    26  O    0.000000   0.000000   0.000000   0.000000   0.000000   0.000000
    27  N    0.000000   0.000000   0.000000   0.000000   0.000000   0.000000
    28  H    0.000000   0.000000   0.000000   0.000000   0.000000   0.000000
    29  C    0.000000   0.000000   0.000000   0.000000   0.000000   0.000000
    30  H    0.000000   0.000000   0.000000   0.000000   0.000000   0.000000
    31  C    0.000000   0.000000   0.000000   0.000000   0.000000   0.000000
    32  H    0.000000   0.000000   0.000000   0.000000   0.000000   0.000000
    33  H    0.000000   0.000000   0.000000   0.000000   0.000000   0.000000
    34  H    0.000000   0.000000   0.000000   0.000000   0.000000   0.000000
    35  C    0.000000   0.000000   0.000000   0.000000   0.000000   0.000000
    36  O    0.000000   0.000000   0.000000   0.000000   0.000000   0.000000
    37  N    0.000000   0.000000   0.000000   0.000000   0.000000   0.000000
    38  H    0.000000   0.000000   0.000000   0.000000   0.000000   0.000000
    39  C    0.000000   0.000000   0.000000   0.000000   0.000000   0.000000
    40  H    0.000000   0.000000   0.000000   0.000000   0.000000   0.000000
    41  H    0.000000   0.000000   0.000000   0.000000   0.000000   0.000000
    42  H    0.000000   0.000000   0.000000   0.000000   0.000000   0.000000
              7          8          9         10         11         12
     1  H    0.003865  -0.000019  -0.000075   0.000002   0.000006   0.000000
     2  C   -0.120258  -0.001185   0.004521  -0.000009  -0.000510  -0.000042
     3  H    0.003517   0.000639  -0.000240  -0.000004   0.000008   0.000000
     4  H    0.003738   0.000480  -0.000091  -0.000002   0.000031   0.000002
     5  C    0.247790  -0.017486  -0.030040  -0.001713  -0.003998   0.000024
     6  O   -0.107580   0.002019   0.014327   0.002907  -0.015724  -0.000019
     7  N    7.421271   0.311237   0.196545  -0.041887  -0.063527   0.001571
     8  H    0.311237   0.289099  -0.026375   0.002367   0.003018   0.000239
     9  C    0.196545  -0.026375   5.007676   0.406624   0.336955  -0.042569
    10  H   -0.041887   0.002367   0.406624   0.499582  -0.045265   0.004508
    11  C   -0.063527   0.003018   0.336955  -0.045265   5.211457   0.385437
    12  H    0.001571   0.000239  -0.042569   0.004508   0.385437   0.526031
    13  H    0.004731  -0.000078  -0.040588   0.000264   0.380256  -0.023190
    14  H   -0.005493  -0.000197  -0.026966  -0.003987   0.387223  -0.020596
    15  C   -0.037903  -0.005881   0.387538  -0.039776  -0.066077  -0.003098
    16  O   -0.006737   0.020363  -0.071769   0.000899  -0.000046   0.000583
    17  N    0.002705   0.000731  -0.111786   0.002297   0.002448   0.000175
    18  H    0.000033  -0.000015  -0.000598   0.000433   0.000539  -0.000012
    19  C   -0.000051  -0.000028   0.004202  -0.000143  -0.000056  -0.000041
    20  H    0.000001  -0.000001   0.000058  -0.000003  -0.000029   0.000005
    21  C    0.000001   0.000009  -0.000603   0.000036   0.000000   0.000002
    22  H    0.000000   0.000000  -0.000045   0.000002   0.000000   0.000000
    23  H    0.000000   0.000000   0.000008  -0.000001   0.000000   0.000000
    24  H   -0.000004  -0.000004   0.000292  -0.000019  -0.000005  -0.000001
    25  C    0.000000   0.000000   0.000014  -0.000011  -0.000036  -0.000003
    26  O    0.000000   0.000000  -0.000033   0.000000  -0.000017   0.000001
    27  N    0.000000   0.000000   0.000000   0.000000   0.000000   0.000000
    28  H    0.000000   0.000000   0.000000   0.000000   0.000000   0.000000
    29  C    0.000000   0.000000   0.000000   0.000000   0.000000   0.000000
    30  H    0.000000   0.000000   0.000000   0.000000   0.000000   0.000000
    31  C    0.000000   0.000000   0.000000   0.000000   0.000000   0.000000
    32  H    0.000000   0.000000   0.000000   0.000000   0.000000   0.000000
    33  H    0.000000   0.000000   0.000000   0.000000   0.000000   0.000000
    34  H    0.000000   0.000000   0.000000   0.000000   0.000000   0.000000
    35  C    0.000000   0.000000   0.000000   0.000000   0.000000   0.000000
    36  O    0.000000   0.000000   0.000000   0.000000   0.000000   0.000000
    37  N    0.000000   0.000000   0.000000   0.000000   0.000000   0.000000
    38  H    0.000000   0.000000   0.000000   0.000000   0.000000   0.000000
    39  C    0.000000   0.000000   0.000000   0.000000   0.000000   0.000000
    40  H    0.000000   0.000000   0.000000   0.000000   0.000000   0.000000
    41  H    0.000000   0.000000   0.000000   0.000000   0.000000   0.000000
    42  H    0.000000   0.000000   0.000000   0.000000   0.000000   0.000000
             13         14         15         16         17         18
     1  H    0.000000   0.000001   0.000000   0.000000   0.000000   0.000000
     2  C    0.000007   0.000296   0.000010  -0.000039   0.000000   0.000000
     3  H    0.000000  -0.000005  -0.000011  -0.000001   0.000000   0.000000
     4  H   -0.000001  -0.000025  -0.000006  -0.000001   0.000000   0.000000
     5  C    0.000282   0.000421   0.004055   0.000279  -0.000081   0.000000
     6  O    0.000261   0.010780   0.000550  -0.000003  -0.000002   0.000001
     7  N    0.004731  -0.005493  -0.037903  -0.006737   0.002705   0.000033
     8  H   -0.000078  -0.000197  -0.005881   0.020363   0.000731  -0.000015
     9  C   -0.040588  -0.026966   0.387538  -0.071769  -0.111786  -0.000598
    10  H    0.000264  -0.003987  -0.039776   0.000899   0.002297   0.000433
    11  C    0.380256   0.387223  -0.066077  -0.000046   0.002448   0.000539
    12  H   -0.023190  -0.020596  -0.003098   0.000583   0.000175  -0.000012
    13  H    0.545559  -0.019523  -0.007547   0.000017   0.001296   0.002722
    14  H   -0.019523   0.428053   0.004224  -0.000058   0.000095  -0.000112
    15  C   -0.007547   0.004224   4.171695   0.572914   0.269729  -0.016631
    16  O    0.000017  -0.000058   0.572914   8.241332  -0.104684   0.002091
    17  N    0.001296   0.000095   0.269729  -0.104684   7.425260   0.308692
    18  H    0.002722  -0.000112  -0.016631   0.002091   0.308692   0.287605
    19  C    0.000340   0.000004  -0.034254   0.013103   0.177599  -0.027504
    20  H   -0.000011  -0.000001  -0.001564   0.002718  -0.039779   0.002743
    21  C    0.000000   0.000000  -0.004569  -0.015081  -0.065446   0.002535
    22  H    0.000000   0.000000   0.000060  -0.000022   0.001574   0.000342
    23  H    0.000000   0.000000   0.000295   0.000232   0.005054  -0.000053
    24  H    0.000000   0.000000   0.000433   0.009364  -0.005046  -0.000236
    25  C   -0.000041   0.000000   0.003967   0.000468  -0.030535  -0.004333
    26  O    0.000002   0.000000   0.000311  -0.000001  -0.003412   0.016430
    27  N    0.000000   0.000000  -0.000099  -0.000002   0.001791   0.000517
    28  H    0.000000   0.000000   0.000000   0.000001   0.000107  -0.000020
    29  C    0.000000   0.000000   0.000002   0.000000  -0.000053  -0.000027
    30  H    0.000000   0.000000   0.000000   0.000000   0.000010   0.000006
    31  C    0.000000   0.000000   0.000000   0.000000  -0.000002   0.000004
    32  H    0.000000   0.000000   0.000000   0.000000   0.000001   0.000000
    33  H    0.000000   0.000000   0.000000   0.000000   0.000000   0.000000
    34  H    0.000000   0.000000   0.000000   0.000000  -0.000003  -0.000003
    35  C    0.000000   0.000000   0.000000   0.000000   0.000000   0.000000
    36  O    0.000000   0.000000   0.000000   0.000000   0.000000   0.000000
    37  N    0.000000   0.000000   0.000000   0.000000   0.000000   0.000000
    38  H    0.000000   0.000000   0.000000   0.000000   0.000000   0.000000
    39  C    0.000000   0.000000   0.000000   0.000000   0.000000   0.000000
    40  H    0.000000   0.000000   0.000000   0.000000   0.000000   0.000000
    41  H    0.000000   0.000000   0.000000   0.000000   0.000000   0.000000
    42  H    0.000000   0.000000   0.000000   0.000000   0.000000   0.000000
             19         20         21         22         23         24
     1  H    0.000000   0.000000   0.000000   0.000000   0.000000   0.000000
     2  C    0.000000   0.000000   0.000000   0.000000   0.000000   0.000000
     3  H    0.000000   0.000000   0.000000   0.000000   0.000000   0.000000
     4  H    0.000000   0.000000   0.000000   0.000000   0.000000   0.000000
     5  C    0.000001   0.000000   0.000000   0.000000   0.000000   0.000000
     6  O    0.000000   0.000000   0.000000   0.000000   0.000000   0.000000
     7  N   -0.000051   0.000001   0.000001   0.000000   0.000000  -0.000004
     8  H   -0.000028  -0.000001   0.000009   0.000000   0.000000  -0.000004
     9  C    0.004202   0.000058  -0.000603  -0.000045   0.000008   0.000292
    10  H   -0.000143  -0.000003   0.000036   0.000002  -0.000001  -0.000019
    11  C   -0.000056  -0.000029   0.000000   0.000000   0.000000  -0.000005
    12  H   -0.000041   0.000005   0.000002   0.000000   0.000000  -0.000001
    13  H    0.000340  -0.000011   0.000000   0.000000   0.000000   0.000000
    14  H    0.000004  -0.000001   0.000000   0.000000   0.000000   0.000000
    15  C   -0.034254  -0.001564  -0.004569   0.000060   0.000295   0.000433
    16  O    0.013103   0.002718  -0.015081  -0.000022   0.000232   0.009364
    17  N    0.177599  -0.039779  -0.065446   0.001574   0.005054  -0.005046
    18  H   -0.027504   0.002743   0.002535   0.000342  -0.000053  -0.000236
    19  C    5.016847   0.398713   0.340365  -0.046051  -0.039589  -0.025266
    20  H    0.398713   0.477599  -0.042902   0.004183  -0.000157  -0.003002
    21  C    0.340365  -0.042902   5.246222   0.387860   0.379538   0.386426
    22  H   -0.046051   0.004183   0.387860   0.523784  -0.026377  -0.018908
    23  H   -0.039589  -0.000157   0.379538  -0.026377   0.554566  -0.018922
    24  H   -0.025266  -0.003002   0.386426  -0.018908  -0.018922   0.424832
    25  C    0.390898  -0.027046  -0.076083   0.000030  -0.007779   0.003416
    26  O   -0.076092  -0.000034   0.002142   0.000034  -0.000062  -0.000050
    27  N   -0.099881  -0.000160  -0.007551  -0.000916  -0.004900   0.000495
    28  H   -0.002203  -0.000028  -0.000721  -0.000401   0.006206   0.000002
    29  C    0.004251  -0.000192   0.000753  -0.000284   0.000832   0.000004
    30  H    0.000016  -0.000006  -0.000084  -0.000003   0.000003   0.000000
    31  C   -0.000689   0.000050   0.000010   0.000004  -0.000041   0.000000
    32  H   -0.000009  -0.000005  -0.000007   0.000000   0.000004   0.000000
    33  H    0.000009  -0.000001   0.000000   0.000000   0.000000   0.000000
    34  H    0.000269  -0.000012  -0.000009   0.000000  -0.000001   0.000000
    35  C    0.000029   0.000000  -0.000096   0.000011  -0.000073   0.000000
    36  O   -0.000024   0.000000  -0.000127   0.000008  -0.000227  -0.000001
    37  N    0.000000   0.000000   0.000000   0.000000  -0.000001   0.000000
    38  H    0.000000   0.000000   0.000000   0.000000   0.000000   0.000000
    39  C    0.000000   0.000000   0.000000   0.000000   0.000000   0.000000
    40  H    0.000000   0.000000   0.000000   0.000000   0.000000   0.000000
    41  H    0.000000   0.000000   0.000000   0.000000   0.000000   0.000000
    42  H    0.000000   0.000000   0.000000   0.000000   0.000000   0.000000
             25         26         27         28         29         30
     1  H    0.000000   0.000000   0.000000   0.000000   0.000000   0.000000
     2  C    0.000000   0.000000   0.000000   0.000000   0.000000   0.000000
     3  H    0.000000   0.000000   0.000000   0.000000   0.000000   0.000000
     4  H    0.000000   0.000000   0.000000   0.000000   0.000000   0.000000
     5  C    0.000000   0.000000   0.000000   0.000000   0.000000   0.000000
     6  O    0.000000   0.000000   0.000000   0.000000   0.000000   0.000000
     7  N    0.000000   0.000000   0.000000   0.000000   0.000000   0.000000
     8  H    0.000000   0.000000   0.000000   0.000000   0.000000   0.000000
     9  C    0.000014  -0.000033   0.000000   0.000000   0.000000   0.000000
    10  H   -0.000011   0.000000   0.000000   0.000000   0.000000   0.000000
    11  C   -0.000036  -0.000017   0.000000   0.000000   0.000000   0.000000
    12  H   -0.000003   0.000001   0.000000   0.000000   0.000000   0.000000
    13  H   -0.000041   0.000002   0.000000   0.000000   0.000000   0.000000
    14  H    0.000000   0.000000   0.000000   0.000000   0.000000   0.000000
    15  C    0.003967   0.000311  -0.000099   0.000000   0.000002   0.000000
    16  O    0.000468  -0.000001  -0.000002   0.000001   0.000000   0.000000
    17  N   -0.030535  -0.003412   0.001791   0.000107  -0.000053   0.000010
    18  H   -0.004333   0.016430   0.000517  -0.000020  -0.000027   0.000006
    19  C    0.390898  -0.076092  -0.099881  -0.002203   0.004251   0.000016
    20  H   -0.027046  -0.000034  -0.000160  -0.000028  -0.000192  -0.000006
    21  C   -0.076083   0.002142  -0.007551  -0.000721   0.000753  -0.000084
    22  H    0.000030   0.000034  -0.000916  -0.000401  -0.000284  -0.000003
    23  H   -0.007779  -0.000062  -0.004900   0.006206   0.000832   0.000003
    24  H    0.003416  -0.000050   0.000495   0.000002   0.000004   0.000000
    25  C    4.145718   0.566506   0.288030  -0.013056  -0.033088  -0.002052
    26  O    0.566506   8.247910  -0.103663   0.001943   0.013238   0.003009
    27  N    0.288030  -0.103663   7.451494   0.290723   0.189397  -0.041517
    28  H   -0.013056   0.001943   0.290723   0.266078  -0.027735   0.002464
    29  C   -0.033088   0.013238   0.189397  -0.027735   5.045021   0.404131
    30  H   -0.002052   0.003009  -0.041517   0.002464   0.404131   0.497423
    31  C   -0.003381  -0.015101  -0.062500   0.002824   0.334768  -0.045082
    32  H   -0.000090   0.000018   0.001327   0.000286  -0.042258   0.004445
    33  H    0.000256   0.000234   0.004908  -0.000066  -0.041924   0.000211
    34  H    0.000620   0.009224  -0.005369  -0.000213  -0.027272  -0.003964
    35  C    0.003619   0.000404  -0.034886  -0.005341   0.377630  -0.036433
    36  O    0.000368  -0.000002  -0.007616   0.026053  -0.078552   0.001037
    37  N   -0.000090  -0.000001   0.002677   0.000857  -0.116151   0.002157
    38  H    0.000002   0.000001   0.000023  -0.000027   0.001199   0.000450
    39  C    0.000001   0.000000  -0.000049  -0.000010   0.003642  -0.000214
    40  H    0.000000   0.000000  -0.000004  -0.000011   0.000585  -0.000017
    41  H    0.000000   0.000000   0.000000   0.000000  -0.000112   0.000010
    42  H    0.000000   0.000000   0.000001   0.000000  -0.000004  -0.000001
             31         32         33         34         35         36
     1  H    0.000000   0.000000   0.000000   0.000000   0.000000   0.000000
     2  C    0.000000   0.000000   0.000000   0.000000   0.000000   0.000000
     3  H    0.000000   0.000000   0.000000   0.000000   0.000000   0.000000
     4  H    0.000000   0.000000   0.000000   0.000000   0.000000   0.000000
     5  C    0.000000   0.000000   0.000000   0.000000   0.000000   0.000000
     6  O    0.000000   0.000000   0.000000   0.000000   0.000000   0.000000
     7  N    0.000000   0.000000   0.000000   0.000000   0.000000   0.000000
     8  H    0.000000   0.000000   0.000000   0.000000   0.000000   0.000000
     9  C    0.000000   0.000000   0.000000   0.000000   0.000000   0.000000
    10  H    0.000000   0.000000   0.000000   0.000000   0.000000   0.000000
    11  C    0.000000   0.000000   0.000000   0.000000   0.000000   0.000000
    12  H    0.000000   0.000000   0.000000   0.000000   0.000000   0.000000
    13  H    0.000000   0.000000   0.000000   0.000000   0.000000   0.000000
    14  H    0.000000   0.000000   0.000000   0.000000   0.000000   0.000000
    15  C    0.000000   0.000000   0.000000   0.000000   0.000000   0.000000
    16  O    0.000000   0.000000   0.000000   0.000000   0.000000   0.000000
    17  N   -0.000002   0.000001   0.000000  -0.000003   0.000000   0.000000
    18  H    0.000004   0.000000   0.000000  -0.000003   0.000000   0.000000
    19  C   -0.000689  -0.000009   0.000009   0.000269   0.000029  -0.000024
    20  H    0.000050  -0.000005  -0.000001  -0.000012   0.000000   0.000000
    21  C    0.000010  -0.000007   0.000000  -0.000009  -0.000096  -0.000127
    22  H    0.000004   0.000000   0.000000   0.000000   0.000011   0.000008
    23  H   -0.000041   0.000004   0.000000  -0.000001  -0.000073  -0.000227
    24  H    0.000000   0.000000   0.000000   0.000000   0.000000  -0.000001
    25  C   -0.003381  -0.000090   0.000256   0.000620   0.003619   0.000368
    26  O   -0.015101   0.000018   0.000234   0.009224   0.000404  -0.000002
    27  N   -0.062500   0.001327   0.004908  -0.005369  -0.034886  -0.007616
    28  H    0.002824   0.000286  -0.000066  -0.000213  -0.005341   0.026053
    29  C    0.334768  -0.042258  -0.041924  -0.027272   0.377630  -0.078552
    30  H   -0.045082   0.004445   0.000211  -0.003964  -0.036433   0.001037
    31  C    5.204993   0.386142   0.379702   0.388544  -0.062966  -0.000045
    32  H    0.386142   0.519253  -0.023480  -0.020491  -0.002736   0.000636
    33  H    0.379702  -0.023480   0.561787  -0.020265  -0.006964   0.000024
    34  H    0.388544  -0.020491  -0.020265   0.429340   0.003906  -0.000064
    35  C   -0.062966  -0.002736  -0.006964   0.003906   4.140468   0.592391
    36  O   -0.000045   0.000636   0.000024  -0.000064   0.592391   8.212003
    37  N    0.002382   0.000157   0.000447   0.000093   0.290538  -0.098514
    38  H   -0.000004  -0.000008   0.002616  -0.000080  -0.020851   0.002359
    39  C   -0.000074  -0.000041   0.000158   0.000003  -0.025599  -0.004820
    40  H   -0.000048  -0.000001  -0.000008   0.000000  -0.001968   0.009718
    41  H   -0.000004   0.000001   0.000002   0.000000   0.000793   0.000366
    42  H    0.000010   0.000002  -0.000002  -0.000001   0.000930   0.000374
             37         38         39         40         41         42
     1  H    0.000000   0.000000   0.000000   0.000000   0.000000   0.000000
     2  C    0.000000   0.000000   0.000000   0.000000   0.000000   0.000000
     3  H    0.000000   0.000000   0.000000   0.000000   0.000000   0.000000
     4  H    0.000000   0.000000   0.000000   0.000000   0.000000   0.000000
     5  C    0.000000   0.000000   0.000000   0.000000   0.000000   0.000000
     6  O    0.000000   0.000000   0.000000   0.000000   0.000000   0.000000
     7  N    0.000000   0.000000   0.000000   0.000000   0.000000   0.000000
     8  H    0.000000   0.000000   0.000000   0.000000   0.000000   0.000000
     9  C    0.000000   0.000000   0.000000   0.000000   0.000000   0.000000
    10  H    0.000000   0.000000   0.000000   0.000000   0.000000   0.000000
    11  C    0.000000   0.000000   0.000000   0.000000   0.000000   0.000000
    12  H    0.000000   0.000000   0.000000   0.000000   0.000000   0.000000
    13  H    0.000000   0.000000   0.000000   0.000000   0.000000   0.000000
    14  H    0.000000   0.000000   0.000000   0.000000   0.000000   0.000000
    15  C    0.000000   0.000000   0.000000   0.000000   0.000000   0.000000
    16  O    0.000000   0.000000   0.000000   0.000000   0.000000   0.000000
    17  N    0.000000   0.000000   0.000000   0.000000   0.000000   0.000000
    18  H    0.000000   0.000000   0.000000   0.000000   0.000000   0.000000
    19  C    0.000000   0.000000   0.000000   0.000000   0.000000   0.000000
    20  H    0.000000   0.000000   0.000000   0.000000   0.000000   0.000000
    21  C    0.000000   0.000000   0.000000   0.000000   0.000000   0.000000
    22  H    0.000000   0.000000   0.000000   0.000000   0.000000   0.000000
    23  H   -0.000001   0.000000   0.000000   0.000000   0.000000   0.000000
    24  H    0.000000   0.000000   0.000000   0.000000   0.000000   0.000000
    25  C   -0.000090   0.000002   0.000001   0.000000   0.000000   0.000000
    26  O   -0.000001   0.000001   0.000000   0.000000   0.000000   0.000000
    27  N    0.002677   0.000023  -0.000049  -0.000004   0.000000   0.000001
    28  H    0.000857  -0.000027  -0.000010  -0.000011   0.000000   0.000000
    29  C   -0.116151   0.001199   0.003642   0.000585  -0.000112  -0.000004
    30  H    0.002157   0.000450  -0.000214  -0.000017   0.000010  -0.000001
    31  C    0.002382  -0.000004  -0.000074  -0.000048  -0.000004   0.000010
    32  H    0.000157  -0.000008  -0.000041  -0.000001   0.000001   0.000002
    33  H    0.000447   0.002616   0.000158  -0.000008   0.000002  -0.000002
    34  H    0.000093  -0.000080   0.000003   0.000000   0.000000  -0.000001
    35  C    0.290538  -0.020851  -0.025599  -0.001968   0.000793   0.000930
    36  O   -0.098514   0.002359  -0.004820   0.009718   0.000366   0.000374
    37  N    7.330926   0.322485   0.184327  -0.031676  -0.046877  -0.047836
[...]
    35  C    0.000000   0.000000   0.000000   0.000000   0.000001   0.000000
    36  O    0.000000   0.000000   0.000000   0.000000   0.000000   0.000000
    37  N    0.000000   0.000000   0.000000   0.000000   0.000000   0.000000
    38  H    0.000000   0.000000   0.000000   0.000000   0.000000   0.000000
    39  C    0.000000   0.000000   0.000000   0.000000   0.000000   0.000000
    40  H    0.000000   0.000000   0.000000   0.000000   0.000000   0.000000
    41  H    0.000000   0.000000   0.000000   0.000000   0.000000   0.000000
    42  H    0.000000   0.000000   0.000000   0.000000   0.000000   0.000000
             19         20         21         22         23         24
     1  H    0.000000   0.000000   0.000000   0.000000   0.000000   0.000000
     2  C    0.000000   0.000000   0.000000   0.000000   0.000000   0.000000
     3  H    0.000000   0.000000   0.000000   0.000000   0.000000   0.000000
     4  H    0.000000   0.000000   0.000000   0.000000   0.000000   0.000000
     5  C    0.000001   0.000000   0.000000   0.000000   0.000000   0.000000
     6  O    0.000000   0.000000   0.000000   0.000000   0.000000   0.000000
     7  N   -0.000073  -0.000002   0.000004   0.000000   0.000000  -0.000003
     8  H   -0.000025  -0.000001   0.000010   0.000000   0.000000  -0.000005
     9  C    0.004410  -0.000069  -0.000419  -0.000025   0.000007   0.000256
    10  H    0.000087   0.000002   0.000003   0.000003   0.000000  -0.000013
    11  C   -0.000370   0.000033   0.000001   0.000001   0.000000  -0.000004
    12  H    0.000007   0.000004   0.000001   0.000000   0.000000  -0.000001
    13  H    0.000037  -0.000012   0.000002   0.000000   0.000000   0.000000
    14  H    0.000004  -0.000001   0.000000   0.000000   0.000000   0.000000
    15  C   -0.029776  -0.001325  -0.003602   0.000118   0.000218   0.000487
    16  O    0.011352   0.001600  -0.012483  -0.000068   0.000242   0.009839
    17  N    0.181133  -0.044557  -0.056476   0.002032   0.004275  -0.005498
    18  H   -0.030252   0.002774   0.002842   0.000093  -0.000057  -0.000177
    19  C    4.992362   0.401334   0.337802  -0.043385  -0.037012  -0.023734
    20  H    0.401334   0.497729  -0.041234   0.004099  -0.000798  -0.002586
    21  C    0.337802  -0.041234   5.202751   0.387957   0.380139   0.388040
    22  H   -0.043385   0.004099   0.387957   0.519447  -0.026791  -0.019941
    23  H   -0.037012  -0.000798   0.380139  -0.026791   0.539736  -0.021254
    24  H   -0.023734  -0.002586   0.388040  -0.019941  -0.021254   0.425873
    25  C    0.399583  -0.033483  -0.053703  -0.001464  -0.003169   0.002678
    26  O   -0.075451   0.000123   0.002072  -0.000005  -0.000026  -0.000046
    27  N   -0.098677   0.000237   0.000198   0.000605  -0.000402   0.000168
    28  H   -0.002144   0.000024   0.000843  -0.000221   0.002952   0.000010
    29  C    0.004587  -0.000246   0.000033  -0.000194   0.000062   0.000006
    30  H    0.000193  -0.000013  -0.000045  -0.000013   0.000001   0.000000
    31  C   -0.000399   0.000059   0.000011   0.000004  -0.000009   0.000000
    32  H    0.000007  -0.000004  -0.000004   0.000000   0.000002   0.000000
    33  H    0.000004  -0.000001   0.000000   0.000000   0.000000   0.000000
    34  H    0.000093  -0.000011  -0.000003   0.000000   0.000000   0.000000
    35  C    0.000014  -0.000001  -0.000021   0.000025   0.000006   0.000000
    36  O   -0.000015   0.000000  -0.000110   0.000024  -0.000077  -0.000001
    37  N    0.000000   0.000000   0.000000   0.000000   0.000000   0.000000
    38  H    0.000000   0.000000   0.000000   0.000000   0.000000   0.000000
    39  C    0.000000   0.000000   0.000000   0.000000   0.000000   0.000000
    40  H    0.000000   0.000000   0.000000   0.000000   0.000000   0.000000
    41  H    0.000000   0.000000   0.000000   0.000000   0.000000   0.000000
    42  H    0.000000   0.000000   0.000000   0.000000   0.000000   0.000000
             25         26         27         28         29         30
     1  H    0.000000   0.000000   0.000000   0.000000   0.000000   0.000000
     2  C    0.000000   0.000000   0.000000   0.000000   0.000000   0.000000
     3  H    0.000000   0.000000   0.000000   0.000000   0.000000   0.000000
     4  H    0.000000   0.000000   0.000000   0.000000   0.000000   0.000000
     5  C    0.000000   0.000000   0.000000   0.000000   0.000000   0.000000
     6  O    0.000000   0.000000   0.000000   0.000000   0.000000   0.000000
     7  N    0.000000   0.000000   0.000000   0.000000   0.000000   0.000000
     8  H    0.000000   0.000000   0.000000   0.000000   0.000000   0.000000
     9  C   -0.000043  -0.000099   0.000000   0.000000   0.000000   0.000000
    10  H   -0.000030  -0.000006   0.000000   0.000000   0.000000   0.000000
    11  C   -0.000007  -0.000005   0.000000   0.000000   0.000000   0.000000
    12  H   -0.000001   0.000000   0.000000   0.000000   0.000000   0.000000
    13  H   -0.000007   0.000008   0.000000   0.000000   0.000000   0.000000
    14  H    0.000000   0.000000   0.000000   0.000000   0.000000   0.000000
    15  C    0.003894   0.000523  -0.000110   0.000002   0.000001   0.000000
    16  O    0.000266  -0.000002  -0.000001   0.000001   0.000000   0.000000
    17  N   -0.039481  -0.012980   0.001407   0.000115  -0.000083   0.000009
    18  H   -0.008476   0.026599   0.001059  -0.000030  -0.000048   0.000003
    19  C    0.399583  -0.075451  -0.098677  -0.002144   0.004587   0.000193
    20  H   -0.033483   0.000123   0.000237   0.000024  -0.000246  -0.000013
    21  C   -0.053703   0.002072   0.000198   0.000843   0.000033  -0.000045
    22  H   -0.001464  -0.000005   0.000605  -0.000221  -0.000194  -0.000013
    23  H   -0.003169  -0.000026  -0.000402   0.002952   0.000062   0.000001
    24  H    0.002678  -0.000046   0.000168   0.000010   0.000006   0.000000
    25  C    4.119328   0.571480   0.295617  -0.011638  -0.030318  -0.001575
    26  O    0.571480   8.224746  -0.105834   0.001872   0.009340   0.006160
    27  N    0.295617  -0.105834   7.421810   0.298380   0.192202  -0.042846
    28  H   -0.011638   0.001872   0.298380   0.270254  -0.028195   0.002776
    29  C   -0.030318   0.009340   0.192202  -0.028195   5.051920   0.410699
    30  H   -0.001575   0.006160  -0.042846   0.002776   0.410699   0.483705
    31  C   -0.002157  -0.004094  -0.063298   0.002483   0.337897  -0.040098
    32  H    0.000118   0.000002   0.000010   0.000547  -0.038387   0.003951
    33  H    0.000044   0.000001   0.004627  -0.000053  -0.037521   0.000015
    34  H    0.002134   0.004408  -0.005434  -0.000204  -0.029574  -0.003633
    35  C    0.003531   0.000424  -0.040189  -0.007498   0.376942  -0.042564
    36  O    0.000397  -0.000004  -0.010707   0.026965  -0.076651   0.001761
    37  N   -0.000116  -0.000002   0.002442   0.001156  -0.115821   0.003889
    38  H   -0.000005  -0.000001   0.000006  -0.000037   0.000591   0.001297
    39  C    0.000001   0.000000  -0.000077  -0.000033   0.004352  -0.000102
    40  H    0.000000   0.000000  -0.000004  -0.000004   0.000154  -0.000001
    41  H    0.000000   0.000000   0.000007   0.000001  -0.000175  -0.000003
    42  H    0.000000   0.000000   0.000000   0.000000   0.000005  -0.000011
             31         32         33         34         35         36
     1  H    0.000000   0.000000   0.000000   0.000000   0.000000   0.000000
     2  C    0.000000   0.000000   0.000000   0.000000   0.000000   0.000000
     3  H    0.000000   0.000000   0.000000   0.000000   0.000000   0.000000
     4  H    0.000000   0.000000   0.000000   0.000000   0.000000   0.000000
     5  C    0.000000   0.000000   0.000000   0.000000   0.000000   0.000000
     6  O    0.000000   0.000000   0.000000   0.000000   0.000000   0.000000
     7  N    0.000000   0.000000   0.000000   0.000000   0.000000   0.000000
     8  H    0.000000   0.000000   0.000000   0.000000   0.000000   0.000000
     9  C    0.000000   0.000000   0.000000   0.000000   0.000000   0.000000
    10  H    0.000000   0.000000   0.000000   0.000000   0.000000   0.000000
    11  C    0.000000   0.000000   0.000000   0.000000   0.000000   0.000000
    12  H    0.000000   0.000000   0.000000   0.000000   0.000000   0.000000
    13  H    0.000000   0.000000   0.000000   0.000000   0.000000   0.000000
    14  H    0.000000   0.000000   0.000000   0.000000   0.000000   0.000000
    15  C    0.000000   0.000000   0.000000   0.000000   0.000000   0.000000
    16  O    0.000000   0.000000   0.000000   0.000000   0.000000   0.000000
    17  N   -0.000002   0.000000   0.000000   0.000000   0.000001   0.000000
    18  H    0.000001   0.000000   0.000000  -0.000003   0.000000   0.000000
    19  C   -0.000399   0.000007   0.000004   0.000093   0.000014  -0.000015
    20  H    0.000059  -0.000004  -0.000001  -0.000011  -0.000001   0.000000
    21  C    0.000011  -0.000004   0.000000  -0.000003  -0.000021  -0.000110
    22  H    0.000004   0.000000   0.000000   0.000000   0.000025   0.000024
    23  H   -0.000009   0.000002   0.000000   0.000000   0.000006  -0.000077
    24  H    0.000000   0.000000   0.000000   0.000000   0.000000  -0.000001
    25  C   -0.002157   0.000118   0.000044   0.002134   0.003531   0.000397
    26  O   -0.004094   0.000002   0.000001   0.004408   0.000424  -0.000004
    27  N   -0.063298   0.000010   0.004627  -0.005434  -0.040189  -0.010707
    28  H    0.002483   0.000547  -0.000053  -0.000204  -0.007498   0.026965
    29  C    0.337897  -0.038387  -0.037521  -0.029574   0.376942  -0.076651
    30  H   -0.040098   0.003951   0.000015  -0.003633  -0.042564   0.001761
    31  C    5.145188   0.389088   0.382673   0.391898  -0.052816  -0.000929
    32  H    0.389088   0.512273  -0.024217  -0.023120  -0.004019   0.001551
    33  H    0.382673  -0.024217   0.534166  -0.022771  -0.003069   0.000022
    34  H    0.391898  -0.023120  -0.022771   0.470892   0.004101  -0.000071
    35  C   -0.052816  -0.004019  -0.003069   0.004101   4.160605   0.595302
    36  O   -0.000929   0.001551   0.000022  -0.000071   0.595302   8.179871
    37  N    0.001653   0.000401   0.002303  -0.000049   0.285245  -0.103249
    38  H    0.000349   0.000005   0.000511  -0.000036  -0.022413   0.002495
    39  C   -0.000253  -0.000009  -0.000013   0.000003  -0.028853   0.008238
    40  H    0.000002   0.000003  -0.000011   0.000000  -0.003023   0.003091
    41  H   -0.000005   0.000000   0.000003   0.000000  -0.003779   0.001190
    42  H    0.000003   0.000000  -0.000007   0.000000   0.004555   0.000348
             37         38         39         40         41         42
     1  H    0.000000   0.000000   0.000000   0.000000   0.000000   0.000000
     2  C    0.000000   0.000000   0.000000   0.000000   0.000000   0.000000
     3  H    0.000000   0.000000   0.000000   0.000000   0.000000   0.000000
     4  H    0.000000   0.000000   0.000000   0.000000   0.000000   0.000000
     5  C    0.000000   0.000000   0.000000   0.000000   0.000000   0.000000
     6  O    0.000000   0.000000   0.000000   0.000000   0.000000   0.000000
     7  N    0.000000   0.000000   0.000000   0.000000   0.000000   0.000000
     8  H    0.000000   0.000000   0.000000   0.000000   0.000000   0.000000
     9  C    0.000000   0.000000   0.000000   0.000000   0.000000   0.000000
    10  H    0.000000   0.000000   0.000000   0.000000   0.000000   0.000000
    11  C    0.000000   0.000000   0.000000   0.000000   0.000000   0.000000
    12  H    0.000000   0.000000   0.000000   0.000000   0.000000   0.000000
    13  H    0.000000   0.000000   0.000000   0.000000   0.000000   0.000000
    14  H    0.000000   0.000000   0.000000   0.000000   0.000000   0.000000
    15  C    0.000000   0.000000   0.000000   0.000000   0.000000   0.000000
    16  O    0.000000   0.000000   0.000000   0.000000   0.000000   0.000000
    17  N    0.000000   0.000000   0.000000   0.000000   0.000000   0.000000
    18  H    0.000000   0.000000   0.000000   0.000000   0.000000   0.000000
    19  C    0.000000   0.000000   0.000000   0.000000   0.000000   0.000000
    20  H    0.000000   0.000000   0.000000   0.000000   0.000000   0.000000
    21  C    0.000000   0.000000   0.000000   0.000000   0.000000   0.000000
    22  H    0.000000   0.000000   0.000000   0.000000   0.000000   0.000000
    23  H    0.000000   0.000000   0.000000   0.000000   0.000000   0.000000
    24  H    0.000000   0.000000   0.000000   0.000000   0.000000   0.000000
    25  C   -0.000116  -0.000005   0.000001   0.000000   0.000000   0.000000
    26  O   -0.000002  -0.000001   0.000000   0.000000   0.000000   0.000000
    27  N    0.002442   0.000006  -0.000077  -0.000004   0.000007   0.000000
    28  H    0.001156  -0.000037  -0.000033  -0.000004   0.000001   0.000000
    29  C   -0.115821   0.000591   0.004352   0.000154  -0.000175   0.000005
    30  H    0.003889   0.001297  -0.000102  -0.000001  -0.000003  -0.000011
    31  C    0.001653   0.000349  -0.000253   0.000002  -0.000005   0.000003
    32  H    0.000401   0.000005  -0.000009   0.000003   0.000000   0.000000
    33  H    0.002303   0.000511  -0.000013  -0.000011   0.000003  -0.000007
    34  H   -0.000049  -0.000036   0.000003   0.000000   0.000000   0.000000
    35  C    0.285245  -0.022413  -0.028853  -0.003023  -0.003779   0.004555
    36  O   -0.103249   0.002495   0.008238   0.003091   0.001190   0.000348
    37  N    7.322813   0.328603   0.193171  -0.040406  -0.045288  -0.036998
    38  H    0.328603   0.320046  -0.021932   0.002488   0.001342  -0.004565
    39  C    0.193171  -0.021932   4.911431   0.404263   0.406378   0.397496
    40  H   -0.040406   0.002488   0.404263   0.486092  -0.032442  -0.024706
    41  H   -0.045288   0.001342   0.406378  -0.032442   0.516642  -0.030617
    42  H   -0.036998  -0.004565   0.397496  -0.024706  -0.030617   0.520260
 Mulliken atomic charges:
              1
     1  H    0.206060
     2  C   -0.574861
     3  H    0.171833
     4  H    0.202097
     5  C    0.756907
     6  O   -0.623612
     7  N   -0.824850
     8  H    0.418145
     9  C   -0.030967
    10  H    0.221564
    11  C   -0.491239
    12  H    0.174811
    13  H    0.166464
    14  H    0.211228
    15  C    0.801153
    16  O   -0.645317
    17  N   -0.857111
    18  H    0.429146
    19  C    0.008305
    20  H    0.216324
    21  C   -0.534609
    22  H    0.177699
    23  H    0.161955
    24  H    0.245908
    25  C    0.786602
    26  O   -0.649200
    27  N   -0.851196
    28  H    0.441677
    29  C   -0.031578
    30  H    0.216444
    31  C   -0.487249
    32  H    0.181804
    33  H    0.163295
    34  H    0.211379
    35  C    0.777496
    36  O   -0.629439
    37  N   -0.799748
    38  H    0.391255
    39  C   -0.274061
    40  H    0.204504
    41  H    0.186744
    42  H    0.174237
 Sum of Mulliken atomic charges =   0.00000
 Mulliken charges with hydrogens summed into heavy atoms:
              1
     2  C    0.005130
     5  C    0.756907
     6  O   -0.623612
     7  N   -0.406705
     9  C    0.190597
    11  C    0.061264
    15  C    0.801153
    16  O   -0.645317
    17  N   -0.427965
    19  C    0.224628
    21  C    0.050954
    25  C    0.786602
    26  O   -0.649200
    27  N   -0.409519
    29  C    0.184866
    31  C    0.069229
    35  C    0.777496
    36  O   -0.629439
    37  N   -0.408493
    39  C    0.291424
 Sum of Mulliken charges with hydrogens summed into heavy atoms =   0.00000
 Electronic spatial extent (au):  <R**2>=          10769.9117
 Charge=              0.0000 electrons
 Dipole moment (field-independent basis, Debye):
    X=             -5.4102    Y=              0.1139    Z=              0.1693  Tot=              5.4141
 Quadrupole moment (field-independent basis, Debye-Ang):
   XX=           -101.4310   YY=           -122.3551   ZZ=           -127.1297
   XY=             -8.9111   XZ=            -26.3532   YZ=             -5.2617
 Traceless Quadrupole moment (field-independent basis, Debye-Ang):
   XX=             15.5409   YY=             -5.3832   ZZ=            -10.1578
   XY=             -8.9111   XZ=            -26.3532   YZ=             -5.2617
 Octapole moment (field-independent basis, Debye-Ang**2):
  XXX=           -165.5562  YYY=             -9.1130  ZZZ=             -2.6643  XYY=             22.5610
  XXY=            -15.8589  XXZ=             14.9652  XZZ=            -83.7445  YZZ=              2.3190
  YYZ=              4.0114  XYZ=              6.9811
 Hexadecapole moment (field-independent basis, Debye-Ang**3):
 XXXX=         -10780.2858 YYYY=          -1041.7019 ZZZZ=           -855.8396 XXXY=           -261.8351
 XXXZ=          -1044.3132 YYYX=             -6.7786 YYYZ=            -11.8155 ZZZX=           -127.0357
 ZZZY=              3.5066 XXYY=          -2117.8422 XXZZ=          -2312.7161 YYZZ=           -299.5974
 XXYZ=            -95.5114 YYXZ=             -7.7727 ZZXY=             -2.5137
 N-N= 1.582811699611D+03 E-N=-5.473419994324D+03  KE= 9.830954553385D+02
 1\1\GINC-NODE005\FOpt\RHF\6-31G(d)\C12H22N4O4\MANAGER\26-Dec-2016\0\\#
  HF/6-31G* Opt=(ModRedundant, maxcycles=1000, calcfc) geom=nocrowd\\Ph
 i Psi fixed scan\\0,1\H,2.615099786,1.7839109899,2.0618856586\C,2.5212
 633172,2.2037816217,1.068934864\H,1.709239169,2.9205044279,1.054111557
 \H,2.2857759586,1.3932747752,0.3880145132\C,3.8541871435,2.7980706323,
 0.6671558123\O,4.8847363902,2.196535081,0.8267880103\N,3.8063666078,4.
 023465157,0.1086611727\H,2.9457701364,4.5127889532,0.0082804131\C,4.99
 2415769,4.7219327667,-0.3231367264\H,5.7756982464,4.545129179,0.402488
 2209\C,5.4723396685,4.2474356876,-1.7019437092\H,4.7083915596,4.430001
 6929,-2.4501367588\H,6.3808146737,4.7582996299,-2.0041491708\H,5.67590
 49164,3.1857337719,-1.6593164906\C,4.6562626961,6.2119337766,-0.362366
 2431\O,3.5151605922,6.5887307014,-0.4644861883\N,5.721996388,7.0286593
 606,-0.3110007149\H,6.63548329,6.6336930094,-0.3607495981\C,5.67948671
 98,8.4755918893,-0.4283282996\H,5.3533178414,8.753772171,-1.4279552281
 \C,4.7416353236,9.1201097701,0.596405732\H,5.1024653748,8.9597313301,1
 .6066209448\H,4.6521583945,10.1870278096,0.4212256086\H,3.7567427928,8
 .6917751614,0.5074342387\C,7.1423240035,8.9304015196,-0.3059136414\O,8
 .0343358164,8.2063819828,-0.6799437578\N,7.3739286839,10.1374697665,0.
 2232006091\H,6.6412635985,10.7079699523,0.5795700954\C,8.7109611188,10
 .6683089191,0.364311812\H,9.3627760742,9.8669709302,0.6886492759\C,9.2
 448920211,11.248098421,-0.951998849\H,8.6140974858,12.0640248516,-1.28
 71487481\H,10.2566013877,11.6213618682,-0.8339184763\H,9.2517992706,10
 .4744115963,-1.7082056739\C,8.6491352689,11.7520315489,1.4377811823\O,
 7.6135987167,12.3017040324,1.7119933646\N,9.8211882639,12.0717479068,2
 .0112434154\H,10.6215138253,11.5162549725,1.8163324905\C,9.9144261194,
 13.0919910941,3.0363960905\H,9.4135102788,13.991407642,2.708799543\H,9
 .4622520024,12.7650571128,3.9654064141\H,10.9587833086,13.3125165372,3
 .2099072355\\Version=EM64L-G09RevA.02\State=1-A\HF=-984.5634732\RMSD=5
 .041e-09\RMSF=6.093e-04\Dipole=1.1585588,1.7702399,0.2473082\Quadrupol
 e=13.0301611,-12.7844448,-0.2457163,18.379786,5.2821683,3.7411508\PG=C
 01 [X(C12H22N4O4)]\\@


 FROM WHENCE IT HAPPENS, THAT THEY WHICH TRUST TO BOOKS, DO AS THEY THAT CAST UP MANY LITTLE SUMMS INTO GREATER,
 WITHOUT CONSIDERING WETHER THOSE LITTLE SUMMES WERE RIGHTLY CAST UP OR NOT...
 AND AT LAST FINDING THE ERROUR VISIBLE, AND NOT MISTRUSTING THEIR FIRST GROUNDS,
 KNOW NOT WHICH WAY TO CLEERE THEMSELVES...
 BUT SPEND TIME IN FLUTTERING OVER THEIR BOOKES....
 AS BIRDS THAT ENTERING BY THE CHIMNEY, AND FINDING THEMSELVES INCLOSED IN A CHAMBER,
 FLUTTER AT THE FALSE LIGHT OF A GLASSE WINDOW,
 FOR WANT OF WIT TO CONSIDER WHICH WAY THEY CAME IN....
           LEVIATHAN
 Job cpu time:  0 days  3 hours 55 minutes 28.6 seconds.
 File lengths (MBytes):  RWF=    553 Int=      0 D2E=      0 Chk=     11 Scr=      1
 Normal termination of Gaussian 09 at Mon Dec 26 21:00:03 2016.
