 Entering Gaussian System, Link 0=g09
 Initial command:
 /home/steboss/Software/g09/l1.exe /home/steboss/projects/phi_psi_scan/alanine/75/4659/Gau-22866.inp -scrdir=/home/steboss/projects/phi_psi_scan/alanine/75/4659/
 Entering Link 1 = /home/steboss/Software/g09/l1.exe PID=     22868.
  
 Copyright (c) 1988,1990,1992,1993,1995,1998,2003,2009, Gaussian, Inc.
                  All Rights Reserved.
  
 This is part of the Gaussian(R) 09 program.  It is based on
 the Gaussian(R) 03 system (copyright 2003, Gaussian, Inc.),
 the Gaussian(R) 98 system (copyright 1998, Gaussian, Inc.),
 the Gaussian(R) 94 system (copyright 1995, Gaussian, Inc.),
 the Gaussian 92(TM) system (copyright 1992, Gaussian, Inc.),
 the Gaussian 90(TM) system (copyright 1990, Gaussian, Inc.),
 the Gaussian 88(TM) system (copyright 1988, Gaussian, Inc.),
 the Gaussian 86(TM) system (copyright 1986, Carnegie Mellon
 University), and the Gaussian 82(TM) system (copyright 1983,
 Carnegie Mellon University). Gaussian is a federally registered
 trademark of Gaussian, Inc.
  
 This software contains proprietary and confidential information,
 including trade secrets, belonging to Gaussian, Inc.
  
 This software is provided under written license and may be
 used, copied, transmitted, or stored only in accord with that
 written license.
  
 The following legend is applicable only to US Government
 contracts under FAR:
  
                    RESTRICTED RIGHTS LEGEND
  
 Use, reproduction and disclosure by the US Government is
 subject to restrictions as set forth in subparagraphs (a)
 and (c) of the Commercial Computer Software - Restricted
 Rights clause in FAR 52.227-19.
  
 Gaussian, Inc.
 340 Quinnipiac St., Bldg. 40, Wallingford CT 06492
  
  
 ---------------------------------------------------------------
 Warning -- This program may not be used in any manner that
 competes with the business of Gaussian, Inc. or will provide
 assistance to any competitor of Gaussian, Inc.  The licensee
 of this program is prohibited from giving any competitor of
 Gaussian, Inc. access to this program.  By using this program,
 the user acknowledges that Gaussian, Inc. is engaged in the
 business of creating and licensing software in the field of
 computational chemistry and represents and warrants to the
 licensee that it is not a competitor of Gaussian, Inc. and that
 it will not use this program in any manner prohibited above.
 ---------------------------------------------------------------
  

 Cite this work as:
 Gaussian 09, Revision A.02,
 M. J. Frisch, G. W. Trucks, H. B. Schlegel, G. E. Scuseria, 
 M. A. Robb, J. R. Cheeseman, G. Scalmani, V. Barone, B. Mennucci, 
 G. A. Petersson, H. Nakatsuji, M. Caricato, X. Li, H. P. Hratchian, 
 A. F. Izmaylov, J. Bloino, G. Zheng, J. L. Sonnenberg, M. Hada, 
 M. Ehara, K. Toyota, R. Fukuda, J. Hasegawa, M. Ishida, T. Nakajima, 
 Y. Honda, O. Kitao, H. Nakai, T. Vreven, J. A. Montgomery, Jr., 
 J. E. Peralta, F. Ogliaro, M. Bearpark, J. J. Heyd, E. Brothers, 
 K. N. Kudin, V. N. Staroverov, R. Kobayashi, J. Normand, 
 K. Raghavachari, A. Rendell, J. C. Burant, S. S. Iyengar, J. Tomasi, 
 M. Cossi, N. Rega, J. M. Millam, M. Klene, J. E. Knox, J. B. Cross, 
 V. Bakken, C. Adamo, J. Jaramillo, R. Gomperts, R. E. Stratmann, 
 O. Yazyev, A. J. Austin, R. Cammi, C. Pomelli, J. W. Ochterski, 
 R. L. Martin, K. Morokuma, V. G. Zakrzewski, G. A. Voth, 
 P. Salvador, J. J. Dannenberg, S. Dapprich, A. D. Daniels, 
 O. Farkas, J. B. Foresman, J. V. Ortiz, J. Cioslowski, 
 and D. J. Fox, Gaussian, Inc., Wallingford CT, 2009.
 
 ******************************************
 Gaussian 09:  EM64L-G09RevA.02 11-Jun-2009
                11-Feb-2017 
 ******************************************
 %chk=structure_150.chk
 %NProcShared=8
 Will use up to    8 processors via shared memory.
 ----------------------------------------------------------------------
 # b3lyp/6-31G* Opt=(ModRedundant, maxcycles=1000, calcfc) geom=nocrowd
 ----------------------------------------------------------------------
 1/6=1000,10=4,14=-1,18=120,19=15,26=3,38=1/1,3;
 2/9=110,12=1,17=6,18=5,40=1/2;
 3/5=1,6=6,7=1,11=2,16=1,25=1,30=1,71=2,74=-5/1,2,3;
 4//1;
 5/5=2,38=5/2;
 8/6=4,10=90,11=11/1;
 11/6=1,8=1,9=11,15=111,16=1/1,2,10;
 10/6=1,7=6,13=1/2;
 6/7=2,8=2,9=2,10=2,28=1/1;
 7/10=1,18=20,25=1/1,2,3,16;
 1/6=1000,10=4,14=-1,18=20,19=15/3(2);
 2/9=110,12=1/2;
 99//99;
 2/9=110,12=1/2;
 3/5=1,6=6,7=1,11=2,16=1,25=1,30=1,71=1,74=-5/1,2,3;
 4/5=5,16=3/1;
 5/5=2,38=5/2;
 7//1,2,3,16;
 1/6=1000,14=-1,18=20,19=15/3(-5);
 2/9=110,12=1/2;
 6/7=2,8=2,9=2,10=2,19=2,28=1/1;
 99/9=1/99;
 ------------------
 Phi Psi fixed scan
 ------------------
 Symbolic Z-matrix:
 Charge =  0 Multiplicity = 1
 H                     0.8983    3.2194   -1.9013 
 C                     1.4447    3.2086   -0.9582 
 H                     1.6234    2.1775   -0.6531 
 H                     0.8591    3.7173   -0.1925 
 C                     2.7931    3.9187   -1.0948 
 O                     3.1338    4.4092   -2.1689 
 N                     3.5554    3.9697    0. 
 H                     3.2318    3.5516    0.8606 
 C                     4.8533    4.6139    0. 
 H                     5.4076    4.3155    0.8898 
 C                     5.6613    4.2208   -1.2322 
 H                     5.1233    4.5214   -2.1312 
 H                     6.6305    4.7189   -1.2058 
 H                     5.8085    3.1409   -1.2414 
 C                     4.7127    6.1294    0. 
 O                     3.7419    6.6658   -0.5295 
 N                     5.6868    6.8201    0.5968 
 H                     6.4653    6.3339    1.0185 
 C                     5.669     8.2675    0.6638 
 H                     4.7735    8.6435    0.169 
 H                     5.667     8.5835    1.707 
 H                     6.553     8.6656    0.1657 
 
 The following ModRedundant input section has been read:
 D    5    7    9   15 F                                                       
 D    7    9   15   17 F                                                       

 GradGradGradGradGradGradGradGradGradGradGradGradGradGradGradGradGradGrad
 Berny optimization.
 Initialization pass.
                           ----------------------------
                           !    Initial Parameters    !
                           ! (Angstroms and Degrees)  !
 --------------------------                            --------------------------
 ! Name  Definition              Value          Derivative Info.                !
 --------------------------------------------------------------------------------
 ! R1    R(1,2)                  1.09           calculate D2E/DX2 analytically  !
 ! R2    R(2,3)                  1.09           calculate D2E/DX2 analytically  !
 ! R3    R(2,4)                  1.09           calculate D2E/DX2 analytically  !
 ! R4    R(2,5)                  1.5301         calculate D2E/DX2 analytically  !
 ! R5    R(5,6)                  1.229          calculate D2E/DX2 analytically  !
 ! R6    R(5,7)                  1.335          calculate D2E/DX2 analytically  !
 ! R7    R(7,8)                  1.01           calculate D2E/DX2 analytically  !
 ! R8    R(7,9)                  1.449          calculate D2E/DX2 analytically  !
 ! R9    R(9,10)                 1.09           calculate D2E/DX2 analytically  !
 ! R10   R(9,11)                 1.525          calculate D2E/DX2 analytically  !
 ! R11   R(9,15)                 1.522          calculate D2E/DX2 analytically  !
 ! R12   R(11,12)                1.09           calculate D2E/DX2 analytically  !
 ! R13   R(11,13)                1.09           calculate D2E/DX2 analytically  !
 ! R14   R(11,14)                1.0899         calculate D2E/DX2 analytically  !
 ! R15   R(15,16)                1.229          calculate D2E/DX2 analytically  !
 ! R16   R(15,17)                1.335          calculate D2E/DX2 analytically  !
 ! R17   R(17,18)                1.0101         calculate D2E/DX2 analytically  !
 ! R18   R(17,19)                1.4491         calculate D2E/DX2 analytically  !
 ! R19   R(19,20)                1.09           calculate D2E/DX2 analytically  !
 ! R20   R(19,21)                1.09           calculate D2E/DX2 analytically  !
 ! R21   R(19,22)                1.09           calculate D2E/DX2 analytically  !
 ! A1    A(1,2,3)              109.4952         calculate D2E/DX2 analytically  !
 ! A2    A(1,2,4)              109.5044         calculate D2E/DX2 analytically  !
 ! A3    A(1,2,5)              111.0955         calculate D2E/DX2 analytically  !
 ! A4    A(3,2,4)              109.4467         calculate D2E/DX2 analytically  !
 ! A5    A(3,2,5)              108.6338         calculate D2E/DX2 analytically  !
 ! A6    A(4,2,5)              108.6385         calculate D2E/DX2 analytically  !
 ! A7    A(2,5,6)              120.5019         calculate D2E/DX2 analytically  !
 ! A8    A(2,5,7)              116.5977         calculate D2E/DX2 analytically  !
 ! A9    A(6,5,7)              122.9003         calculate D2E/DX2 analytically  !
 ! A10   A(5,7,8)              119.9988         calculate D2E/DX2 analytically  !
 ! A11   A(5,7,9)              121.9007         calculate D2E/DX2 analytically  !
 ! A12   A(8,7,9)              118.1005         calculate D2E/DX2 analytically  !
 ! A13   A(7,9,10)             109.5            calculate D2E/DX2 analytically  !
 ! A14   A(7,9,11)             111.0992         calculate D2E/DX2 analytically  !
 ! A15   A(7,9,15)             111.0966         calculate D2E/DX2 analytically  !
 ! A16   A(10,9,11)            108.6382         calculate D2E/DX2 analytically  !
 ! A17   A(10,9,15)            108.6373         calculate D2E/DX2 analytically  !
 ! A18   A(11,9,15)            107.7947         calculate D2E/DX2 analytically  !
 ! A19   A(9,11,12)            109.5007         calculate D2E/DX2 analytically  !
 ! A20   A(9,11,13)            109.4959         calculate D2E/DX2 analytically  !
 ! A21   A(9,11,14)            109.4978         calculate D2E/DX2 analytically  !
 ! A22   A(12,11,13)           109.441          calculate D2E/DX2 analytically  !
 ! A23   A(12,11,14)           109.4482         calculate D2E/DX2 analytically  !
 ! A24   A(13,11,14)           109.4436         calculate D2E/DX2 analytically  !
 ! A25   A(9,15,16)            120.5            calculate D2E/DX2 analytically  !
 ! A26   A(9,15,17)            116.6011         calculate D2E/DX2 analytically  !
 ! A27   A(16,15,17)           122.8989         calculate D2E/DX2 analytically  !
 ! A28   A(15,17,18)           119.9988         calculate D2E/DX2 analytically  !
 ! A29   A(15,17,19)           121.9048         calculate D2E/DX2 analytically  !
 ! A30   A(18,17,19)           118.0964         calculate D2E/DX2 analytically  !
 ! A31   A(17,19,20)           109.491          calculate D2E/DX2 analytically  !
 ! A32   A(17,19,21)           109.5024         calculate D2E/DX2 analytically  !
 ! A33   A(17,19,22)           109.4952         calculate D2E/DX2 analytically  !
 ! A34   A(20,19,21)           109.447          calculate D2E/DX2 analytically  !
 ! A35   A(20,19,22)           109.443          calculate D2E/DX2 analytically  !
 ! A36   A(21,19,22)           109.4486         calculate D2E/DX2 analytically  !
 ! D1    D(1,2,5,6)              0.0109         calculate D2E/DX2 analytically  !
 ! D2    D(1,2,5,7)            179.9999         calculate D2E/DX2 analytically  !
 ! D3    D(3,2,5,6)            120.513          calculate D2E/DX2 analytically  !
 ! D4    D(3,2,5,7)            -59.498          calculate D2E/DX2 analytically  !
 ! D5    D(4,2,5,6)           -120.5056         calculate D2E/DX2 analytically  !
 ! D6    D(4,2,5,7)             59.4834         calculate D2E/DX2 analytically  !
 ! D7    D(2,5,7,8)              0.0091         calculate D2E/DX2 analytically  !
 ! D8    D(2,5,7,9)           -179.9996         calculate D2E/DX2 analytically  !
 ! D9    D(6,5,7,8)            179.9978         calculate D2E/DX2 analytically  !
 ! D10   D(6,5,7,9)             -0.0109         calculate D2E/DX2 analytically  !
 ! D11   D(5,7,9,10)          -164.9942         calculate D2E/DX2 analytically  !
 ! D12   D(5,7,9,11)           -44.9916         calculate D2E/DX2 analytically  !
 ! D13   D(5,7,9,15)            75.006          frozen, calculate D2E/DX2 analyt!
 ! D14   D(8,7,9,10)            14.9973         calculate D2E/DX2 analytically  !
 ! D15   D(8,7,9,11)           134.9999         calculate D2E/DX2 analytically  !
 ! D16   D(8,7,9,15)          -105.0025         calculate D2E/DX2 analytically  !
 ! D17   D(7,9,11,12)           60.0024         calculate D2E/DX2 analytically  !
 ! D18   D(7,9,11,13)          179.9986         calculate D2E/DX2 analytically  !
 ! D19   D(7,9,11,14)          -60.0038         calculate D2E/DX2 analytically  !
 ! D20   D(10,9,11,12)        -179.4843         calculate D2E/DX2 analytically  !
 ! D21   D(10,9,11,13)         -59.4881         calculate D2E/DX2 analytically  !
 ! D22   D(10,9,11,14)          60.5095         calculate D2E/DX2 analytically  !
 ! D23   D(15,9,11,12)         -61.938          calculate D2E/DX2 analytically  !
 ! D24   D(15,9,11,13)          58.0582         calculate D2E/DX2 analytically  !
 ! D25   D(15,9,11,14)         178.0558         calculate D2E/DX2 analytically  !
 ! D26   D(7,9,15,16)          -30.0006         calculate D2E/DX2 analytically  !
 ! D27   D(7,9,15,17)          150.0013         frozen, calculate D2E/DX2 analyt!
 ! D28   D(10,9,15,16)        -150.5117         calculate D2E/DX2 analytically  !
 ! D29   D(10,9,15,17)          29.4902         calculate D2E/DX2 analytically  !
 ! D30   D(11,9,15,16)          91.9414         calculate D2E/DX2 analytically  !
 ! D31   D(11,9,15,17)         -88.0567         calculate D2E/DX2 analytically  !
 ! D32   D(9,15,17,18)          -0.0061         calculate D2E/DX2 analytically  !
 ! D33   D(9,15,17,19)        -179.9984         calculate D2E/DX2 analytically  !
 ! D34   D(16,15,17,18)        179.9959         calculate D2E/DX2 analytically  !
 ! D35   D(16,15,17,19)          0.0036         calculate D2E/DX2 analytically  !
 ! D36   D(15,17,19,20)         -0.0048         calculate D2E/DX2 analytically  !
 ! D37   D(15,17,19,21)        119.9968         calculate D2E/DX2 analytically  !
 ! D38   D(15,17,19,22)       -119.9971         calculate D2E/DX2 analytically  !
 ! D39   D(18,17,19,20)       -179.9973         calculate D2E/DX2 analytically  !
 ! D40   D(18,17,19,21)        -59.9957         calculate D2E/DX2 analytically  !
 ! D41   D(18,17,19,22)         60.0105         calculate D2E/DX2 analytically  !
 --------------------------------------------------------------------------------
 Trust Radius=3.00D-01 FncErr=1.00D-07 GrdErr=1.00D-06
 Number of steps in this run= 132 maximum allowed number of steps= 132.
 GradGradGradGradGradGradGradGradGradGradGradGradGradGradGradGradGradGrad

                          Input orientation:                          
 ---------------------------------------------------------------------
 Center     Atomic      Atomic             Coordinates (Angstroms)
 Number     Number       Type             X           Y           Z
 ---------------------------------------------------------------------
      1          1           0        0.898300    3.219400   -1.901300
      2          6           0        1.444700    3.208600   -0.958200
      3          1           0        1.623400    2.177500   -0.653100
      4          1           0        0.859100    3.717300   -0.192500
      5          6           0        2.793100    3.918700   -1.094800
      6          8           0        3.133800    4.409200   -2.168900
      7          7           0        3.555400    3.969700    0.000000
      8          1           0        3.231800    3.551600    0.860600
      9          6           0        4.853300    4.613900    0.000000
     10          1           0        5.407600    4.315500    0.889800
     11          6           0        5.661300    4.220800   -1.232200
     12          1           0        5.123300    4.521400   -2.131200
     13          1           0        6.630500    4.718900   -1.205800
     14          1           0        5.808500    3.140900   -1.241400
     15          6           0        4.712700    6.129400    0.000000
     16          8           0        3.741900    6.665800   -0.529500
     17          7           0        5.686800    6.820100    0.596800
     18          1           0        6.465300    6.333900    1.018500
     19          6           0        5.669000    8.267500    0.663800
     20          1           0        4.773500    8.643500    0.169000
     21          1           0        5.667000    8.583500    1.707000
     22          1           0        6.553000    8.665600    0.165700
 ---------------------------------------------------------------------
                    Distance matrix (angstroms):
                    1          2          3          4          5
     1  H    0.000000
     2  C    1.090003   0.000000
     3  H    1.780261   1.090040   0.000000
     4  H    1.780292   1.089954   1.779688   0.000000
     5  C    2.174794   1.530060   2.143612   2.143610   0.000000
     6  O    2.546506   2.400061   3.091835   3.091786   1.228966
     7  N    3.352323   2.439769   2.714985   2.714921   1.335024
     8  H    3.630932   2.572821   2.601228   2.601188   2.037353
     9  C    4.604519   3.809405   4.098151   4.098119   2.434402
    10  H    5.415299   4.510533   4.612131   4.713605   3.306312
    11  C    4.912908   4.345036   4.562353   4.939192   2.887337
    12  H    4.427040   4.078170   4.464073   4.752740   2.620535
    13  H    5.965764   5.406925   5.642273   5.944665   3.921515
    14  H    4.954967   4.373504   4.334662   5.092052   3.117547
    15  C    5.160687   4.486540   5.058441   4.550331   3.125803
    16  O    4.673924   4.172906   4.964691   4.137361   2.960801
    17  N    6.491169   5.784148   6.295014   5.792845   4.433185
    18  H    7.015471   6.235485   6.596507   6.304173   4.876913
    19  C    7.404231   6.787346   7.428944   6.676279   5.502321
    20  H    6.980271   6.472220   7.239346   6.302433   5.276638
    21  H    8.033299   7.336256   7.934583   7.099571   6.153840
    22  H    8.118449   7.558884   8.189434   7.552117   6.185367
                    6          7          8          9         10
     6  O    0.000000
     7  N    2.252784   0.000000
     8  H    3.150072   1.010028   0.000000
     9  C    2.775376   1.448978   2.120938   0.000000
    10  H    3.812426   2.083739   2.306188   1.089970   0.000000
    11  C    2.702065   2.452791   3.275685   1.525027   2.139209
    12  H    1.993018   2.702720   3.670034   2.150225   3.041326
    13  H    3.640108   3.386959   4.145330   2.150214   2.459625
    14  H    3.102074   2.702673   3.350591   2.150165   2.466256
    15  C    3.186870   2.450234   3.094956   1.522008   2.136554
    16  O    2.854761   2.753926   3.448307   2.392880   3.211367
    17  N    4.469826   3.608852   4.096304   2.432737   2.537089
    18  H    4.996287   3.885139   4.268682   2.567934   2.282374
    19  C    5.416448   4.835186   5.312098   3.801946   3.967078
    20  H    5.107219   4.832881   5.364941   4.033932   4.433195
    21  H    6.234139   5.353490   5.653902   4.397008   4.353266
    22  H    5.937864   5.573557   6.137284   4.396898   4.556274
                   11         12         13         14         15
    11  C    0.000000
    12  H    1.089957   0.000000
    13  H    1.090023   1.779613   0.000000
    14  H    1.089925   1.779613   1.779617   0.000000
    15  C    2.461892   2.701161   2.668599   3.416575   0.000000
    16  O    3.186834   3.012003   3.548494   4.147597   1.229043
    17  N    3.178404   3.611584   2.924889   4.114645   1.334956
    18  H    3.190182   3.873852   2.753730   3.966583   2.037344
    19  C    4.468854   4.705643   4.124615   5.470948   2.434463
    20  H    4.723540   4.733391   4.554230   5.773999   2.520507
    21  H    5.260426   5.614984   4.934356   6.191525   3.138016
    22  H    4.743996   4.949160   4.178930   5.749480   3.137909
                   16         17         18         19         20
    16  O    0.000000
    17  N    2.252775   0.000000
    18  H    3.150138   1.010091   0.000000
    19  C    2.775450   1.449059   2.121017   0.000000
    20  H    2.337391   2.083727   2.986317   1.090011   0.000000
    21  H    3.519306   2.083870   2.484354   1.090012   1.779715
    22  H    3.519203   2.083751   2.484308   1.089974   1.779640
                   21         22
    21  H    0.000000
    22  H    1.779703   0.000000
 Stoichiometry    C6H12N2O2
 Framework group  C1[X(C6H12N2O2)]
 Deg. of freedom    60
 Full point group                 C1      NOp   1
 Largest Abelian subgroup         C1      NOp   1
 Largest concise Abelian subgroup C1      NOp   1
                         Standard orientation:                         
 ---------------------------------------------------------------------
 Center     Atomic      Atomic             Coordinates (Angstroms)
 Number     Number       Type             X           Y           Z
 ---------------------------------------------------------------------
      1          1           0       -3.882820   -1.185114    0.452452
      2          6           0       -3.272347   -0.880492   -0.397627
      3          1           0       -3.830357   -0.173305   -1.011385
      4          1           0       -3.016680   -1.756003   -0.994381
      5          6           0       -1.977697   -0.209863    0.066292
      6          8           0       -1.739797   -0.074775    1.264421
      7          7           0       -1.145004    0.207851   -0.889965
      8          1           0       -1.384640    0.074253   -1.862016
      9          6           0        0.112472    0.857687   -0.580118
     10          1           0        0.499621    1.346153   -1.474294
     11          6           0       -0.066706    1.908521    0.510456
     12          1           0       -0.445217    1.433017    1.415238
     13          1           0        0.892942    2.379916    0.722610
     14          1           0       -0.775883    2.664705    0.174018
     15          6           0        1.143565   -0.149285   -0.090869
     16          8           0        0.790668   -1.160814    0.511477
     17          7           0        2.422624    0.130229   -0.351614
     18          1           0        2.663452    0.974924   -0.850387
     19          6           0        3.498179   -0.748647    0.061340
     20          1           0        3.083231   -1.610619    0.583783
     21          1           0        4.049044   -1.086868   -0.816317
     22          1           0        4.172205   -0.210425    0.727711
 ---------------------------------------------------------------------
 Rotational constants (GHZ):      2.7709707      0.7712001      0.7128588
 Standard basis: 6-31G(d) (6D, 7F)
 There are   174 symmetry adapted basis functions of A   symmetry.
 Integral buffers will be    131072 words long.
 Raffenetti 2 integral format.
 Two-electron integral symmetry is turned on.
   174 basis functions,   328 primitive gaussians,   174 cartesian basis functions
    39 alpha electrons       39 beta electrons
       nuclear repulsion energy       568.1868782991 Hartrees.
 NAtoms=   22 NActive=   22 NUniq=   22 SFac= 7.50D-01 NAtFMM=   80 NAOKFM=F Big=F
 One-electron integrals computed using PRISM.
 NBasis=   174 RedAO= T  NBF=   174
 NBsUse=   174 1.00D-06 NBFU=   174
 Harris functional with IExCor=  402 diagonalized for initial guess.
 ExpMin= 1.61D-01 ExpMax= 5.48D+03 ExpMxC= 8.25D+02 IAcc=1 IRadAn=         1 AccDes= 0.00D+00
 HarFok:  IExCor=  402 AccDes= 0.00D+00 IRadAn=         1 IDoV= 1
 ScaDFX=  1.000000  1.000000  1.000000  1.000000
 FoFCou: FMM=F IPFlag=           0 FMFlag=      100000 FMFlg1=           0
         NFxFlg=           0 DoJE=T BraDBF=F KetDBF=T FulRan=T
         Omega=  0.000000  0.000000  1.000000  0.000000  0.000000 ICntrl=     500 IOpCl=  0
         NMat0=    1 NMatS0=    1 NMatT0=    0 NMatD0=    1 NMtDS0=    0 NMtDT0=    0
         I1Cent=           4 NGrid=           0.
 Petite list used in FoFCou.
 Initial guess orbital symmetries:
       Occupied  (A) (A) (A) (A) (A) (A) (A) (A) (A) (A) (A) (A)
                 (A) (A) (A) (A) (A) (A) (A) (A) (A) (A) (A) (A)
                 (A) (A) (A) (A) (A) (A) (A) (A) (A) (A) (A) (A)
                 (A) (A) (A)
       Virtual   (A) (A) (A) (A) (A) (A) (A) (A) (A) (A) (A) (A)
                 (A) (A) (A) (A) (A) (A) (A) (A) (A) (A) (A) (A)
                 (A) (A) (A) (A) (A) (A) (A) (A) (A) (A) (A) (A)
                 (A) (A) (A) (A) (A) (A) (A) (A) (A) (A) (A) (A)
                 (A) (A) (A) (A) (A) (A) (A) (A) (A) (A) (A) (A)
                 (A) (A) (A) (A) (A) (A) (A) (A) (A) (A) (A) (A)
                 (A) (A) (A) (A) (A) (A) (A) (A) (A) (A) (A) (A)
                 (A) (A) (A) (A) (A) (A) (A) (A) (A) (A) (A) (A)
                 (A) (A) (A) (A) (A) (A) (A) (A) (A) (A) (A) (A)
                 (A) (A) (A) (A) (A) (A) (A) (A) (A) (A) (A) (A)
                 (A) (A) (A) (A) (A) (A) (A) (A) (A) (A) (A) (A)
                 (A) (A) (A)
 The electronic state of the initial guess is 1-A.
 Requested convergence on RMS density matrix=1.00D-08 within 128 cycles.
 Requested convergence on MAX density matrix=1.00D-06.
 Requested convergence on             energy=1.00D-06.
 No special actions if energy rises.
 Integral accuracy reduced to 1.0D-05 until final iterations.
 Initial convergence to 1.0D-05 achieved.  Increase integral accuracy.
 SCF Done:  E(RB3LYP) =  -495.826678462     A.U. after   15 cycles
             Convg  =    0.9477D-08             -V/T =  2.0087
 Range of M.O.s used for correlation:     1   174
 NBasis=   174 NAE=    39 NBE=    39 NFC=     0 NFV=     0
 NROrb=    174 NOA=    39 NOB=    39 NVA=   135 NVB=   135
 Symmetrizing basis deriv contribution to polar:
 IMax=3 JMax=2 DiffMx= 0.00D+00
 G2DrvN: will do    23 centers at a time, making    1 passes doing MaxLOS=2.
 Calling FoFCou, ICntrl=  3107 FMM=F I1Cent=   0 AccDes= 0.00D+00.
 FoFDir/FoFCou used for L=0 through L=2.
 End of G2Drv Frequency-dependent properties file   721 does not exist.
 End of G2Drv Frequency-dependent properties file   722 does not exist.
          IDoAtm=1111111111111111111111
          Differentiating once with respect to nuclear coordinates.
          There are    69 degrees of freedom in the 1st order CPHF.  IDoFFX=5.
     63 vectors produced by pass  0 Test12= 7.63D-11 1.45D-07 XBig12= 2.11D-01 9.52D-02.
 AX will form    63 AO Fock derivatives at one time.
     63 vectors produced by pass  1 Test12= 7.63D-11 1.45D-07 XBig12= 6.04D-02 5.85D-02.
     63 vectors produced by pass  2 Test12= 7.63D-11 1.45D-07 XBig12= 6.29D-05 1.71D-03.
     63 vectors produced by pass  3 Test12= 7.63D-11 1.45D-07 XBig12= 1.07D-07 5.46D-05.
     29 vectors produced by pass  4 Test12= 7.63D-11 1.45D-07 XBig12= 1.47D-10 1.15D-06.
 Inverted reduced A of dimension   281 with in-core refinement.
 End of Minotr Frequency-dependent properties file   721 does not exist.
 End of Minotr Frequency-dependent properties file   722 does not exist.

 **********************************************************************

            Population analysis using the SCF density.

 **********************************************************************

 Orbital symmetries:
       Occupied  (A) (A) (A) (A) (A) (A) (A) (A) (A) (A) (A) (A)
                 (A) (A) (A) (A) (A) (A) (A) (A) (A) (A) (A) (A)
                 (A) (A) (A) (A) (A) (A) (A) (A) (A) (A) (A) (A)
                 (A) (A) (A)
       Virtual   (A) (A) (A) (A) (A) (A) (A) (A) (A) (A) (A) (A)
                 (A) (A) (A) (A) (A) (A) (A) (A) (A) (A) (A) (A)
                 (A) (A) (A) (A) (A) (A) (A) (A) (A) (A) (A) (A)
                 (A) (A) (A) (A) (A) (A) (A) (A) (A) (A) (A) (A)
                 (A) (A) (A) (A) (A) (A) (A) (A) (A) (A) (A) (A)
                 (A) (A) (A) (A) (A) (A) (A) (A) (A) (A) (A) (A)
                 (A) (A) (A) (A) (A) (A) (A) (A) (A) (A) (A) (A)
                 (A) (A) (A) (A) (A) (A) (A) (A) (A) (A) (A) (A)
                 (A) (A) (A) (A) (A) (A) (A) (A) (A) (A) (A) (A)
                 (A) (A) (A) (A) (A) (A) (A) (A) (A) (A) (A) (A)
                 (A) (A) (A) (A) (A) (A) (A) (A) (A) (A) (A) (A)
                 (A) (A) (A)
 The electronic state is 1-A.
 Alpha  occ. eigenvalues --  -19.09430 -19.08704 -14.36272 -14.35619 -10.27169
 Alpha  occ. eigenvalues --  -10.27135 -10.23400 -10.21574 -10.17988 -10.16522
 Alpha  occ. eigenvalues --   -1.02726  -1.01118  -0.92169  -0.91983  -0.78158
 Alpha  occ. eigenvalues --   -0.72280  -0.70527  -0.64257  -0.59315  -0.57824
 Alpha  occ. eigenvalues --   -0.53034  -0.49994  -0.46199  -0.45646  -0.44276
 Alpha  occ. eigenvalues --   -0.43865  -0.41311  -0.40644  -0.40120  -0.38598
 Alpha  occ. eigenvalues --   -0.38423  -0.36972  -0.36492  -0.34587  -0.33519
 Alpha  occ. eigenvalues --   -0.25965  -0.24620  -0.23070  -0.21598
 Alpha virt. eigenvalues --    0.03361   0.04908   0.06079   0.08083   0.12277
 Alpha virt. eigenvalues --    0.13080   0.14902   0.15632   0.16424   0.16945
 Alpha virt. eigenvalues --    0.17355   0.18278   0.18441   0.19330   0.20111
 Alpha virt. eigenvalues --    0.21777   0.23868   0.25772   0.30235   0.33805
 Alpha virt. eigenvalues --    0.37029   0.41655   0.42036   0.50450   0.51614
 Alpha virt. eigenvalues --    0.52673   0.54762   0.55689   0.56485   0.57113
 Alpha virt. eigenvalues --    0.58149   0.59307   0.61211   0.62759   0.65730
 Alpha virt. eigenvalues --    0.67794   0.70417   0.71897   0.74195   0.74705
 Alpha virt. eigenvalues --    0.75613   0.77929   0.79146   0.80212   0.82749
 Alpha virt. eigenvalues --    0.85622   0.86331   0.87216   0.89206   0.89640
 Alpha virt. eigenvalues --    0.90117   0.90462   0.91216   0.92019   0.95164
 Alpha virt. eigenvalues --    0.95459   0.96050   0.97446   0.99365   1.02385
 Alpha virt. eigenvalues --    1.05245   1.09373   1.12725   1.15143   1.16094
 Alpha virt. eigenvalues --    1.24438   1.25681   1.33220   1.35022   1.35296
 Alpha virt. eigenvalues --    1.39240   1.39696   1.43498   1.46976   1.50857
 Alpha virt. eigenvalues --    1.54007   1.59890   1.62020   1.67113   1.70810
 Alpha virt. eigenvalues --    1.72940   1.76204   1.80537   1.81969   1.83991
 Alpha virt. eigenvalues --    1.84577   1.85715   1.88146   1.90190   1.93844
 Alpha virt. eigenvalues --    1.94540   1.97187   1.99896   2.02781   2.05775
 Alpha virt. eigenvalues --    2.06395   2.07701   2.13176   2.15591   2.18030
 Alpha virt. eigenvalues --    2.21831   2.23457   2.25250   2.28600   2.30090
 Alpha virt. eigenvalues --    2.30459   2.32669   2.40407   2.42335   2.42903
 Alpha virt. eigenvalues --    2.46085   2.47240   2.54228   2.61472   2.65655
 Alpha virt. eigenvalues --    2.66985   2.69982   2.75212   2.78600   2.88753
 Alpha virt. eigenvalues --    2.95378   3.00616   3.04105   3.17600   3.19647
 Alpha virt. eigenvalues --    3.94093   4.03322   4.07902   4.18194   4.22771
 Alpha virt. eigenvalues --    4.23724   4.33038   4.44543   4.47447   4.65190
          Condensed to atoms (all electrons):
              1          2          3          4          5          6
     1  H    0.499925   0.360259  -0.021639  -0.020340  -0.016964   0.005348
     2  C    0.360259   5.340093   0.346410   0.350680   0.352194  -0.075196
     3  H   -0.021639   0.346410   0.567910  -0.028312  -0.026803   0.001294
     4  H   -0.020340   0.350680  -0.028312   0.552189  -0.026377   0.000944
     5  C   -0.016964   0.352194  -0.026803  -0.026377   4.326484   0.573165
     6  O    0.005348  -0.075196   0.001294   0.000944   0.573165   8.102206
     7  N    0.004511  -0.138516   0.005506   0.004832   0.235987  -0.102097
     8  H   -0.000170   0.000325   0.000845   0.000733  -0.016394   0.004021
     9  C   -0.000137   0.006412   0.000003  -0.000295  -0.033345   0.009746
    10  H    0.000002  -0.000220   0.000003  -0.000002   0.004720   0.000185
    11  C    0.000015  -0.000634  -0.000003   0.000020  -0.004164  -0.031318
    12  H    0.000003   0.000776  -0.000038  -0.000017   0.000312   0.028531
    13  H    0.000000   0.000015  -0.000001   0.000000   0.000833   0.001280
    14  H    0.000000  -0.000034   0.000010  -0.000002   0.000508  -0.000488
    15  C   -0.000001  -0.000093   0.000007   0.000016  -0.001544  -0.001869
    16  O    0.000005  -0.000310   0.000000   0.000117   0.013717  -0.006105
    17  N    0.000000   0.000000   0.000000   0.000000   0.000399  -0.000017
    18  H    0.000000   0.000000   0.000000   0.000000  -0.000020   0.000001
    19  C    0.000000   0.000000   0.000000   0.000000  -0.000003   0.000002
    20  H    0.000000   0.000000   0.000000   0.000000  -0.000008   0.000003
    21  H    0.000000   0.000000   0.000000   0.000000   0.000000   0.000000
    22  H    0.000000   0.000000   0.000000   0.000000   0.000000   0.000000
              7          8          9         10         11         12
     1  H    0.004511  -0.000170  -0.000137   0.000002   0.000015   0.000003
     2  C   -0.138516   0.000325   0.006412  -0.000220  -0.000634   0.000776
     3  H    0.005506   0.000845   0.000003   0.000003  -0.000003  -0.000038
     4  H    0.004832   0.000733  -0.000295  -0.000002   0.000020  -0.000017
     5  C    0.235987  -0.016394  -0.033345   0.004720  -0.004164   0.000312
     6  O   -0.102097   0.004021   0.009746   0.000185  -0.031318   0.028531
     7  N    7.135681   0.304580   0.270508  -0.039115  -0.050694  -0.008555
     8  H    0.304580   0.416761  -0.034446  -0.005097   0.004691  -0.000177
     9  C    0.270508  -0.034446   5.123732   0.353642   0.359699  -0.027317
    10  H   -0.039115  -0.005097   0.353642   0.637001  -0.038764   0.005040
    11  C   -0.050694   0.004691   0.359699  -0.038764   5.192761   0.363596
    12  H   -0.008555  -0.000177  -0.027317   0.005040   0.363596   0.445061
    13  H    0.004323  -0.000130  -0.034151  -0.002656   0.347657  -0.019624
    14  H    0.000519   0.000082  -0.031223  -0.005770   0.363961  -0.023154
    15  C   -0.054796   0.002391   0.300229  -0.043136  -0.043097  -0.005258
    16  O   -0.001157   0.000247  -0.093866   0.003229  -0.002304   0.002413
    17  N    0.001865  -0.000009  -0.122131   0.004749  -0.002904   0.000053
    18  H    0.000136  -0.000011   0.001439   0.002898   0.000407   0.000005
    19  C   -0.000157   0.000003   0.006599  -0.000298  -0.000224  -0.000007
    20  H   -0.000010   0.000000   0.001380  -0.000062  -0.000037  -0.000009
    21  H    0.000007   0.000000  -0.000120  -0.000011  -0.000011   0.000000
    22  H    0.000000   0.000000  -0.000139  -0.000008   0.000059   0.000000
             13         14         15         16         17         18
     1  H    0.000000   0.000000  -0.000001   0.000005   0.000000   0.000000
     2  C    0.000015  -0.000034  -0.000093  -0.000310   0.000000   0.000000
     3  H   -0.000001   0.000010   0.000007   0.000000   0.000000   0.000000
     4  H    0.000000  -0.000002   0.000016   0.000117   0.000000   0.000000
     5  C    0.000833   0.000508  -0.001544   0.013717   0.000399  -0.000020
     6  O    0.001280  -0.000488  -0.001869  -0.006105  -0.000017   0.000001
     7  N    0.004323   0.000519  -0.054796  -0.001157   0.001865   0.000136
     8  H   -0.000130   0.000082   0.002391   0.000247  -0.000009  -0.000011
     9  C   -0.034151  -0.031223   0.300229  -0.093866  -0.122131   0.001439
    10  H   -0.002656  -0.005770  -0.043136   0.003229   0.004749   0.002898
    11  C    0.347657   0.363961  -0.043097  -0.002304  -0.002904   0.000407
    12  H   -0.019624  -0.023154  -0.005258   0.002413   0.000053   0.000005
    13  H    0.604096  -0.027835  -0.004202  -0.000279   0.004501   0.000698
    14  H   -0.027835   0.576566   0.004771  -0.000066  -0.000034  -0.000071
    15  C   -0.004202   0.004771   4.400305   0.612081   0.254616  -0.019796
    16  O   -0.000279  -0.000066   0.612081   8.063879  -0.100768   0.003611
    17  N    0.004501  -0.000034   0.254616  -0.100768   7.107239   0.302313
    18  H    0.000698  -0.000071  -0.019796   0.003611   0.302313   0.417873
    19  C   -0.000138   0.000009  -0.025612  -0.009566   0.263813  -0.033134
    20  H   -0.000002   0.000001   0.000145   0.022846  -0.038331   0.003949
    21  H    0.000006   0.000000   0.000908   0.000598  -0.044196  -0.000808
    22  H   -0.000024  -0.000001   0.002366   0.000590  -0.044508  -0.000787
             19         20         21         22
     1  H    0.000000   0.000000   0.000000   0.000000
     2  C    0.000000   0.000000   0.000000   0.000000
     3  H    0.000000   0.000000   0.000000   0.000000
     4  H    0.000000   0.000000   0.000000   0.000000
     5  C   -0.000003  -0.000008   0.000000   0.000000
     6  O    0.000002   0.000003   0.000000   0.000000
     7  N   -0.000157  -0.000010   0.000007   0.000000
     8  H    0.000003   0.000000   0.000000   0.000000
     9  C    0.006599   0.001380  -0.000120  -0.000139
    10  H   -0.000298  -0.000062  -0.000011  -0.000008
    11  C   -0.000224  -0.000037  -0.000011   0.000059
    12  H   -0.000007  -0.000009   0.000000   0.000000
    13  H   -0.000138  -0.000002   0.000006  -0.000024
    14  H    0.000009   0.000001   0.000000  -0.000001
    15  C   -0.025612   0.000145   0.000908   0.002366
    16  O   -0.009566   0.022846   0.000598   0.000590
    17  N    0.263813  -0.038331  -0.044196  -0.044508
    18  H   -0.033134   0.003949  -0.000808  -0.000787
    19  C    4.970237   0.375437   0.382498   0.382331
    20  H    0.375437   0.469400  -0.024001  -0.023787
    21  H    0.382498  -0.024001   0.569737  -0.039313
    22  H    0.382331  -0.023787  -0.039313   0.565228
 Mulliken atomic charges:
              1
     1  H    0.189183
     2  C   -0.542162
     3  H    0.154808
     4  H    0.165815
     5  C    0.617304
     6  O   -0.509636
     7  N   -0.573357
     8  H    0.321755
     9  C   -0.056221
    10  H    0.123669
    11  C   -0.458709
    12  H    0.238367
    13  H    0.125636
    14  H    0.142250
    15  C    0.621567
    16  O   -0.508912
    17  N   -0.586650
    18  H    0.321296
    19  C   -0.311789
    20  H    0.213085
    21  H    0.154705
    22  H    0.157994
 Sum of Mulliken atomic charges =   0.00000
 Mulliken charges with hydrogens summed into heavy atoms:
              1
     2  C   -0.032356
     5  C    0.617304
     6  O   -0.509636
     7  N   -0.251602
     9  C    0.067448
    11  C    0.047544
    15  C    0.621567
    16  O   -0.508912
    17  N   -0.265354
    19  C    0.213996
 Sum of Mulliken charges with hydrogens summed into heavy atoms =   0.00000
 APT atomic charges:
              1
     1  H    0.614967
     2  C   -1.247022
     3  H    0.478314
     4  H    0.333436
     5  C    0.155196
     6  O   -0.339987
     7  N   -0.748335
     8  H    0.657344
     9  C   -0.449551
    10  H    0.421744
    11  C   -1.152365
    12  H    0.320068
    13  H    0.409038
    14  H    0.471995
    15  C    0.134461
    16  O   -0.365889
    17  N   -0.466970
    18  H    0.631071
    19  C   -1.347959
    20  H    0.322153
    21  H    0.592100
    22  H    0.576191
 Sum of APT charges=   0.00000
 APT Atomic charges with hydrogens summed into heavy atoms:
              1
     1  H    0.000000
     2  C    0.179694
     3  H    0.000000
     4  H    0.000000
     5  C    0.155196
     6  O   -0.339987
     7  N   -0.090991
     8  H    0.000000
     9  C   -0.027807
    10  H    0.000000
    11  C    0.048736
    12  H    0.000000
    13  H    0.000000
    14  H    0.000000
    15  C    0.134461
    16  O   -0.365889
    17  N    0.164101
    18  H    0.000000
    19  C    0.142485
    20  H    0.000000
    21  H    0.000000
    22  H    0.000000
 Sum of APT charges=   0.00000
 Electronic spatial extent (au):  <R**2>=           1739.1500
 Charge=              0.0000 electrons
 Dipole moment (field-independent basis, Debye):
    X=              2.0525    Y=              2.2761    Z=             -4.9171  Tot=              5.7941
 Quadrupole moment (field-independent basis, Debye-Ang):
   XX=            -47.8559   YY=            -60.4527   ZZ=            -59.7265
   XY=              3.0817   XZ=              3.8501   YZ=              0.2595
 Traceless Quadrupole moment (field-independent basis, Debye-Ang):
   XX=              8.1558   YY=             -4.4410   ZZ=             -3.7148
   XY=              3.0817   XZ=              3.8501   YZ=              0.2595
 Octapole moment (field-independent basis, Debye-Ang**2):
  XXX=             22.3547  YYY=             -2.5905  ZZZ=             -9.6430  XYY=              1.4105
  XXY=             -4.4564  XXZ=            -11.2437  XZZ=              3.3909  YZZ=              1.0414
  YYZ=             -1.7237  XYZ=             -2.3007
 Hexadecapole moment (field-independent basis, Debye-Ang**3):
 XXXX=          -1505.2434 YYYY=           -398.1320 ZZZZ=           -208.6134 XXXY=              5.0797
 XXXZ=             -4.3954 YYYX=              1.4465 YYYZ=             -4.7037 ZZZX=             10.5745
 ZZZY=             -4.0054 XXYY=           -321.6034 XXZZ=           -309.7510 YYZZ=           -101.1627
 XXYZ=            -11.3474 YYXZ=             -5.9249 ZZXY=              1.4540
 N-N= 5.681868782991D+02 E-N=-2.293319307690D+03  KE= 4.915730189905D+02
  Exact polarizability:   0.000   0.000   0.000   0.000   0.000   0.000
 Approx polarizability: 116.942  12.630 101.935  -6.685 -10.355 115.334
 Calling FoFJK, ICntrl=    100147 FMM=F ISym2X=0 I1Cent= 0 IOpClX= 0 NMat=1 NMatS=1 NMatT=0.
 ***** Axes restored to original set *****
 -------------------------------------------------------------------
 Center     Atomic                   Forces (Hartrees/Bohr)
 Number     Number              X              Y              Z
 -------------------------------------------------------------------
      1        1           0.003386540    0.002006750   -0.000851034
      2        6           0.009022085    0.002233269    0.005822135
      3        1          -0.003845856   -0.005091689    0.002734441
      4        1          -0.005120270   -0.001237356    0.003370090
      5        6          -0.024704484    0.004389679   -0.040626293
      6        8          -0.010834267   -0.006111543   -0.000857047
      7        7           0.015268946   -0.004738955    0.027536621
      8        1          -0.001441508    0.001480395   -0.000451969
      9        6           0.005805674    0.001570086   -0.005456531
     10        1          -0.001752502   -0.005270268    0.005350423
     11        6           0.010380936   -0.001049193   -0.004905267
     12        1           0.004321966   -0.001366150    0.002345207
     13        1           0.005385522   -0.000562011    0.000714403
     14        1           0.002212603   -0.003522761   -0.001556400
     15        6          -0.036472899   -0.000029771   -0.011233250
     16        8           0.003917196    0.002652142    0.005131658
     17        7           0.017253225    0.009316288    0.010113448
     18        1          -0.000048262   -0.000146639    0.000237178
     19        6           0.004749373    0.000163200    0.000830651
     20        1          -0.000322553   -0.003667438   -0.000492127
     21        1           0.000273982    0.004069569    0.003328919
     22        1           0.002564553    0.004912396   -0.001085256
 -------------------------------------------------------------------
 Cartesian Forces:  Max     0.040626293 RMS     0.009613993

 GradGradGradGradGradGradGradGradGradGradGradGradGradGradGradGradGradGrad
 Berny optimization.
 Internal  Forces:  Max     0.044100794 RMS     0.009929831
 Search for a local minimum.
 Step number   1 out of a maximum of  132
 All quantities printed in internal units (Hartrees-Bohrs-Radians)
 Mixed Optimization -- RFO/linear search
 Second derivative matrix not updated -- analytic derivatives used.
     Eigenvalues ---   -0.00071  -0.00025   0.00171   0.00320   0.00498
     Eigenvalues ---    0.01390   0.01538   0.02037   0.03988   0.04508
     Eigenvalues ---    0.04763   0.05025   0.05272   0.05658   0.05828
     Eigenvalues ---    0.05982   0.06399   0.06607   0.11881   0.11969
     Eigenvalues ---    0.12376   0.12866   0.13116   0.13228   0.13355
     Eigenvalues ---    0.14208   0.15326   0.16833   0.17804   0.18566
     Eigenvalues ---    0.19647   0.21156   0.22320   0.23417   0.23784
     Eigenvalues ---    0.25218   0.29668   0.30528   0.34274   0.34555
     Eigenvalues ---    0.34730   0.34824   0.34994   0.35036   0.35299
     Eigenvalues ---    0.35564   0.35688   0.35893   0.36242   0.37968
     Eigenvalues ---    0.39493   0.46643   0.46775   0.49292   0.54073
     Eigenvalues ---    0.78264   0.82002   0.827181000.000001000.00000
     Eigenvalues --- 1000.000001000.000001000.000001000.000001000.00000
     Eigenvalues --- 1000.000001000.000001000.000001000.000001000.00000
     Eigenvalues --- 1000.000001000.000001000.000001000.000001000.00000
     Eigenvalues --- 1000.000001000.000001000.000001000.000001000.00000
     Eigenvalues --- 1000.000001000.000001000.000001000.000001000.00000
     Eigenvalues --- 1000.000001000.000001000.000001000.000001000.00000
     Eigenvalues --- 1000.000001000.000001000.000001000.000001000.00000
     Eigenvalues --- 1000.000001000.000001000.00000
 RFO step:  Lambda=-1.79100945D-02 EMin=-7.13987549D-04
 Linear search not attempted -- first point.
 Maximum step size (   0.300) exceeded in Quadratic search.
    -- Step size scaled by   0.316
 Iteration  1 RMS(Cart)=  0.05362007 RMS(Int)=  0.00226432
 Iteration  2 RMS(Cart)=  0.00249731 RMS(Int)=  0.00003916
 Iteration  3 RMS(Cart)=  0.00000611 RMS(Int)=  0.00003893
 Iteration  4 RMS(Cart)=  0.00000000 RMS(Int)=  0.00003893
 Iteration  1 RMS(Cart)=  0.00001109 RMS(Int)=  0.00000477
 Iteration  2 RMS(Cart)=  0.00000625 RMS(Int)=  0.00000531
 Iteration  3 RMS(Cart)=  0.00000369 RMS(Int)=  0.00000603
 Iteration  4 RMS(Cart)=  0.00000227 RMS(Int)=  0.00000656
 Iteration  5 RMS(Cart)=  0.00000146 RMS(Int)=  0.00000691
 Iteration  6 RMS(Cart)=  0.00000096 RMS(Int)=  0.00000715
 Variable       Old X    -DE/DX   Delta X   Delta X   Delta X     New X
                                 (Linear)    (Quad)   (Total)
    R1        2.05981  -0.00094   0.00000   0.00007   0.00007   2.05988
    R2        2.05988   0.00495   0.00000   0.00376   0.00376   2.06364
    R3        2.05971   0.00454   0.00000   0.00364   0.00364   2.06336
    R4        2.89139  -0.00108   0.00000  -0.00246  -0.00246   2.88894
    R5        2.32241  -0.00469   0.00000  -0.00412  -0.00412   2.31829
    R6        2.52283   0.04341   0.00000   0.02025   0.02025   2.54308
    R7        1.90868  -0.00054   0.00000  -0.00040  -0.00040   1.90828
    R8        2.73817   0.01951   0.00000   0.00272   0.00272   2.74089
    R9        2.05975   0.00492   0.00000   0.00411   0.00411   2.06386
   R10        2.88188   0.01624   0.00000   0.00901   0.00901   2.89090
   R11        2.87618   0.01794   0.00000   0.01493   0.01493   2.89111
   R12        2.05972  -0.00444   0.00000  -0.00061  -0.00061   2.05911
   R13        2.05984   0.00455   0.00000   0.00339   0.00339   2.06323
   R14        2.05966   0.00380   0.00000   0.00275   0.00275   2.06241
   R15        2.32256  -0.00415   0.00000  -0.00460  -0.00460   2.31796
   R16        2.52270   0.03122   0.00000   0.01786   0.01786   2.54056
   R17        1.90880   0.00013   0.00000  -0.00009  -0.00009   1.90871
   R18        2.73833   0.00550   0.00000   0.00201   0.00201   2.74034
   R19        2.05982  -0.00078   0.00000   0.00038   0.00038   2.06020
   R20        2.05982   0.00437   0.00000   0.00307   0.00307   2.06289
   R21        2.05975   0.00437   0.00000   0.00423   0.00423   2.06398
    A1        1.91105  -0.00012   0.00000   0.00081   0.00086   1.91191
    A2        1.91121  -0.00003   0.00000  -0.00357  -0.00360   1.90762
    A3        1.93898  -0.00814   0.00000  -0.01273  -0.01271   1.92627
    A4        1.91021  -0.00498   0.00000  -0.00715  -0.00722   1.90299
    A5        1.89602   0.00715   0.00000   0.01964   0.01963   1.91565
    A6        1.89610   0.00617   0.00000   0.00312   0.00308   1.89918
    A7        2.10316  -0.00290   0.00000   0.00970   0.00970   2.11285
    A8        2.03501  -0.02096   0.00000  -0.01528  -0.01528   2.01973
    A9        2.14502   0.02386   0.00000   0.00559   0.00559   2.15060
   A10        2.09437  -0.02301   0.00000  -0.01162  -0.01177   2.08260
   A11        2.12757   0.04410   0.00000   0.01673   0.01658   2.14415
   A12        2.06124  -0.02109   0.00000  -0.00511  -0.00526   2.05598
   A13        1.91114  -0.00839   0.00000  -0.01385  -0.01386   1.89728
   A14        1.93905   0.01656   0.00000   0.00969   0.00969   1.94874
   A15        1.93900  -0.00433   0.00000  -0.00410  -0.00421   1.93479
   A16        1.89609  -0.00720   0.00000  -0.00068  -0.00065   1.89544
   A17        1.89608   0.00086   0.00000  -0.00022  -0.00030   1.89578
   A18        1.88137   0.00228   0.00000   0.00938   0.00939   1.89076
   A19        1.91115   0.00332   0.00000   0.00106   0.00105   1.91220
   A20        1.91106   0.00011   0.00000   0.00214   0.00213   1.91320
   A21        1.91110   0.00225   0.00000   0.00281   0.00281   1.91391
   A22        1.91011  -0.00114   0.00000   0.00189   0.00189   1.91199
   A23        1.91023  -0.00196   0.00000  -0.00351  -0.00351   1.90672
   A24        1.91015  -0.00259   0.00000  -0.00439  -0.00439   1.90576
   A25        2.10312   0.01173   0.00000   0.01045   0.01045   2.11357
   A26        2.03507  -0.01164   0.00000  -0.01323  -0.01323   2.02184
   A27        2.14499  -0.00009   0.00000   0.00278   0.00278   2.14777
   A28        2.09437  -0.00235   0.00000  -0.00502  -0.00509   2.08928
   A29        2.12764   0.00454   0.00000   0.00372   0.00366   2.13130
   A30        2.06117  -0.00219   0.00000   0.00130   0.00124   2.06241
   A31        1.91098  -0.00732   0.00000  -0.01206  -0.01204   1.89894
   A32        1.91118   0.00457   0.00000   0.00513   0.00511   1.91629
   A33        1.91105   0.00570   0.00000   0.01240   0.01238   1.92343
   A34        1.91021   0.00036   0.00000   0.00110   0.00110   1.91131
   A35        1.91014  -0.00005   0.00000  -0.00337  -0.00334   1.90680
   A36        1.91024  -0.00326   0.00000  -0.00320  -0.00326   1.90698
    D1        0.00019  -0.00031   0.00000   0.08926   0.08929   0.08948
    D2        3.14159   0.00011   0.00000   0.08805   0.08808  -3.05351
    D3        2.10335  -0.00087   0.00000   0.09510   0.09505   2.19840
    D4       -1.03844  -0.00045   0.00000   0.09388   0.09384  -0.94460
    D5       -2.10322   0.00077   0.00000   0.09954   0.09956  -2.00366
    D6        1.03818   0.00119   0.00000   0.09833   0.09835   1.13653
    D7        0.00016  -0.00060   0.00000   0.01139   0.01145   0.01161
    D8       -3.14159   0.00102   0.00000   0.04439   0.04434  -3.09725
    D9        3.14155  -0.00018   0.00000   0.01015   0.01021  -3.13143
   D10       -0.00019   0.00145   0.00000   0.04315   0.04310   0.04291
   D11       -2.87969  -0.00192   0.00000  -0.01186  -0.01182  -2.89151
   D12       -0.78525  -0.00586   0.00000  -0.01559  -0.01559  -0.80084
   D13        1.30910   0.00520   0.00000   0.00000   0.00000   1.30910
   D14        0.26175  -0.00032   0.00000   0.02053   0.02060   0.28235
   D15        2.35619  -0.00427   0.00000   0.01681   0.01683   2.37302
   D16       -1.83264   0.00679   0.00000   0.03240   0.03241  -1.80023
   D17        1.04724   0.00449   0.00000   0.00851   0.00854   1.05578
   D18        3.14157   0.00519   0.00000   0.01279   0.01282  -3.12880
   D19       -1.04726   0.00346   0.00000   0.01044   0.01047  -1.03679
   D20       -3.13259  -0.00030   0.00000  -0.00307  -0.00306  -3.13565
   D21       -1.03826   0.00040   0.00000   0.00121   0.00122  -1.03705
   D22        1.05609  -0.00132   0.00000  -0.00114  -0.00113   1.05496
   D23       -1.08102  -0.00190   0.00000   0.00144   0.00140  -1.07962
   D24        1.01331  -0.00120   0.00000   0.00572   0.00568   1.01899
   D25        3.10766  -0.00293   0.00000   0.00337   0.00334   3.11100
   D26       -0.52361  -0.00942   0.00000  -0.00150  -0.00150  -0.52511
   D27        2.61802  -0.00897   0.00000   0.00000   0.00000   2.61801
   D28       -2.62693   0.00309   0.00000   0.01832   0.01833  -2.60859
   D29        0.51470   0.00353   0.00000   0.01981   0.01983   0.53453
   D30        1.60468   0.00990   0.00000   0.01410   0.01409   1.61877
   D31       -1.53688   0.01035   0.00000   0.01560   0.01559  -1.52129
   D32       -0.00011  -0.00078   0.00000   0.00748   0.00746   0.00735
   D33       -3.14156  -0.00129   0.00000  -0.01447  -0.01444   3.12718
   D34        3.14152  -0.00032   0.00000   0.00902   0.00899  -3.13267
   D35        0.00006  -0.00083   0.00000  -0.01293  -0.01291  -0.01285
   D36       -0.00008   0.00033   0.00000   0.07379   0.07380   0.07371
   D37        2.09434  -0.00092   0.00000   0.07089   0.07088   2.16522
   D38       -2.09434   0.00138   0.00000   0.07772   0.07777  -2.01658
   D39       -3.14155  -0.00018   0.00000   0.05224   0.05222  -3.08933
   D40       -1.04712  -0.00142   0.00000   0.04934   0.04930  -0.99782
   D41        1.04738   0.00088   0.00000   0.05617   0.05619   1.10357
         Item               Value     Threshold  Converged?
 Maximum Force            0.044101     0.000450     NO 
 RMS     Force            0.009912     0.000300     NO 
 Maximum Displacement     0.257537     0.001800     NO 
 RMS     Displacement     0.053617     0.001200     NO 
 Predicted change in Energy=-4.990677D-03
 GradGradGradGradGradGradGradGradGradGradGradGradGradGradGradGradGradGrad

                          Input orientation:                          
 ---------------------------------------------------------------------
 Center     Atomic      Atomic             Coordinates (Angstroms)
 Number     Number       Type             X           Y           Z
 ---------------------------------------------------------------------
      1          1           0        0.908879    3.137722   -1.894523
      2          6           0        1.428508    3.216903   -0.939585
      3          1           0        1.569836    2.219996   -0.516817
      4          1           0        0.827983    3.814085   -0.250420
      5          6           0        2.785314    3.895953   -1.126863
      6          8           0        3.119777    4.352316   -2.215384
      7          7           0        3.565148    3.954718   -0.031680
      8          1           0        3.234385    3.551786    0.833173
      9          6           0        4.858452    4.611192   -0.021025
     10          1           0        5.397211    4.309058    0.879662
     11          6           0        5.696142    4.227931   -1.242362
     12          1           0        5.175040    4.528233   -2.150972
     13          1           0        6.664980    4.729031   -1.194264
     14          1           0        5.851250    3.147728   -1.256897
     15          6           0        4.696962    6.132485   -0.006440
     16          8           0        3.728043    6.671807   -0.530753
     17          7           0        5.675173    6.819784    0.608503
     18          1           0        6.454657    6.324030    1.016946
     19          6           0        5.668099    8.267777    0.686755
     20          1           0        4.740549    8.638719    0.250166
     21          1           0        5.731051    8.581922    1.730315
     22          1           0        6.515859    8.679526    0.134764
 ---------------------------------------------------------------------
                    Distance matrix (angstroms):
                    1          2          3          4          5
     1  H    0.000000
     2  C    1.090041   0.000000
     3  H    1.782459   1.092030   0.000000
     4  H    1.779630   1.091882   1.778324   0.000000
     5  C    2.164538   1.528759   2.158327   2.146159   0.000000
     6  O    2.542884   2.403584   3.135958   3.066446   1.226788
     7  N    3.345659   2.435959   2.688102   2.749490   1.345742
     8  H    3.608289   2.552647   2.523264   2.652121   2.040063
     9  C    4.613051   3.814749   4.096173   4.114934   2.456084
    10  H    5.404929   4.500341   4.578552   4.732856   3.319459
    11  C    4.952954   4.396197   4.645925   4.985397   2.931973
    12  H    4.494376   4.150126   4.582130   4.797812   2.675699
    13  H    6.012930   5.456375   5.719675   5.983184   3.968673
    14  H    4.983342   4.434649   4.442849   5.166259   3.158593
    15  C    5.184885   4.478188   5.034578   4.517023   3.148304
    16  O    4.722003   4.170296   4.947391   4.081116   2.991563
    17  N    6.522291   5.780268   6.267232   5.767775   4.462238
    18  H    7.027436   6.224502   6.561784   6.290111   4.894441
    19  C    7.458594   6.791940   7.404053   6.643823   5.541886
    20  H    7.038632   6.463839   7.200117   6.231841   5.311589
    21  H    8.126014   7.377240   7.927132   7.120088   6.228895
    22  H    8.140504   7.541592   8.161693   7.494852   6.196066
                    6          7          8          9         10
     6  O    0.000000
     7  N    2.263847   0.000000
     8  H    3.153994   1.009816   0.000000
     9  C    2.811622   1.450416   2.118865   0.000000
    10  H    3.842901   2.076669   2.292038   1.092146   0.000000
    11  C    2.756792   2.466075   3.290176   1.529796   2.144510
    12  H    2.063783   2.722511   3.691166   2.154944   3.046660
    13  H    3.708513   3.400017   4.155163   2.157294   2.466735
    14  H    3.135391   2.716367   3.373371   2.157488   2.473807
    15  C    3.245912   2.454446   3.082870   1.529909   2.144856
    16  O    2.930530   2.767342   3.440715   2.404949   3.218380
    17  N    4.537928   3.615334   4.085062   2.437461   2.540578
    18  H    5.045497   3.881046   4.253147   2.561068   2.279726
    19  C    5.499745   4.851909   5.308952   3.811442   3.972662
    20  H    5.203757   4.837444   5.337163   4.038368   4.424187
    21  H    6.346405   5.404329   5.686868   4.426659   4.369488
    22  H    5.981748   5.572989   6.127770   4.395748   4.572443
                   11         12         13         14         15
    11  C    0.000000
    12  H    1.089634   0.000000
    13  H    1.091816   1.782002   0.000000
    14  H    1.091379   1.778321   1.779494   0.000000
    15  C    2.480562   2.720514   2.693269   3.435811   0.000000
    16  O    3.217503   3.051855   3.583325   4.177849   1.226612
    17  N    3.184940   3.621607   2.932735   4.122465   1.344408
    18  H    3.173870   3.859794   2.734539   3.952640   2.042914
    19  C    4.476900   4.720168   4.129737   5.479620   2.446037
    20  H    4.753509   4.780203   4.590803   5.801369   2.519713
    21  H    5.272121   5.639674   4.926474   6.202286   3.175752
    22  H    4.731291   4.924999   4.170727   5.742754   3.133008
                   16         17         18         19         20
    16  O    0.000000
    17  N    2.260778   0.000000
    18  H    3.154480   1.010046   0.000000
    19  C    2.791641   1.450123   2.122699   0.000000
    20  H    2.346006   2.076163   2.980587   1.090210   0.000000
    21  H    3.573934   2.089668   2.476000   1.091635   1.781898
    22  H    3.499394   2.095190   2.516019   1.092213   1.779524
                   21         22
    21  H    0.000000
    22  H    1.780796   0.000000
 Stoichiometry    C6H12N2O2
 Framework group  C1[X(C6H12N2O2)]
 Deg. of freedom    60
 Full point group                 C1      NOp   1
 Largest Abelian subgroup         C1      NOp   1
 Largest concise Abelian subgroup C1      NOp   1
                         Standard orientation:                         
 ---------------------------------------------------------------------
 Center     Atomic      Atomic             Coordinates (Angstroms)
 Number     Number       Type             X           Y           Z
 ---------------------------------------------------------------------
      1          1           0       -3.927469   -1.122618    0.426604
      2          6           0       -3.259144   -0.917128   -0.409641
      3          1           0       -3.775181   -0.297411   -1.145974
      4          1           0       -2.967733   -1.859131   -0.878593
      5          6           0       -2.000755   -0.199541    0.078858
      6          8           0       -1.802380   -0.013432    1.275110
      7          7           0       -1.147024    0.201138   -0.881153
      8          1           0       -1.373469    0.024934   -1.849349
      9          6           0        0.118073    0.847662   -0.589186
     10          1           0        0.500797    1.299069   -1.507083
     11          6           0       -0.038732    1.944623    0.465501
     12          1           0       -0.414628    1.509683    1.391153
     13          1           0        0.928305    2.416717    0.649970
     14          1           0       -0.743703    2.697972    0.109707
     15          6           0        1.143399   -0.166966   -0.079424
     16          8           0        0.792867   -1.162524    0.545531
     17          7           0        2.429243    0.108158   -0.359321
     18          1           0        2.661610    0.947280   -0.871251
     19          6           0        3.513545   -0.751779    0.073871
     20          1           0        3.091472   -1.631506    0.560176
     21          1           0        4.106949   -1.061382   -0.788500
     22          1           0        4.155305   -0.222250    0.781453
 ---------------------------------------------------------------------
 Rotational constants (GHZ):      2.7195278      0.7642197      0.7045936
 Standard basis: 6-31G(d) (6D, 7F)
 There are   174 symmetry adapted basis functions of A   symmetry.
 Integral buffers will be    131072 words long.
 Raffenetti 2 integral format.
 Two-electron integral symmetry is turned on.
   174 basis functions,   328 primitive gaussians,   174 cartesian basis functions
    39 alpha electrons       39 beta electrons
       nuclear repulsion energy       565.5012186881 Hartrees.
 NAtoms=   22 NActive=   22 NUniq=   22 SFac= 7.50D-01 NAtFMM=   80 NAOKFM=F Big=F
 One-electron integrals computed using PRISM.
 NBasis=   174 RedAO= T  NBF=   174
 NBsUse=   174 1.00D-06 NBFU=   174
 Initial guess read from the read-write file.
 B after Tr=     0.000000    0.000000    0.000000
         Rot=    1.000000    0.000000    0.000000    0.000000 Ang=   0.00 deg.
 Initial guess orbital symmetries:
       Occupied  (A) (A) (A) (A) (A) (A) (A) (A) (A) (A) (A) (A)
                 (A) (A) (A) (A) (A) (A) (A) (A) (A) (A) (A) (A)
                 (A) (A) (A) (A) (A) (A) (A) (A) (A) (A) (A) (A)
                 (A) (A) (A)
       Virtual   (A) (A) (A) (A) (A) (A) (A) (A) (A) (A) (A) (A)
                 (A) (A) (A) (A) (A) (A) (A) (A) (A) (A) (A) (A)
                 (A) (A) (A) (A) (A) (A) (A) (A) (A) (A) (A) (A)
                 (A) (A) (A) (A) (A) (A) (A) (A) (A) (A) (A) (A)
                 (A) (A) (A) (A) (A) (A) (A) (A) (A) (A) (A) (A)
                 (A) (A) (A) (A) (A) (A) (A) (A) (A) (A) (A) (A)
                 (A) (A) (A) (A) (A) (A) (A) (A) (A) (A) (A) (A)
                 (A) (A) (A) (A) (A) (A) (A) (A) (A) (A) (A) (A)
                 (A) (A) (A) (A) (A) (A) (A) (A) (A) (A) (A) (A)
                 (A) (A) (A) (A) (A) (A) (A) (A) (A) (A) (A) (A)
                 (A) (A) (A) (A) (A) (A) (A) (A) (A) (A) (A) (A)
                 (A) (A) (A)
 Harris functional with IExCor=  402 diagonalized for initial guess.
 ExpMin= 1.61D-01 ExpMax= 5.48D+03 ExpMxC= 8.25D+02 IAcc=1 IRadAn=         1 AccDes= 0.00D+00
 HarFok:  IExCor=  402 AccDes= 0.00D+00 IRadAn=         1 IDoV= 1
 ScaDFX=  1.000000  1.000000  1.000000  1.000000
 FoFCou: FMM=F IPFlag=           0 FMFlag=      100000 FMFlg1=           0
         NFxFlg=           0 DoJE=T BraDBF=F KetDBF=T FulRan=T
         Omega=  0.000000  0.000000  1.000000  0.000000  0.000000 ICntrl=     500 IOpCl=  0
         NMat0=    1 NMatS0=    1 NMatT0=    0 NMatD0=    1 NMtDS0=    0 NMtDT0=    0
         I1Cent=           4 NGrid=           0.
 Petite list used in FoFCou.
 Requested convergence on RMS density matrix=1.00D-08 within 128 cycles.
 Requested convergence on MAX density matrix=1.00D-06.
 Requested convergence on             energy=1.00D-06.
 No special actions if energy rises.
 Integral accuracy reduced to 1.0D-05 until final iterations.
 Initial convergence to 1.0D-05 achieved.  Increase integral accuracy.
 SCF Done:  E(RB3LYP) =  -495.831689719     A.U. after   12 cycles
             Convg  =    0.9177D-08             -V/T =  2.0089
 Calling FoFJK, ICntrl=      2127 FMM=F ISym2X=0 I1Cent= 0 IOpClX= 0 NMat=1 NMatS=1 NMatT=0.
 ***** Axes restored to original set *****
 -------------------------------------------------------------------
 Center     Atomic                   Forces (Hartrees/Bohr)
 Number     Number              X              Y              Z
 -------------------------------------------------------------------
      1        1           0.002424117    0.001238616   -0.000716440
      2        6           0.006691949    0.001718570    0.004190031
      3        1          -0.002939257   -0.003249525    0.002203589
      4        1          -0.003781784   -0.000579112    0.002248547
      5        6          -0.017558388    0.002127068   -0.028749001
      6        8          -0.007775648   -0.004411004   -0.000463981
      7        7           0.011733316   -0.004410759    0.019002409
      8        1          -0.001412694    0.001762338   -0.000163594
      9        6           0.004075884    0.002078996   -0.005119326
     10        1          -0.001595023   -0.003914800    0.003824175
     11        6           0.007612433   -0.000608090   -0.003070982
     12        1           0.003079229   -0.000960439    0.001683946
     13        1           0.003805148   -0.000481544    0.000614008
     14        1           0.001569768   -0.002459563   -0.001105799
     15        6          -0.025794368    0.000034857   -0.007504785
     16        8           0.002624096    0.001908904    0.004013862
     17        7           0.011987985    0.006576011    0.007529047
     18        1          -0.000054547   -0.000170463    0.000124928
     19        6           0.003614655   -0.000067723    0.000389267
     20        1          -0.000255545   -0.002543000   -0.000337328
     21        1           0.000282468    0.002895480    0.002292769
     22        1           0.001666207    0.003515182   -0.000885341
 -------------------------------------------------------------------
 Cartesian Forces:  Max     0.028749001 RMS     0.006838756

 GradGradGradGradGradGradGradGradGradGradGradGradGradGradGradGradGradGrad
 Berny optimization.
 Using GEDIIS/GDIIS optimizer.
 Internal  Forces:  Max     0.031544713 RMS     0.007076331
 Search for a local minimum.
 Step number   2 out of a maximum of  132
 All quantities printed in internal units (Hartrees-Bohrs-Radians)
 Mixed Optimization -- RFO/linear search
 Update second derivatives using D2CorX and points    1    2
 DE= -5.01D-03 DEPred=-4.99D-03 R= 1.00D+00
 SS=  1.41D+00  RLast= 3.00D-01 DXNew= 5.0454D-01 9.0000D-01
 Trust test= 1.00D+00 RLast= 3.00D-01 DXMaxT set to 5.05D-01
 Use linear search instead of GDIIS.
 Linear search step of   0.594 exceeds DXMaxT=   0.505 but not scaled.
 Quartic linear search produced a step of  2.00000.
 Iteration  1 RMS(Cart)=  0.10623284 RMS(Int)=  0.00894112
 Iteration  2 RMS(Cart)=  0.00992542 RMS(Int)=  0.00024051
 Iteration  3 RMS(Cart)=  0.00010328 RMS(Int)=  0.00022846
 Iteration  4 RMS(Cart)=  0.00000002 RMS(Int)=  0.00022846
 Iteration  1 RMS(Cart)=  0.00006582 RMS(Int)=  0.00002864
 Iteration  2 RMS(Cart)=  0.00003704 RMS(Int)=  0.00003184
 Iteration  3 RMS(Cart)=  0.00002172 RMS(Int)=  0.00003617
 Iteration  4 RMS(Cart)=  0.00001332 RMS(Int)=  0.00003935
 Iteration  5 RMS(Cart)=  0.00000849 RMS(Int)=  0.00004147
 Iteration  6 RMS(Cart)=  0.00000557 RMS(Int)=  0.00004285
 Iteration  7 RMS(Cart)=  0.00000372 RMS(Int)=  0.00004375
 Iteration  8 RMS(Cart)=  0.00000251 RMS(Int)=  0.00004433
 Iteration  9 RMS(Cart)=  0.00000170 RMS(Int)=  0.00004471
 Iteration 10 RMS(Cart)=  0.00000115 RMS(Int)=  0.00004496
 Iteration 11 RMS(Cart)=  0.00000078 RMS(Int)=  0.00004513
 Variable       Old X    -DE/DX   Delta X   Delta X   Delta X     New X
                                 (Linear)    (Quad)   (Total)
    R1        2.05988  -0.00062   0.00014   0.00000   0.00014   2.06002
    R2        2.06364   0.00344   0.00752   0.00000   0.00752   2.07116
    R3        2.06336   0.00318   0.00729   0.00000   0.00729   2.07064
    R4        2.88894  -0.00077  -0.00492   0.00000  -0.00492   2.88402
    R5        2.31829  -0.00335  -0.00823   0.00000  -0.00823   2.31006
    R6        2.54308   0.03075   0.04051   0.00000   0.04051   2.58359
    R7        1.90828  -0.00038  -0.00080   0.00000  -0.00080   1.90748
    R8        2.74089   0.01390   0.00543   0.00000   0.00543   2.74632
    R9        2.06386   0.00345   0.00822   0.00000   0.00822   2.07208
   R10        2.89090   0.01144   0.01802   0.00000   0.01802   2.90892
   R11        2.89111   0.01275   0.02986   0.00000   0.02986   2.92097
   R12        2.05911  -0.00314  -0.00122   0.00000  -0.00122   2.05789
   R13        2.06323   0.00318   0.00678   0.00000   0.00678   2.07001
   R14        2.06241   0.00267   0.00550   0.00000   0.00550   2.06790
   R15        2.31796  -0.00295  -0.00919   0.00000  -0.00919   2.30877
   R16        2.54056   0.02194   0.03572   0.00000   0.03572   2.57628
   R17        1.90871   0.00009  -0.00017   0.00000  -0.00017   1.90854
   R18        2.74034   0.00384   0.00402   0.00000   0.00402   2.74436
   R19        2.06020  -0.00052   0.00075   0.00000   0.00075   2.06095
   R20        2.06289   0.00304   0.00613   0.00000   0.00613   2.06903
   R21        2.06398   0.00306   0.00846   0.00000   0.00846   2.07244
    A1        1.91191  -0.00011   0.00172   0.00000   0.00198   1.91389
    A2        1.90762  -0.00007  -0.00719   0.00000  -0.00733   1.90028
    A3        1.92627  -0.00574  -0.02543   0.00000  -0.02535   1.90091
    A4        1.90299  -0.00360  -0.01444   0.00000  -0.01484   1.88815
    A5        1.91565   0.00512   0.03926   0.00000   0.03919   1.95484
    A6        1.89918   0.00442   0.00616   0.00000   0.00587   1.90505
    A7        2.11285  -0.00219   0.01940   0.00000   0.01939   2.13225
    A8        2.01973  -0.01478  -0.03057   0.00000  -0.03057   1.98916
    A9        2.15060   0.01697   0.01117   0.00000   0.01117   2.16177
   A10        2.08260  -0.01649  -0.02354   0.00000  -0.02437   2.05824
   A11        2.14415   0.03154   0.03317   0.00000   0.03231   2.17646
   A12        2.05598  -0.01509  -0.01052   0.00000  -0.01141   2.04458
   A13        1.89728  -0.00611  -0.02771   0.00000  -0.02778   1.86950
   A14        1.94874   0.01179   0.01938   0.00000   0.01938   1.96812
   A15        1.93479  -0.00319  -0.00842   0.00000  -0.00910   1.92569
   A16        1.89544  -0.00506  -0.00130   0.00000  -0.00112   1.89433
   A17        1.89578   0.00039  -0.00060   0.00000  -0.00107   1.89471
   A18        1.89076   0.00190   0.01877   0.00000   0.01881   1.90957
   A19        1.91220   0.00244   0.00211   0.00000   0.00209   1.91429
   A20        1.91320   0.00007   0.00427   0.00000   0.00425   1.91745
   A21        1.91391   0.00157   0.00563   0.00000   0.00562   1.91953
   A22        1.91199  -0.00083   0.00377   0.00000   0.00374   1.91573
   A23        1.90672  -0.00142  -0.00703   0.00000  -0.00703   1.89969
   A24        1.90576  -0.00185  -0.00879   0.00000  -0.00879   1.89697
   A25        2.11357   0.00845   0.02090   0.00000   0.02089   2.13446
   A26        2.02184  -0.00829  -0.02646   0.00000  -0.02647   1.99538
   A27        2.14777  -0.00016   0.00557   0.00000   0.00556   2.15334
   A28        2.08928  -0.00169  -0.01018   0.00000  -0.01057   2.07872
   A29        2.13130   0.00314   0.00731   0.00000   0.00692   2.13821
   A30        2.06241  -0.00145   0.00247   0.00000   0.00206   2.06447
   A31        1.89894  -0.00513  -0.02407   0.00000  -0.02394   1.87500
   A32        1.91629   0.00324   0.01021   0.00000   0.01005   1.92633
   A33        1.92343   0.00405   0.02476   0.00000   0.02468   1.94811
   A34        1.91131   0.00021   0.00221   0.00000   0.00225   1.91357
   A35        1.90680  -0.00006  -0.00668   0.00000  -0.00647   1.90034
   A36        1.90698  -0.00234  -0.00652   0.00000  -0.00687   1.90010
    D1        0.08948  -0.00017   0.17858   0.00000   0.17875   0.26823
    D2       -3.05351   0.00020   0.17616   0.00000   0.17632  -2.87720
    D3        2.19840  -0.00067   0.19010   0.00000   0.18984   2.38824
    D4       -0.94460  -0.00030   0.18767   0.00000   0.18741  -0.75719
    D5       -2.00366   0.00063   0.19912   0.00000   0.19923  -1.80443
    D6        1.13653   0.00100   0.19669   0.00000   0.19679   1.33332
    D7        0.01161  -0.00036   0.02289   0.00000   0.02321   0.03482
    D8       -3.09725   0.00103   0.08867   0.00000   0.08835  -3.00890
    D9       -3.13143   0.00000   0.02041   0.00000   0.02074  -3.11069
   D10        0.04291   0.00139   0.08619   0.00000   0.08587   0.12878
   D11       -2.89151  -0.00127  -0.02363   0.00000  -0.02332  -2.91483
   D12       -0.80084  -0.00425  -0.03117   0.00000  -0.03115  -0.83198
   D13        1.30910   0.00401  -0.00001   0.00000   0.00000   1.30910
   D14        0.28235   0.00015   0.04120   0.00000   0.04159   0.32394
   D15        2.37302  -0.00283   0.03366   0.00000   0.03376   2.40679
   D16       -1.80023   0.00542   0.06483   0.00000   0.06491  -1.73531
   D17        1.05578   0.00339   0.01708   0.00000   0.01726   1.07303
   D18       -3.12880   0.00392   0.02564   0.00000   0.02583  -3.10297
   D19       -1.03679   0.00267   0.02095   0.00000   0.02113  -1.01566
   D20       -3.13565  -0.00023  -0.00613   0.00000  -0.00610   3.14144
   D21       -1.03705   0.00031   0.00243   0.00000   0.00248  -1.03457
   D22        1.05496  -0.00094  -0.00226   0.00000  -0.00222   1.05274
   D23       -1.07962  -0.00150   0.00281   0.00000   0.00258  -1.07704
   D24        1.01899  -0.00096   0.01137   0.00000   0.01115   1.03014
   D25        3.11100  -0.00222   0.00668   0.00000   0.00645   3.11745
   D26       -0.52511  -0.00668  -0.00300   0.00000  -0.00303  -0.52814
   D27        2.61801  -0.00629   0.00000   0.00000   0.00000   2.61801
   D28       -2.60859   0.00250   0.03667   0.00000   0.03675  -2.57184
   D29        0.53453   0.00289   0.03967   0.00000   0.03978   0.57431
   D30        1.61877   0.00725   0.02818   0.00000   0.02810   1.64687
   D31       -1.52129   0.00764   0.03118   0.00000   0.03113  -1.49016
   D32        0.00735  -0.00064   0.01492   0.00000   0.01478   0.02214
   D33        3.12718  -0.00110  -0.02888   0.00000  -0.02873   3.09844
   D34       -3.13267  -0.00025   0.01798   0.00000   0.01783  -3.11484
   D35       -0.01285  -0.00071  -0.02582   0.00000  -0.02569  -0.03853
   D36        0.07371   0.00028   0.14759   0.00000   0.14761   0.22132
   D37        2.16522  -0.00064   0.14175   0.00000   0.14169   2.30690
   D38       -2.01658   0.00109   0.15554   0.00000   0.15585  -1.86072
   D39       -3.08933  -0.00017   0.10444   0.00000   0.10428  -2.98505
   D40       -0.99782  -0.00110   0.09860   0.00000   0.09836  -0.89947
   D41        1.10357   0.00064   0.11238   0.00000   0.11252   1.21609
         Item               Value     Threshold  Converged?
 Maximum Force            0.031532     0.000450     NO 
 RMS     Force            0.007063     0.000300     NO 
 Maximum Displacement     0.482903     0.001800     NO 
 RMS     Displacement     0.106694     0.001200     NO 
 Predicted change in Energy=-5.408399D-03
 GradGradGradGradGradGradGradGradGradGradGradGradGradGradGradGradGradGrad

                          Input orientation:                          
 ---------------------------------------------------------------------
 Center     Atomic      Atomic             Coordinates (Angstroms)
 Number     Number       Type             X           Y           Z
 ---------------------------------------------------------------------
      1          1           0        0.929395    2.969471   -1.847958
      2          6           0        1.400813    3.238547   -0.902591
      3          1           0        1.472964    2.352687   -0.261276
      4          1           0        0.775211    3.979723   -0.392767
      5          6           0        2.769389    3.850336   -1.188721
      6          8           0        3.089315    4.236899   -2.303421
      7          7           0        3.584116    3.925637   -0.093402
      8          1           0        3.238555    3.554284    0.779271
      9          6           0        4.868279    4.605367   -0.062600
     10          1           0        5.375801    4.294721    0.858392
     11          6           0        5.763419    4.242069   -1.261051
     12          1           0        5.276109    4.542906   -2.187291
     13          1           0        6.730631    4.748163   -1.170062
     14          1           0        5.934113    3.161471   -1.286276
     15          6           0        4.664399    6.136963   -0.019362
     16          8           0        3.698488    6.681646   -0.532202
     17          7           0        5.651487    6.816793    0.630334
     18          1           0        6.433441    6.303041    1.010620
     19          6           0        5.665586    8.265492    0.730856
     20          1           0        4.684026    8.624167    0.418896
     21          1           0        5.859030    8.574017    1.763404
     22          1           0        6.428733    8.708301    0.079508
 ---------------------------------------------------------------------
                    Distance matrix (angstroms):
                    1          2          3          4          5
     1  H    0.000000
     2  C    1.090116   0.000000
     3  H    1.787022   1.096011   0.000000
     4  H    1.778190   1.095737   1.775217   0.000000
     5  C    2.143850   1.526157   2.187195   2.151052   0.000000
     6  O    2.545402   2.410408   3.214529   3.011945   1.222432
     7  N    3.322689   2.427693   2.638051   2.825330   1.367177
     8  H    3.546344   2.511105   2.375686   2.760930   2.044690
     9  C    4.623685   3.820616   4.079486   4.153750   2.498711
    10  H    5.371326   4.474047   4.500810   4.778080   3.343880
    11  C    5.033066   4.490867   4.793467   5.070006   3.020415
    12  H    4.635166   4.285992   4.792755   4.878070   2.785757
    13  H    6.105540   5.545939   5.848697   6.054891   4.061758
    14  H    5.039797   4.550161   4.648291   5.299260   3.240298
    15  C    5.227526   4.453303   4.956262   4.463059   3.191728
    16  O    4.814492   4.155891   4.875064   3.983137   3.051321
    17  N    6.575863   5.763848   6.179261   5.733565   4.518332
    18  H    7.041213   6.195066   6.467561   6.275577   4.927285
    19  C    7.558413   6.791657   7.315987   6.598947   5.618392
    20  H    7.156219   6.444433   7.078490   6.124417   5.388852
    21  H    8.291813   7.446507   7.876665   7.183440   6.369779
    22  H    8.178754   7.494178   8.066574   7.385445   6.212812
                    6          7          8          9         10
     6  O    0.000000
     7  N    2.286022   0.000000
     8  H    3.160890   1.009393   0.000000
     9  C    2.884746   1.453292   2.114125   0.000000
    10  H    3.902361   2.062103   2.263256   1.096497   0.000000
    11  C    2.870086   2.492569   3.318269   1.539333   2.155240
[...]
    14  H    5.118546   4.657020   4.900760   5.349475   3.247629
    15  C    5.187581   4.319354   4.742130   4.248813   3.203832
    16  O    4.744361   3.934912   4.537658   3.608313   3.061834
    17  N    6.540494   5.641342   5.969234   5.539320   4.535503
    18  H    7.019710   6.124961   6.350352   6.169614   4.936428
    19  C    7.510076   6.629167   7.038272   6.330042   5.636807
    20  H    7.095020   6.245665   6.737593   5.793396   5.410246
    21  H    8.248625   7.301216   7.589018   6.970251   6.405246
    22  H    8.129457   7.326745   7.820563   7.076123   6.212506
                    6          7          8          9         10
     6  O    0.000000
     7  N    2.302867   0.000000
     8  H    3.140002   1.012618   0.000000
     9  C    2.929701   1.458686   2.076859   0.000000
    10  H    3.919682   2.046289   2.284738   1.099040   0.000000
    11  C    2.914635   2.514959   3.393006   1.537998   2.142467
    12  H    2.363524   2.853659   3.821354   2.180690   3.060009
    13  H    3.947712   3.437084   4.199064   2.167413   2.432460
    14  H    3.111511   2.725018   3.591072   2.168103   2.495751
    15  C    3.525911   2.470290   2.793418   1.550309   2.152625
    16  O    3.335925   2.792479   3.040420   2.436402   3.209350
    17  N    4.825565   3.637823   3.835056   2.451310   2.545084
    18  H    5.220648   3.885081   4.114259   2.540649   2.298104
    19  C    5.851299   4.902282   5.026392   3.834259   3.985320
    20  H    5.629211   4.877166   4.954295   4.060211   4.404840
    21  H    6.752670   5.534559   5.498288   4.501366   4.417934
    22  H    6.230699   5.570221   5.843804   4.381046   4.600870
                   11         12         13         14         15
    11  C    0.000000
    12  H    1.088768   0.000000
    13  H    1.096186   1.785724   0.000000
    14  H    1.094167   1.769806   1.776406   0.000000
    15  C    2.554387   2.798253   2.813705   3.499940   0.000000
    16  O    3.367486   3.262020   3.793380   4.292400   1.222597
    17  N    3.204533   3.623868   2.978388   4.159965   1.368503
    18  H    3.069500   3.717908   2.597552   3.897244   2.051722
    19  C    4.493972   4.716370   4.174514   5.512539   2.473987
    20  H    4.839652   4.886470   4.730825   5.881856   2.529556
    21  H    5.288833   5.650012   4.914031   6.237924   3.260473
    22  H    4.695236   4.807174   4.199345   5.740057   3.118827
                   16         17         18         19         20
    16  O    0.000000
    17  N    2.281683   0.000000
    18  H    3.162322   1.010491   0.000000
    19  C    2.831836   1.453337   2.125672   0.000000
    20  H    2.380222   2.060423   2.968993   1.090748   0.000000
    21  H    3.675379   2.105250   2.498721   1.095376   1.783625
    22  H    3.475769   2.122126   2.546207   1.097458   1.779404
                   21         22
    21  H    0.000000
    22  H    1.783841   0.000000
 Stoichiometry    C6H12N2O2
 Framework group  C1[X(C6H12N2O2)]
 Deg. of freedom    60
 Full point group                 C1      NOp   1
 Largest Abelian subgroup         C1      NOp   1
 Largest concise Abelian subgroup C1      NOp   1
                         Standard orientation:                         
 ---------------------------------------------------------------------
 Center     Atomic      Atomic             Coordinates (Angstroms)
 Number     Number       Type             X           Y           Z
 ---------------------------------------------------------------------
      1          1           0        3.974287   -1.106481   -0.253219
      2          6           0        3.064039   -1.210899    0.339499
      3          1           0        3.312854   -1.158927    1.405318
      4          1           0        2.629146   -2.196763    0.135261
      5          6           0        2.072434   -0.136813   -0.089393
      6          8           0        2.122714    0.389369   -1.188877
      7          7           0        1.152494    0.197454    0.890795
      8          1           0        1.126637   -0.451392    1.667793
      9          6           0       -0.137941    0.822827    0.623497
     10          1           0       -0.524152    1.126950    1.606473
     11          6           0       -0.054825    2.084901   -0.251544
     12          1           0        0.257340    1.838787   -1.265150
     13          1           0       -1.032812    2.579373   -0.277299
     14          1           0        0.673499    2.782282    0.173197
     15          6           0       -1.127997   -0.215260    0.035601
     16          8           0       -0.756492   -1.189961   -0.602118
     17          7           0       -2.439575    0.028038    0.341167
     18          1           0       -2.670158    0.887507    0.819955
     19          6           0       -3.527927   -0.766590   -0.203119
     20          1           0       -3.088282   -1.666541   -0.635012
     21          1           0       -4.231182   -1.049704    0.587531
     22          1           0       -4.074084   -0.227806   -0.987872
 ---------------------------------------------------------------------
 Rotational constants (GHZ):      2.4911800      0.7645412      0.6793796

 **********************************************************************

            Population analysis using the SCF density.

 **********************************************************************

 Orbital symmetries:
       Occupied  (A) (A) (A) (A) (A) (A) (A) (A) (A) (A) (A) (A)
                 (A) (A) (A) (A) (A) (A) (A) (A) (A) (A) (A) (A)
                 (A) (A) (A) (A) (A) (A) (A) (A) (A) (A) (A) (A)
                 (A) (A) (A)
       Virtual   (A) (A) (A) (A) (A) (A) (A) (A) (A) (A) (A) (A)
                 (A) (A) (A) (A) (A) (A) (A) (A) (A) (A) (A) (A)
                 (A) (A) (A) (A) (A) (A) (A) (A) (A) (A) (A) (A)
                 (A) (A) (A) (A) (A) (A) (A) (A) (A) (A) (A) (A)
                 (A) (A) (A) (A) (A) (A) (A) (A) (A) (A) (A) (A)
                 (A) (A) (A) (A) (A) (A) (A) (A) (A) (A) (A) (A)
                 (A) (A) (A) (A) (A) (A) (A) (A) (A) (A) (A) (A)
                 (A) (A) (A) (A) (A) (A) (A) (A) (A) (A) (A) (A)
                 (A) (A) (A) (A) (A) (A) (A) (A) (A) (A) (A) (A)
                 (A) (A) (A) (A) (A) (A) (A) (A) (A) (A) (A) (A)
                 (A) (A) (A) (A) (A) (A) (A) (A) (A) (A) (A) (A)
                 (A) (A) (A)
 The electronic state is 1-A.
 Alpha  occ. eigenvalues --  -19.11344 -19.10107 -14.36687 -14.35265 -10.28504
 Alpha  occ. eigenvalues --  -10.27941 -10.24019 -10.22121 -10.18187 -10.18011
 Alpha  occ. eigenvalues --   -1.03454  -1.01869  -0.92341  -0.91620  -0.77776
 Alpha  occ. eigenvalues --   -0.72268  -0.70719  -0.64364  -0.58985  -0.56176
 Alpha  occ. eigenvalues --   -0.52749  -0.49895  -0.46692  -0.45507  -0.44762
 Alpha  occ. eigenvalues --   -0.43523  -0.42000  -0.40778  -0.40260  -0.39270
 Alpha  occ. eigenvalues --   -0.38754  -0.37541  -0.37062  -0.35267  -0.34480
 Alpha  occ. eigenvalues --   -0.26720  -0.25505  -0.24343  -0.23124
 Alpha virt. eigenvalues --    0.02032   0.04103   0.05745   0.08381   0.11757
 Alpha virt. eigenvalues --    0.13258   0.14927   0.15328   0.15799   0.15949
 Alpha virt. eigenvalues --    0.16773   0.17243   0.18701   0.19152   0.19786
 Alpha virt. eigenvalues --    0.20009   0.22765   0.25335   0.28841   0.32675
 Alpha virt. eigenvalues --    0.35253   0.38910   0.40449   0.50113   0.50852
 Alpha virt. eigenvalues --    0.52070   0.53973   0.54707   0.55816   0.56254
 Alpha virt. eigenvalues --    0.57499   0.60155   0.61099   0.63138   0.64996
 Alpha virt. eigenvalues --    0.68592   0.69671   0.70890   0.72692   0.74137
 Alpha virt. eigenvalues --    0.75036   0.76887   0.77915   0.79612   0.82800
 Alpha virt. eigenvalues --    0.85460   0.86354   0.86712   0.87721   0.88102
 Alpha virt. eigenvalues --    0.89257   0.90400   0.90886   0.91498   0.93874
 Alpha virt. eigenvalues --    0.94920   0.95125   0.95959   0.99173   1.00534
 Alpha virt. eigenvalues --    1.04748   1.07728   1.10627   1.11628   1.15042
 Alpha virt. eigenvalues --    1.19191   1.23223   1.26426   1.32412   1.33266
 Alpha virt. eigenvalues --    1.37740   1.40707   1.43875   1.47318   1.50518
 Alpha virt. eigenvalues --    1.51431   1.54593   1.62993   1.65923   1.70207
 Alpha virt. eigenvalues --    1.71273   1.74878   1.78027   1.78798   1.80836
 Alpha virt. eigenvalues --    1.83105   1.84228   1.86461   1.87967   1.92589
 Alpha virt. eigenvalues --    1.93417   1.96336   1.99531   1.99754   2.01077
 Alpha virt. eigenvalues --    2.03562   2.05783   2.09953   2.13359   2.14454
 Alpha virt. eigenvalues --    2.20219   2.23191   2.23951   2.27786   2.29332
 Alpha virt. eigenvalues --    2.31091   2.32278   2.36642   2.39141   2.40997
 Alpha virt. eigenvalues --    2.42225   2.46948   2.52391   2.56883   2.61330
 Alpha virt. eigenvalues --    2.64809   2.69680   2.70279   2.76873   2.86206
 Alpha virt. eigenvalues --    2.92756   2.99181   3.02313   3.12512   3.13543
 Alpha virt. eigenvalues --    3.90244   3.98868   4.07216   4.12948   4.21254
 Alpha virt. eigenvalues --    4.23525   4.26584   4.41696   4.48749   4.61253
          Condensed to atoms (all electrons):
              1          2          3          4          5          6
     1  H    0.515504   0.356117  -0.024350  -0.020252  -0.019486   0.004440
     2  C    0.356117   5.351041   0.343560   0.356671   0.343685  -0.077849
     3  H   -0.024350   0.343560   0.574494  -0.027192  -0.026113   0.002309
     4  H   -0.020252   0.356671  -0.027192   0.520604  -0.019183  -0.000185
     5  C   -0.019486   0.343685  -0.026113  -0.019183   4.300448   0.592656
     6  O    0.004440  -0.077849   0.002309  -0.000185   0.592656   8.050276
     7  N    0.004399  -0.128264   0.006781   0.000329   0.252210  -0.089273
     8  H   -0.000004   0.002029   0.000338   0.000297  -0.018720   0.003659
     9  C   -0.000181   0.006260   0.000386  -0.000509  -0.029505   0.002422
    10  H    0.000005  -0.000265  -0.000007  -0.000001   0.003988  -0.000005
    11  C    0.000012   0.000051  -0.000037   0.000004  -0.003759  -0.004202
    12  H    0.000001   0.000225  -0.000006  -0.000008   0.002635   0.013762
    13  H    0.000000   0.000011   0.000000   0.000000   0.000470   0.000655
    14  H   -0.000002  -0.000025   0.000002   0.000001   0.000070  -0.000525
    15  C   -0.000001  -0.000213   0.000007   0.000145   0.000163  -0.001248
    16  O    0.000007  -0.000800   0.000006   0.000765   0.013786  -0.001853
    17  N    0.000000  -0.000001   0.000000   0.000001   0.000304  -0.000012
    18  H    0.000000   0.000000   0.000000   0.000000  -0.000021   0.000000
    19  C    0.000000   0.000000   0.000000   0.000000  -0.000001   0.000000
    20  H    0.000000   0.000000   0.000000   0.000000  -0.000006   0.000000
    21  H    0.000000   0.000000   0.000000   0.000000   0.000000   0.000000
    22  H    0.000000   0.000000   0.000000   0.000000   0.000000   0.000000
              7          8          9         10         11         12
     1  H    0.004399  -0.000004  -0.000181   0.000005   0.000012   0.000001
     2  C   -0.128264   0.002029   0.006260  -0.000265   0.000051   0.000225
     3  H    0.006781   0.000338   0.000386  -0.000007  -0.000037  -0.000006
     4  H    0.000329   0.000297  -0.000509  -0.000001   0.000004  -0.000008
     5  C    0.252210  -0.018720  -0.029505   0.003988  -0.003759   0.002635
     6  O   -0.089273   0.003659   0.002422  -0.000005  -0.004202   0.013762
     7  N    7.094760   0.298243   0.278334  -0.044278  -0.041716  -0.005295
     8  H    0.298243   0.431029  -0.040324  -0.004205   0.005375  -0.000103
     9  C    0.278334  -0.040324   5.100157   0.364102   0.354037  -0.028694
    10  H   -0.044278  -0.004205   0.364102   0.629047  -0.037139   0.004886
    11  C   -0.041716   0.005375   0.354037  -0.037139   5.117991   0.372832
    12  H   -0.005295  -0.000103  -0.028694   0.004886   0.372832   0.478839
    13  H    0.003709  -0.000121  -0.033118  -0.004731   0.349344  -0.023819
    14  H   -0.000295  -0.000079  -0.026198  -0.005015   0.369343  -0.024457
    15  C   -0.051074   0.000898   0.301020  -0.050498  -0.039043  -0.003717
    16  O   -0.006081   0.001154  -0.082422   0.002446  -0.001526   0.001478
    17  N    0.002847   0.000162  -0.113229   0.005426  -0.000525   0.000125
    18  H    0.000225  -0.000013   0.002306   0.002045   0.000297  -0.000036
    19  C   -0.000137  -0.000005   0.005688  -0.000154  -0.000205  -0.000003
    20  H   -0.000005  -0.000001   0.001111  -0.000066  -0.000031  -0.000006
    21  H    0.000004   0.000000  -0.000115  -0.000006  -0.000006   0.000000
    22  H   -0.000001   0.000000  -0.000098  -0.000003   0.000049  -0.000001
             13         14         15         16         17         18
     1  H    0.000000  -0.000002  -0.000001   0.000007   0.000000   0.000000
     2  C    0.000011  -0.000025  -0.000213  -0.000800  -0.000001   0.000000
     3  H    0.000000   0.000002   0.000007   0.000006   0.000000   0.000000
     4  H    0.000000   0.000001   0.000145   0.000765   0.000001   0.000000
     5  C    0.000470   0.000070   0.000163   0.013786   0.000304  -0.000021
     6  O    0.000655  -0.000525  -0.001248  -0.001853  -0.000012   0.000000
     7  N    0.003709  -0.000295  -0.051074  -0.006081   0.002847   0.000225
     8  H   -0.000121  -0.000079   0.000898   0.001154   0.000162  -0.000013
     9  C   -0.033118  -0.026198   0.301020  -0.082422  -0.113229   0.002306
    10  H   -0.004731  -0.005015  -0.050498   0.002446   0.005426   0.002045
    11  C    0.349344   0.369343  -0.039043  -0.001526  -0.000525   0.000297
    12  H   -0.023819  -0.024457  -0.003717   0.001478   0.000125  -0.000036
    13  H    0.609688  -0.029396  -0.002835  -0.000082   0.002935   0.001690
    14  H   -0.029396   0.550462   0.004013  -0.000063  -0.000060  -0.000082
    15  C   -0.002835   0.004013   4.425081   0.606020   0.252915  -0.022519
    16  O   -0.000082  -0.000063   0.606020   8.051010  -0.096386   0.003386
    17  N    0.002935  -0.000060   0.252915  -0.096386   7.088476   0.303804
    18  H    0.001690  -0.000082  -0.022519   0.003386   0.303804   0.415622
    19  C   -0.000123   0.000007  -0.022702  -0.007635   0.267026  -0.033538
    20  H    0.000002   0.000001  -0.000981   0.020542  -0.040642   0.004248
    21  H    0.000003   0.000000   0.001819   0.000407  -0.039302  -0.000958
    22  H   -0.000013  -0.000001   0.000746   0.000540  -0.043484  -0.000874
             19         20         21         22
     1  H    0.000000   0.000000   0.000000   0.000000
     2  C    0.000000   0.000000   0.000000   0.000000
     3  H    0.000000   0.000000   0.000000   0.000000
     4  H    0.000000   0.000000   0.000000   0.000000
     5  C   -0.000001  -0.000006   0.000000   0.000000
     6  O    0.000000   0.000000   0.000000   0.000000
     7  N   -0.000137  -0.000005   0.000004  -0.000001
     8  H   -0.000005  -0.000001   0.000000   0.000000
     9  C    0.005688   0.001111  -0.000115  -0.000098
    10  H   -0.000154  -0.000066  -0.000006  -0.000003
    11  C   -0.000205  -0.000031  -0.000006   0.000049
    12  H   -0.000003  -0.000006   0.000000  -0.000001
    13  H   -0.000123   0.000002   0.000003  -0.000013
    14  H    0.000007   0.000001   0.000000  -0.000001
    15  C   -0.022702  -0.000981   0.001819   0.000746
    16  O   -0.007635   0.020542   0.000407   0.000540
    17  N    0.267026  -0.040642  -0.039302  -0.043484
    18  H   -0.033538   0.004248  -0.000958  -0.000874
    19  C    4.963156   0.376962   0.378561   0.383459
    20  H    0.376962   0.482858  -0.023129  -0.026597
    21  H    0.378561  -0.023129   0.567538  -0.040394
    22  H    0.383459  -0.026597  -0.040394   0.566422
 Mulliken atomic charges:
              1
     1  H    0.183791
     2  C   -0.552234
     3  H    0.149823
     4  H    0.188513
     5  C    0.606379
     6  O   -0.495028
     7  N   -0.575424
     8  H    0.320390
     9  C   -0.061430
    10  H    0.134429
    11  C   -0.441147
    12  H    0.211362
    13  H    0.125731
    14  H    0.162299
    15  C    0.602004
    16  O   -0.504700
    17  N   -0.590381
    18  H    0.324417
    19  C   -0.310357
    20  H    0.205740
    21  H    0.155577
    22  H    0.160248
 Sum of Mulliken atomic charges =   0.00000
 Mulliken charges with hydrogens summed into heavy atoms:
              1
     2  C   -0.030107
     5  C    0.606379
     6  O   -0.495028
     7  N   -0.255034
     9  C    0.072999
    11  C    0.058245
    15  C    0.602004
    16  O   -0.504700
    17  N   -0.265964
    19  C    0.211208
 Sum of Mulliken charges with hydrogens summed into heavy atoms =   0.00000
 Electronic spatial extent (au):  <R**2>=           1795.3324
 Charge=              0.0000 electrons
 Dipole moment (field-independent basis, Debye):
    X=             -3.0847    Y=              0.8203    Z=              4.1486  Tot=              5.2344
 Quadrupole moment (field-independent basis, Debye-Ang):
   XX=            -51.2849   YY=            -59.5114   ZZ=            -61.1093
   XY=             -5.9394   XZ=              3.6735   YZ=             -0.6745
 Traceless Quadrupole moment (field-independent basis, Debye-Ang):
   XX=              6.0170   YY=             -2.2096   ZZ=             -3.8074
   XY=             -5.9394   XZ=              3.6735   YZ=             -0.6745
 Octapole moment (field-independent basis, Debye-Ang**2):
  XXX=            -30.3510  YYY=             -0.0379  ZZZ=              5.1788  XYY=             -0.4987
  XXY=            -10.3556  XXZ=             10.2598  XZZ=             -6.1103  YZZ=             -2.1498
  YYZ=              1.4471  XYZ=             -1.6852
 Hexadecapole moment (field-independent basis, Debye-Ang**3):
 XXXX=          -1515.0095 YYYY=           -460.2450 ZZZZ=           -202.8996 XXXY=            -11.2008
 XXXZ=              4.9773 YYYX=              2.9243 YYYZ=              2.7414 ZZZX=              5.9170
 ZZZY=             -2.6113 XXYY=           -338.0030 XXZZ=           -318.3605 YYZZ=           -112.4966
 XXYZ=             11.2736 YYXZ=             -5.6479 ZZXY=             -7.3045
 N-N= 5.581701156285D+02 E-N=-2.272669275098D+03  KE= 4.912189975771D+02
 1\1\GINC-NODE007\FOpt\RB3LYP\6-31G(d)\C6H12N2O2\MANAGER\11-Feb-2017\0\
 \# b3lyp/6-31G* Opt=(ModRedundant, maxcycles=1000, calcfc) geom=nocrow
 d\\Phi Psi fixed scan\\0,1\H,0.9061970895,2.9031594381,-1.7209144679\C
 ,1.385497457,3.3563615598,-0.8516342367\H,1.3369257027,2.6638774118,-0
 .0038803966\H,0.8321863863,4.265186128,-0.5858186853\C,2.8129002548,3.
 7393114446,-1.2214443208\O,3.1522215722,3.9360044622,-2.3766209067\N,3
 .6727625194,3.8030545216,-0.1373004905\H,3.2032400757,3.7964039049,0.7
 598612797\C,4.9205806128,4.5584143199,-0.125252348\H,5.4436092653,4.24
 3554608,0.7886371388\C,5.8475330625,4.2586612902,-1.3153549204\H,5.413
 2093583,4.6126593528,-2.2488772023\H,6.8189617344,4.7406119767,-1.1551
 230134\H,6.007038678,3.1792954725,-1.3973803874\C,4.6303346178,6.07579
 59561,0.0042443602\O,3.5913466922,6.5825329571,-0.3938323521\N,5.61110
 0959,6.7792918896,0.6492192038\H,6.4661242064,6.2990076793,0.892848179
 5\C,5.5776119832,8.2266046307,0.7770957979\H,4.5698241488,8.5522563784
 ,0.5162382775\H,5.8013708634,8.5277937471,1.806204991\H,6.2927227603,8
 .7128608706,0.1013844997\\Version=EM64L-G09RevA.02\State=1-A\HF=-495.8
 402176\RMSD=5.451e-09\RMSF=5.604e-04\Dipole=1.0562484,-0.0101544,1.767
 8416\Quadrupole=4.4286571,-0.2565921,-4.172065,4.8055031,-0.2263841,-0
 .9409631\PG=C01 [X(C6H12N2O2)]\\@


 SCIENCE AT ITS BEST PROVIDES US WITH BETTER QUESTIONS, 
 NOT ABSOLUTE ANSWERS

                                    -- NORMAN COUSINS, 1976
 Job cpu time:  0 days  1 hours  6 minutes 48.5 seconds.
 File lengths (MBytes):  RWF=    186 Int=      0 D2E=      0 Chk=      4 Scr=      2
 Normal termination of Gaussian 09 at Sat Feb 11 02:43:45 2017.
