 Entering Gaussian System, Link 0=g09
 Initial command:
 /home/steboss/Software/g09/l1.exe /home/steboss/projects/phi_psi_scan/alanine/75/4663/Gau-11757.inp -scrdir=/home/steboss/projects/phi_psi_scan/alanine/75/4663/
 Entering Link 1 = /home/steboss/Software/g09/l1.exe PID=     11759.
  
 Copyright (c) 1988,1990,1992,1993,1995,1998,2003,2009, Gaussian, Inc.
                  All Rights Reserved.
  
 This is part of the Gaussian(R) 09 program.  It is based on
 the Gaussian(R) 03 system (copyright 2003, Gaussian, Inc.),
 the Gaussian(R) 98 system (copyright 1998, Gaussian, Inc.),
 the Gaussian(R) 94 system (copyright 1995, Gaussian, Inc.),
 the Gaussian 92(TM) system (copyright 1992, Gaussian, Inc.),
 the Gaussian 90(TM) system (copyright 1990, Gaussian, Inc.),
 the Gaussian 88(TM) system (copyright 1988, Gaussian, Inc.),
 the Gaussian 86(TM) system (copyright 1986, Carnegie Mellon
 University), and the Gaussian 82(TM) system (copyright 1983,
 Carnegie Mellon University). Gaussian is a federally registered
 trademark of Gaussian, Inc.
  
 This software contains proprietary and confidential information,
 including trade secrets, belonging to Gaussian, Inc.
  
 This software is provided under written license and may be
 used, copied, transmitted, or stored only in accord with that
 written license.
  
 The following legend is applicable only to US Government
 contracts under FAR:
  
                    RESTRICTED RIGHTS LEGEND
  
 Use, reproduction and disclosure by the US Government is
 subject to restrictions as set forth in subparagraphs (a)
 and (c) of the Commercial Computer Software - Restricted
 Rights clause in FAR 52.227-19.
  
 Gaussian, Inc.
 340 Quinnipiac St., Bldg. 40, Wallingford CT 06492
  
  
 ---------------------------------------------------------------
 Warning -- This program may not be used in any manner that
 competes with the business of Gaussian, Inc. or will provide
 assistance to any competitor of Gaussian, Inc.  The licensee
 of this program is prohibited from giving any competitor of
 Gaussian, Inc. access to this program.  By using this program,
 the user acknowledges that Gaussian, Inc. is engaged in the
 business of creating and licensing software in the field of
 computational chemistry and represents and warrants to the
 licensee that it is not a competitor of Gaussian, Inc. and that
 it will not use this program in any manner prohibited above.
 ---------------------------------------------------------------
  

 Cite this work as:
 Gaussian 09, Revision A.02,
 M. J. Frisch, G. W. Trucks, H. B. Schlegel, G. E. Scuseria, 
 M. A. Robb, J. R. Cheeseman, G. Scalmani, V. Barone, B. Mennucci, 
 G. A. Petersson, H. Nakatsuji, M. Caricato, X. Li, H. P. Hratchian, 
 A. F. Izmaylov, J. Bloino, G. Zheng, J. L. Sonnenberg, M. Hada, 
 M. Ehara, K. Toyota, R. Fukuda, J. Hasegawa, M. Ishida, T. Nakajima, 
 Y. Honda, O. Kitao, H. Nakai, T. Vreven, J. A. Montgomery, Jr., 
 J. E. Peralta, F. Ogliaro, M. Bearpark, J. J. Heyd, E. Brothers, 
 K. N. Kudin, V. N. Staroverov, R. Kobayashi, J. Normand, 
 K. Raghavachari, A. Rendell, J. C. Burant, S. S. Iyengar, J. Tomasi, 
 M. Cossi, N. Rega, J. M. Millam, M. Klene, J. E. Knox, J. B. Cross, 
 V. Bakken, C. Adamo, J. Jaramillo, R. Gomperts, R. E. Stratmann, 
 O. Yazyev, A. J. Austin, R. Cammi, C. Pomelli, J. W. Ochterski, 
 R. L. Martin, K. Morokuma, V. G. Zakrzewski, G. A. Voth, 
 P. Salvador, J. J. Dannenberg, S. Dapprich, A. D. Daniels, 
 O. Farkas, J. B. Foresman, J. V. Ortiz, J. Cioslowski, 
 and D. J. Fox, Gaussian, Inc., Wallingford CT, 2009.
 
 ******************************************
 Gaussian 09:  EM64L-G09RevA.02 11-Jun-2009
                11-Feb-2017 
 ******************************************
 %chk=structure_195.chk
 %NProcShared=8
 Will use up to    8 processors via shared memory.
 ----------------------------------------------------------------------
 # b3lyp/6-31G* Opt=(ModRedundant, maxcycles=1000, calcfc) geom=nocrowd
 ----------------------------------------------------------------------
 1/6=1000,10=4,14=-1,18=120,19=15,26=3,38=1/1,3;
 2/9=110,12=1,17=6,18=5,40=1/2;
 3/5=1,6=6,7=1,11=2,16=1,25=1,30=1,71=2,74=-5/1,2,3;
 4//1;
 5/5=2,38=5/2;
 8/6=4,10=90,11=11/1;
 11/6=1,8=1,9=11,15=111,16=1/1,2,10;
 10/6=1,7=6,13=1/2;
 6/7=2,8=2,9=2,10=2,28=1/1;
 7/10=1,18=20,25=1/1,2,3,16;
 1/6=1000,10=4,14=-1,18=20,19=15/3(2);
 2/9=110,12=1/2;
 99//99;
 2/9=110,12=1/2;
 3/5=1,6=6,7=1,11=2,16=1,25=1,30=1,71=1,74=-5/1,2,3;
 4/5=5,16=3/1;
 5/5=2,38=5/2;
 7//1,2,3,16;
 1/6=1000,14=-1,18=20,19=15/3(-5);
 2/9=110,12=1/2;
 6/7=2,8=2,9=2,10=2,19=2,28=1/1;
 99/9=1/99;
 ------------------
 Phi Psi fixed scan
 ------------------
 Symbolic Z-matrix:
 Charge =  0 Multiplicity = 1
 H                     0.8983    3.2194   -1.9013 
 C                     1.4447    3.2086   -0.9582 
 H                     1.6234    2.1775   -0.6531 
 H                     0.8591    3.7173   -0.1925 
 C                     2.7931    3.9187   -1.0948 
 O                     3.1338    4.4092   -2.1689 
 N                     3.5554    3.9697    0. 
 H                     3.2318    3.5516    0.8606 
 C                     4.8533    4.6139    0. 
 H                     5.4076    4.3155    0.8898 
 C                     5.6613    4.2208   -1.2322 
 H                     5.1233    4.5214   -2.1312 
 H                     6.6305    4.7189   -1.2058 
 H                     5.8085    3.1409   -1.2414 
 C                     4.7127    6.1294    0. 
 O                     3.6366    6.656     0.2741 
 N                     5.8056    6.8311   -0.3089 
 H                     6.6679    6.3528   -0.5272 
 C                     5.801     8.2797   -0.3436 
 H                     4.8071    8.6467   -0.0875 
 H                     6.5256    8.6631    0.3748 
 H                     6.0669    8.6206   -1.3442 
 
 The following ModRedundant input section has been read:
 D    5    7    9   15 F                                                       
 D    7    9   15   17 F                                                       

 GradGradGradGradGradGradGradGradGradGradGradGradGradGradGradGradGradGrad
 Berny optimization.
 Initialization pass.
                           ----------------------------
                           !    Initial Parameters    !
                           ! (Angstroms and Degrees)  !
 --------------------------                            --------------------------
 ! Name  Definition              Value          Derivative Info.                !
 --------------------------------------------------------------------------------
 ! R1    R(1,2)                  1.09           calculate D2E/DX2 analytically  !
 ! R2    R(2,3)                  1.09           calculate D2E/DX2 analytically  !
 ! R3    R(2,4)                  1.09           calculate D2E/DX2 analytically  !
 ! R4    R(2,5)                  1.5301         calculate D2E/DX2 analytically  !
 ! R5    R(5,6)                  1.229          calculate D2E/DX2 analytically  !
 ! R6    R(5,7)                  1.335          calculate D2E/DX2 analytically  !
 ! R7    R(7,8)                  1.01           calculate D2E/DX2 analytically  !
 ! R8    R(7,9)                  1.449          calculate D2E/DX2 analytically  !
 ! R9    R(9,10)                 1.09           calculate D2E/DX2 analytically  !
 ! R10   R(9,11)                 1.525          calculate D2E/DX2 analytically  !
 ! R11   R(9,15)                 1.522          calculate D2E/DX2 analytically  !
 ! R12   R(11,12)                1.09           calculate D2E/DX2 analytically  !
 ! R13   R(11,13)                1.09           calculate D2E/DX2 analytically  !
 ! R14   R(11,14)                1.0899         calculate D2E/DX2 analytically  !
 ! R15   R(15,16)                1.229          calculate D2E/DX2 analytically  !
 ! R16   R(15,17)                1.335          calculate D2E/DX2 analytically  !
 ! R17   R(17,18)                1.0099         calculate D2E/DX2 analytically  !
 ! R18   R(17,19)                1.449          calculate D2E/DX2 analytically  !
 ! R19   R(19,20)                1.09           calculate D2E/DX2 analytically  !
 ! R20   R(19,21)                1.09           calculate D2E/DX2 analytically  !
 ! R21   R(19,22)                1.09           calculate D2E/DX2 analytically  !
 ! A1    A(1,2,3)              109.4952         calculate D2E/DX2 analytically  !
 ! A2    A(1,2,4)              109.5044         calculate D2E/DX2 analytically  !
 ! A3    A(1,2,5)              111.0955         calculate D2E/DX2 analytically  !
 ! A4    A(3,2,4)              109.4467         calculate D2E/DX2 analytically  !
 ! A5    A(3,2,5)              108.6338         calculate D2E/DX2 analytically  !
 ! A6    A(4,2,5)              108.6385         calculate D2E/DX2 analytically  !
 ! A7    A(2,5,6)              120.5019         calculate D2E/DX2 analytically  !
 ! A8    A(2,5,7)              116.5977         calculate D2E/DX2 analytically  !
 ! A9    A(6,5,7)              122.9003         calculate D2E/DX2 analytically  !
 ! A10   A(5,7,8)              119.9988         calculate D2E/DX2 analytically  !
 ! A11   A(5,7,9)              121.9007         calculate D2E/DX2 analytically  !
 ! A12   A(8,7,9)              118.1005         calculate D2E/DX2 analytically  !
 ! A13   A(7,9,10)             109.5            calculate D2E/DX2 analytically  !
 ! A14   A(7,9,11)             111.0992         calculate D2E/DX2 analytically  !
 ! A15   A(7,9,15)             111.0966         calculate D2E/DX2 analytically  !
 ! A16   A(10,9,11)            108.6382         calculate D2E/DX2 analytically  !
 ! A17   A(10,9,15)            108.6373         calculate D2E/DX2 analytically  !
 ! A18   A(11,9,15)            107.7947         calculate D2E/DX2 analytically  !
 ! A19   A(9,11,12)            109.5007         calculate D2E/DX2 analytically  !
 ! A20   A(9,11,13)            109.4959         calculate D2E/DX2 analytically  !
 ! A21   A(9,11,14)            109.4978         calculate D2E/DX2 analytically  !
 ! A22   A(12,11,13)           109.441          calculate D2E/DX2 analytically  !
 ! A23   A(12,11,14)           109.4482         calculate D2E/DX2 analytically  !
 ! A24   A(13,11,14)           109.4436         calculate D2E/DX2 analytically  !
 ! A25   A(9,15,16)            120.4997         calculate D2E/DX2 analytically  !
 ! A26   A(9,15,17)            116.599          calculate D2E/DX2 analytically  !
 ! A27   A(16,15,17)           122.9013         calculate D2E/DX2 analytically  !
 ! A28   A(15,17,18)           120.0038         calculate D2E/DX2 analytically  !
 ! A29   A(15,17,19)           121.8978         calculate D2E/DX2 analytically  !
 ! A30   A(18,17,19)           118.0984         calculate D2E/DX2 analytically  !
 ! A31   A(17,19,20)           109.5036         calculate D2E/DX2 analytically  !
 ! A32   A(17,19,21)           109.496          calculate D2E/DX2 analytically  !
 ! A33   A(17,19,22)           109.5037         calculate D2E/DX2 analytically  !
 ! A34   A(20,19,21)           109.443          calculate D2E/DX2 analytically  !
 ! A35   A(20,19,22)           109.4397         calculate D2E/DX2 analytically  !
 ! A36   A(21,19,22)           109.4414         calculate D2E/DX2 analytically  !
 ! D1    D(1,2,5,6)              0.0109         calculate D2E/DX2 analytically  !
 ! D2    D(1,2,5,7)            179.9999         calculate D2E/DX2 analytically  !
 ! D3    D(3,2,5,6)            120.513          calculate D2E/DX2 analytically  !
 ! D4    D(3,2,5,7)            -59.498          calculate D2E/DX2 analytically  !
 ! D5    D(4,2,5,6)           -120.5056         calculate D2E/DX2 analytically  !
 ! D6    D(4,2,5,7)             59.4834         calculate D2E/DX2 analytically  !
 ! D7    D(2,5,7,8)              0.0091         calculate D2E/DX2 analytically  !
 ! D8    D(2,5,7,9)           -179.9996         calculate D2E/DX2 analytically  !
 ! D9    D(6,5,7,8)            179.9978         calculate D2E/DX2 analytically  !
 ! D10   D(6,5,7,9)             -0.0109         calculate D2E/DX2 analytically  !
 ! D11   D(5,7,9,10)          -164.9942         calculate D2E/DX2 analytically  !
 ! D12   D(5,7,9,11)           -44.9916         calculate D2E/DX2 analytically  !
 ! D13   D(5,7,9,15)            75.006          frozen, calculate D2E/DX2 analyt!
 ! D14   D(8,7,9,10)            14.9973         calculate D2E/DX2 analytically  !
 ! D15   D(8,7,9,11)           134.9999         calculate D2E/DX2 analytically  !
 ! D16   D(8,7,9,15)          -105.0025         calculate D2E/DX2 analytically  !
 ! D17   D(7,9,11,12)           60.0024         calculate D2E/DX2 analytically  !
 ! D18   D(7,9,11,13)          179.9986         calculate D2E/DX2 analytically  !
 ! D19   D(7,9,11,14)          -60.0038         calculate D2E/DX2 analytically  !
 ! D20   D(10,9,11,12)        -179.4843         calculate D2E/DX2 analytically  !
 ! D21   D(10,9,11,13)         -59.4881         calculate D2E/DX2 analytically  !
 ! D22   D(10,9,11,14)          60.5095         calculate D2E/DX2 analytically  !
 ! D23   D(15,9,11,12)         -61.938          calculate D2E/DX2 analytically  !
 ! D24   D(15,9,11,13)          58.0582         calculate D2E/DX2 analytically  !
 ! D25   D(15,9,11,14)         178.0558         calculate D2E/DX2 analytically  !
 ! D26   D(7,9,15,16)           15.0014         calculate D2E/DX2 analytically  !
 ! D27   D(7,9,15,17)         -165.0027         frozen, calculate D2E/DX2 analyt!
 ! D28   D(10,9,15,16)        -105.5096         calculate D2E/DX2 analytically  !
 ! D29   D(10,9,15,17)          74.4862         calculate D2E/DX2 analytically  !
 ! D30   D(11,9,15,16)         136.9435         calculate D2E/DX2 analytically  !
 ! D31   D(11,9,15,17)         -43.0607         calculate D2E/DX2 analytically  !
 ! D32   D(9,15,17,18)           0.0073         calculate D2E/DX2 analytically  !
 ! D33   D(9,15,17,19)         179.9965         calculate D2E/DX2 analytically  !
 ! D34   D(16,15,17,18)       -179.9969         calculate D2E/DX2 analytically  !
 ! D35   D(16,15,17,19)         -0.0077         calculate D2E/DX2 analytically  !
 ! D36   D(15,17,19,20)          0.0059         calculate D2E/DX2 analytically  !
 ! D37   D(15,17,19,21)        120.0063         calculate D2E/DX2 analytically  !
 ! D38   D(15,17,19,22)       -119.9951         calculate D2E/DX2 analytically  !
 ! D39   D(18,17,19,20)        179.9953         calculate D2E/DX2 analytically  !
 ! D40   D(18,17,19,21)        -60.0043         calculate D2E/DX2 analytically  !
 ! D41   D(18,17,19,22)         59.9943         calculate D2E/DX2 analytically  !
 --------------------------------------------------------------------------------
 Trust Radius=3.00D-01 FncErr=1.00D-07 GrdErr=1.00D-06
 Number of steps in this run= 132 maximum allowed number of steps= 132.
 GradGradGradGradGradGradGradGradGradGradGradGradGradGradGradGradGradGrad

                          Input orientation:                          
 ---------------------------------------------------------------------
 Center     Atomic      Atomic             Coordinates (Angstroms)
 Number     Number       Type             X           Y           Z
 ---------------------------------------------------------------------
      1          1           0        0.898300    3.219400   -1.901300
      2          6           0        1.444700    3.208600   -0.958200
      3          1           0        1.623400    2.177500   -0.653100
      4          1           0        0.859100    3.717300   -0.192500
      5          6           0        2.793100    3.918700   -1.094800
      6          8           0        3.133800    4.409200   -2.168900
      7          7           0        3.555400    3.969700    0.000000
      8          1           0        3.231800    3.551600    0.860600
      9          6           0        4.853300    4.613900    0.000000
     10          1           0        5.407600    4.315500    0.889800
     11          6           0        5.661300    4.220800   -1.232200
     12          1           0        5.123300    4.521400   -2.131200
     13          1           0        6.630500    4.718900   -1.205800
     14          1           0        5.808500    3.140900   -1.241400
     15          6           0        4.712700    6.129400    0.000000
     16          8           0        3.636600    6.656000    0.274100
     17          7           0        5.805600    6.831100   -0.308900
     18          1           0        6.667900    6.352800   -0.527200
     19          6           0        5.801000    8.279700   -0.343600
     20          1           0        4.807100    8.646700   -0.087500
     21          1           0        6.525600    8.663100    0.374800
     22          1           0        6.066900    8.620600   -1.344200
 ---------------------------------------------------------------------
                    Distance matrix (angstroms):
                    1          2          3          4          5
     1  H    0.000000
     2  C    1.090003   0.000000
     3  H    1.780261   1.090040   0.000000
     4  H    1.780292   1.089954   1.779688   0.000000
     5  C    2.174794   1.530060   2.143612   2.143610   0.000000
     6  O    2.546506   2.400061   3.091835   3.091786   1.228966
     7  N    3.352323   2.439769   2.714985   2.714921   1.335024
     8  H    3.630932   2.572821   2.601228   2.601188   2.037353
     9  C    4.604519   3.809405   4.098151   4.098119   2.434402
    10  H    5.415299   4.510533   4.612131   4.713605   3.306312
    11  C    4.912908   4.345036   4.562353   4.939192   2.887337
    12  H    4.427040   4.078170   4.464073   4.752740   2.620535
    13  H    5.965764   5.406925   5.642273   5.944665   3.921515
    14  H    4.954967   4.373504   4.334662   5.092052   3.117547
    15  C    5.160687   4.486540   5.058441   4.550331   3.125803
    16  O    4.903149   4.267031   4.996963   4.070403   3.174617
    17  N    6.297754   5.706272   6.266200   5.846124   4.263199
    18  H    6.707804   6.111757   6.549501   6.387491   4.610975
    19  C    7.215922   6.713504   7.401687   6.727607   5.350709
    20  H    6.929948   6.452657   7.232316   6.316385   5.236872
    21  H    8.153589   7.572582   8.194581   7.542678   6.212939
    22  H    7.496516   7.127655   7.857216   7.244994   5.734791
                    6          7          8          9         10
     6  O    0.000000
     7  N    2.252784   0.000000
     8  H    3.150072   1.010028   0.000000
     9  C    2.775376   1.448978   2.120938   0.000000
    10  H    3.812426   2.083739   2.306188   1.089970   0.000000
    11  C    2.702065   2.452791   3.275685   1.525027   2.139209
    12  H    1.993018   2.702720   3.670034   2.150225   3.041326
    13  H    3.640108   3.386959   4.145330   2.150214   2.459625
    14  H    3.102074   2.702673   3.350591   2.150165   2.466256
    15  C    3.186870   2.450234   3.094956   1.522008   2.136554
    16  O    3.356958   2.701468   3.185144   2.392836   2.998911
    17  N    4.057550   3.653277   4.329815   2.432750   2.814876
    18  H    4.354609   3.955346   4.645373   2.567973   2.783314
    19  C    5.042464   4.872051   5.514147   3.801879   4.170242
    20  H    5.008849   4.842390   5.416688   4.034014   4.480514
    21  H    6.005862   5.566917   6.100209   4.396940   4.518493
    22  H    5.197990   5.453932   6.212382   4.396970   4.894826
                   11         12         13         14         15
    11  C    0.000000
    12  H    1.089957   0.000000
    13  H    1.090023   1.779613   0.000000
    14  H    1.089925   1.779613   1.779617   0.000000
    15  C    2.461892   2.701161   2.668599   3.416575   0.000000
    16  O    3.506929   3.542917   3.860816   4.401116   1.228995
    17  N    2.772539   3.020103   2.438499   3.806198   1.335003
    18  H    2.460832   2.883163   1.769612   3.400728   2.037315
    19  C    4.157378   4.216587   3.756429   5.216643   2.434389
    20  H    4.650654   4.614628   4.472471   5.713853   2.520589
    21  H    4.802447   5.039857   4.250413   5.798364   3.137948
    22  H    4.419875   4.279391   3.944624   5.486752   3.137963
                   16         17         18         19         20
    16  O    0.000000
    17  N    2.252800   0.000000
    18  H    3.150046   1.009944   0.000000
    19  C    2.775353   1.449023   2.120889   0.000000
    20  H    2.337458   2.083848   2.986284   1.090006   0.000000
    21  H    3.519220   2.083763   2.484218   1.090018   1.779672
    22  H    3.519220   2.083851   2.484272   1.090007   1.779627
                   21         22
    21  H    0.000000
    22  H    1.779655   0.000000
 Stoichiometry    C6H12N2O2
 Framework group  C1[X(C6H12N2O2)]
 Deg. of freedom    60
 Full point group                 C1      NOp   1
 Largest Abelian subgroup         C1      NOp   1
 Largest concise Abelian subgroup C1      NOp   1
                         Standard orientation:                         
 ---------------------------------------------------------------------
 Center     Atomic      Atomic             Coordinates (Angstroms)
 Number     Number       Type             X           Y           Z
 ---------------------------------------------------------------------
      1          1           0       -3.810078   -0.947103    1.010203
      2          6           0       -3.319738   -0.777105    0.051675
      3          1           0       -3.932710   -0.113025   -0.557791
      4          1           0       -3.191059   -1.728152   -0.464998
      5          6           0       -1.944393   -0.134516    0.242964
      6          8           0       -1.526973    0.121826    1.370088
      7          7           0       -1.245481    0.122656   -0.865040
      8          1           0       -1.631199   -0.106409   -1.769976
      9          6           0        0.069541    0.729269   -0.817346
     10          1           0        0.340228    1.089581   -1.809787
     11          6           0        0.096506    1.905890    0.152471
     12          1           0       -0.163548    1.559139    1.152541
     13          1           0        1.095478    2.341738    0.167953
     14          1           0       -0.622921    2.658881   -0.169037
     15          6           0        1.119344   -0.273806   -0.360989
     16          8           0        0.870037   -1.477218   -0.352285
     17          7           0        2.297686    0.225412    0.019174
     18          1           0        2.455311    1.222675   -0.005474
     19          6           0        3.378727   -0.625353    0.474386
     20          1           0        3.059149   -1.667040    0.444879
     21          1           0        4.244110   -0.492786   -0.174980
     22          1           0        3.647370   -0.357115    1.496147
 ---------------------------------------------------------------------
 Rotational constants (GHZ):      2.6401544      0.7964405      0.7314708
 Standard basis: 6-31G(d) (6D, 7F)
 There are   174 symmetry adapted basis functions of A   symmetry.
 Integral buffers will be    131072 words long.
 Raffenetti 2 integral format.
 Two-electron integral symmetry is turned on.
   174 basis functions,   328 primitive gaussians,   174 cartesian basis functions
    39 alpha electrons       39 beta electrons
       nuclear repulsion energy       569.0114651352 Hartrees.
 NAtoms=   22 NActive=   22 NUniq=   22 SFac= 7.50D-01 NAtFMM=   80 NAOKFM=F Big=F
 One-electron integrals computed using PRISM.
 NBasis=   174 RedAO= T  NBF=   174
 NBsUse=   174 1.00D-06 NBFU=   174
 Harris functional with IExCor=  402 diagonalized for initial guess.
 ExpMin= 1.61D-01 ExpMax= 5.48D+03 ExpMxC= 8.25D+02 IAcc=1 IRadAn=         1 AccDes= 0.00D+00
 HarFok:  IExCor=  402 AccDes= 0.00D+00 IRadAn=         1 IDoV= 1
 ScaDFX=  1.000000  1.000000  1.000000  1.000000
 FoFCou: FMM=F IPFlag=           0 FMFlag=      100000 FMFlg1=           0
         NFxFlg=           0 DoJE=T BraDBF=F KetDBF=T FulRan=T
         Omega=  0.000000  0.000000  1.000000  0.000000  0.000000 ICntrl=     500 IOpCl=  0
         NMat0=    1 NMatS0=    1 NMatT0=    0 NMatD0=    1 NMtDS0=    0 NMtDT0=    0
         I1Cent=           4 NGrid=           0.
 Petite list used in FoFCou.
 Initial guess orbital symmetries:
       Occupied  (A) (A) (A) (A) (A) (A) (A) (A) (A) (A) (A) (A)
                 (A) (A) (A) (A) (A) (A) (A) (A) (A) (A) (A) (A)
                 (A) (A) (A) (A) (A) (A) (A) (A) (A) (A) (A) (A)
                 (A) (A) (A)
       Virtual   (A) (A) (A) (A) (A) (A) (A) (A) (A) (A) (A) (A)
                 (A) (A) (A) (A) (A) (A) (A) (A) (A) (A) (A) (A)
                 (A) (A) (A) (A) (A) (A) (A) (A) (A) (A) (A) (A)
                 (A) (A) (A) (A) (A) (A) (A) (A) (A) (A) (A) (A)
                 (A) (A) (A) (A) (A) (A) (A) (A) (A) (A) (A) (A)
                 (A) (A) (A) (A) (A) (A) (A) (A) (A) (A) (A) (A)
                 (A) (A) (A) (A) (A) (A) (A) (A) (A) (A) (A) (A)
                 (A) (A) (A) (A) (A) (A) (A) (A) (A) (A) (A) (A)
                 (A) (A) (A) (A) (A) (A) (A) (A) (A) (A) (A) (A)
                 (A) (A) (A) (A) (A) (A) (A) (A) (A) (A) (A) (A)
                 (A) (A) (A) (A) (A) (A) (A) (A) (A) (A) (A) (A)
                 (A) (A) (A)
 The electronic state of the initial guess is 1-A.
 Requested convergence on RMS density matrix=1.00D-08 within 128 cycles.
 Requested convergence on MAX density matrix=1.00D-06.
 Requested convergence on             energy=1.00D-06.
 No special actions if energy rises.
 Integral accuracy reduced to 1.0D-05 until final iterations.
 Initial convergence to 1.0D-05 achieved.  Increase integral accuracy.
 SCF Done:  E(RB3LYP) =  -495.828297356     A.U. after   15 cycles
             Convg  =    0.6805D-08             -V/T =  2.0086
 Range of M.O.s used for correlation:     1   174
 NBasis=   174 NAE=    39 NBE=    39 NFC=     0 NFV=     0
 NROrb=    174 NOA=    39 NOB=    39 NVA=   135 NVB=   135
 Symmetrizing basis deriv contribution to polar:
 IMax=3 JMax=2 DiffMx= 0.00D+00
 G2DrvN: will do    23 centers at a time, making    1 passes doing MaxLOS=2.
 Calling FoFCou, ICntrl=  3107 FMM=F I1Cent=   0 AccDes= 0.00D+00.
 FoFDir/FoFCou used for L=0 through L=2.
 End of G2Drv Frequency-dependent properties file   721 does not exist.
 End of G2Drv Frequency-dependent properties file   722 does not exist.
          IDoAtm=1111111111111111111111
          Differentiating once with respect to nuclear coordinates.
          There are    69 degrees of freedom in the 1st order CPHF.  IDoFFX=5.
     63 vectors produced by pass  0 Test12= 7.63D-11 1.45D-07 XBig12= 2.07D-01 9.39D-02.
 AX will form    63 AO Fock derivatives at one time.
     63 vectors produced by pass  1 Test12= 7.63D-11 1.45D-07 XBig12= 6.71D-02 1.02D-01.
     63 vectors produced by pass  2 Test12= 7.63D-11 1.45D-07 XBig12= 3.83D-05 1.16D-03.
     63 vectors produced by pass  3 Test12= 7.63D-11 1.45D-07 XBig12= 1.44D-07 5.70D-05.
     29 vectors produced by pass  4 Test12= 7.63D-11 1.45D-07 XBig12= 1.84D-10 1.42D-06.
 Inverted reduced A of dimension   281 with in-core refinement.
 End of Minotr Frequency-dependent properties file   721 does not exist.
 End of Minotr Frequency-dependent properties file   722 does not exist.

 **********************************************************************

            Population analysis using the SCF density.

 **********************************************************************

 Orbital symmetries:
       Occupied  (A) (A) (A) (A) (A) (A) (A) (A) (A) (A) (A) (A)
                 (A) (A) (A) (A) (A) (A) (A) (A) (A) (A) (A) (A)
                 (A) (A) (A) (A) (A) (A) (A) (A) (A) (A) (A) (A)
                 (A) (A) (A)
       Virtual   (A) (A) (A) (A) (A) (A) (A) (A) (A) (A) (A) (A)
                 (A) (A) (A) (A) (A) (A) (A) (A) (A) (A) (A) (A)
                 (A) (A) (A) (A) (A) (A) (A) (A) (A) (A) (A) (A)
                 (A) (A) (A) (A) (A) (A) (A) (A) (A) (A) (A) (A)
                 (A) (A) (A) (A) (A) (A) (A) (A) (A) (A) (A) (A)
                 (A) (A) (A) (A) (A) (A) (A) (A) (A) (A) (A) (A)
                 (A) (A) (A) (A) (A) (A) (A) (A) (A) (A) (A) (A)
                 (A) (A) (A) (A) (A) (A) (A) (A) (A) (A) (A) (A)
                 (A) (A) (A) (A) (A) (A) (A) (A) (A) (A) (A) (A)
                 (A) (A) (A) (A) (A) (A) (A) (A) (A) (A) (A) (A)
                 (A) (A) (A) (A) (A) (A) (A) (A) (A) (A) (A) (A)
                 (A) (A) (A)
 The electronic state is 1-A.
 Alpha  occ. eigenvalues --  -19.09583 -19.09549 -14.35872 -14.35827 -10.27705
 Alpha  occ. eigenvalues --  -10.27210 -10.23506 -10.21319 -10.18252 -10.17197
 Alpha  occ. eigenvalues --   -1.02941  -1.01651  -0.92297  -0.92041  -0.78567
 Alpha  occ. eigenvalues --   -0.72564  -0.70078  -0.64985  -0.59525  -0.57550
 Alpha  occ. eigenvalues --   -0.53401  -0.50650  -0.45847  -0.45273  -0.44644
 Alpha  occ. eigenvalues --   -0.44014  -0.41847  -0.41194  -0.39717  -0.39090
 Alpha  occ. eigenvalues --   -0.38367  -0.37597  -0.37408  -0.34982  -0.33994
 Alpha  occ. eigenvalues --   -0.25248  -0.24631  -0.23600  -0.22936
 Alpha virt. eigenvalues --    0.03670   0.04131   0.06392   0.08326   0.12283
 Alpha virt. eigenvalues --    0.12809   0.13795   0.16294   0.16852   0.16973
 Alpha virt. eigenvalues --    0.17078   0.18091   0.18369   0.19781   0.20839
 Alpha virt. eigenvalues --    0.22338   0.25454   0.25893   0.30170   0.33045
 Alpha virt. eigenvalues --    0.37878   0.41181   0.42649   0.49863   0.51160
 Alpha virt. eigenvalues --    0.52374   0.54677   0.55374   0.55748   0.56621
 Alpha virt. eigenvalues --    0.57659   0.58393   0.61057   0.64630   0.65893
 Alpha virt. eigenvalues --    0.67156   0.70986   0.71943   0.72334   0.74260
 Alpha virt. eigenvalues --    0.76049   0.78252   0.79395   0.81901   0.83008
 Alpha virt. eigenvalues --    0.85992   0.86312   0.87092   0.88508   0.89305
 Alpha virt. eigenvalues --    0.90420   0.90742   0.90808   0.91930   0.95220
 Alpha virt. eigenvalues --    0.95726   0.96574   0.98555   0.99652   1.04226
 Alpha virt. eigenvalues --    1.05717   1.08309   1.11055   1.15029   1.15668
 Alpha virt. eigenvalues --    1.22896   1.28434   1.29996   1.32485   1.36160
 Alpha virt. eigenvalues --    1.38499   1.39428   1.40194   1.46844   1.48924
 Alpha virt. eigenvalues --    1.52714   1.56046   1.62821   1.66930   1.70596
 Alpha virt. eigenvalues --    1.74800   1.77281   1.80434   1.81429   1.83306
 Alpha virt. eigenvalues --    1.84137   1.86843   1.87877   1.89307   1.92785
 Alpha virt. eigenvalues --    1.94736   1.96265   1.98832   2.02621   2.03884
 Alpha virt. eigenvalues --    2.05509   2.07282   2.11430   2.15067   2.17305
 Alpha virt. eigenvalues --    2.20402   2.23753   2.26557   2.27955   2.30635
 Alpha virt. eigenvalues --    2.31455   2.32310   2.36138   2.41958   2.43700
 Alpha virt. eigenvalues --    2.45826   2.47356   2.55009   2.60760   2.63208
 Alpha virt. eigenvalues --    2.66704   2.68794   2.71693   2.77009   2.89934
 Alpha virt. eigenvalues --    2.94039   2.99807   3.03735   3.17051   3.20438
 Alpha virt. eigenvalues --    3.92797   4.04004   4.07659   4.13562   4.23614
 Alpha virt. eigenvalues --    4.26667   4.30411   4.40439   4.50295   4.65777
          Condensed to atoms (all electrons):
              1          2          3          4          5          6
     1  H    0.501654   0.360539  -0.021727  -0.020429  -0.017664   0.005158
     2  C    0.360539   5.337221   0.347495   0.352223   0.352771  -0.077204
     3  H   -0.021727   0.347495   0.564056  -0.027324  -0.026396   0.001321
     4  H   -0.020429   0.352223  -0.027324   0.541161  -0.024939   0.001090
     5  C   -0.017664   0.352771  -0.026396  -0.024939   4.322708   0.581298
     6  O    0.005158  -0.077204   0.001321   0.001090   0.581298   8.103099
     7  N    0.004495  -0.135174   0.004848   0.004180   0.245758  -0.101290
     8  H   -0.000150   0.000305   0.000787   0.000766  -0.017974   0.003885
     9  C   -0.000143   0.006478  -0.000013  -0.000246  -0.039206   0.004532
    10  H    0.000002  -0.000187   0.000005  -0.000005   0.005210   0.000261
    11  C    0.000015  -0.000718  -0.000009   0.000021  -0.005881  -0.031550
    12  H    0.000002   0.000815  -0.000038  -0.000018   0.000740   0.029042
    13  H    0.000000   0.000016  -0.000002   0.000000   0.000875   0.001392
    14  H    0.000000  -0.000031   0.000009  -0.000002   0.000523  -0.000458
    15  C    0.000001  -0.000128   0.000014  -0.000011   0.003297   0.003957
    16  O    0.000001  -0.000224   0.000001   0.000150   0.008513  -0.001840
    17  N    0.000000  -0.000005   0.000000   0.000000   0.000156  -0.000302
    18  H    0.000000   0.000000   0.000000   0.000000  -0.000037  -0.000002
    19  C    0.000000   0.000000   0.000000   0.000000  -0.000007   0.000005
    20  H    0.000000   0.000000   0.000000   0.000000  -0.000008   0.000000
    21  H    0.000000   0.000000   0.000000   0.000000   0.000000   0.000000
    22  H    0.000000   0.000000   0.000000   0.000000   0.000001   0.000000
              7          8          9         10         11         12
     1  H    0.004495  -0.000150  -0.000143   0.000002   0.000015   0.000002
     2  C   -0.135174   0.000305   0.006478  -0.000187  -0.000718   0.000815
     3  H    0.004848   0.000787  -0.000013   0.000005  -0.000009  -0.000038
     4  H    0.004180   0.000766  -0.000246  -0.000005   0.000021  -0.000018
     5  C    0.245758  -0.017974  -0.039206   0.005210  -0.005881   0.000740
     6  O   -0.101290   0.003885   0.004532   0.000261  -0.031550   0.029042
     7  N    7.097417   0.307133   0.280443  -0.033871  -0.050269  -0.008718
     8  H    0.307133   0.408599  -0.032144  -0.004632   0.004629  -0.000160
     9  C    0.280443  -0.032144   5.149149   0.365932   0.346708  -0.029410
    10  H   -0.033871  -0.004632   0.365932   0.585210  -0.039641   0.004615
    11  C   -0.050269   0.004629   0.346708  -0.039641   5.229089   0.364571
    12  H   -0.008718  -0.000160  -0.029410   0.004615   0.364571   0.451384
    13  H    0.004223  -0.000134  -0.035241  -0.002355   0.340906  -0.022045
    14  H    0.000491   0.000078  -0.029802  -0.004835   0.359493  -0.023243
    15  C   -0.066025   0.001987   0.298327  -0.033575  -0.057648  -0.002758
    16  O   -0.000223   0.000502  -0.092766   0.000728   0.001104   0.000287
    17  N    0.003131  -0.000054  -0.132463   0.001045   0.006908  -0.000251
    18  H    0.000152  -0.000006   0.001874   0.000369   0.000301  -0.000178
    19  C   -0.000113   0.000002   0.006367  -0.000298   0.000092  -0.000156
    20  H   -0.000008   0.000000   0.001305  -0.000031  -0.000091  -0.000008
    21  H    0.000000   0.000000  -0.000259   0.000029   0.000025   0.000002
    22  H    0.000004   0.000000   0.000039  -0.000004  -0.000080   0.000012
             13         14         15         16         17         18
     1  H    0.000000   0.000000   0.000001   0.000001   0.000000   0.000000
     2  C    0.000016  -0.000031  -0.000128  -0.000224  -0.000005   0.000000
     3  H   -0.000002   0.000009   0.000014   0.000001   0.000000   0.000000
     4  H    0.000000  -0.000002  -0.000011   0.000150   0.000000   0.000000
     5  C    0.000875   0.000523   0.003297   0.008513   0.000156  -0.000037
     6  O    0.001392  -0.000458   0.003957  -0.001840  -0.000302  -0.000002
     7  N    0.004223   0.000491  -0.066025  -0.000223   0.003131   0.000152
     8  H   -0.000134   0.000078   0.001987   0.000502  -0.000054  -0.000006
     9  C   -0.035241  -0.029802   0.298327  -0.092766  -0.132463   0.001874
    10  H   -0.002355  -0.004835  -0.033575   0.000728   0.001045   0.000369
    11  C    0.340906   0.359493  -0.057648   0.001104   0.006908   0.000301
    12  H   -0.022045  -0.023243  -0.002758   0.000287  -0.000251  -0.000178
    13  H    0.627049  -0.025280  -0.009685  -0.000062  -0.002498   0.011280
    14  H   -0.025280   0.574162   0.004723  -0.000096   0.000394  -0.000380
    15  C   -0.009685   0.004723   4.386460   0.611243   0.265212  -0.021612
    16  O   -0.000062  -0.000096   0.611243   8.088106  -0.100636   0.003855
    17  N   -0.002498   0.000394   0.265212  -0.100636   7.111923   0.296159
    18  H    0.011280  -0.000380  -0.021612   0.003855   0.296159   0.409327
    19  C    0.000459   0.000004  -0.026914  -0.010350   0.268232  -0.030779
    20  H   -0.000011   0.000001  -0.000201   0.022617  -0.037723   0.003724
    21  H   -0.000027   0.000001   0.001615   0.000612  -0.044044  -0.001533
    22  H    0.000024  -0.000003   0.001516   0.000608  -0.044865   0.000096
             19         20         21         22
     1  H    0.000000   0.000000   0.000000   0.000000
     2  C    0.000000   0.000000   0.000000   0.000000
     3  H    0.000000   0.000000   0.000000   0.000000
     4  H    0.000000   0.000000   0.000000   0.000000
     5  C   -0.000007  -0.000008   0.000000   0.000001
     6  O    0.000005   0.000000   0.000000   0.000000
     7  N   -0.000113  -0.000008   0.000000   0.000004
     8  H    0.000002   0.000000   0.000000   0.000000
     9  C    0.006367   0.001305  -0.000259   0.000039
    10  H   -0.000298  -0.000031   0.000029  -0.000004
    11  C    0.000092  -0.000091   0.000025  -0.000080
    12  H   -0.000156  -0.000008   0.000002   0.000012
    13  H    0.000459  -0.000011  -0.000027   0.000024
    14  H    0.000004   0.000001   0.000001  -0.000003
    15  C   -0.026914  -0.000201   0.001615   0.001516
    16  O   -0.010350   0.022617   0.000612   0.000608
    17  N    0.268232  -0.037723  -0.044044  -0.044865
    18  H   -0.030779   0.003724  -0.001533   0.000096
    19  C    4.963590   0.375548   0.381050   0.383918
    20  H    0.375548   0.472686  -0.024037  -0.024015
    21  H    0.381050  -0.024037   0.573199  -0.039544
    22  H    0.383918  -0.024015  -0.039544   0.561687
 Mulliken atomic charges:
              1
     1  H    0.188247
     2  C   -0.544192
     3  H    0.156972
     4  H    0.173382
     5  C    0.610261
     6  O   -0.522394
     7  N   -0.556582
     8  H    0.326581
     9  C   -0.069464
    10  H    0.156027
    11  C   -0.467976
    12  H    0.235514
    13  H    0.111116
    14  H    0.144251
    15  C    0.640203
    16  O   -0.532130
    17  N   -0.590320
    18  H    0.327391
    19  C   -0.310653
    20  H    0.210249
    21  H    0.152911
    22  H    0.160606
 Sum of Mulliken atomic charges =   0.00000
 Mulliken charges with hydrogens summed into heavy atoms:
              1
     2  C   -0.025591
     5  C    0.610261
     6  O   -0.522394
     7  N   -0.230001
     9  C    0.086563
    11  C    0.022904
    15  C    0.640203
    16  O   -0.532130
    17  N   -0.262929
    19  C    0.213114
 Sum of Mulliken charges with hydrogens summed into heavy atoms =   0.00000
 APT atomic charges:
              1
     1  H    0.598550
     2  C   -1.256381
     3  H    0.486962
     4  H    0.355147
     5  C    0.198716
     6  O   -0.400254
     7  N   -0.771118
     8  H    0.686660
     9  C   -0.456052
    10  H    0.478682
    11  C   -1.130828
    12  H    0.306375
    13  H    0.377757
    14  H    0.471315
    15  C    0.049319
    16  O   -0.287922
    17  N   -0.430751
    18  H    0.574513
    19  C   -1.335654
    20  H    0.359935
    21  H    0.636355
    22  H    0.488676
 Sum of APT charges=   0.00000
 APT Atomic charges with hydrogens summed into heavy atoms:
              1
     1  H    0.000000
     2  C    0.184277
     3  H    0.000000
     4  H    0.000000
     5  C    0.198716
     6  O   -0.400254
     7  N   -0.084458
     8  H    0.000000
     9  C    0.022630
    10  H    0.000000
    11  C    0.024618
    12  H    0.000000
    13  H    0.000000
    14  H    0.000000
    15  C    0.049319
    16  O   -0.287922
    17  N    0.143762
    18  H    0.000000
    19  C    0.149311
    20  H    0.000000
    21  H    0.000000
    22  H    0.000000
 Sum of APT charges=   0.00000
 Electronic spatial extent (au):  <R**2>=           1706.6192
 Charge=              0.0000 electrons
 Dipole moment (field-independent basis, Debye):
    X=              1.0585    Y=              2.5966    Z=             -3.0976  Tot=              4.1782
 Quadrupole moment (field-independent basis, Debye-Ang):
   XX=            -47.0389   YY=            -62.1247   ZZ=            -60.0577
   XY=              4.6973   XZ=              6.4484   YZ=             -1.9075
 Traceless Quadrupole moment (field-independent basis, Debye-Ang):
   XX=              9.3682   YY=             -5.7176   ZZ=             -3.6506
   XY=              4.6973   XZ=              6.4484   YZ=             -1.9075
 Octapole moment (field-independent basis, Debye-Ang**2):
  XXX=             12.3035  YYY=              1.9526  ZZZ=            -11.8486  XYY=              0.4398
  XXY=             -3.7110  XXZ=             -2.3692  XZZ=              1.3899  YZZ=             -1.5039
  YYZ=              2.3742  XYZ=             -1.1490
 Hexadecapole moment (field-independent basis, Debye-Ang**3):
 XXXX=          -1457.8365 YYYY=           -409.4571 ZZZZ=           -214.9370 XXXY=              5.8004
 XXXZ=             10.3890 YYYX=              5.1762 YYYZ=             -2.1824 ZZZX=             16.7234
 ZZZY=              0.6584 XXYY=           -314.7534 XXZZ=           -297.9791 YYZZ=           -104.7725
 XXYZ=             -6.4075 YYXZ=              0.7699 ZZXY=              2.2575
 N-N= 5.690114651352D+02 E-N=-2.294786408149D+03  KE= 4.915827063877D+02
  Exact polarizability:   0.000   0.000   0.000   0.000   0.000   0.000
 Approx polarizability: 114.683  13.860 108.689   6.027   2.576 110.435
 Calling FoFJK, ICntrl=    100147 FMM=F ISym2X=0 I1Cent= 0 IOpClX= 0 NMat=1 NMatS=1 NMatT=0.
 ***** Axes restored to original set *****
 -------------------------------------------------------------------
 Center     Atomic                   Forces (Hartrees/Bohr)
 Number     Number              X              Y              Z
 -------------------------------------------------------------------
      1        1           0.003298613    0.001867632   -0.000930804
      2        6           0.009109924    0.002321025    0.005482637
      3        1          -0.003769052   -0.004956847    0.002637208
      4        1          -0.004702274   -0.001138606    0.003260019
      5        6          -0.025168034    0.001836611   -0.031171495
      6        8          -0.007974876    0.001828188   -0.002273429
      7        7           0.016456459   -0.006940862    0.024947442
      8        1          -0.001838390    0.002706419   -0.000574593
      9        6           0.006228283    0.000029118   -0.013320795
     10        1          -0.001966926   -0.002630870    0.005560011
     11        6           0.008946218   -0.007543771   -0.003631325
     12        1           0.005057830   -0.001611721    0.001956404
     13        1           0.005619493   -0.007278771   -0.001656548
     14        1           0.003249158   -0.003152390   -0.002244535
     15        6          -0.035811651    0.001847576    0.012635492
     16        8           0.001358441    0.001703690    0.001228378
     17        7           0.017612586    0.012305190   -0.001356403
     18        1          -0.002142480    0.003504705    0.000672853
     19        6           0.003474537   -0.000056429   -0.000234837
     20        1          -0.000379803   -0.003324753    0.000047179
     21        1           0.002418331    0.004630084    0.001901749
     22        1           0.000923613    0.004054781   -0.002934609
 -------------------------------------------------------------------
 Cartesian Forces:  Max     0.035811651 RMS     0.009055430

 GradGradGradGradGradGradGradGradGradGradGradGradGradGradGradGradGradGrad
 Berny optimization.
 Internal  Forces:  Max     0.035471334 RMS     0.009460331
 Search for a local minimum.
 Step number   1 out of a maximum of  132
 All quantities printed in internal units (Hartrees-Bohrs-Radians)
 Mixed Optimization -- RFO/linear search
 Second derivative matrix not updated -- analytic derivatives used.
     Eigenvalues ---   -0.00066  -0.00044   0.00053   0.00227   0.00331
     Eigenvalues ---    0.01319   0.01397   0.02046   0.03911   0.04435
     Eigenvalues ---    0.04740   0.05071   0.05360   0.05649   0.05827
     Eigenvalues ---    0.05982   0.06411   0.06602   0.11624   0.12365
     Eigenvalues ---    0.12442   0.13185   0.13318   0.13328   0.14000
     Eigenvalues ---    0.14255   0.15257   0.17708   0.18268   0.18575
     Eigenvalues ---    0.18722   0.21285   0.22469   0.23574   0.24344
     Eigenvalues ---    0.29675   0.29759   0.31224   0.34387   0.34550
     Eigenvalues ---    0.34676   0.34871   0.34981   0.35070   0.35324
     Eigenvalues ---    0.35528   0.35877   0.35899   0.36814   0.39402
     Eigenvalues ---    0.45452   0.46711   0.49395   0.52647   0.55569
     Eigenvalues ---    0.76926   0.82366   0.830451000.000001000.00000
     Eigenvalues --- 1000.000001000.000001000.000001000.000001000.00000
     Eigenvalues --- 1000.000001000.000001000.000001000.000001000.00000
     Eigenvalues --- 1000.000001000.000001000.000001000.000001000.00000
     Eigenvalues --- 1000.000001000.000001000.000001000.000001000.00000
     Eigenvalues --- 1000.000001000.000001000.000001000.000001000.00000
     Eigenvalues --- 1000.000001000.000001000.000001000.000001000.00000
     Eigenvalues --- 1000.000001000.000001000.000001000.000001000.00000
     Eigenvalues --- 1000.000001000.000001000.00000
 RFO step:  Lambda=-1.91773464D-02 EMin=-6.64978171D-04
 Linear search not attempted -- first point.
 Maximum step size (   0.300) exceeded in Quadratic search.
    -- Step size scaled by   0.311
 Iteration  1 RMS(Cart)=  0.05599910 RMS(Int)=  0.00193471
 Iteration  2 RMS(Cart)=  0.00215197 RMS(Int)=  0.00007473
 Iteration  3 RMS(Cart)=  0.00000290 RMS(Int)=  0.00007470
 Iteration  4 RMS(Cart)=  0.00000000 RMS(Int)=  0.00007470
 Iteration  1 RMS(Cart)=  0.00003245 RMS(Int)=  0.00001147
 Iteration  2 RMS(Cart)=  0.00001708 RMS(Int)=  0.00001280
 Iteration  3 RMS(Cart)=  0.00000906 RMS(Int)=  0.00001443
 Iteration  4 RMS(Cart)=  0.00000487 RMS(Int)=  0.00001551
 Iteration  5 RMS(Cart)=  0.00000267 RMS(Int)=  0.00001614
 Iteration  6 RMS(Cart)=  0.00000151 RMS(Int)=  0.00001651
 Iteration  7 RMS(Cart)=  0.00000088 RMS(Int)=  0.00001673
 Variable       Old X    -DE/DX   Delta X   Delta X   Delta X     New X
                                 (Linear)    (Quad)   (Total)
    R1        2.05981  -0.00083   0.00000   0.00013   0.00013   2.05994
    R2        2.05988   0.00481   0.00000   0.00351   0.00351   2.06339
    R3        2.05971   0.00429   0.00000   0.00356   0.00356   2.06327
    R4        2.89139  -0.00165   0.00000  -0.00377  -0.00377   2.88762
    R5        2.32241   0.00051   0.00000  -0.00197  -0.00197   2.32044
    R6        2.52283   0.03547   0.00000   0.01710   0.01710   2.53993
    R7        1.90868  -0.00102   0.00000  -0.00076  -0.00076   1.90792
    R8        2.73817   0.01417   0.00000   0.00163   0.00163   2.73980
    R9        2.05975   0.00426   0.00000   0.00398   0.00398   2.06372
   R10        2.88188   0.02166   0.00000   0.00778   0.00778   2.88967
   R11        2.87618   0.02572   0.00000   0.01836   0.01836   2.89454
   R12        2.05972  -0.00456   0.00000  -0.00062  -0.00062   2.05910
   R13        2.05984   0.00163   0.00000   0.00464   0.00464   2.06449
   R14        2.05966   0.00358   0.00000   0.00238   0.00238   2.06204
   R15        2.32246  -0.00018   0.00000  -0.00309  -0.00309   2.31937
   R16        2.52279   0.02949   0.00000   0.01522   0.01522   2.53801
   R17        1.90852  -0.00363   0.00000  -0.00154  -0.00154   1.90698
   R18        2.73826   0.00531   0.00000   0.00221   0.00221   2.74047
   R19        2.05981  -0.00077   0.00000   0.00017   0.00017   2.05998
   R20        2.05984   0.00449   0.00000   0.00301   0.00301   2.06285
   R21        2.05982   0.00419   0.00000   0.00406   0.00406   2.06388
    A1        1.91105  -0.00016   0.00000   0.00087   0.00091   1.91196
    A2        1.91121   0.00016   0.00000  -0.00289  -0.00292   1.90829
    A3        1.93898  -0.00786   0.00000  -0.01184  -0.01183   1.92715
    A4        1.91021  -0.00476   0.00000  -0.00713  -0.00718   1.90302
    A5        1.89602   0.00705   0.00000   0.01861   0.01861   1.91462
    A6        1.89610   0.00563   0.00000   0.00248   0.00245   1.89855
    A7        2.10316   0.00012   0.00000   0.01060   0.01059   2.11375
    A8        2.03501  -0.01703   0.00000  -0.01134  -0.01134   2.02367
    A9        2.14502   0.01691   0.00000   0.00074   0.00073   2.14575
   A10        2.09437  -0.01855   0.00000  -0.00810  -0.00833   2.08605
   A11        2.12757   0.03510   0.00000   0.00791   0.00767   2.13524
   A12        2.06124  -0.01655   0.00000   0.00019  -0.00005   2.06119
   A13        1.91114  -0.00348   0.00000  -0.01153  -0.01167   1.89947
   A14        1.93905   0.01042   0.00000   0.00650   0.00653   1.94558
   A15        1.93900  -0.01738   0.00000  -0.01194  -0.01228   1.92672
   A16        1.89609  -0.01072   0.00000  -0.00457  -0.00451   1.89159
   A17        1.89608  -0.00060   0.00000  -0.00877  -0.00897   1.88711
   A18        1.88137   0.02189   0.00000   0.03062   0.03069   1.91206
   A19        1.91115   0.00372   0.00000   0.00538   0.00535   1.91650
   A20        1.91106   0.00724   0.00000   0.00650   0.00648   1.91754
   A21        1.91110   0.00195   0.00000   0.00077   0.00077   1.91187
   A22        1.91011  -0.00310   0.00000   0.00366   0.00360   1.91371
   A23        1.91023  -0.00273   0.00000  -0.00363  -0.00363   1.90660
   A24        1.91015  -0.00709   0.00000  -0.01270  -0.01269   1.89746
   A25        2.10312  -0.00202   0.00000   0.00352   0.00350   2.10662
   A26        2.03504   0.00853   0.00000  -0.00430  -0.00432   2.03072
   A27        2.14503  -0.00652   0.00000   0.00078   0.00077   2.14580
   A28        2.09446   0.00085   0.00000  -0.00289  -0.00306   2.09140
   A29        2.12752   0.00214   0.00000   0.00262   0.00245   2.12997
   A30        2.06121  -0.00300   0.00000   0.00026   0.00008   2.06129
   A31        1.91120  -0.00664   0.00000  -0.01013  -0.01012   1.90108
   A32        1.91107   0.00520   0.00000   0.00447   0.00445   1.91552
   A33        1.91120   0.00442   0.00000   0.01071   0.01070   1.92190
   A34        1.91014   0.00004   0.00000   0.00149   0.00150   1.91164
   A35        1.91008   0.00007   0.00000  -0.00351  -0.00349   1.90659
   A36        1.91011  -0.00310   0.00000  -0.00303  -0.00307   1.90704
    D1        0.00019   0.00071   0.00000   0.08359   0.08362   0.08381
    D2        3.14159  -0.00089   0.00000   0.07734   0.07735  -3.06424
    D3        2.10335   0.00020   0.00000   0.08938   0.08935   2.19269
    D4       -1.03844  -0.00140   0.00000   0.08312   0.08308  -0.95536
    D5       -2.10322   0.00174   0.00000   0.09290   0.09292  -2.01030
    D6        1.03818   0.00014   0.00000   0.08664   0.08665   1.12483
    D7        0.00016  -0.00360   0.00000  -0.00536  -0.00528  -0.00512
    D8       -3.14159   0.00088   0.00000   0.03607   0.03597  -3.10562
    D9        3.14155  -0.00525   0.00000  -0.01177  -0.01167   3.12988
   D10       -0.00019  -0.00077   0.00000   0.02966   0.02958   0.02939
   D11       -2.87969  -0.00738   0.00000  -0.02595  -0.02588  -2.90557
   D12       -0.78525  -0.01640   0.00000  -0.03503  -0.03496  -0.82021
   D13        1.30910   0.00661   0.00000   0.00000   0.00000   1.30910
   D14        0.26175  -0.00298   0.00000   0.01472   0.01480   0.27656
   D15        2.35619  -0.01200   0.00000   0.00564   0.00572   2.36192
   D16       -1.83264   0.01100   0.00000   0.04067   0.04068  -1.79196
   D17        1.04724   0.00186   0.00000   0.02373   0.02382   1.07106
   D18        3.14157   0.00479   0.00000   0.03551   0.03563  -3.10598
   D19       -1.04726   0.00174   0.00000   0.02441   0.02451  -1.02275
   D20       -3.13259  -0.00292   0.00000   0.01052   0.01050  -3.12209
   D21       -1.03826   0.00000   0.00000   0.02230   0.02231  -1.01596
   D22        1.05609  -0.00305   0.00000   0.01120   0.01119   1.06728
   D23       -1.08102   0.00259   0.00000   0.01444   0.01433  -1.06670
   D24        1.01331   0.00552   0.00000   0.02622   0.02613   1.03944
   D25        3.10766   0.00246   0.00000   0.01512   0.01501   3.12267
   D26        0.26182  -0.01047   0.00000   0.00968   0.00971   0.27153
   D27       -2.87984  -0.01312   0.00000   0.00000   0.00000  -2.87984
   D28       -1.84149   0.00498   0.00000   0.03701   0.03698  -1.80451
   D29        1.30003   0.00233   0.00000   0.02733   0.02727   1.32730
   D30        2.39011   0.00601   0.00000   0.03038   0.03037   2.42049
   D31       -0.75155   0.00336   0.00000   0.02070   0.02066  -0.73089
   D32        0.00013   0.00135   0.00000   0.03672   0.03671   0.03684
   D33        3.14153   0.00154   0.00000   0.00140   0.00142  -3.14023
   D34       -3.14154  -0.00137   0.00000   0.02679   0.02676  -3.11478
   D35       -0.00013  -0.00118   0.00000  -0.00854  -0.00853  -0.00866
   D36        0.00010  -0.00025   0.00000   0.07999   0.07999   0.08010
   D37        2.09451  -0.00108   0.00000   0.07835   0.07834   2.17284
   D38       -2.09431   0.00103   0.00000   0.08394   0.08398  -2.01033
   D39        3.14151  -0.00005   0.00000   0.04531   0.04529  -3.09638
   D40       -1.04727  -0.00089   0.00000   0.04367   0.04364  -1.00364
   D41        1.04710   0.00122   0.00000   0.04926   0.04928   1.09638
         Item               Value     Threshold  Converged?
 Maximum Force            0.035471     0.000450     NO 
 RMS     Force            0.009298     0.000300     NO 
 Maximum Displacement     0.211276     0.001800     NO 
 RMS     Displacement     0.056126     0.001200     NO 
 Predicted change in Energy=-5.347361D-03
 GradGradGradGradGradGradGradGradGradGradGradGradGradGradGradGradGradGrad

                          Input orientation:                          
 ---------------------------------------------------------------------
 Center     Atomic      Atomic             Coordinates (Angstroms)
 Number     Number       Type             X           Y           Z
 ---------------------------------------------------------------------
      1          1           0        0.912032    3.177749   -1.904012
      2          6           0        1.432999    3.233406   -0.948107
      3          1           0        1.570788    2.226848   -0.547983
      4          1           0        0.836376    3.817651   -0.244683
      5          6           0        2.792348    3.909761   -1.120430
      6          8           0        3.132400    4.384430   -2.200640
      7          7           0        3.570235    3.954069   -0.025233
      8          1           0        3.234608    3.556062    0.839803
      9          6           0        4.867582    4.601299   -0.021055
     10          1           0        5.406077    4.305719    0.881874
     11          6           0        5.701431    4.191651   -1.235621
     12          1           0        5.193681    4.494050   -2.151064
     13          1           0        6.684876    4.664973   -1.187516
     14          1           0        5.833917    3.108546   -1.238892
     15          6           0        4.704257    6.124166   -0.001407
     16          8           0        3.627432    6.635174    0.291383
     17          7           0        5.795608    6.844778   -0.307134
     18          1           0        6.651336    6.375468   -0.563692
     19          6           0        5.780069    8.294786   -0.324421
     20          1           0        4.805618    8.642017    0.019353
     21          1           0        6.558731    8.679953    0.336601
     22          1           0        5.955098    8.660245   -1.338626
 ---------------------------------------------------------------------
                    Distance matrix (angstroms):
                    1          2          3          4          5
     1  H    0.000000
     2  C    1.090073   0.000000
     3  H    1.782411   1.091898   0.000000
     4  H    1.780049   1.091837   1.778203   0.000000
     5  C    2.164586   1.528065   2.156873   2.145052   0.000000
     6  O    2.544426   2.404508   3.134496   3.068996   1.227925
     7  N    3.346421   2.436972   2.693390   2.746044   1.344071
     8  H    3.614692   2.558617   2.541860   2.645005   2.040394
     9  C    4.606344   3.811419   4.096892   4.112753   2.448152
    10  H    5.406471   4.503780   4.590821   4.731756   3.316261
    11  C    4.940960   4.384109   4.625527   4.979016   2.924977
    12  H    4.486224   4.144763   4.564584   4.803948   2.677685
    13  H    6.004243   5.448753   5.701522   5.984300   3.965680
    14  H    4.967105   4.412281   4.407836   5.144580   3.147557
    15  C    5.165487   4.466976   5.030553   4.509956   3.132284
    16  O    4.913954   4.233663   4.936361   4.001974   3.180953
    17  N    6.312404   5.699580   6.263576   5.810454   4.277306
    18  H    6.705332   6.103390   6.559212   6.360657   4.613183
    19  C    7.237193   6.701013   7.388362   6.670172   5.365497
    20  H    6.979797   6.446985   7.206968   6.252927   5.267505
    21  H    8.196329   7.588707   8.203940   7.531614   6.250065
    22  H    7.470605   7.074777   7.825336   7.130830   5.711190
                    6          7          8          9         10
     6  O    0.000000
     7  N    2.260377   0.000000
     8  H    3.152924   1.009625   0.000000
     9  C    2.794365   1.449839   2.121368   0.000000
    10  H    3.831148   2.077695   2.297615   1.092074   0.000000
    11  C    2.751062   2.462413   3.285814   1.529146   2.141035
    12  H    2.064789   2.728793   3.696359   2.157494   3.046193
    13  H    3.704755   3.399599   4.152596   2.160380   2.459017
    14  H    3.138635   2.704096   3.358222   2.155283   2.472634
    15  C    3.214661   2.448652   3.076144   1.531726   2.139974
    16  O    3.394273   2.700341   3.152143   2.402548   2.989753
    17  N    4.090398   3.658955   4.323175   2.444641   2.830600
    18  H    4.361965   3.955539   4.646814   2.573695   2.814994
    19  C    5.081460   4.880031   5.503662   3.816609   4.184217
    20  H    5.084789   4.848197   5.385921   4.041395   4.461836
    21  H    6.052178   5.603214   6.128398   4.429822   4.556299
    22  H    5.195506   5.436971   6.180558   4.403831   4.918734
                   11         12         13         14         15
    11  C    0.000000
    12  H    1.089629   0.000000
    13  H    1.092480   1.783620   0.000000
    14  H    1.091183   1.778083   1.774609   0.000000
    15  C    2.500451   2.741868   2.731108   3.449850   0.000000
    16  O    3.550214   3.605981   3.926423   4.432542   1.227358
    17  N    2.812480   3.047674   2.513448   3.850853   1.343055
    18  H    2.474442   2.860811   1.821009   3.434654   2.042164
    19  C    4.203830   4.257472   3.839160   5.266521   2.444033
    20  H    4.709905   4.697546   4.561252   5.767138   2.519976
    21  H    4.832360   5.057037   4.296384   5.835076   3.175747
    22  H    4.476974   4.312423   4.064186   5.553917   3.128011
                   16         17         18         19         20
    16  O    0.000000
    17  N    2.259014   0.000000
    18  H    3.153189   1.009131   0.000000
    19  C    2.787001   1.450194   2.121353   0.000000
    20  H    2.342977   2.077677   2.980581   1.090094   0.000000
    21  H    3.574308   2.089167   2.475835   1.091612   1.781990
    22  H    3.489394   2.094119   2.511071   1.092157   1.779253
                   21         22
    21  H    0.000000
    22  H    1.780771   0.000000
 Stoichiometry    C6H12N2O2
 Framework group  C1[X(C6H12N2O2)]
 Deg. of freedom    60
 Full point group                 C1      NOp   1
 Largest Abelian subgroup         C1      NOp   1
 Largest concise Abelian subgroup C1      NOp   1
                         Standard orientation:                         
 ---------------------------------------------------------------------
 Center     Atomic      Atomic             Coordinates (Angstroms)
 Number     Number       Type             X           Y           Z
 ---------------------------------------------------------------------
      1          1           0       -3.829524   -0.923466    0.985414
      2          6           0       -3.299961   -0.818466    0.038420
      3          1           0       -3.904789   -0.230803   -0.655177
      4          1           0       -3.126363   -1.807481   -0.390324
      5          6           0       -1.951735   -0.132568    0.254784
      6          8           0       -1.553062    0.141132    1.383476
      7          7           0       -1.244198    0.137163   -0.855696
      8          1           0       -1.617309   -0.119779   -1.757977
      9          6           0        0.071241    0.744981   -0.808666
     10          1           0        0.338958    1.084036   -1.811659
     11          6           0        0.097321    1.951068    0.130994
     12          1           0       -0.147686    1.634846    1.144535
     13          1           0        1.088756    2.409785    0.118874
     14          1           0       -0.634080    2.689162   -0.202097
     15          6           0        1.116691   -0.279380   -0.357108
     16          8           0        0.862115   -1.480015   -0.365778
     17          7           0        2.305608    0.212411    0.028138
     18          1           0        2.456435    1.210148    0.038903
     19          6           0        3.384472   -0.646452    0.476994
     20          1           0        3.080189   -1.686676    0.360157
     21          1           0        4.278539   -0.458477   -0.120440
     22          1           0        3.606397   -0.452340    1.528601
 ---------------------------------------------------------------------
 Rotational constants (GHZ):      2.5720020      0.7956829      0.7261150
 Standard basis: 6-31G(d) (6D, 7F)
 There are   174 symmetry adapted basis functions of A   symmetry.
 Integral buffers will be    131072 words long.
 Raffenetti 2 integral format.
 Two-electron integral symmetry is turned on.
   174 basis functions,   328 primitive gaussians,   174 cartesian basis functions
    39 alpha electrons       39 beta electrons
       nuclear repulsion energy       566.8352791045 Hartrees.
 NAtoms=   22 NActive=   22 NUniq=   22 SFac= 7.50D-01 NAtFMM=   80 NAOKFM=F Big=F
 One-electron integrals computed using PRISM.
 NBasis=   174 RedAO= T  NBF=   174
 NBsUse=   174 1.00D-06 NBFU=   174
 Initial guess read from the read-write file.
 B after Tr=     0.000000    0.000000    0.000000
         Rot=    1.000000    0.000000    0.000000    0.000000 Ang=   0.00 deg.
 Initial guess orbital symmetries:
       Occupied  (A) (A) (A) (A) (A) (A) (A) (A) (A) (A) (A) (A)
                 (A) (A) (A) (A) (A) (A) (A) (A) (A) (A) (A) (A)
                 (A) (A) (A) (A) (A) (A) (A) (A) (A) (A) (A) (A)
                 (A) (A) (A)
       Virtual   (A) (A) (A) (A) (A) (A) (A) (A) (A) (A) (A) (A)
                 (A) (A) (A) (A) (A) (A) (A) (A) (A) (A) (A) (A)
                 (A) (A) (A) (A) (A) (A) (A) (A) (A) (A) (A) (A)
                 (A) (A) (A) (A) (A) (A) (A) (A) (A) (A) (A) (A)
                 (A) (A) (A) (A) (A) (A) (A) (A) (A) (A) (A) (A)
                 (A) (A) (A) (A) (A) (A) (A) (A) (A) (A) (A) (A)
                 (A) (A) (A) (A) (A) (A) (A) (A) (A) (A) (A) (A)
                 (A) (A) (A) (A) (A) (A) (A) (A) (A) (A) (A) (A)
                 (A) (A) (A) (A) (A) (A) (A) (A) (A) (A) (A) (A)
                 (A) (A) (A) (A) (A) (A) (A) (A) (A) (A) (A) (A)
                 (A) (A) (A) (A) (A) (A) (A) (A) (A) (A) (A) (A)
                 (A) (A) (A)
 Harris functional with IExCor=  402 diagonalized for initial guess.
 ExpMin= 1.61D-01 ExpMax= 5.48D+03 ExpMxC= 8.25D+02 IAcc=1 IRadAn=         1 AccDes= 0.00D+00
 HarFok:  IExCor=  402 AccDes= 0.00D+00 IRadAn=         1 IDoV= 1
 ScaDFX=  1.000000  1.000000  1.000000  1.000000
 FoFCou: FMM=F IPFlag=           0 FMFlag=      100000 FMFlg1=           0
         NFxFlg=           0 DoJE=T BraDBF=F KetDBF=T FulRan=T
         Omega=  0.000000  0.000000  1.000000  0.000000  0.000000 ICntrl=     500 IOpCl=  0
         NMat0=    1 NMatS0=    1 NMatT0=    0 NMatD0=    1 NMtDS0=    0 NMtDT0=    0
         I1Cent=           4 NGrid=           0.
 Petite list used in FoFCou.
 Requested convergence on RMS density matrix=1.00D-08 within 128 cycles.
 Requested convergence on MAX density matrix=1.00D-06.
 Requested convergence on             energy=1.00D-06.
 No special actions if energy rises.
 Integral accuracy reduced to 1.0D-05 until final iterations.
 Initial convergence to 1.0D-05 achieved.  Increase integral accuracy.
 SCF Done:  E(RB3LYP) =  -495.833657243     A.U. after   12 cycles
             Convg  =    0.8287D-08             -V/T =  2.0089
 Calling FoFJK, ICntrl=      2127 FMM=F ISym2X=0 I1Cent= 0 IOpClX= 0 NMat=1 NMatS=1 NMatT=0.
 ***** Axes restored to original set *****
 -------------------------------------------------------------------
 Center     Atomic                   Forces (Hartrees/Bohr)
 Number     Number              X              Y              Z
 -------------------------------------------------------------------
      1        1           0.002376680    0.001166852   -0.000738160
      2        6           0.006836991    0.001585008    0.003979330
      3        1          -0.002898363   -0.003211997    0.002101767
      4        1          -0.003508674   -0.000551712    0.002184259
      5        6          -0.018416398    0.001593510   -0.021892998
      6        8          -0.005840237    0.001471498   -0.001491551
      7        7           0.012961413   -0.007632075    0.017141260
      8        1          -0.001564504    0.002741009   -0.000188550
      9        6           0.004593736    0.001380648   -0.010799006
     10        1          -0.002024538   -0.001802410    0.004274123
     11        6           0.006915205   -0.005117964   -0.001980431
     12        1           0.003643028   -0.001163973    0.001463006
     13        1           0.003925577   -0.005566723   -0.000993318
     14        1           0.002248329   -0.002284886   -0.001564397
     15        6          -0.025813022    0.001099627    0.008178496
     16        8           0.001179459    0.001221048    0.001427813
     17        7           0.012468597    0.008926891   -0.000269107
     18        1          -0.001529111    0.002360368    0.000320219
     19        6           0.002590610   -0.000171585   -0.000381980
     20        1          -0.000244912   -0.002334892    0.000039511
     21        1           0.001730883    0.003326172    0.001244598
     22        1           0.000369251    0.002965584   -0.002054886
 -------------------------------------------------------------------
 Cartesian Forces:  Max     0.025813022 RMS     0.006567278

 GradGradGradGradGradGradGradGradGradGradGradGradGradGradGradGradGradGrad
 Berny optimization.
 Using GEDIIS/GDIIS optimizer.
 Internal  Forces:  Max     0.025341624 RMS     0.006805164
 Search for a local minimum.
 Step number   2 out of a maximum of  132
 All quantities printed in internal units (Hartrees-Bohrs-Radians)
 Mixed Optimization -- RFO/linear search
 Update second derivatives using D2CorX and points    1    2
 DE= -5.36D-03 DEPred=-5.35D-03 R= 1.00D+00
 SS=  1.41D+00  RLast= 3.00D-01 DXNew= 5.0454D-01 8.9999D-01
 Trust test= 1.00D+00 RLast= 3.00D-01 DXMaxT set to 5.05D-01
 Use linear search instead of GDIIS.
 Linear search step of   0.594 exceeds DXMaxT=   0.505 but not scaled.
 Quartic linear search produced a step of  2.00000.
 Iteration  1 RMS(Cart)=  0.11171886 RMS(Int)=  0.00766357
 Iteration  2 RMS(Cart)=  0.00857579 RMS(Int)=  0.00045058
 Iteration  3 RMS(Cart)=  0.00004989 RMS(Int)=  0.00044912
 Iteration  4 RMS(Cart)=  0.00000001 RMS(Int)=  0.00044912
 Iteration  1 RMS(Cart)=  0.00020484 RMS(Int)=  0.00007293
 Iteration  2 RMS(Cart)=  0.00010925 RMS(Int)=  0.00008143
 Iteration  3 RMS(Cart)=  0.00005856 RMS(Int)=  0.00009188
 Iteration  4 RMS(Cart)=  0.00003166 RMS(Int)=  0.00009880
 Iteration  5 RMS(Cart)=  0.00001734 RMS(Int)=  0.00010290
 Iteration  6 RMS(Cart)=  0.00000969 RMS(Int)=  0.00010527
 Iteration  7 RMS(Cart)=  0.00000556 RMS(Int)=  0.00010663
 Iteration  8 RMS(Cart)=  0.00000330 RMS(Int)=  0.00010741
 Iteration  9 RMS(Cart)=  0.00000202 RMS(Int)=  0.00010787
 Iteration 10 RMS(Cart)=  0.00000127 RMS(Int)=  0.00010814
 Iteration 11 RMS(Cart)=  0.00000082 RMS(Int)=  0.00010830
 Variable       Old X    -DE/DX   Delta X   Delta X   Delta X     New X
                                 (Linear)    (Quad)   (Total)
    R1        2.05994  -0.00055   0.00027   0.00000   0.00027   2.06021
    R2        2.06339   0.00336   0.00702   0.00000   0.00702   2.07041
    R3        2.06327   0.00303   0.00712   0.00000   0.00712   2.07039
    R4        2.88762  -0.00120  -0.00754   0.00000  -0.00754   2.88008
    R5        2.32044   0.00026  -0.00394   0.00000  -0.00394   2.31650
    R6        2.53993   0.02527   0.03419   0.00000   0.03419   2.57412
    R7        1.90792  -0.00072  -0.00152   0.00000  -0.00152   1.90639
    R8        2.73980   0.01026   0.00325   0.00000   0.00325   2.74305
    R9        2.06372   0.00302   0.00795   0.00000   0.00795   2.07167
   R10        2.88967   0.01534   0.01556   0.00000   0.01556   2.90523
   R11        2.89454   0.01839   0.03673   0.00000   0.03673   2.93127
   R12        2.05910  -0.00326  -0.00124   0.00000  -0.00124   2.05786
   R13        2.06449   0.00108   0.00929   0.00000   0.00929   2.07377
   R14        2.06204   0.00255   0.00475   0.00000   0.00475   2.06679
   R15        2.31937  -0.00019  -0.00619   0.00000  -0.00619   2.31318
   R16        2.53801   0.02085   0.03043   0.00000   0.03043   2.56844
   R17        1.90698  -0.00247  -0.00307   0.00000  -0.00307   1.90391
   R18        2.74047   0.00375   0.00443   0.00000   0.00443   2.74490
   R19        2.05998  -0.00052   0.00033   0.00000   0.00033   2.06031
   R20        2.06285   0.00316   0.00603   0.00000   0.00603   2.06887
   R21        2.06388   0.00297   0.00812   0.00000   0.00812   2.07200
    A1        1.91196  -0.00012   0.00182   0.00000   0.00205   1.91401
    A2        1.90829   0.00006  -0.00583   0.00000  -0.00596   1.90233
    A3        1.92715  -0.00558  -0.02366   0.00000  -0.02361   1.90354
    A4        1.90302  -0.00346  -0.01436   0.00000  -0.01468   1.88834
    A5        1.91462   0.00506   0.03721   0.00000   0.03717   1.95179
    A6        1.89855   0.00406   0.00489   0.00000   0.00466   1.90320
    A7        2.11375  -0.00003   0.02118   0.00000   0.02114   2.13489
    A8        2.02367  -0.01214  -0.02268   0.00000  -0.02272   2.00095
    A9        2.14575   0.01216   0.00147   0.00000   0.00143   2.14718
   A10        2.08605  -0.01345  -0.01666   0.00000  -0.01797   2.06808
   A11        2.13524   0.02534   0.01534   0.00000   0.01397   2.14921
   A12        2.06119  -0.01201  -0.00009   0.00000  -0.00155   2.05965
   A13        1.89947  -0.00295  -0.02333   0.00000  -0.02418   1.87529
   A14        1.94558   0.00775   0.01306   0.00000   0.01320   1.95878
   A15        1.92672  -0.01267  -0.02456   0.00000  -0.02659   1.90013
   A16        1.89159  -0.00761  -0.00902   0.00000  -0.00858   1.88301
   A17        1.88711  -0.00066  -0.01794   0.00000  -0.01916   1.86795
   A18        1.91206   0.01582   0.06137   0.00000   0.06180   1.97386
   A19        1.91650   0.00275   0.01070   0.00000   0.01051   1.92700
   A20        1.91754   0.00519   0.01296   0.00000   0.01279   1.93033
   A21        1.91187   0.00130   0.00155   0.00000   0.00157   1.91344
   A22        1.91371  -0.00226   0.00721   0.00000   0.00686   1.92057
   A23        1.90660  -0.00198  -0.00726   0.00000  -0.00727   1.89933
   A24        1.89746  -0.00511  -0.02539   0.00000  -0.02535   1.87211
   A25        2.10662  -0.00136   0.00701   0.00000   0.00692   2.11354
   A26        2.03072   0.00597  -0.00864   0.00000  -0.00872   2.02199
   A27        2.14580  -0.00463   0.00154   0.00000   0.00145   2.14725
   A28        2.09140   0.00055  -0.00612   0.00000  -0.00714   2.08427
   A29        2.12997   0.00149   0.00490   0.00000   0.00387   2.13384
   A30        2.06129  -0.00204   0.00017   0.00000  -0.00088   2.06041
   A31        1.90108  -0.00470  -0.02024   0.00000  -0.02014   1.88094
   A32        1.91552   0.00373   0.00891   0.00000   0.00879   1.92431
   A33        1.92190   0.00318   0.02139   0.00000   0.02133   1.94323
   A34        1.91164  -0.00001   0.00300   0.00000   0.00304   1.91468
   A35        1.90659   0.00002  -0.00698   0.00000  -0.00682   1.89977
   A36        1.90704  -0.00224  -0.00615   0.00000  -0.00640   1.90064
    D1        0.08381   0.00059   0.16724   0.00000   0.16743   0.25124
    D2       -3.06424  -0.00055   0.15471   0.00000   0.15480  -2.90944
    D3        2.19269   0.00014   0.17869   0.00000   0.17852   2.37122
    D4       -0.95536  -0.00099   0.16616   0.00000   0.16589  -0.78946
    D5       -2.01030   0.00136   0.18583   0.00000   0.18595  -1.82435
    D6        1.12483   0.00023   0.17330   0.00000   0.17332   1.29815
    D7       -0.00512  -0.00287  -0.01055   0.00000  -0.01006  -0.01518
    D8       -3.10562   0.00092   0.07194   0.00000   0.07131  -3.03431
    D9        3.12988  -0.00408  -0.02334   0.00000  -0.02271   3.10717
   D10        0.02939  -0.00029   0.05915   0.00000   0.05866   0.08804
   D11       -2.90557  -0.00576  -0.05177   0.00000  -0.05127  -2.95685
   D12       -0.82021  -0.01231  -0.06993   0.00000  -0.06943  -0.88964
   D13        1.30910   0.00431  -0.00001   0.00000   0.00000   1.30910
   D14        0.27656  -0.00197   0.02961   0.00000   0.03010   0.30665
   D15        2.36192  -0.00853   0.01145   0.00000   0.01194   2.37385
   D16       -1.79196   0.00810   0.08137   0.00000   0.08137  -1.71059
   D17        1.07106   0.00171   0.04765   0.00000   0.04824   1.11931
   D18       -3.10598   0.00393   0.07126   0.00000   0.07205  -3.03393
   D19       -1.02275   0.00163   0.04902   0.00000   0.04969  -0.97306
   D20       -3.12209  -0.00211   0.02100   0.00000   0.02085  -3.10124
   D21       -1.01596   0.00011   0.04462   0.00000   0.04466  -0.97129
   D22        1.06728  -0.00219   0.02237   0.00000   0.02230   1.08958
   D23       -1.06670   0.00161   0.02865   0.00000   0.02793  -1.03876
   D24        1.03944   0.00384   0.05227   0.00000   0.05174   1.09118
   D25        3.12267   0.00154   0.03003   0.00000   0.02938  -3.13113
   D26        0.27153  -0.00729   0.01942   0.00000   0.01963   0.29116
   D27       -2.87984  -0.00944   0.00000   0.00000   0.00000  -2.87984
   D28       -1.80451   0.00403   0.07396   0.00000   0.07370  -1.73081
   D29        1.32730   0.00189   0.05454   0.00000   0.05407   1.38137
   D30        2.42049   0.00470   0.06074   0.00000   0.06067   2.48115
   D31       -0.73089   0.00255   0.04132   0.00000   0.04104  -0.68985
   D32        0.03684   0.00124   0.07342   0.00000   0.07335   0.11018
   D33       -3.14023   0.00123   0.00285   0.00000   0.00304  -3.13719
   D34       -3.11478  -0.00094   0.05352   0.00000   0.05333  -3.06145
   D35       -0.00866  -0.00094  -0.01705   0.00000  -0.01698  -0.02564
   D36        0.08010  -0.00012   0.15998   0.00000   0.16000   0.24009
   D37        2.17284  -0.00076   0.15668   0.00000   0.15661   2.32946
   D38       -2.01033   0.00084   0.16796   0.00000   0.16818  -1.84215
   D39       -3.09638  -0.00007   0.09058   0.00000   0.09048  -3.00590
   D40       -1.00364  -0.00071   0.08727   0.00000   0.08710  -0.91654
   D41        1.09638   0.00089   0.09856   0.00000   0.09867   1.19504
         Item               Value     Threshold  Converged?
 Maximum Force            0.025327     0.000450     NO 
 RMS     Force            0.006692     0.000300     NO 
 Maximum Displacement     0.437174     0.001800     NO 
 RMS     Displacement     0.112596     0.001200     NO 
 Predicted change in Energy=-6.127711D-03
 GradGradGradGradGradGradGradGradGradGradGradGradGradGradGradGradGradGrad

                          Input orientation:                          
 ---------------------------------------------------------------------
 Center     Atomic      Atomic             Coordinates (Angstroms)
 Number     Number       Type             X           Y           Z
 ---------------------------------------------------------------------
      1          1           0        0.936982    3.091432   -1.887709
      2          6           0        1.413934    3.288562   -0.927384
      3          1           0        1.473456    2.360643   -0.347906
      4          1           0        0.802901    4.003916   -0.365909
      5          6           0        2.791212    3.894174   -1.170578
      6          8           0        3.129161    4.336362   -2.262800
      7          7           0        3.600135    3.923992   -0.075019
      8          1           0        3.241247    3.568011    0.798018
      9          6           0        4.897378    4.575193   -0.063911
     10          1           0        5.403118    4.284524    0.864299
     11          6           0        5.780674    4.132165   -1.241645
     12          1           0        5.334744    4.438042   -2.186868
     13          1           0        6.789405    4.553978   -1.147789
     14          1           0        5.882339    3.043220   -1.235435
     15          6           0        4.687294    6.110931   -0.004950
     16          8           0        3.609925    6.589472    0.324681
     17          7           0        5.774392    6.869748   -0.304498
     18          1           0        6.613859    6.422444   -0.636578
     19          6           0        5.735065    8.321648   -0.287111
     20          1           0        4.821242    8.623657    0.225147
     21          1           0        6.605282    8.718015    0.245996
     22          1           0        5.723755    8.732670   -1.303551
 ---------------------------------------------------------------------
                    Distance matrix (angstroms):
                    1          2          3          4          5
     1  H    0.000000
     2  C    1.090214   0.000000
     3  H    1.786855   1.095615   0.000000
     4  H    1.779460   1.095603   1.774913   0.000000
     5  C    2.144024   1.524074   2.182886   2.147770   0.000000
     6  O    2.548763   2.413135   3.211175   3.019967   1.225842
     7  N    3.327368   2.431002   2.653543   2.813453   1.362166
     8  H    3.570699   2.528671   2.428161   2.736836   2.045553
     9  C    4.605705   3.812530   4.087558   4.145154   2.474760
    10  H    5.379906   4.485049   4.540155   4.770131   3.333940
    11  C    4.996186   4.458570   4.742277   5.055847   2.999763
    12  H    4.609030   4.275552   4.754673   4.903259   2.792524
    13  H    6.077613   5.526803   5.806019   6.062354   4.052334
    14  H    4.988420   4.485725   4.548832   5.242108   3.206774
    15  C    5.169816   4.419450   4.950863   4.433770   3.141310
    16  O    4.927025   4.157649   4.785381   3.878324   3.189157
    17  N    6.338988   5.676837   6.231530   5.738683   4.301570
    18  H    6.699843   6.078240   6.557843   6.299982   4.614102
    19  C    7.275897   6.664389   7.327933   6.555552   5.389741
    20  H    7.082171   6.434385   7.124704   6.151294   5.332643
    21  H    8.266847   7.603018   8.191737   7.500985   6.310567
    22  H    7.421455   6.953730   7.718875   6.888765   5.659376
                    6          7          8          9         10
     6  O    0.000000
     7  N    2.275577   0.000000
     8  H    3.157773   1.008819   0.000000
     9  C    2.831738   1.451560   2.121345   0.000000
    10  H    3.866823   2.064716   2.278480   1.096283   0.000000
    11  C    2.848680   2.481754   3.305630   1.537382   2.144939
[...]
    14  H    4.951895   4.521457   4.706331   5.280432   3.177160
    15  C    5.178070   4.341065   4.781515   4.327637   3.153643
    16  O    4.968986   4.058605   4.502957   3.754444   3.237233
    17  N    6.357884   5.604995   6.101388   5.596998   4.313356
    18  H    6.653480   5.985063   6.474754   6.136210   4.565805
    19  C    7.301098   6.557909   7.128307   6.343056   5.402954
    20  H    7.149574   6.340963   6.875253   5.968289   5.383806
    21  H    8.299767   7.525868   8.026418   7.346744   6.334389
    22  H    7.405096   6.787954   7.492294   6.550482   5.629697
                    6          7          8          9         10
     6  O    0.000000
     7  N    2.292529   0.000000
     8  H    3.125498   1.011981   0.000000
     9  C    2.853308   1.460359   2.082400   0.000000
    10  H    3.876107   2.041892   2.270554   1.099359   0.000000
    11  C    2.907425   2.506158   3.380013   1.535441   2.134538
    12  H    2.399146   2.903698   3.869381   2.187712   3.056861
    13  H    3.952284   3.426359   4.179313   2.176399   2.393303
    14  H    3.115239   2.658984   3.519796   2.159395   2.518942
    15  C    3.377421   2.458216   2.770863   1.553168   2.115804
    16  O    3.668227   2.711658   2.672837   2.417898   2.881317
    17  N    4.254648   3.687664   4.090102   2.475413   2.864977
    18  H    4.348881   3.953328   4.518780   2.591172   2.961077
    19  C    5.293608   4.911952   5.188673   3.852183   4.200549
    20  H    5.449843   4.895077   4.979745   4.065150   4.368730
    21  H    6.247924   5.705411   5.949208   4.511783   4.654761
    22  H    5.303289   5.388728   5.780717   4.413961   4.955741
                   11         12         13         14         15
    11  C    0.000000
    12  H    1.089539   0.000000
    13  H    1.097144   1.793039   0.000000
    14  H    1.093895   1.766298   1.762059   0.000000
    15  C    2.625606   2.870318   2.960569   3.543109   0.000000
    16  O    3.703387   3.864710   4.159934   4.511797   1.225349
    17  N    2.942080   3.077699   2.822749   4.004029   1.363712
    18  H    2.508228   2.636026   2.112043   3.568022   2.046137
    19  C    4.361088   4.340987   4.188691   5.438032   2.465835
    20  H    4.894602   4.926791   4.880541   5.926276   2.536271
    21  H    4.918263   5.015317   4.515452   5.972270   3.271031
    22  H    4.704626   4.427463   4.592482   5.795554   3.081087
                   16         17         18         19         20
    16  O    0.000000
    17  N    2.278985   0.000000
    18  H    3.156112   1.009065   0.000000
    19  C    2.817309   1.454079   2.123742   0.000000
    20  H    2.388373   2.064986   2.969798   1.090488   0.000000
    21  H    3.707149   2.101974   2.481548   1.095059   1.784964
    22  H    3.396442   2.122142   2.553471   1.097425   1.777208
                   21         22
    21  H    0.000000
    22  H    1.784070   0.000000
 Stoichiometry    C6H12N2O2
 Framework group  C1[X(C6H12N2O2)]
 Deg. of freedom    60
 Full point group                 C1      NOp   1
 Largest Abelian subgroup         C1      NOp   1
 Largest concise Abelian subgroup C1      NOp   1
                         Standard orientation:                         
 ---------------------------------------------------------------------
 Center     Atomic      Atomic             Coordinates (Angstroms)
 Number     Number       Type             X           Y           Z
 ---------------------------------------------------------------------
      1          1           0       -3.917828   -0.858701    0.804113
      2          6           0       -3.153179   -1.052792    0.049816
      3          1           0       -3.588383   -0.952504   -0.949961
      4          1           0       -2.804770   -2.085662    0.171242
      5          6           0       -1.984489   -0.105350    0.279657
      6          8           0       -1.736313    0.369523    1.379366
      7          7           0       -1.247046    0.173439   -0.851746
      8          1           0       -1.344544   -0.506075   -1.595291
      9          6           0        0.082184    0.774191   -0.781809
     10          1           0        0.354660    0.982119   -1.826373
     11          6           0        0.110505    2.114730   -0.033657
     12          1           0        0.010644    1.979105    1.042786
     13          1           0        1.034165    2.661041   -0.261959
     14          1           0       -0.722686    2.736162   -0.374571
     15          6           0        1.105877   -0.298117   -0.318628
     16          8           0        0.852447   -1.491324   -0.434872
     17          7           0        2.316114    0.172131    0.098390
     18          1           0        2.403535    1.156086    0.304313
     19          6           0        3.377287   -0.715799    0.545422
     20          1           0        3.151982   -1.714740    0.170561
     21          1           0        4.342352   -0.384857    0.147579
     22          1           0        3.439213   -0.757741    1.640296
 ---------------------------------------------------------------------
 Rotational constants (GHZ):      2.3051002      0.8017284      0.7088711

 **********************************************************************

            Population analysis using the SCF density.

 **********************************************************************

 Orbital symmetries:
       Occupied  (A) (A) (A) (A) (A) (A) (A) (A) (A) (A) (A) (A)
                 (A) (A) (A) (A) (A) (A) (A) (A) (A) (A) (A) (A)
                 (A) (A) (A) (A) (A) (A) (A) (A) (A) (A) (A) (A)
                 (A) (A) (A)
       Virtual   (A) (A) (A) (A) (A) (A) (A) (A) (A) (A) (A) (A)
                 (A) (A) (A) (A) (A) (A) (A) (A) (A) (A) (A) (A)
                 (A) (A) (A) (A) (A) (A) (A) (A) (A) (A) (A) (A)
                 (A) (A) (A) (A) (A) (A) (A) (A) (A) (A) (A) (A)
                 (A) (A) (A) (A) (A) (A) (A) (A) (A) (A) (A) (A)
                 (A) (A) (A) (A) (A) (A) (A) (A) (A) (A) (A) (A)
                 (A) (A) (A) (A) (A) (A) (A) (A) (A) (A) (A) (A)
                 (A) (A) (A) (A) (A) (A) (A) (A) (A) (A) (A) (A)
                 (A) (A) (A) (A) (A) (A) (A) (A) (A) (A) (A) (A)
                 (A) (A) (A) (A) (A) (A) (A) (A) (A) (A) (A) (A)
                 (A) (A) (A) (A) (A) (A) (A) (A) (A) (A) (A) (A)
                 (A) (A) (A)
 The electronic state is 1-A.
 Alpha  occ. eigenvalues --  -19.11107 -19.10592 -14.36350 -14.35154 -10.28430
 Alpha  occ. eigenvalues --  -10.28142 -10.23915 -10.21839 -10.18538 -10.18374
 Alpha  occ. eigenvalues --   -1.03365  -1.02184  -0.92086  -0.91593  -0.77837
 Alpha  occ. eigenvalues --   -0.72443  -0.70432  -0.64932  -0.58864  -0.55941
 Alpha  occ. eigenvalues --   -0.52897  -0.50241  -0.46294  -0.45496  -0.44429
 Alpha  occ. eigenvalues --   -0.43678  -0.42404  -0.41308  -0.39773  -0.39168
 Alpha  occ. eigenvalues --   -0.39046  -0.38037  -0.37503  -0.35021  -0.34735
 Alpha  occ. eigenvalues --   -0.26076  -0.25521  -0.24806  -0.23669
 Alpha virt. eigenvalues --    0.02667   0.03089   0.06772   0.08995   0.11702
 Alpha virt. eigenvalues --    0.12955   0.14446   0.15505   0.15874   0.16345
 Alpha virt. eigenvalues --    0.16877   0.17080   0.18385   0.19131   0.19194
 Alpha virt. eigenvalues --    0.21165   0.23426   0.25572   0.29155   0.31861
 Alpha virt. eigenvalues --    0.34636   0.39300   0.40601   0.49295   0.51658
 Alpha virt. eigenvalues --    0.52555   0.53519   0.54301   0.55302   0.56255
 Alpha virt. eigenvalues --    0.57514   0.60295   0.61214   0.64773   0.66872
 Alpha virt. eigenvalues --    0.67959   0.70239   0.71067   0.72745   0.73706
 Alpha virt. eigenvalues --    0.75901   0.77155   0.79264   0.79781   0.84231
 Alpha virt. eigenvalues --    0.85396   0.86176   0.86816   0.86873   0.87704
 Alpha virt. eigenvalues --    0.89554   0.90526   0.91380   0.93526   0.93767
 Alpha virt. eigenvalues --    0.94869   0.96086   0.97718   0.98415   1.01963
 Alpha virt. eigenvalues --    1.03076   1.04648   1.08709   1.11292   1.14170
 Alpha virt. eigenvalues --    1.18587   1.22483   1.26883   1.31662   1.33579
 Alpha virt. eigenvalues --    1.35103   1.38378   1.42798   1.44883   1.51059
 Alpha virt. eigenvalues --    1.53771   1.54950   1.59902   1.63999   1.69777
 Alpha virt. eigenvalues --    1.70297   1.77867   1.78603   1.80256   1.82110
 Alpha virt. eigenvalues --    1.83367   1.85635   1.86245   1.87116   1.89606
 Alpha virt. eigenvalues --    1.94802   1.97985   1.98594   1.99213   2.00350
 Alpha virt. eigenvalues --    2.04344   2.06834   2.08475   2.13413   2.13828
 Alpha virt. eigenvalues --    2.20297   2.22956   2.24390   2.27045   2.28114
 Alpha virt. eigenvalues --    2.31657   2.33124   2.35819   2.39173   2.41464
 Alpha virt. eigenvalues --    2.43952   2.49836   2.52367   2.56824   2.62135
 Alpha virt. eigenvalues --    2.64338   2.67031   2.68772   2.73993   2.87118
 Alpha virt. eigenvalues --    2.93193   2.99498   3.01117   3.12018   3.14876
 Alpha virt. eigenvalues --    3.90103   4.02666   4.06386   4.13027   4.19664
 Alpha virt. eigenvalues --    4.24034   4.25945   4.37330   4.49381   4.61771
          Condensed to atoms (all electrons):
              1          2          3          4          5          6
     1  H    0.516128   0.356956  -0.024257  -0.020820  -0.019423   0.004075
     2  C    0.356956   5.339863   0.345297   0.357999   0.344658  -0.078347
     3  H   -0.024257   0.345297   0.566950  -0.026497  -0.025702   0.002399
     4  H   -0.020820   0.357999  -0.026497   0.519512  -0.019374  -0.000077
     5  C   -0.019423   0.344658  -0.025702  -0.019374   4.310888   0.590822
     6  O    0.004075  -0.078347   0.002399  -0.000077   0.590822   8.063809
     7  N    0.004239  -0.125113   0.006910   0.000152   0.260590  -0.094288
     8  H   -0.000010   0.001153   0.000024   0.000364  -0.017710   0.003452
     9  C   -0.000190   0.007097   0.000271  -0.000408  -0.034014   0.004012
    10  H    0.000004  -0.000230  -0.000013  -0.000001   0.004972   0.000163
    11  C    0.000014   0.000013  -0.000043   0.000000  -0.004985  -0.003962
    12  H    0.000000   0.000207  -0.000007  -0.000004   0.002265   0.013123
    13  H    0.000000   0.000012  -0.000001   0.000000   0.000464   0.000639
    14  H   -0.000002  -0.000046   0.000004   0.000001   0.000354  -0.000684
    15  C   -0.000001  -0.000431   0.000022   0.000098   0.003760   0.001244
    16  O    0.000002  -0.000610  -0.000002   0.000462   0.005810  -0.000564
    17  N    0.000000  -0.000008   0.000000   0.000000  -0.000049  -0.000129
    18  H    0.000000   0.000000   0.000000   0.000000  -0.000021  -0.000011
    19  C    0.000000   0.000000   0.000000   0.000000  -0.000003   0.000002
    20  H    0.000000   0.000000   0.000000   0.000000  -0.000005   0.000000
    21  H    0.000000   0.000000   0.000000   0.000000   0.000000   0.000000
    22  H    0.000000   0.000000   0.000000   0.000000   0.000001   0.000000
              7          8          9         10         11         12
     1  H    0.004239  -0.000010  -0.000190   0.000004   0.000014   0.000000
     2  C   -0.125113   0.001153   0.007097  -0.000230   0.000013   0.000207
     3  H    0.006910   0.000024   0.000271  -0.000013  -0.000043  -0.000007
     4  H    0.000152   0.000364  -0.000408  -0.000001   0.000000  -0.000004
     5  C    0.260590  -0.017710  -0.034014   0.004972  -0.004985   0.002265
     6  O   -0.094288   0.003452   0.004012   0.000163  -0.003962   0.013123
     7  N    7.089154   0.297285   0.278533  -0.039522  -0.045233  -0.004384
     8  H    0.297285   0.412695  -0.037288  -0.004038   0.005718  -0.000090
     9  C    0.278533  -0.037288   5.106996   0.369815   0.335130  -0.032556
    10  H   -0.039522  -0.004038   0.369815   0.588153  -0.038230   0.004572
    11  C   -0.045233   0.005718   0.335130  -0.038230   5.156280   0.374901
    12  H   -0.004384  -0.000090  -0.032556   0.004572   0.374901   0.492261
    13  H    0.003655  -0.000121  -0.028098  -0.005324   0.344075  -0.028137
    14  H   -0.000789  -0.000057  -0.023925  -0.003054   0.368522  -0.023797
    15  C   -0.061828  -0.000074   0.312248  -0.040844  -0.033143  -0.002230
    16  O   -0.007230   0.008331  -0.085153  -0.000494   0.002087   0.000090
    17  N    0.003848   0.000228  -0.114124   0.000852   0.002738   0.000539
    18  H    0.000109  -0.000028  -0.002478   0.000217   0.006843   0.000412
    19  C   -0.000128  -0.000001   0.005781  -0.000248  -0.000199  -0.000107
    20  H   -0.000008  -0.000004   0.000899  -0.000032  -0.000025  -0.000004
    21  H    0.000000   0.000000  -0.000167   0.000024   0.000013   0.000004
    22  H    0.000006   0.000000   0.000015  -0.000006  -0.000039  -0.000008
             13         14         15         16         17         18
     1  H    0.000000  -0.000002  -0.000001   0.000002   0.000000   0.000000
     2  C    0.000012  -0.000046  -0.000431  -0.000610  -0.000008   0.000000
     3  H   -0.000001   0.000004   0.000022  -0.000002   0.000000   0.000000
     4  H    0.000000   0.000001   0.000098   0.000462   0.000000   0.000000
     5  C    0.000464   0.000354   0.003760   0.005810  -0.000049  -0.000021
     6  O    0.000639  -0.000684   0.001244  -0.000564  -0.000129  -0.000011
     7  N    0.003655  -0.000789  -0.061828  -0.007230   0.003848   0.000109
     8  H   -0.000121  -0.000057  -0.000074   0.008331   0.000228  -0.000028
     9  C   -0.028098  -0.023925   0.312248  -0.085153  -0.114124  -0.002478
    10  H   -0.005324  -0.003054  -0.040844  -0.000494   0.000852   0.000217
    11  C    0.344075   0.368522  -0.033143   0.002087   0.002738   0.006843
    12  H   -0.028137  -0.023797  -0.002230   0.000090   0.000539   0.000412
    13  H    0.611443  -0.028229  -0.004276  -0.000040  -0.000167   0.005791
    14  H   -0.028229   0.540625   0.003208  -0.000058   0.000055  -0.000216
    15  C   -0.004276   0.003208   4.380969   0.593415   0.269048  -0.018942
    16  O   -0.000040  -0.000058   0.593415   8.093158  -0.096967   0.003456
    17  N   -0.000167   0.000055   0.269048  -0.096967   7.084833   0.299333
    18  H    0.005791  -0.000216  -0.018942   0.003456   0.299333   0.403971
    19  C    0.000096   0.000004  -0.023943  -0.006334   0.267969  -0.032103
    20  H   -0.000004   0.000001  -0.001317   0.019418  -0.040193   0.004066
    21  H   -0.000019   0.000000   0.003158   0.000485  -0.039622  -0.001202
    22  H    0.000018  -0.000001  -0.001145   0.000518  -0.042404  -0.000451
             19         20         21         22
     1  H    0.000000   0.000000   0.000000   0.000000
     2  C    0.000000   0.000000   0.000000   0.000000
     3  H    0.000000   0.000000   0.000000   0.000000
     4  H    0.000000   0.000000   0.000000   0.000000
     5  C   -0.000003  -0.000005   0.000000   0.000001
     6  O    0.000002   0.000000   0.000000   0.000000
     7  N   -0.000128  -0.000008   0.000000   0.000006
     8  H   -0.000001  -0.000004   0.000000   0.000000
     9  C    0.005781   0.000899  -0.000167   0.000015
    10  H   -0.000248  -0.000032   0.000024  -0.000006
    11  C   -0.000199  -0.000025   0.000013  -0.000039
    12  H   -0.000107  -0.000004   0.000004  -0.000008
    13  H    0.000096  -0.000004  -0.000019   0.000018
    14  H    0.000004   0.000001   0.000000  -0.000001
    15  C   -0.023943  -0.001317   0.003158  -0.001145
    16  O   -0.006334   0.019418   0.000485   0.000518
    17  N    0.267969  -0.040193  -0.039622  -0.042404
    18  H   -0.032103   0.004066  -0.001202  -0.000451
    19  C    4.958635   0.378118   0.376852   0.385097
    20  H    0.378118   0.487338  -0.022576  -0.028012
    21  H    0.376852  -0.022576   0.568808  -0.039912
    22  H    0.385097  -0.028012  -0.039912   0.562959
 Mulliken atomic charges:
              1
     1  H    0.183285
     2  C   -0.548471
     3  H    0.154644
     4  H    0.188594
     5  C    0.596702
     6  O   -0.505679
     7  N   -0.565959
     8  H    0.330170
     9  C   -0.062397
    10  H    0.163263
    11  C   -0.470476
    12  H    0.202951
    13  H    0.128222
    14  H    0.168084
    15  C    0.621003
    16  O   -0.529779
    17  N   -0.595781
    18  H    0.331252
    19  C   -0.309487
    20  H    0.202340
    21  H    0.154153
    22  H    0.163365
 Sum of Mulliken atomic charges =   0.00000
 Mulliken charges with hydrogens summed into heavy atoms:
              1
     2  C   -0.021948
     5  C    0.596702
     6  O   -0.505679
     7  N   -0.235789
     9  C    0.100866
    11  C    0.028781
    15  C    0.621003
    16  O   -0.529779
    17  N   -0.264529
    19  C    0.210371
 Sum of Mulliken charges with hydrogens summed into heavy atoms =   0.00000
 Electronic spatial extent (au):  <R**2>=           1750.4846
 Charge=              0.0000 electrons
 Dipole moment (field-independent basis, Debye):
    X=              1.8260    Y=              1.5156    Z=             -2.1305  Tot=              3.1891
 Quadrupole moment (field-independent basis, Debye-Ang):
   XX=            -50.0930   YY=            -60.7292   ZZ=            -61.3932
   XY=              6.2808   XZ=              6.5109   YZ=             -1.3948
 Traceless Quadrupole moment (field-independent basis, Debye-Ang):
   XX=              7.3121   YY=             -3.3240   ZZ=             -3.9881
   XY=              6.2808   XZ=              6.5109   YZ=             -1.3948
 Octapole moment (field-independent basis, Debye-Ang**2):
  XXX=             16.3956  YYY=              4.6044  ZZZ=             -8.8050  XYY=             -0.2447
  XXY=             -8.8140  XXZ=              1.4354  XZZ=              5.3321  YZZ=             -4.0281
  YYZ=              2.8499  XYZ=             -0.5066
 Hexadecapole moment (field-independent basis, Debye-Ang**3):
 XXXX=          -1432.6462 YYYY=           -477.2226 ZZZZ=           -223.3271 XXXY=              7.3051
 XXXZ=             14.4788 YYYX=              3.9355 YYYZ=             -0.4820 ZZZX=             13.1888
 ZZZY=              5.0399 XXYY=           -324.4825 XXZZ=           -305.0354 YYZZ=           -118.1273
 XXYZ=             -1.6299 YYXZ=              1.1900 ZZXY=              5.3991
 N-N= 5.600831274494D+02 E-N=-2.276464053709D+03  KE= 4.912292407969D+02
 1\1\GINC-NODE005\FOpt\RB3LYP\6-31G(d)\C6H12N2O2\MANAGER\11-Feb-2017\0\
 \# b3lyp/6-31G* Opt=(ModRedundant, maxcycles=1000, calcfc) geom=nocrow
 d\\Phi Psi fixed scan\\0,1\H,0.9578255297,2.9548656868,-1.8080386502\C
 ,1.3992233614,3.3724761059,-0.9013451157\H,1.3560249138,2.6318687034,-
 0.0959580777\H,0.8052953305,4.2437712221,-0.5996036615\C,2.819796127,3
 .8236415134,-1.2091344761\O,3.1727745378,4.1439762185,-2.3357425494\N,
 3.6641081444,3.8283149643,-0.1188441407\H,3.1941688237,3.86071006,0.77
 68193594\C,4.9427934921,4.5336088148,-0.131975825\H,5.4299004924,4.255
 1440887,0.81342016\C,5.8762353919,4.089555035,-1.2673528031\H,5.547352
 528,4.4708378957,-2.2335589912\H,6.9054848163,4.4107920865,-1.06443040
 91\H,5.885503675,2.997001662,-1.3207240146\C,4.6877303001,6.0602886861
 ,-0.0034415984\O,3.6316608727,6.4779942765,0.4566882772\N,5.7396995921
 ,6.8700454423,-0.3154773063\H,6.518199691,6.4725373188,-0.8195976046\C
 ,5.6519284454,8.3187681171,-0.2269046515\H,4.8015312075,8.5597511482,0
 .4117789972\H,6.567299173,8.728649685,0.2126942428\H,5.4929635542,8.77
 8201269,-1.2107711616\\Version=EM64L-G09RevA.02\State=1-A\HF=-495.8432
 842\RMSD=4.455e-09\RMSF=6.377e-04\Dipole=1.0318331,-0.0787354,0.709500
 5\Quadrupole=4.3824179,1.165379,-5.5477969,5.0443658,-1.6644901,-3.827
 861\PG=C01 [X(C6H12N2O2)]\\@


 THE WHOLE OF SCIENCE IS NOTHING MORE THAN A REFINEMENT OF EVEYDAY THINKING.
                                                              -- A. EINSTEIN
 Job cpu time:  0 days  1 hours 31 minutes 13.0 seconds.
 File lengths (MBytes):  RWF=    186 Int=      0 D2E=      0 Chk=      4 Scr=      2
 Normal termination of Gaussian 09 at Sat Feb 11 02:54:18 2017.
