 Entering Gaussian System, Link 0=g09
 Initial command:
 /home/steboss/Software/g09/l1.exe /tmp/Gau-11433.inp -scrdir=/tmp/
 Entering Link 1 = /home/steboss/Software/g09/l1.exe PID=     11435.
  
 Copyright (c) 1988,1990,1992,1993,1995,1998,2003,2009, Gaussian, Inc.
                  All Rights Reserved.
  
 This is part of the Gaussian(R) 09 program.  It is based on
 the Gaussian(R) 03 system (copyright 2003, Gaussian, Inc.),
 the Gaussian(R) 98 system (copyright 1998, Gaussian, Inc.),
 the Gaussian(R) 94 system (copyright 1995, Gaussian, Inc.),
 the Gaussian 92(TM) system (copyright 1992, Gaussian, Inc.),
 the Gaussian 90(TM) system (copyright 1990, Gaussian, Inc.),
 the Gaussian 88(TM) system (copyright 1988, Gaussian, Inc.),
 the Gaussian 86(TM) system (copyright 1986, Carnegie Mellon
 University), and the Gaussian 82(TM) system (copyright 1983,
 Carnegie Mellon University). Gaussian is a federally registered
 trademark of Gaussian, Inc.
  
 This software contains proprietary and confidential information,
 including trade secrets, belonging to Gaussian, Inc.
  
 This software is provided under written license and may be
 used, copied, transmitted, or stored only in accord with that
 written license.
  
 The following legend is applicable only to US Government
 contracts under FAR:
  
                    RESTRICTED RIGHTS LEGEND
  
 Use, reproduction and disclosure by the US Government is
 subject to restrictions as set forth in subparagraphs (a)
 and (c) of the Commercial Computer Software - Restricted
 Rights clause in FAR 52.227-19.
  
 Gaussian, Inc.
 340 Quinnipiac St., Bldg. 40, Wallingford CT 06492
  
  
 ---------------------------------------------------------------
 Warning -- This program may not be used in any manner that
 competes with the business of Gaussian, Inc. or will provide
 assistance to any competitor of Gaussian, Inc.  The licensee
 of this program is prohibited from giving any competitor of
 Gaussian, Inc. access to this program.  By using this program,
 the user acknowledges that Gaussian, Inc. is engaged in the
 business of creating and licensing software in the field of
 computational chemistry and represents and warrants to the
 licensee that it is not a competitor of Gaussian, Inc. and that
 it will not use this program in any manner prohibited above.
 ---------------------------------------------------------------
  

 Cite this work as:
 Gaussian 09, Revision A.02,
 M. J. Frisch, G. W. Trucks, H. B. Schlegel, G. E. Scuseria, 
 M. A. Robb, J. R. Cheeseman, G. Scalmani, V. Barone, B. Mennucci, 
 G. A. Petersson, H. Nakatsuji, M. Caricato, X. Li, H. P. Hratchian, 
 A. F. Izmaylov, J. Bloino, G. Zheng, J. L. Sonnenberg, M. Hada, 
 M. Ehara, K. Toyota, R. Fukuda, J. Hasegawa, M. Ishida, T. Nakajima, 
 Y. Honda, O. Kitao, H. Nakai, T. Vreven, J. A. Montgomery, Jr., 
 J. E. Peralta, F. Ogliaro, M. Bearpark, J. J. Heyd, E. Brothers, 
 K. N. Kudin, V. N. Staroverov, R. Kobayashi, J. Normand, 
 K. Raghavachari, A. Rendell, J. C. Burant, S. S. Iyengar, J. Tomasi, 
 M. Cossi, N. Rega, J. M. Millam, M. Klene, J. E. Knox, J. B. Cross, 
 V. Bakken, C. Adamo, J. Jaramillo, R. Gomperts, R. E. Stratmann, 
 O. Yazyev, A. J. Austin, R. Cammi, C. Pomelli, J. W. Ochterski, 
 R. L. Martin, K. Morokuma, V. G. Zakrzewski, G. A. Voth, 
 P. Salvador, J. J. Dannenberg, S. Dapprich, A. D. Daniels, 
 O. Farkas, J. B. Foresman, J. V. Ortiz, J. Cioslowski, 
 and D. J. Fox, Gaussian, Inc., Wallingford CT, 2009.
 
 ******************************************
 Gaussian 09:  EM64L-G09RevA.02 11-Jun-2009
                27-Dec-2016 
 ******************************************
 %chk=structure_120.chk
 -------------------------------------------------------------------
 # HF/6-31G* Opt=(ModRedundant, maxcycles=1000, calcfc) geom=nocrowd
 -------------------------------------------------------------------
 1/6=1000,10=4,18=120,19=15,38=1/1,3;
 2/9=110,12=1,17=6,18=5,40=1/2;
 3/5=1,6=6,7=1,11=9,16=1,25=1,30=1,71=2/1,2,3;
 4//1;
 5/5=2,38=5/2;
 8/6=4,10=90,11=11/1;
 11/6=1,8=1,9=11,15=111,16=1/1,2,10;
 10/6=1,7=6,13=1/2;
 6/7=2,8=2,9=2,10=2,28=1/1;
 7/10=1,18=20,25=1/1,2,3,16;
 1/6=1000,10=4,18=20,19=15/3(2);
 2/9=110,12=1/2;
 99//99;
 2/9=110,12=1/2;
 3/5=1,6=6,7=1,11=9,16=1,25=1,30=1,71=1/1,2,3;
 4/5=5,16=3/1;
 5/5=2,38=5/2;
 7//1,2,3,16;
 1/6=1000,18=20,19=15/3(-5);
 2/9=110,12=1/2;
 6/7=2,8=2,9=2,10=2,19=2,28=1/1;
 99/9=1/99;
 ------------------
 Phi Psi fixed scan
 ------------------
 Symbolic Z-matrix:
 Charge =  0 Multiplicity = 1
 H                     7.7691    1.       -3.3308 
 C                     7.7691    2.09     -3.3308 
 H                     7.2553    2.4539   -4.2206 
 H                     8.7965    2.4539   -3.3308 
 C                     7.0554    2.6408   -2.0946 
 O                     6.5738    1.8774   -1.2605 
 N                     6.9914    3.9697   -1.9838 
 H                     7.4025    4.5562   -2.6959 
 C                     6.3425    4.6139   -0.8598 
 H                     5.2947    4.3155   -0.8246 
 C                     7.0055    4.2208    0.4561 
 H                     8.0531    4.5213    0.4396 
 H                     6.4981    4.7189    1.2822 
 H                     6.9399    3.1409    0.5882 
 C                     6.4127    6.1294   -0.9815 
 O                     6.9688    6.6527   -1.9446 
 N                     5.846     6.8349    0. 
 H                     5.4006    6.3592    0.7716 
 C                     5.8461    8.2839    0. 
 H                     5.3323    8.6477   -0.8898 
 C                     5.1347    8.8329    1.2322 
 H                     5.6431    8.4846    2.1312 
 H                     5.1499    9.9224    1.2058 
 H                     4.1019    8.4846    1.2414 
 C                     7.266     8.8318    0. 
 O                     8.0386    8.5624    0.9171 
 N                     7.6088    9.6038   -1.0338 
 H                     6.9383    9.797    -1.764 
 C                     8.9308    10.1857  -1.1497 
 H                     9.1217    10.8292  -0.2909 
 C                     10.0046   9.1038   -1.1963 
 H                     9.8322    8.4568   -2.0563 
 H                     10.9864   9.5692   -1.2833 
 H                     9.9638    8.5111   -0.2824 
 C                     9.0538    11.018   -2.418 
 O                     8.1017    11.1268  -3.1875 
 N                     10.2322   11.6068  -2.6346 
 H                     10.9855   11.4877  -1.9725 
 C                     10.4755   12.4252  -3.8053 
 H                     9.5757    12.4581  -4.4197 
 H                     10.7397   13.4359  -3.4943 
 H                     11.2945   11.998   -4.3841 
 
 The following ModRedundant input section has been read:
 D   15   17   19   25 F                                                       
 D   17   19   25   27 F                                                       

 GradGradGradGradGradGradGradGradGradGradGradGradGradGradGradGradGradGrad
 Berny optimization.
 Initialization pass.
                           ----------------------------
                           !    Initial Parameters    !
                           ! (Angstroms and Degrees)  !
 --------------------------                            --------------------------
 ! Name  Definition              Value          Derivative Info.                !
 --------------------------------------------------------------------------------
 ! R1    R(1,2)                  1.09           calculate D2E/DX2 analytically  !
 ! R2    R(2,3)                  1.09           calculate D2E/DX2 analytically  !
 ! R3    R(2,4)                  1.0899         calculate D2E/DX2 analytically  !
 ! R4    R(2,5)                  1.53           calculate D2E/DX2 analytically  !
 ! R5    R(5,6)                  1.229          calculate D2E/DX2 analytically  !
 ! R6    R(5,7)                  1.335          calculate D2E/DX2 analytically  !
 ! R7    R(7,8)                  1.01           calculate D2E/DX2 analytically  !
 ! R8    R(7,9)                  1.4489         calculate D2E/DX2 analytically  !
 ! R9    R(9,10)                 1.09           calculate D2E/DX2 analytically  !
 ! R10   R(9,11)                 1.525          calculate D2E/DX2 analytically  !
 ! R11   R(9,15)                 1.522          calculate D2E/DX2 analytically  !
 ! R12   R(11,12)                1.09           calculate D2E/DX2 analytically  !
 ! R13   R(11,13)                1.09           calculate D2E/DX2 analytically  !
 ! R14   R(11,14)                1.0899         calculate D2E/DX2 analytically  !
 ! R15   R(15,16)                1.2291         calculate D2E/DX2 analytically  !
 ! R16   R(15,17)                1.335          calculate D2E/DX2 analytically  !
 ! R17   R(17,18)                1.01           calculate D2E/DX2 analytically  !
 ! R18   R(17,19)                1.449          calculate D2E/DX2 analytically  !
 ! R19   R(19,20)                1.09           calculate D2E/DX2 analytically  !
 ! R20   R(19,21)                1.5251         calculate D2E/DX2 analytically  !
 ! R21   R(19,25)                1.5219         calculate D2E/DX2 analytically  !
 ! R22   R(21,22)                1.0899         calculate D2E/DX2 analytically  !
 ! R23   R(21,23)                1.0899         calculate D2E/DX2 analytically  !
 ! R24   R(21,24)                1.09           calculate D2E/DX2 analytically  !
 ! R25   R(25,26)                1.229          calculate D2E/DX2 analytically  !
 ! R26   R(25,27)                1.335          calculate D2E/DX2 analytically  !
 ! R27   R(27,28)                1.01           calculate D2E/DX2 analytically  !
 ! R28   R(27,29)                1.449          calculate D2E/DX2 analytically  !
 ! R29   R(29,30)                1.09           calculate D2E/DX2 analytically  !
 ! R30   R(29,31)                1.525          calculate D2E/DX2 analytically  !
 ! R31   R(29,35)                1.522          calculate D2E/DX2 analytically  !
 ! R32   R(31,32)                1.0899         calculate D2E/DX2 analytically  !
 ! R33   R(31,33)                1.09           calculate D2E/DX2 analytically  !
 ! R34   R(31,34)                1.09           calculate D2E/DX2 analytically  !
 ! R35   R(35,36)                1.229          calculate D2E/DX2 analytically  !
 ! R36   R(35,37)                1.335          calculate D2E/DX2 analytically  !
 ! R37   R(37,38)                1.01           calculate D2E/DX2 analytically  !
 ! R38   R(37,39)                1.449          calculate D2E/DX2 analytically  !
 ! R39   R(39,40)                1.0901         calculate D2E/DX2 analytically  !
 ! R40   R(39,41)                1.09           calculate D2E/DX2 analytically  !
 ! R41   R(39,42)                1.0901         calculate D2E/DX2 analytically  !
 ! A1    A(1,2,3)              109.5023         calculate D2E/DX2 analytically  !
 ! A2    A(1,2,4)              109.5039         calculate D2E/DX2 analytically  !
 ! A3    A(1,2,5)              111.1            calculate D2E/DX2 analytically  !
 ! A4    A(3,2,4)              109.4422         calculate D2E/DX2 analytically  !
 ! A5    A(3,2,5)              108.6323         calculate D2E/DX2 analytically  !
 ! A6    A(4,2,5)              108.6332         calculate D2E/DX2 analytically  !
 ! A7    A(2,5,6)              120.4994         calculate D2E/DX2 analytically  !
 ! A8    A(2,5,7)              116.5999         calculate D2E/DX2 analytically  !
 ! A9    A(6,5,7)              122.9007         calculate D2E/DX2 analytically  !
 ! A10   A(5,7,8)              120.0            calculate D2E/DX2 analytically  !
 ! A11   A(5,7,9)              121.8976         calculate D2E/DX2 analytically  !
 ! A12   A(8,7,9)              118.1024         calculate D2E/DX2 analytically  !
 ! A13   A(7,9,10)             109.5016         calculate D2E/DX2 analytically  !
 ! A14   A(7,9,11)             111.1039         calculate D2E/DX2 analytically  !
 ! A15   A(7,9,15)             111.1012         calculate D2E/DX2 analytically  !
 ! A16   A(10,9,11)            108.6312         calculate D2E/DX2 analytically  !
 ! A17   A(10,9,15)            108.6329         calculate D2E/DX2 analytically  !
 ! A18   A(11,9,15)            107.7949         calculate D2E/DX2 analytically  !
 ! A19   A(9,11,12)            109.4947         calculate D2E/DX2 analytically  !
 ! A20   A(9,11,13)            109.5            calculate D2E/DX2 analytically  !
 ! A21   A(9,11,14)            109.5002         calculate D2E/DX2 analytically  !
 ! A22   A(12,11,13)           109.4455         calculate D2E/DX2 analytically  !
 ! A23   A(12,11,14)           109.4414         calculate D2E/DX2 analytically  !
 ! A24   A(13,11,14)           109.4454         calculate D2E/DX2 analytically  !
 ! A25   A(9,15,16)            120.4955         calculate D2E/DX2 analytically  !
 ! A26   A(9,15,17)            116.6053         calculate D2E/DX2 analytically  !
 ! A27   A(16,15,17)           122.8992         calculate D2E/DX2 analytically  !
 ! A28   A(15,17,18)           119.9987         calculate D2E/DX2 analytically  !
 ! A29   A(15,17,19)           121.8998         calculate D2E/DX2 analytically  !
 ! A30   A(18,17,19)           118.1015         calculate D2E/DX2 analytically  !
 ! A31   A(17,19,20)           109.4954         calculate D2E/DX2 analytically  !
 ! A32   A(17,19,21)           111.0974         calculate D2E/DX2 analytically  !
 ! A33   A(17,19,25)           111.1042         calculate D2E/DX2 analytically  !
 ! A34   A(20,19,21)           108.6349         calculate D2E/DX2 analytically  !
 ! A35   A(20,19,25)           108.6399         calculate D2E/DX2 analytically  !
 ! A36   A(21,19,25)           107.7944         calculate D2E/DX2 analytically  !
 ! A37   A(19,21,22)           109.4996         calculate D2E/DX2 analytically  !
 ! A38   A(19,21,23)           109.4977         calculate D2E/DX2 analytically  !
 ! A39   A(19,21,24)           109.4988         calculate D2E/DX2 analytically  !
 ! A40   A(22,21,23)           109.4452         calculate D2E/DX2 analytically  !
 ! A41   A(22,21,24)           109.4447         calculate D2E/DX2 analytically  !
 ! A42   A(23,21,24)           109.4412         calculate D2E/DX2 analytically  !
 ! A43   A(19,25,26)           120.5014         calculate D2E/DX2 analytically  !
 ! A44   A(19,25,27)           116.5988         calculate D2E/DX2 analytically  !
 ! A45   A(26,25,27)           122.8998         calculate D2E/DX2 analytically  !
 ! A46   A(25,27,28)           120.0005         calculate D2E/DX2 analytically  !
 ! A47   A(25,27,29)           121.8991         calculate D2E/DX2 analytically  !
 ! A48   A(28,27,29)           118.1005         calculate D2E/DX2 analytically  !
 ! A49   A(27,29,30)           109.5023         calculate D2E/DX2 analytically  !
 ! A50   A(27,29,31)           111.0965         calculate D2E/DX2 analytically  !
 ! A51   A(27,29,35)           111.0992         calculate D2E/DX2 analytically  !
 ! A52   A(30,29,31)           108.6378         calculate D2E/DX2 analytically  !
 ! A53   A(30,29,35)           108.637          calculate D2E/DX2 analytically  !
 ! A54   A(31,29,35)           107.7933         calculate D2E/DX2 analytically  !
 ! A55   A(29,31,32)           109.5036         calculate D2E/DX2 analytically  !
 ! A56   A(29,31,33)           109.4968         calculate D2E/DX2 analytically  !
 ! A57   A(29,31,34)           109.498          calculate D2E/DX2 analytically  !
 ! A58   A(32,31,33)           109.4483         calculate D2E/DX2 analytically  !
 ! A59   A(32,31,34)           109.4419         calculate D2E/DX2 analytically  !
 ! A60   A(33,31,34)           109.4387         calculate D2E/DX2 analytically  !
 ! A61   A(29,35,36)           120.5013         calculate D2E/DX2 analytically  !
 ! A62   A(29,35,37)           116.598          calculate D2E/DX2 analytically  !
 ! A63   A(36,35,37)           122.9008         calculate D2E/DX2 analytically  !
 ! A64   A(35,37,38)           120.0001         calculate D2E/DX2 analytically  !
 ! A65   A(35,37,39)           121.8984         calculate D2E/DX2 analytically  !
 ! A66   A(38,37,39)           118.1015         calculate D2E/DX2 analytically  !
 ! A67   A(37,39,40)           109.502          calculate D2E/DX2 analytically  !
 ! A68   A(37,39,41)           109.506          calculate D2E/DX2 analytically  !
 ! A69   A(37,39,42)           109.5            calculate D2E/DX2 analytically  !
 ! A70   A(40,39,41)           109.4463         calculate D2E/DX2 analytically  !
 ! A71   A(40,39,42)           109.4352         calculate D2E/DX2 analytically  !
 ! A72   A(41,39,42)           109.4378         calculate D2E/DX2 analytically  !
 ! D1    D(1,2,5,6)             -0.0022         calculate D2E/DX2 analytically  !
 ! D2    D(1,2,5,7)           -179.9987         calculate D2E/DX2 analytically  !
 ! D3    D(3,2,5,6)            120.5106         calculate D2E/DX2 analytically  !
 ! D4    D(3,2,5,7)            -59.486          calculate D2E/DX2 analytically  !
 ! D5    D(4,2,5,6)           -120.5174         calculate D2E/DX2 analytically  !
 ! D6    D(4,2,5,7)             59.4861         calculate D2E/DX2 analytically  !
 ! D7    D(2,5,7,8)             -0.0002         calculate D2E/DX2 analytically  !
 ! D8    D(2,5,7,9)           -179.9989         calculate D2E/DX2 analytically  !
 ! D9    D(6,5,7,8)           -179.9966         calculate D2E/DX2 analytically  !
 ! D10   D(6,5,7,9)              0.0046         calculate D2E/DX2 analytically  !
 ! D11   D(5,7,9,10)           -60.0012         calculate D2E/DX2 analytically  !
 ! D12   D(5,7,9,11)            59.9966         calculate D2E/DX2 analytically  !
 ! D13   D(5,7,9,15)          -179.9994         calculate D2E/DX2 analytically  !
 ! D14   D(8,7,9,10)           120.0            calculate D2E/DX2 analytically  !
 ! D15   D(8,7,9,11)          -120.0021         calculate D2E/DX2 analytically  !
 ! D16   D(8,7,9,15)             0.0018         calculate D2E/DX2 analytically  !
 ! D17   D(7,9,11,12)           59.997          calculate D2E/DX2 analytically  !
 ! D18   D(7,9,11,13)          179.9976         calculate D2E/DX2 analytically  !
 ! D19   D(7,9,11,14)          -59.9986         calculate D2E/DX2 analytically  !
 ! D20   D(10,9,11,12)        -179.4894         calculate D2E/DX2 analytically  !
 ! D21   D(10,9,11,13)         -59.4889         calculate D2E/DX2 analytically  !
 ! D22   D(10,9,11,14)          60.515          calculate D2E/DX2 analytically  !
 ! D23   D(15,9,11,12)         -61.9521         calculate D2E/DX2 analytically  !
 ! D24   D(15,9,11,13)          58.0485         calculate D2E/DX2 analytically  !
 ! D25   D(15,9,11,14)         178.0523         calculate D2E/DX2 analytically  !
 ! D26   D(7,9,15,16)           -0.0061         calculate D2E/DX2 analytically  !
 ! D27   D(7,9,15,17)          179.9974         calculate D2E/DX2 analytically  !
 ! D28   D(10,9,15,16)        -120.519          calculate D2E/DX2 analytically  !
 ! D29   D(10,9,15,17)          59.4845         calculate D2E/DX2 analytically  !
 ! D30   D(11,9,15,16)         121.9447         calculate D2E/DX2 analytically  !
 ! D31   D(11,9,15,17)         -58.0518         calculate D2E/DX2 analytically  !
 ! D32   D(9,15,17,18)           0.0036         calculate D2E/DX2 analytically  !
 ! D33   D(9,15,17,19)         179.9935         calculate D2E/DX2 analytically  !
 ! D34   D(16,15,17,18)       -179.9928         calculate D2E/DX2 analytically  !
 ! D35   D(16,15,17,19)         -0.0029         calculate D2E/DX2 analytically  !
 ! D36   D(15,17,19,20)         60.0082         calculate D2E/DX2 analytically  !
 ! D37   D(15,17,19,21)       -179.9975         calculate D2E/DX2 analytically  !
 ! D38   D(15,17,19,25)        -59.9965         frozen, calculate D2E/DX2 analyt!
 ! D39   D(18,17,19,20)       -120.0017         calculate D2E/DX2 analytically  !
 ! D40   D(18,17,19,21)         -0.0074         calculate D2E/DX2 analytically  !
 ! D41   D(18,17,19,25)        119.9935         calculate D2E/DX2 analytically  !
 ! D42   D(17,19,21,22)         60.0039         calculate D2E/DX2 analytically  !
 ! D43   D(17,19,21,23)       -179.9943         calculate D2E/DX2 analytically  !
 ! D44   D(17,19,21,24)        -59.998          calculate D2E/DX2 analytically  !
 ! D45   D(20,19,21,22)       -179.4919         calculate D2E/DX2 analytically  !
 ! D46   D(20,19,21,23)        -59.4901         calculate D2E/DX2 analytically  !
 ! D47   D(20,19,21,24)         60.5062         calculate D2E/DX2 analytically  !
 ! D48   D(25,19,21,22)        -61.9445         calculate D2E/DX2 analytically  !
 ! D49   D(25,19,21,23)         58.0573         calculate D2E/DX2 analytically  !
 ! D50   D(25,19,21,24)        178.0536         calculate D2E/DX2 analytically  !
 ! D51   D(17,19,25,26)        -60.0007         calculate D2E/DX2 analytically  !
 ! D52   D(17,19,25,27)        119.9986         frozen, calculate D2E/DX2 analyt!
 ! D53   D(20,19,25,26)        179.4877         calculate D2E/DX2 analytically  !
 ! D54   D(20,19,25,27)         -0.5131         calculate D2E/DX2 analytically  !
 ! D55   D(21,19,25,26)         61.9435         calculate D2E/DX2 analytically  !
 ! D56   D(21,19,25,27)       -118.0573         calculate D2E/DX2 analytically  !
 ! D57   D(19,25,27,28)          0.0039         calculate D2E/DX2 analytically  !
 ! D58   D(19,25,27,29)        179.9979         calculate D2E/DX2 analytically  !
 ! D59   D(26,25,27,28)       -179.9968         calculate D2E/DX2 analytically  !
 ! D60   D(26,25,27,29)         -0.0029         calculate D2E/DX2 analytically  !
 ! D61   D(25,27,29,30)        -59.9969         calculate D2E/DX2 analytically  !
 ! D62   D(25,27,29,31)         60.0049         calculate D2E/DX2 analytically  !
 ! D63   D(25,27,29,35)       -179.9994         calculate D2E/DX2 analytically  !
 ! D64   D(28,27,29,30)        119.9971         calculate D2E/DX2 analytically  !
 ! D65   D(28,27,29,31)       -120.0011         calculate D2E/DX2 analytically  !
 ! D66   D(28,27,29,35)         -0.0054         calculate D2E/DX2 analytically  !
 ! D67   D(27,29,31,32)         59.9976         calculate D2E/DX2 analytically  !
 ! D68   D(27,29,31,33)       -179.9949         calculate D2E/DX2 analytically  !
 ! D69   D(27,29,31,34)        -60.0027         calculate D2E/DX2 analytically  !
 ! D70   D(30,29,31,32)       -179.4883         calculate D2E/DX2 analytically  !
 ! D71   D(30,29,31,33)        -59.4808         calculate D2E/DX2 analytically  !
 ! D72   D(30,29,31,34)         60.5114         calculate D2E/DX2 analytically  !
 ! D73   D(35,29,31,32)        -61.9434         calculate D2E/DX2 analytically  !
 ! D74   D(35,29,31,33)         58.0641         calculate D2E/DX2 analytically  !
 ! D75   D(35,29,31,34)        178.0563         calculate D2E/DX2 analytically  !
 ! D76   D(27,29,35,36)          0.0026         calculate D2E/DX2 analytically  !
 ! D77   D(27,29,35,37)        179.9999         calculate D2E/DX2 analytically  !
 ! D78   D(30,29,35,36)       -120.5127         calculate D2E/DX2 analytically  !
 ! D79   D(30,29,35,37)         59.4846         calculate D2E/DX2 analytically  !
 ! D80   D(31,29,35,36)        121.9418         calculate D2E/DX2 analytically  !
 ! D81   D(31,29,35,37)        -58.0608         calculate D2E/DX2 analytically  !
 ! D82   D(29,35,37,38)          0.0053         calculate D2E/DX2 analytically  !
 ! D83   D(29,35,37,39)       -179.9974         calculate D2E/DX2 analytically  !
 ! D84   D(36,35,37,38)       -179.9974         calculate D2E/DX2 analytically  !
 ! D85   D(36,35,37,39)         -0.0002         calculate D2E/DX2 analytically  !
 ! D86   D(35,37,39,40)         -0.0042         calculate D2E/DX2 analytically  !
 ! D87   D(35,37,39,41)        120.0054         calculate D2E/DX2 analytically  !
 ! D88   D(35,37,39,42)       -119.9966         calculate D2E/DX2 analytically  !
 ! D89   D(38,37,39,40)        179.9931         calculate D2E/DX2 analytically  !
 ! D90   D(38,37,39,41)        -59.9973         calculate D2E/DX2 analytically  !
 ! D91   D(38,37,39,42)         60.0008         calculate D2E/DX2 analytically  !
 --------------------------------------------------------------------------------
 Trust Radius=3.00D-01 FncErr=1.00D-07 GrdErr=1.00D-07
 Number of steps in this run= 252 maximum allowed number of steps= 252.
 GradGradGradGradGradGradGradGradGradGradGradGradGradGradGradGradGradGrad

                          Input orientation:                          
 ---------------------------------------------------------------------
 Center     Atomic      Atomic             Coordinates (Angstroms)
 Number     Number       Type             X           Y           Z
 ---------------------------------------------------------------------
      1          1           0        7.769100    1.000000   -3.330800
      2          6           0        7.769100    2.090000   -3.330800
      3          1           0        7.255300    2.453900   -4.220600
      4          1           0        8.796500    2.453900   -3.330800
      5          6           0        7.055400    2.640800   -2.094600
      6          8           0        6.573800    1.877400   -1.260500
      7          7           0        6.991400    3.969700   -1.983800
      8          1           0        7.402500    4.556200   -2.695900
      9          6           0        6.342500    4.613900   -0.859800
     10          1           0        5.294700    4.315500   -0.824600
     11          6           0        7.005500    4.220800    0.456100
     12          1           0        8.053100    4.521300    0.439600
     13          1           0        6.498100    4.718900    1.282200
     14          1           0        6.939900    3.140900    0.588200
     15          6           0        6.412700    6.129400   -0.981500
     16          8           0        6.968800    6.652700   -1.944600
     17          7           0        5.846000    6.834900    0.000000
     18          1           0        5.400600    6.359200    0.771600
     19          6           0        5.846100    8.283900    0.000000
     20          1           0        5.332300    8.647700   -0.889800
     21          6           0        5.134700    8.832900    1.232200
     22          1           0        5.643100    8.484600    2.131200
     23          1           0        5.149900    9.922400    1.205800
     24          1           0        4.101900    8.484600    1.241400
     25          6           0        7.266000    8.831800    0.000000
     26          8           0        8.038600    8.562400    0.917100
     27          7           0        7.608800    9.603800   -1.033800
     28          1           0        6.938300    9.797000   -1.764000
     29          6           0        8.930800   10.185700   -1.149700
     30          1           0        9.121700   10.829200   -0.290900
     31          6           0       10.004600    9.103800   -1.196300
     32          1           0        9.832200    8.456800   -2.056300
     33          1           0       10.986400    9.569200   -1.283300
     34          1           0        9.963800    8.511100   -0.282400
     35          6           0        9.053800   11.018000   -2.418000
     36          8           0        8.101700   11.126800   -3.187500
     37          7           0       10.232200   11.606800   -2.634600
     38          1           0       10.985500   11.487700   -1.972500
     39          6           0       10.475500   12.425200   -3.805300
     40          1           0        9.575700   12.458100   -4.419700
     41          1           0       10.739700   13.435900   -3.494300
     42          1           0       11.294500   11.998000   -4.384100
 ---------------------------------------------------------------------
                    Distance matrix (angstroms):
                    1          2          3          4          5
     1  H    0.000000
     2  C    1.090000   0.000000
     3  H    1.780326   1.090026   0.000000
     4  H    1.780274   1.089942   1.779618   0.000000
     5  C    2.174806   1.530013   2.143541   2.143490   0.000000
     6  O    2.546510   2.400017   3.091761   3.091745   1.229000
     7  N    3.352364   2.439774   2.714879   2.714856   1.335046
     8  H    3.630985   2.572865   2.601162   2.601153   2.037351
     9  C    4.604487   3.809344   4.098022   4.097994   2.434354
    10  H    4.836965   4.166119   4.340774   4.691396   2.741821
    11  C    5.029637   4.411803   5.005583   4.546452   3.000827
    12  H    5.166829   4.495308   5.160241   4.363795   3.309661
    13  H    6.060151   5.459517   5.998699   5.629621   4.003981
    14  H    4.541980   4.141319   4.867854   4.390614   2.731457
    15  C    5.802566   4.865777   4.971020   4.971017   3.717847
    16  O    5.874951   4.835314   4.784577   4.784554   4.015637
    17  N    6.988462   6.107914   6.244418   6.244425   4.841536
    18  H    7.152657   6.376954   6.604040   6.604028   4.977948
    19  C    8.236951   7.290854   7.334045   7.334030   6.139571
    20  H    8.389505   7.409447   7.290769   7.504820   6.364233
    21  C    9.440093   8.557320   8.655727   8.655714   7.286892
    22  H    9.506448   8.674343   8.905835   8.726209   7.348604
    23  H   10.346505   9.422709   9.468739   9.468734   8.218593
    24  H    9.506451   8.674346   8.726209   8.905820   7.348609
    25  C    8.525516   7.536525   7.647953   7.356240   6.539127
    26  O    8.677971   7.746564   8.020180   7.478826   6.715829
    27  N    8.906586   7.858696   7.835925   7.603151   7.065049
    28  H    8.973979   7.908409   7.749612   7.734914   7.164789
    29  C    9.512299   8.464461   8.486369   8.034673   7.831697
    30  H   10.377075   9.351157   9.437777   8.915851   8.635556
    31  C    8.673242   7.664655   7.805524   7.087790   7.160663
    32  H    7.841212   6.812993   6.881818   6.223490   6.444993
    33  H    9.379470   8.395338   8.554317   7.721102   8.007103
    34  H    8.397980   7.439084   7.715897   6.880771   6.797300
    35  C   10.141202   9.066027   8.934639   8.616450   8.618333
    36  O   10.133274   9.044054   8.775129   8.701866   8.619824
    37  N   10.911268   9.855001   9.754635   9.290937   9.527477
    38  H   11.053599  10.025317  10.028853   9.393947   9.681334
    39  C   11.750955  10.694209  10.486610  10.122797  10.505145
    40  H   11.650646  10.580501  10.271705  10.093407  10.398913
    41  H   12.786822  11.729478  11.544387  11.153792  11.492059
    42  H   11.597150  10.569122  10.364927   9.921658  10.524684
                    6          7          8          9         10
     6  O    0.000000
     7  N    2.252836   0.000000
     8  H    3.150093   1.009986   0.000000
     9  C    2.775336   1.448945   2.120894   0.000000
    10  H    2.787550   2.083774   2.828873   1.090030   0.000000
    11  C    2.936768   2.452827   3.194559   1.525021   2.139158
    12  H    3.474029   2.702654   3.202477   2.150155   3.041270
    13  H    3.813814   3.386946   4.082853   2.150209   2.459575
    14  H    2.268954   2.702729   3.605882   2.150191   2.466247
    15  C    4.264188   2.450266   2.528602   1.521998   2.136533
    16  O    4.840197   2.683382   2.268890   2.392854   3.085371
    17  N    5.166755   3.668348   3.857855   2.432819   2.707632
    18  H    5.058889   3.979018   4.391124   2.568017   2.595338
    19  C    6.569753   4.884618   4.856543   3.801916   4.090502
    20  H    6.893163   5.082631   4.928296   4.158479   4.332854
    21  C    7.527519   6.118881   6.234024   4.861605   4.966179
    22  H    7.484980   6.255834   6.467512   4.941413   5.122454
    23  H    8.534176   6.999951   7.006681   5.819723   5.964966
    24  H    7.484977   6.255833   6.467505   4.941422   4.803387
    25  C    7.101527   5.258411   5.056408   4.402589   4.996294
    26  O    7.181699   5.532155   5.432129   4.650245   5.347772
    27  N    7.798710   5.746892   5.318214   5.151009   5.776239
    28  H    7.943956   5.831686   5.343211   5.295005   5.799201
    29  C    8.636873   6.564728   6.034708   6.150471   6.912754
    30  H    9.357705   7.379487   6.934710   6.832097   7.573576
    31  C    7.999710   6.004874   5.449806   5.803741   6.726748
    32  H    7.385051   5.311259   4.639743   5.327053   6.265489
    33  H    8.867657   6.914125   6.322179   6.804422   7.759331
    34  H    7.513638   5.688079   5.294004   5.351203   6.300598
    35  C    9.541529   7.356667   6.675244   7.126825   7.848138
    36  O    9.570748   7.342053   6.625959   7.136585   7.736689
    37  N   10.484907   8.321756   7.597494   8.196361   8.989887
    38  H   10.598486   8.513124   7.836255   8.369270   9.227314
    39  C   11.530627   9.324821   8.520285   9.315260  10.074348
    40  H   11.443040   9.201367   8.374623   9.200975   9.876925
    41  H   12.487734  10.292731   9.519633  10.203119  10.952489
    42  H   11.596052   9.419751   8.566100   9.563887  10.377304
                   11         12         13         14         15
    11  C    0.000000
    12  H    1.089972   0.000000
    13  H    1.089954   1.779619   0.000000
    14  H    1.089926   1.779551   1.779581   0.000000
    15  C    2.461881   2.701189   2.668547   3.416582   0.000000
    16  O    3.417433   3.376830   3.791224   4.329971   1.229086
    17  N    2.895857   3.227582   2.558657   3.897208   1.334999
    18  H    2.692211   3.244049   2.038579   3.572189   2.037281
    19  C    4.249826   4.384205   3.844264   5.290825   2.434389
    20  H    4.920212   5.118323   4.638118   5.923994   2.741807
    21  C    5.037230   5.266419   4.334323   6.006026   3.720573
    22  H    4.779339   4.937343   3.953773   5.711188   3.978461
    23  H    6.042644   6.179605   5.375862   7.040900   4.556950
    24  H    5.218005   5.653549   4.463624   6.085725   3.978448
    25  C    4.640820   4.403769   4.376032   5.730503   2.999071
    26  O    4.486570   4.069239   4.156793   5.541478   3.488226
    27  N    5.617870   5.310378   5.519036   6.696819   3.674894
    28  H    6.002280   5.825087   5.938031   7.059498   3.786800
    29  C    6.470348   5.948248   6.458953   7.524173   4.777310
    30  H    6.979059   6.439343   6.833278   8.040089   5.468430
    31  C    5.963951   5.242502   6.137251   6.937795   4.668505
    32  H    5.678563   4.988274   6.019444   6.604360   4.273753
    33  H    6.890462   6.087194   7.088867   7.823025   5.730797
    34  H    5.263420   4.482250   5.370273   6.224224   4.332614
    35  C    7.658845   7.167593   7.739622   8.692210   5.739107
    36  O    7.884815   7.535970   7.975646   8.909562   5.717794
    37  N    8.632324   8.025179   8.759452   9.638316   6.879188
    38  H    8.634022   7.933973   8.749085   9.622533   7.113646
    39  C    9.874847   9.292945  10.054324  10.862851   8.007327
    40  H    9.911229   9.429947  10.093488  10.901226   7.866272
    41  H   10.698971  10.107595  10.807045  11.708643   8.855622
    42  H   10.114737   9.469731  10.397005  11.051449   8.357639
                   16         17         18         19         20
    16  O    0.000000
    17  N    2.252853   0.000000
    18  H    3.150101   1.009969   0.000000
    19  C    2.775381   1.449000   2.120921   0.000000
    20  H    2.787608   2.083717   2.828807   1.089993   0.000000
    21  C    4.267230   2.452808   2.530227   1.525060   2.139212
    22  H    4.661060   2.702719   2.534688   2.150233   3.041322
    23  H    4.891253   3.386911   3.598302   2.150193   2.459608
    24  H    4.661070   2.702678   2.534691   2.150253   2.466272
    25  C    2.935690   2.450308   3.191995   1.521943   2.136547
    26  O    3.602881   2.938167   3.440102   2.392842   3.255184
    27  N    3.154068   3.441368   4.320075   2.432692   2.473321
    28  H    3.149630   3.616470   4.540072   2.567892   2.159711
    29  C    4.118665   4.697410   5.549397   3.801845   3.922014
    30  H    4.981250   5.173902   5.912393   4.158453   4.413295
    31  C    3.972899   4.886000   5.709840   4.404145   4.704504
    32  H    3.386195   4.769562   5.660037   4.488570   4.652555
    33  H    5.008433   5.962128   6.762239   5.451746   5.742199
    34  H    3.896997   4.454848   5.154065   4.133621   4.673156
    35  C    4.860779   5.799572   6.724867   4.859153   4.669398
    36  O    4.779732   5.802477   6.760209   4.830111   4.369776
    37  N    5.972352   6.996492   7.904673   6.100873   5.984114
    38  H    6.285848   7.207896   8.063666   6.369342   6.418451
    39  C    7.005777   8.195367   9.137778   7.284368   7.015850
    40  H    6.828229   8.066275   9.032034   7.132153   6.707144
    41  H    7.914105   8.929257   9.837864   7.918368   7.677907
    42  H    7.296237   8.692761   9.649630   7.918329   7.680005
                   21         22         23         24         25
    21  C    0.000000
    22  H    1.089947   0.000000
    23  H    1.089926   1.779573   0.000000
    24  H    1.089988   1.779618   1.779562   0.000000
    25  C    2.461861   2.701179   2.668565   3.416599   0.000000
    26  O    2.933444   2.686729   3.205860   3.950801   1.229048
    27  N    3.442414   3.890220   3.341183   4.327527   1.335005
    28  H    3.627627   4.309585   3.468978   4.335895   2.037325
    29  C    4.681227   4.946415   4.462389   5.650608   2.434423
    30  H    4.711817   4.844004   4.340230   5.748346   2.741870
    31  C    5.448571   5.520720   5.477983   6.416203   3.000841
    32  H    5.746494   5.923216   5.891792   6.611500   3.309740
    33  H    6.411885   6.433197   6.354927   7.412611   4.003997
    34  H    5.071270   4.949204   5.232604   6.056776   2.731432
    35  C    5.784286   6.224645   5.438079   6.658126   3.717852
    36  O    5.796448   6.427636   5.428148   6.526467   4.015666
    37  N    6.973605   7.315793   6.589055   7.896334   4.841496
    38  H    7.179828   7.375649   6.826857   8.168948   4.977875
    39  C    8.173443   8.609440   7.728981   9.034395   6.139521
    40  H    8.050375   8.612104   7.593664   8.820388   6.165915
    41  H    8.656988   9.062944   8.104412   9.539529   6.743475
    42  H    8.916491   9.312971   8.562196   9.783850   6.743439
                   26         27         28         29         30
    26  O    0.000000
    27  N    2.252832   0.000000
    28  H    3.150110   1.009994   0.000000
    29  C    2.775389   1.449043   2.120969   0.000000
    30  H    2.787607   2.083836   2.828904   1.089987   0.000000
    31  C    2.936789   2.452807   3.194527   1.525033   2.139221
    32  H    3.474084   2.702707   3.202535   2.150242   3.041337
    33  H    3.813782   3.386979   4.082901   2.150212   2.459586
    34  H    2.268882   2.702706   3.605874   2.150252   2.466332
    35  C    4.264211   2.450305   2.528616   1.521985   2.136542
    36  O    4.840235   2.683450   2.268969   2.392845   3.085329
    37  N    5.166704   3.668351   3.857862   2.432714   2.707545
    38  H    5.058793   3.978987   4.391101   2.567878   2.595217
    39  C    6.569685   4.884617   4.856555   3.801798   4.090354
    40  H    6.783848   4.845621   4.592393   4.033931   4.461661
    41  H    7.106855   5.526444   5.539510   4.396939   4.435604
    42  H    7.106824   5.526399   5.539477   4.396914   4.779272
                   31         32         33         34         35
    31  C    0.000000
    32  H    1.089922   0.000000
    33  H    1.089999   1.779646   0.000000
    34  H    1.090033   1.779603   1.779631   0.000000
    35  C    2.461856   2.701200   2.668615   3.416641   0.000000
    36  O    3.417373   3.376854   3.791252   4.330001   1.229009
    37  N    2.895776   3.227527   2.558641   3.897210   1.335001
    38  H    2.692142   3.243991   2.038539   3.572178   2.037291
    39  C    4.249744   4.384180   3.844247   5.290826   2.434347
    40  H    4.671787   4.654230   4.491417   5.731202   2.520530
    41  H    4.958656   5.261448   4.461026   5.930597   3.137980
    42  H    4.494697   4.482976   3.950817   5.545555   3.137943
                   36         37         38         39         40
    36  O    0.000000
    37  N    2.252805   0.000000
    38  H    3.150044   1.009961   0.000000
    39  C    2.775328   1.448969   2.120887   0.000000
    40  H    2.337382   2.083815   2.986302   1.090050   0.000000
    41  H    3.519249   2.083806   2.484306   1.089971   1.779706
    42  H    3.519206   2.083811   2.484291   1.090078   1.779672
                   41         42
    41  H    0.000000
    42  H    1.779636   0.000000
 Stoichiometry    C12H22N4O4
 Framework group  C1[X(C12H22N4O4)]
 Deg. of freedom   120
 Full point group                 C1      NOp   1
 Largest Abelian subgroup         C1      NOp   1
 Largest concise Abelian subgroup C1      NOp   1
                         Standard orientation:                         
 ---------------------------------------------------------------------
 Center     Atomic      Atomic             Coordinates (Angstroms)
 Number     Number       Type             X           Y           Z
 ---------------------------------------------------------------------
      1          1           0       -5.865296   -3.366120   -0.030010
      2          6           0       -4.830857   -3.081577   -0.222550
      3          1           0       -4.552794   -3.382047   -1.232776
      4          1           0       -4.177544   -3.576496    0.495928
      5          6           0       -4.642549   -1.568712   -0.093247
      6          8           0       -5.592690   -0.844213    0.194459
      7          7           0       -3.411371   -1.099077   -0.307700
      8          1           0       -2.662136   -1.734604   -0.541845
      9          6           0       -3.104065    0.313896   -0.215444
     10          1           0       -3.704763    0.864942   -0.939100
     11          6           0       -3.406646    0.851728    1.179142
     12          1           0       -2.805838    0.315856    1.913928
     13          1           0       -3.166544    1.914146    1.219372
     14          1           0       -4.464038    0.709997    1.402238
     15          6           0       -1.632912    0.574770   -0.505500
     16          8           0       -0.875728   -0.355287   -0.774422
     17          7           0       -1.228902    1.845968   -0.450246
     18          1           0       -1.889066    2.576285   -0.224727
     19          6           0        0.146267    2.224170   -0.706124
     20          1           0        0.424235    1.923673   -1.716332
     21          6           0        0.333946    3.732140   -0.577243
     22          1           0        0.068172    4.046923    0.431846
     23          1           0        1.375039    3.987339   -0.774565
     24          1           0       -0.307078    4.241371   -1.296858
     25          6           0        1.091852    1.551918    0.278892
     26          8           0        0.978387    1.749644    1.486612
     27          7           0        2.028013    0.754394   -0.240528
     28          1           0        2.081551    0.623186   -1.240532
     29          6           0        2.987816    0.057292    0.591668
     30          1           0        3.572035    0.782091    1.158615
     31          6           0        2.287477   -0.877854    1.571848
     32          1           0        1.705599   -1.615120    1.018867
     33          1           0        3.031928   -1.387605    2.183440
     34          1           0        1.623687   -0.299969    2.214967
     35          6           0        3.938174   -0.780256   -0.251997
     36          8           0        3.831035   -0.802304   -1.476128
     37          7           0        4.871296   -1.471247    0.406822
     38          1           0        4.919537   -1.421083    1.414383
     39          6           0        5.835009   -2.305761   -0.281913
     40          1           0        5.656399   -2.257295   -1.356138
     41          1           0        6.843072   -1.952283   -0.065352
     42          1           0        5.731492   -3.336682    0.056844
 ---------------------------------------------------------------------
 Rotational constants (GHZ):      0.5105506      0.1469987      0.1247414
 Standard basis: 6-31G(d) (6D, 7F)
 There are   344 symmetry adapted basis functions of A   symmetry.
 Integral buffers will be    131072 words long.
 Raffenetti 1 integral format.
 Two-electron integral symmetry is turned on.
   344 basis functions,   648 primitive gaussians,   344 cartesian basis functions
    77 alpha electrons       77 beta electrons
       nuclear repulsion energy      1634.9963850317 Hartrees.
 NAtoms=   42 NActive=   42 NUniq=   42 SFac= 7.50D-01 NAtFMM=   80 NAOKFM=F Big=F
 One-electron integrals computed using PRISM.
 NBasis=   344 RedAO= T  NBF=   344
 NBsUse=   344 1.00D-06 NBFU=   344
 Harris functional with IExCor=  205 diagonalized for initial guess.
 ExpMin= 1.61D-01 ExpMax= 5.48D+03 ExpMxC= 8.25D+02 IAcc=1 IRadAn=         1 AccDes= 0.00D+00
 HarFok:  IExCor=  205 AccDes= 0.00D+00 IRadAn=         1 IDoV= 1
 ScaDFX=  1.000000  1.000000  1.000000  1.000000
 FoFCou: FMM=F IPFlag=           0 FMFlag=      100000 FMFlg1=           0
         NFxFlg=           0 DoJE=T BraDBF=F KetDBF=T FulRan=T
         Omega=  0.000000  0.000000  1.000000  0.000000  0.000000 ICntrl=     500 IOpCl=  0
         NMat0=    1 NMatS0=    1 NMatT0=    0 NMatD0=    1 NMtDS0=    0 NMtDT0=    0
         I1Cent=           4 NGrid=           0.
 Petite list used in FoFCou.
 Initial guess orbital symmetries:
       Occupied  (A) (A) (A) (A) (A) (A) (A) (A) (A) (A) (A) (A)
                 (A) (A) (A) (A) (A) (A) (A) (A) (A) (A) (A) (A)
                 (A) (A) (A) (A) (A) (A) (A) (A) (A) (A) (A) (A)
                 (A) (A) (A) (A) (A) (A) (A) (A) (A) (A) (A) (A)
                 (A) (A) (A) (A) (A) (A) (A) (A) (A) (A) (A) (A)
                 (A) (A) (A) (A) (A) (A) (A) (A) (A) (A) (A) (A)
                 (A) (A) (A) (A) (A)
       Virtual   (A) (A) (A) (A) (A) (A) (A) (A) (A) (A) (A) (A)
                 (A) (A) (A) (A) (A) (A) (A) (A) (A) (A) (A) (A)
                 (A) (A) (A) (A) (A) (A) (A) (A) (A) (A) (A) (A)
                 (A) (A) (A) (A) (A) (A) (A) (A) (A) (A) (A) (A)
                 (A) (A) (A) (A) (A) (A) (A) (A) (A) (A) (A) (A)
                 (A) (A) (A) (A) (A) (A) (A) (A) (A) (A) (A) (A)
                 (A) (A) (A) (A) (A) (A) (A) (A) (A) (A) (A) (A)
                 (A) (A) (A) (A) (A) (A) (A) (A) (A) (A) (A) (A)
                 (A) (A) (A) (A) (A) (A) (A) (A) (A) (A) (A) (A)
                 (A) (A) (A) (A) (A) (A) (A) (A) (A) (A) (A) (A)
                 (A) (A) (A) (A) (A) (A) (A) (A) (A) (A) (A) (A)
                 (A) (A) (A) (A) (A) (A) (A) (A) (A) (A) (A) (A)
                 (A) (A) (A) (A) (A) (A) (A) (A) (A) (A) (A) (A)
                 (A) (A) (A) (A) (A) (A) (A) (A) (A) (A) (A) (A)
                 (A) (A) (A) (A) (A) (A) (A) (A) (A) (A) (A) (A)
                 (A) (A) (A) (A) (A) (A) (A) (A) (A) (A) (A) (A)
                 (A) (A) (A) (A) (A) (A) (A) (A) (A) (A) (A) (A)
                 (A) (A) (A) (A) (A) (A) (A) (A) (A) (A) (A) (A)
                 (A) (A) (A) (A) (A) (A) (A) (A) (A) (A) (A) (A)
                 (A) (A) (A) (A) (A) (A) (A) (A) (A) (A) (A) (A)
                 (A) (A) (A) (A) (A) (A) (A) (A) (A) (A) (A) (A)
                 (A) (A) (A) (A) (A) (A) (A) (A) (A) (A) (A) (A)
                 (A) (A) (A)
 The electronic state of the initial guess is 1-A.
 Requested convergence on RMS density matrix=1.00D-08 within 128 cycles.
 Requested convergence on MAX density matrix=1.00D-06.
 Requested convergence on             energy=1.00D-06.
 No special actions if energy rises.
 Integral accuracy reduced to 1.0D-05 until final iterations.
 Initial convergence to 1.0D-05 achieved.  Increase integral accuracy.
 SCF Done:  E(RHF) =  -984.543234114     A.U. after   15 cycles
             Convg  =    0.3193D-08             -V/T =  2.0020
 Range of M.O.s used for correlation:     1   344
 NBasis=   344 NAE=    77 NBE=    77 NFC=     0 NFV=     0
 NROrb=    344 NOA=    77 NOB=    77 NVA=   267 NVB=   267
 Symmetrizing basis deriv contribution to polar:
 IMax=3 JMax=2 DiffMx= 0.00D+00
 G2DrvN: will do    43 centers at a time, making    1 passes doing MaxLOS=2.
 Calling FoFCou, ICntrl=  3107 FMM=F I1Cent=   0 AccDes= 0.00D+00.
 FoFDir/FoFCou used for L=0 through L=2.
 End of G2Drv Frequency-dependent properties file   721 does not exist.
 End of G2Drv Frequency-dependent properties file   722 does not exist.
          IDoAtm=111111111111111111111111111111111111111111
          Differentiating once with respect to nuclear coordinates.
          There are   129 degrees of freedom in the 1st order CPHF.  IDoFFX=5.
    123 vectors produced by pass  0 Test12= 2.06D-10 1.00D-07 XBig12= 9.71D-02 5.45D-02.
 AX will form   123 AO Fock derivatives at one time.
    123 vectors produced by pass  1 Test12= 2.06D-10 1.00D-07 XBig12= 1.20D-02 3.07D-02.
    123 vectors produced by pass  2 Test12= 2.06D-10 1.00D-07 XBig12= 1.45D-04 1.97D-03.
    123 vectors produced by pass  3 Test12= 2.06D-10 1.00D-07 XBig12= 1.59D-06 1.39D-04.
    123 vectors produced by pass  4 Test12= 2.06D-10 1.00D-07 XBig12= 9.40D-09 1.19D-05.
     36 vectors produced by pass  5 Test12= 2.06D-10 1.00D-07 XBig12= 4.94D-11 6.51D-07.
 Inverted reduced A of dimension   651 with in-core refinement.
 End of Minotr Frequency-dependent properties file   721 does not exist.
 End of Minotr Frequency-dependent properties file   722 does not exist.

 **********************************************************************

            Population analysis using the SCF density.

 **********************************************************************

 Orbital symmetries:
       Occupied  (A) (A) (A) (A) (A) (A) (A) (A) (A) (A) (A) (A)
                 (A) (A) (A) (A) (A) (A) (A) (A) (A) (A) (A) (A)
                 (A) (A) (A) (A) (A) (A) (A) (A) (A) (A) (A) (A)
                 (A) (A) (A) (A) (A) (A) (A) (A) (A) (A) (A) (A)
                 (A) (A) (A) (A) (A) (A) (A) (A) (A) (A) (A) (A)
                 (A) (A) (A) (A) (A) (A) (A) (A) (A) (A) (A) (A)
                 (A) (A) (A) (A) (A)
       Virtual   (A) (A) (A) (A) (A) (A) (A) (A) (A) (A) (A) (A)
                 (A) (A) (A) (A) (A) (A) (A) (A) (A) (A) (A) (A)
                 (A) (A) (A) (A) (A) (A) (A) (A) (A) (A) (A) (A)
                 (A) (A) (A) (A) (A) (A) (A) (A) (A) (A) (A) (A)
                 (A) (A) (A) (A) (A) (A) (A) (A) (A) (A) (A) (A)
                 (A) (A) (A) (A) (A) (A) (A) (A) (A) (A) (A) (A)
                 (A) (A) (A) (A) (A) (A) (A) (A) (A) (A) (A) (A)
                 (A) (A) (A) (A) (A) (A) (A) (A) (A) (A) (A) (A)
                 (A) (A) (A) (A) (A) (A) (A) (A) (A) (A) (A) (A)
                 (A) (A) (A) (A) (A) (A) (A) (A) (A) (A) (A) (A)
                 (A) (A) (A) (A) (A) (A) (A) (A) (A) (A) (A) (A)
                 (A) (A) (A) (A) (A) (A) (A) (A) (A) (A) (A) (A)
                 (A) (A) (A) (A) (A) (A) (A) (A) (A) (A) (A) (A)
                 (A) (A) (A) (A) (A) (A) (A) (A) (A) (A) (A) (A)
                 (A) (A) (A) (A) (A) (A) (A) (A) (A) (A) (A) (A)
                 (A) (A) (A) (A) (A) (A) (A) (A) (A) (A) (A) (A)
                 (A) (A) (A) (A) (A) (A) (A) (A) (A) (A) (A) (A)
                 (A) (A) (A) (A) (A) (A) (A) (A) (A) (A) (A) (A)
                 (A) (A) (A) (A) (A) (A) (A) (A) (A) (A) (A) (A)
                 (A) (A) (A) (A) (A) (A) (A) (A) (A) (A) (A) (A)
                 (A) (A) (A) (A) (A) (A) (A) (A) (A) (A) (A) (A)
                 (A) (A) (A) (A) (A) (A) (A) (A) (A) (A) (A) (A)
                 (A) (A) (A)
 The electronic state is 1-A.
 Alpha  occ. eigenvalues --  -20.53753 -20.52803 -20.51709 -20.51183 -15.60702
 Alpha  occ. eigenvalues --  -15.60056 -15.58639 -15.58554 -11.36291 -11.35694
 Alpha  occ. eigenvalues --  -11.34648 -11.34519 -11.29235 -11.28516 -11.28337
 Alpha  occ. eigenvalues --  -11.26630 -11.24061 -11.23175 -11.21763 -11.21707
 Alpha  occ. eigenvalues --   -1.39711  -1.38727  -1.37356  -1.36820  -1.25585
 Alpha  occ. eigenvalues --   -1.24369  -1.23520  -1.23410  -1.08226  -1.05336
 Alpha  occ. eigenvalues --   -1.03265  -0.98241  -0.96003  -0.91517  -0.89602
 Alpha  occ. eigenvalues --   -0.86767  -0.82227  -0.80150  -0.77966  -0.77721
 Alpha  occ. eigenvalues --   -0.74815  -0.72172  -0.69768  -0.67997  -0.67439
 Alpha  occ. eigenvalues --   -0.65834  -0.64823  -0.64151  -0.62887  -0.62324
 Alpha  occ. eigenvalues --   -0.61226  -0.60615  -0.60114  -0.58179  -0.58155
 Alpha  occ. eigenvalues --   -0.57182  -0.56336  -0.56064  -0.55602  -0.55497
 Alpha  occ. eigenvalues --   -0.54949  -0.54382  -0.53780  -0.52572  -0.52353
 Alpha  occ. eigenvalues --   -0.51987  -0.51581  -0.49529  -0.48844  -0.43011
 Alpha  occ. eigenvalues --   -0.42928  -0.42242  -0.40637  -0.39907  -0.39896
 Alpha  occ. eigenvalues --   -0.38401  -0.37978
 Alpha virt. eigenvalues --    0.18003   0.18540   0.19824   0.20381   0.21278
 Alpha virt. eigenvalues --    0.21612   0.23986   0.24196   0.26232   0.26918
 Alpha virt. eigenvalues --    0.28675   0.28975   0.29212   0.29889   0.30229
 Alpha virt. eigenvalues --    0.30724   0.31049   0.31241   0.31722   0.32057
 Alpha virt. eigenvalues --    0.32991   0.33466   0.34542   0.35221   0.35616
 Alpha virt. eigenvalues --    0.35992   0.36270   0.37140   0.39483   0.40199
 Alpha virt. eigenvalues --    0.41056   0.42163   0.42845   0.43739   0.44512
 Alpha virt. eigenvalues --    0.46922   0.49031   0.52610   0.52904   0.53892
 Alpha virt. eigenvalues --    0.55968   0.59141   0.60626   0.61476   0.65634
 Alpha virt. eigenvalues --    0.70409   0.71507   0.72356   0.72839   0.73020
 Alpha virt. eigenvalues --    0.74068   0.74938   0.76236   0.76330   0.77324
 Alpha virt. eigenvalues --    0.77658   0.78264   0.78542   0.80409   0.81862
 Alpha virt. eigenvalues --    0.82398   0.83327   0.84739   0.87142   0.87430
 Alpha virt. eigenvalues --    0.88508   0.90843   0.91403   0.92566   0.92890
 Alpha virt. eigenvalues --    0.93337   0.94252   0.95095   0.96979   0.97767
 Alpha virt. eigenvalues --    0.99051   0.99823   0.99983   1.00470   1.01719
 Alpha virt. eigenvalues --    1.03318   1.04026   1.05993   1.06323   1.07748
 Alpha virt. eigenvalues --    1.09505   1.09978   1.10668   1.11506   1.11847
 Alpha virt. eigenvalues --    1.12434   1.13197   1.14115   1.14807   1.15198
 Alpha virt. eigenvalues --    1.15269   1.15586   1.16301   1.16523   1.17066
 Alpha virt. eigenvalues --    1.17637   1.18175   1.19334   1.19706   1.20639
 Alpha virt. eigenvalues --    1.20826   1.21241   1.21633   1.21867   1.22541
 Alpha virt. eigenvalues --    1.23584   1.25285   1.25736   1.27773   1.28087
 Alpha virt. eigenvalues --    1.30806   1.32261   1.33785   1.35030   1.35571
 Alpha virt. eigenvalues --    1.38529   1.39407   1.40389   1.42503   1.43563
 Alpha virt. eigenvalues --    1.46181   1.48316   1.48795   1.51990   1.53499
 Alpha virt. eigenvalues --    1.54370   1.55205   1.55918   1.57108   1.61427
 Alpha virt. eigenvalues --    1.62361   1.63082   1.63876   1.64356   1.65468
 Alpha virt. eigenvalues --    1.69121   1.71445   1.72648   1.73965   1.74337
 Alpha virt. eigenvalues --    1.75182   1.76432   1.80086   1.81632   1.87127
 Alpha virt. eigenvalues --    1.91760   1.92291   1.94622   1.97226   1.98477
 Alpha virt. eigenvalues --    2.00286   2.00896   2.02709   2.04307   2.05623
 Alpha virt. eigenvalues --    2.06591   2.09136   2.09227   2.10955   2.11798
 Alpha virt. eigenvalues --    2.13115   2.13902   2.14612   2.15044   2.15229
 Alpha virt. eigenvalues --    2.16081   2.16894   2.18570   2.19133   2.20394
 Alpha virt. eigenvalues --    2.21334   2.22298   2.23541   2.24760   2.26485
 Alpha virt. eigenvalues --    2.28089   2.29003   2.31539   2.31974   2.34024
 Alpha virt. eigenvalues --    2.35064   2.36259   2.36745   2.37434   2.38923
 Alpha virt. eigenvalues --    2.40710   2.42784   2.46584   2.46763   2.48621
 Alpha virt. eigenvalues --    2.49366   2.51285   2.52160   2.54426   2.56974
 Alpha virt. eigenvalues --    2.59000   2.59769   2.61468   2.62159   2.62766
 Alpha virt. eigenvalues --    2.63529   2.63640   2.65310   2.66416   2.66980
 Alpha virt. eigenvalues --    2.68469   2.70368   2.72297   2.74642   2.77267
 Alpha virt. eigenvalues --    2.78004   2.79777   2.81041   2.81542   2.84569
 Alpha virt. eigenvalues --    2.88007   2.89965   2.92619   2.95405   2.96502
 Alpha virt. eigenvalues --    2.97967   3.00088   3.01532   3.05201   3.06638
 Alpha virt. eigenvalues --    3.07198   3.08897   3.12603   3.14947   3.19193
 Alpha virt. eigenvalues --    3.25510   3.26211   3.30990   3.31903   3.34694
 Alpha virt. eigenvalues --    3.36185   3.39326   3.41507   3.52865   3.55363
 Alpha virt. eigenvalues --    3.61343   3.62212   4.40114   4.40307   4.43957
 Alpha virt. eigenvalues --    4.46303   4.49419   4.52161   4.53143   4.63040
 Alpha virt. eigenvalues --    4.65764   4.66060   4.69873   4.72167   4.77499
 Alpha virt. eigenvalues --    4.83869   4.86549   4.87291   4.91564   5.04916
 Alpha virt. eigenvalues --    5.06113   5.12827
          Condensed to atoms (all electrons):
              1          2          3          4          5          6
     1  H    0.458958   0.385641  -0.018820  -0.018783  -0.030788   0.003545
     2  C    0.385641   5.245167   0.374594   0.374838   0.378002  -0.067291
     3  H   -0.018820   0.374594   0.511136  -0.023669  -0.034493   0.001267
     4  H   -0.018783   0.374838  -0.023669   0.512251  -0.035412   0.001179
     5  C   -0.030788   0.378002  -0.034493  -0.035412   4.185812   0.587332
     6  O    0.003545  -0.067291   0.001267   0.001179   0.587332   8.211015
     7  N    0.003861  -0.120046   0.003493   0.003725   0.247455  -0.107577
     8  H   -0.000018  -0.001190   0.000640   0.000478  -0.017418   0.002020
     9  C   -0.000076   0.004548  -0.000241  -0.000090  -0.029995   0.014404
    10  H    0.000002  -0.000013  -0.000004  -0.000002  -0.001807   0.002969
    11  C    0.000006  -0.000506   0.000008   0.000030  -0.003848  -0.015784
    12  H    0.000000  -0.000042   0.000000   0.000002   0.000009  -0.000023
    13  H    0.000000   0.000007   0.000000  -0.000001   0.000278   0.000270
    14  H    0.000001   0.000297  -0.000005  -0.000025   0.000462   0.010794
    15  C    0.000000   0.000008  -0.000011  -0.000006   0.004039   0.000540
    16  O    0.000000  -0.000040  -0.000001  -0.000001   0.000273  -0.000003
    17  N    0.000000   0.000000   0.000000   0.000000  -0.000084  -0.000002
    18  H    0.000000   0.000000   0.000000   0.000000   0.000000   0.000001
    19  C    0.000000   0.000000   0.000000   0.000000   0.000001   0.000000
    20  H    0.000000   0.000000   0.000000   0.000000   0.000000   0.000000
    21  C    0.000000   0.000000   0.000000   0.000000   0.000000   0.000000
    22  H    0.000000   0.000000   0.000000   0.000000   0.000000   0.000000
    23  H    0.000000   0.000000   0.000000   0.000000   0.000000   0.000000
    24  H    0.000000   0.000000   0.000000   0.000000   0.000000   0.000000
    25  C    0.000000   0.000000   0.000000   0.000000   0.000000   0.000000
    26  O    0.000000   0.000000   0.000000   0.000000   0.000000   0.000000
    27  N    0.000000   0.000000   0.000000   0.000000   0.000000   0.000000
    28  H    0.000000   0.000000   0.000000   0.000000   0.000000   0.000000
    29  C    0.000000   0.000000   0.000000   0.000000   0.000000   0.000000
    30  H    0.000000   0.000000   0.000000   0.000000   0.000000   0.000000
    31  C    0.000000   0.000000   0.000000   0.000000   0.000000   0.000000
    32  H    0.000000   0.000000   0.000000   0.000000   0.000000   0.000000
    33  H    0.000000   0.000000   0.000000   0.000000   0.000000   0.000000
    34  H    0.000000   0.000000   0.000000   0.000000   0.000000   0.000000
    35  C    0.000000   0.000000   0.000000   0.000000   0.000000   0.000000
    36  O    0.000000   0.000000   0.000000   0.000000   0.000000   0.000000
    37  N    0.000000   0.000000   0.000000   0.000000   0.000000   0.000000
    38  H    0.000000   0.000000   0.000000   0.000000   0.000000   0.000000
    39  C    0.000000   0.000000   0.000000   0.000000   0.000000   0.000000
    40  H    0.000000   0.000000   0.000000   0.000000   0.000000   0.000000
    41  H    0.000000   0.000000   0.000000   0.000000   0.000000   0.000000
    42  H    0.000000   0.000000   0.000000   0.000000   0.000000   0.000000
              7          8          9         10         11         12
     1  H    0.003861  -0.000018  -0.000076   0.000002   0.000006   0.000000
     2  C   -0.120046  -0.001190   0.004548  -0.000013  -0.000506  -0.000042
     3  H    0.003493   0.000640  -0.000241  -0.000004   0.000008   0.000000
     4  H    0.003725   0.000478  -0.000090  -0.000002   0.000030   0.000002
     5  C    0.247455  -0.017418  -0.029995  -0.001807  -0.003848   0.000009
     6  O   -0.107577   0.002020   0.014404   0.002969  -0.015784  -0.000023
     7  N    7.418289   0.311592   0.197222  -0.041540  -0.063188   0.001640
     8  H    0.311592   0.288318  -0.026726   0.002373   0.003001   0.000236
     9  C    0.197222  -0.026726   5.023562   0.404708   0.336737  -0.041816
    10  H   -0.041540   0.002373   0.404708   0.502847  -0.045874   0.004455
    11  C   -0.063188   0.003001   0.336737  -0.045874   5.207616   0.386486
    12  H    0.001640   0.000236  -0.041816   0.004455   0.386486   0.513450
    13  H    0.004860  -0.000077  -0.041937   0.000321   0.378835  -0.022857
    14  H   -0.005601  -0.000197  -0.026777  -0.004039   0.386879  -0.020342
    15  C   -0.037454  -0.005749   0.383778  -0.038463  -0.066290  -0.002893
    16  O   -0.006288   0.020144  -0.074971   0.001019  -0.000131   0.000620
    17  N    0.002714   0.000736  -0.114701   0.002038   0.002195   0.000133
    18  H    0.000036  -0.000019  -0.000011   0.000602   0.000442  -0.000009
    19  C   -0.000052  -0.000024   0.004122  -0.000283   0.000145  -0.000113
    20  H   -0.000001  -0.000001  -0.000138   0.000003  -0.000006   0.000000
    21  C    0.000000   0.000000  -0.000030  -0.000004  -0.000022   0.000000
    22  H    0.000000   0.000000  -0.000015   0.000001  -0.000003   0.000001
    23  H    0.000000   0.000000   0.000001   0.000000   0.000000   0.000000
    24  H    0.000000   0.000000  -0.000006   0.000000   0.000000   0.000000
    25  C    0.000001   0.000000  -0.000017   0.000000  -0.000041   0.000066
    26  O    0.000000   0.000000  -0.000045   0.000000   0.000002   0.000057
    27  N    0.000000   0.000001  -0.000027   0.000000   0.000003   0.000000
    28  H    0.000000   0.000000   0.000004   0.000000   0.000000   0.000000
    29  C    0.000000   0.000000  -0.000001   0.000000   0.000000   0.000000
    30  H    0.000000   0.000000   0.000000   0.000000   0.000000   0.000000
    31  C    0.000000   0.000000   0.000001   0.000000   0.000000   0.000000
    32  H    0.000000   0.000003   0.000002   0.000000  -0.000001   0.000000
    33  H    0.000000   0.000000   0.000000   0.000000   0.000000   0.000000
    34  H    0.000000   0.000000   0.000000   0.000000   0.000000   0.000005
    35  C    0.000000   0.000000   0.000000   0.000000   0.000000   0.000000
    36  O    0.000000   0.000000   0.000000   0.000000   0.000000   0.000000
    37  N    0.000000   0.000000   0.000000   0.000000   0.000000   0.000000
    38  H    0.000000   0.000000   0.000000   0.000000   0.000000   0.000000
    39  C    0.000000   0.000000   0.000000   0.000000   0.000000   0.000000
    40  H    0.000000   0.000000   0.000000   0.000000   0.000000   0.000000
    41  H    0.000000   0.000000   0.000000   0.000000   0.000000   0.000000
    42  H    0.000000   0.000000   0.000000   0.000000   0.000000   0.000000
             13         14         15         16         17         18
     1  H    0.000000   0.000001   0.000000   0.000000   0.000000   0.000000
     2  C    0.000007   0.000297   0.000008  -0.000040   0.000000   0.000000
     3  H    0.000000  -0.000005  -0.000011  -0.000001   0.000000   0.000000
     4  H   -0.000001  -0.000025  -0.000006  -0.000001   0.000000   0.000000
     5  C    0.000278   0.000462   0.004039   0.000273  -0.000084   0.000000
     6  O    0.000270   0.010794   0.000540  -0.000003  -0.000002   0.000001
     7  N    0.004860  -0.005601  -0.037454  -0.006288   0.002714   0.000036
     8  H   -0.000077  -0.000197  -0.005749   0.020144   0.000736  -0.000019
     9  C   -0.041937  -0.026777   0.383778  -0.074971  -0.114701  -0.000011
    10  H    0.000321  -0.004039  -0.038463   0.001019   0.002038   0.000602
    11  C    0.378835   0.386879  -0.066290  -0.000131   0.002195   0.000442
    12  H   -0.022857  -0.020342  -0.002893   0.000620   0.000133  -0.000009
    13  H    0.561706  -0.020373  -0.007367   0.000012   0.000457   0.003032
    14  H   -0.020373   0.429417   0.004228  -0.000060   0.000053  -0.000097
    15  C   -0.007367   0.004228   4.156313   0.585125   0.269253  -0.018762
    16  O    0.000012  -0.000060   0.585125   8.220886  -0.103846   0.002326
    17  N    0.000457   0.000053   0.269253  -0.103846   7.380170   0.322384
    18  H    0.003032  -0.000097  -0.018762   0.002326   0.322384   0.307725
    19  C    0.000304   0.000002  -0.033062   0.010627   0.203336  -0.025969
    20  H    0.000002   0.000000  -0.001219   0.001734  -0.043853   0.001433
    21  C   -0.000021   0.000000   0.003490   0.000366  -0.052078  -0.003257
    22  H    0.000027   0.000000  -0.000106  -0.000008  -0.000616   0.001156
    23  H    0.000000   0.000000  -0.000012   0.000003   0.003651   0.000064
    24  H   -0.000006   0.000000  -0.000228  -0.000001  -0.001334   0.001472
    25  C   -0.000035  -0.000001  -0.001229   0.002768  -0.061319   0.002820
    26  O    0.000027   0.000000   0.001961  -0.000670   0.003730  -0.000364
    27  N    0.000000   0.000000   0.000946  -0.002765   0.000986  -0.000118
    28  H    0.000000   0.000000  -0.000004   0.000752  -0.000003  -0.000001
    29  C    0.000000   0.000000  -0.000082  -0.000144  -0.000042   0.000003
    30  H    0.000000   0.000000   0.000000  -0.000003  -0.000005   0.000000
    31  C    0.000000   0.000000   0.000077   0.000016   0.000004   0.000000
    32  H    0.000000   0.000000   0.000041   0.000789  -0.000010   0.000000
    33  H    0.000000   0.000000   0.000000   0.000004   0.000000   0.000000
    34  H    0.000000   0.000000   0.000011   0.000011  -0.000017   0.000000
    35  C    0.000000   0.000000   0.000000  -0.000021   0.000000   0.000000
    36  O    0.000000   0.000000   0.000000  -0.000001   0.000000   0.000000
    37  N    0.000000   0.000000   0.000000   0.000000   0.000000   0.000000
    38  H    0.000000   0.000000   0.000000   0.000000   0.000000   0.000000
    39  C    0.000000   0.000000   0.000000   0.000000   0.000000   0.000000
    40  H    0.000000   0.000000   0.000000   0.000000   0.000000   0.000000
    41  H    0.000000   0.000000   0.000000   0.000000   0.000000   0.000000
    42  H    0.000000   0.000000   0.000000   0.000000   0.000000   0.000000
             19         20         21         22         23         24
     1  H    0.000000   0.000000   0.000000   0.000000   0.000000   0.000000
     2  C    0.000000   0.000000   0.000000   0.000000   0.000000   0.000000
     3  H    0.000000   0.000000   0.000000   0.000000   0.000000   0.000000
     4  H    0.000000   0.000000   0.000000   0.000000   0.000000   0.000000
     5  C    0.000001   0.000000   0.000000   0.000000   0.000000   0.000000
     6  O    0.000000   0.000000   0.000000   0.000000   0.000000   0.000000
     7  N   -0.000052  -0.000001   0.000000   0.000000   0.000000   0.000000
     8  H   -0.000024  -0.000001   0.000000   0.000000   0.000000   0.000000
     9  C    0.004122  -0.000138  -0.000030  -0.000015   0.000001  -0.000006
    10  H   -0.000283   0.000003  -0.000004   0.000001   0.000000   0.000000
    11  C    0.000145  -0.000006  -0.000022  -0.000003   0.000000   0.000000
    12  H   -0.000113   0.000000   0.000000   0.000001   0.000000   0.000000
    13  H    0.000304   0.000002  -0.000021   0.000027   0.000000  -0.000006
    14  H    0.000002   0.000000   0.000000   0.000000   0.000000   0.000000
    15  C   -0.033062  -0.001219   0.003490  -0.000106  -0.000012  -0.000228
    16  O    0.010627   0.001734   0.000366  -0.000008   0.000003  -0.000001
    17  N    0.203336  -0.043853  -0.052078  -0.000616   0.003651  -0.001334
    18  H   -0.025969   0.001433  -0.003257   0.001156   0.000064   0.001472
    19  C    5.022153   0.418083   0.345679  -0.036623  -0.035376  -0.042409
    20  H    0.418083   0.512665  -0.035781   0.004151  -0.000269  -0.004863
    21  C    0.345679  -0.035781   5.147944   0.386303   0.392007   0.390644
    22  H   -0.036623   0.004151   0.386303   0.484524  -0.018276  -0.026794
    23  H   -0.035376  -0.000269   0.392007  -0.018276   0.491650  -0.021255
    24  H   -0.042409  -0.004863   0.390644  -0.026794  -0.021255   0.523238
    25  C    0.344293  -0.068729  -0.051549  -0.007109  -0.003894   0.006166
    26  O   -0.076009   0.002582   0.000545   0.006226  -0.000140   0.000047
    27  N   -0.091792   0.009957  -0.000749   0.000586   0.001158  -0.000100
    28  H   -0.001363   0.002753   0.000069  -0.000010   0.000019  -0.000011
    29  C    0.005011   0.000154  -0.000227  -0.000010  -0.000039   0.000004
    30  H   -0.000096  -0.000011   0.000050  -0.000001  -0.000013   0.000000
    31  C   -0.000630   0.000008  -0.000005   0.000001   0.000002   0.000000
    32  H   -0.000009  -0.000005   0.000001   0.000000   0.000000   0.000000
    33  H    0.000009   0.000000   0.000000   0.000000   0.000000   0.000000
    34  H    0.000253  -0.000014  -0.000003  -0.000002   0.000000   0.000000
    35  C    0.000001  -0.000047  -0.000001   0.000000  -0.000001   0.000000
    36  O   -0.000043  -0.000034   0.000000   0.000000   0.000000   0.000000
    37  N    0.000000   0.000000   0.000000   0.000000   0.000000   0.000000
    38  H    0.000000   0.000000   0.000000   0.000000   0.000000   0.000000
    39  C    0.000000   0.000000   0.000000   0.000000   0.000000   0.000000
    40  H    0.000000   0.000000   0.000000   0.000000   0.000000   0.000000
    41  H    0.000000   0.000000   0.000000   0.000000   0.000000   0.000000
    42  H    0.000000   0.000000   0.000000   0.000000   0.000000   0.000000
             25         26         27         28         29         30
     1  H    0.000000   0.000000   0.000000   0.000000   0.000000   0.000000
     2  C    0.000000   0.000000   0.000000   0.000000   0.000000   0.000000
     3  H    0.000000   0.000000   0.000000   0.000000   0.000000   0.000000
     4  H    0.000000   0.000000   0.000000   0.000000   0.000000   0.000000
     5  C    0.000000   0.000000   0.000000   0.000000   0.000000   0.000000
     6  O    0.000000   0.000000   0.000000   0.000000   0.000000   0.000000
     7  N    0.000001   0.000000   0.000000   0.000000   0.000000   0.000000
     8  H    0.000000   0.000000   0.000001   0.000000   0.000000   0.000000
     9  C   -0.000017  -0.000045  -0.000027   0.000004  -0.000001   0.000000
    10  H    0.000000   0.000000   0.000000   0.000000   0.000000   0.000000
    11  C   -0.000041   0.000002   0.000003   0.000000   0.000000   0.000000
    12  H    0.000066   0.000057   0.000000   0.000000   0.000000   0.000000
    13  H   -0.000035   0.000027   0.000000   0.000000   0.000000   0.000000
    14  H   -0.000001   0.000000   0.000000   0.000000   0.000000   0.000000
    15  C   -0.001229   0.001961   0.000946  -0.000004  -0.000082   0.000000
    16  O    0.002768  -0.000670  -0.002765   0.000752  -0.000144  -0.000003
    17  N   -0.061319   0.003730   0.000986  -0.000003  -0.000042  -0.000005
    18  H    0.002820  -0.000364  -0.000118  -0.000001   0.000003   0.000000
    19  C    0.344293  -0.076009  -0.091792  -0.001363   0.005011  -0.000096
    20  H   -0.068729   0.002582   0.009957   0.002753   0.000154  -0.000011
    21  C   -0.051549   0.000545  -0.000749   0.000069  -0.000227   0.000050
    22  H   -0.007109   0.006226   0.000586  -0.000010  -0.000010  -0.000001
    23  H   -0.003894  -0.000140   0.001158   0.000019  -0.000039  -0.000013
    24  H    0.006166   0.000047  -0.000100  -0.000011   0.000004   0.000000
    25  C    4.242271   0.561344   0.264535  -0.013652  -0.035357  -0.002131
    26  O    0.561344   8.262087  -0.105533   0.001949   0.012750   0.002952
    27  N    0.264535  -0.105533   7.380114   0.305615   0.200882  -0.041670
    28  H   -0.013652   0.001949   0.305615   0.279467  -0.027185   0.002291
    29  C   -0.035357   0.012750   0.200882  -0.027185   5.043185   0.404466
    30  H   -0.002131   0.002952  -0.041670   0.002291   0.404466   0.507724
    31  C   -0.003153  -0.014973  -0.062735   0.002988   0.333233  -0.046427
    32  H   -0.000135  -0.000010   0.000765   0.000204  -0.040269   0.004305
    33  H    0.000269   0.000246   0.004922  -0.000076  -0.042590   0.000086
    34  H    0.000275   0.009893  -0.005446  -0.000192  -0.027096  -0.003960
    35  C    0.003719   0.000462  -0.036029  -0.005310   0.376171  -0.037611
    36  O    0.000322  -0.000003  -0.005947   0.021549  -0.079047   0.001017
    37  N   -0.000100  -0.000002   0.002782   0.000730  -0.116564   0.002248
    38  H    0.000002   0.000001   0.000018  -0.000022   0.001145   0.000505
    39  C    0.000001   0.000000  -0.000049  -0.000010   0.003676  -0.000219
    40  H    0.000000   0.000000  -0.000004  -0.000010   0.000589  -0.000017
    41  H    0.000000   0.000000   0.000000   0.000000  -0.000108   0.000011
    42  H    0.000000   0.000000   0.000001   0.000000  -0.000005  -0.000002
             31         32         33         34         35         36
     1  H    0.000000   0.000000   0.000000   0.000000   0.000000   0.000000
     2  C    0.000000   0.000000   0.000000   0.000000   0.000000   0.000000
     3  H    0.000000   0.000000   0.000000   0.000000   0.000000   0.000000
     4  H    0.000000   0.000000   0.000000   0.000000   0.000000   0.000000
     5  C    0.000000   0.000000   0.000000   0.000000   0.000000   0.000000
     6  O    0.000000   0.000000   0.000000   0.000000   0.000000   0.000000
     7  N    0.000000   0.000000   0.000000   0.000000   0.000000   0.000000
     8  H    0.000000   0.000003   0.000000   0.000000   0.000000   0.000000
     9  C    0.000001   0.000002   0.000000   0.000000   0.000000   0.000000
    10  H    0.000000   0.000000   0.000000   0.000000   0.000000   0.000000
    11  C    0.000000  -0.000001   0.000000   0.000000   0.000000   0.000000
    12  H    0.000000   0.000000   0.000000   0.000005   0.000000   0.000000
    13  H    0.000000   0.000000   0.000000   0.000000   0.000000   0.000000
    14  H    0.000000   0.000000   0.000000   0.000000   0.000000   0.000000
    15  C    0.000077   0.000041   0.000000   0.000011   0.000000   0.000000
    16  O    0.000016   0.000789   0.000004   0.000011  -0.000021  -0.000001
    17  N    0.000004  -0.000010   0.000000  -0.000017   0.000000   0.000000
    18  H    0.000000   0.000000   0.000000   0.000000   0.000000   0.000000
    19  C   -0.000630  -0.000009   0.000009   0.000253   0.000001  -0.000043
    20  H    0.000008  -0.000005   0.000000  -0.000014  -0.000047  -0.000034
    21  C   -0.000005   0.000001   0.000000  -0.000003  -0.000001   0.000000
    22  H    0.000001   0.000000   0.000000  -0.000002   0.000000   0.000000
    23  H    0.000002   0.000000   0.000000   0.000000  -0.000001   0.000000
    24  H    0.000000   0.000000   0.000000   0.000000   0.000000   0.000000
    25  C   -0.003153  -0.000135   0.000269   0.000275   0.003719   0.000322
    26  O   -0.014973  -0.000010   0.000246   0.009893   0.000462  -0.000003
    27  N   -0.062735   0.000765   0.004922  -0.005446  -0.036029  -0.005947
    28  H    0.002988   0.000204  -0.000076  -0.000192  -0.005310   0.021549
    29  C    0.333233  -0.040269  -0.042590  -0.027096   0.376171  -0.079047
    30  H   -0.046427   0.004305   0.000086  -0.003960  -0.037611   0.001017
    31  C    5.206203   0.387353   0.376629   0.388799  -0.061617  -0.000014
    32  H    0.387353   0.501296  -0.024149  -0.019175  -0.002531   0.000610
    33  H    0.376629  -0.024149   0.577064  -0.021362  -0.007187   0.000026
    34  H    0.388799  -0.019175  -0.021362   0.431549   0.003914  -0.000064
    35  C   -0.061617  -0.002531  -0.007187   0.003914   4.143923   0.595533
    36  O   -0.000014   0.000610   0.000026  -0.000064   0.595533   8.212718
    37  N    0.002275   0.000143   0.000252   0.000086   0.286284  -0.099044
    38  H   -0.000017   0.000003   0.002573  -0.000084  -0.020477   0.002379
    39  C   -0.000083  -0.000041   0.000174   0.000003  -0.025538  -0.004881
    40  H   -0.000050  -0.000001  -0.000008   0.000000  -0.001919   0.010111
    41  H   -0.000004   0.000001   0.000002   0.000000   0.000771   0.000366
    42  H    0.000013   0.000002  -0.000001  -0.000001   0.000950   0.000374
             37         38         39         40         41         42
     1  H    0.000000   0.000000   0.000000   0.000000   0.000000   0.000000
     2  C    0.000000   0.000000   0.000000   0.000000   0.000000   0.000000
     3  H    0.000000   0.000000   0.000000   0.000000   0.000000   0.000000
     4  H    0.000000   0.000000   0.000000   0.000000   0.000000   0.000000
     5  C    0.000000   0.000000   0.000000   0.000000   0.000000   0.000000
     6  O    0.000000   0.000000   0.000000   0.000000   0.000000   0.000000
     7  N    0.000000   0.000000   0.000000   0.000000   0.000000   0.000000
     8  H    0.000000   0.000000   0.000000   0.000000   0.000000   0.000000
     9  C    0.000000   0.000000   0.000000   0.000000   0.000000   0.000000
    10  H    0.000000   0.000000   0.000000   0.000000   0.000000   0.000000
    11  C    0.000000   0.000000   0.000000   0.000000   0.000000   0.000000
    12  H    0.000000   0.000000   0.000000   0.000000   0.000000   0.000000
    13  H    0.000000   0.000000   0.000000   0.000000   0.000000   0.000000
    14  H    0.000000   0.000000   0.000000   0.000000   0.000000   0.000000
    15  C    0.000000   0.000000   0.000000   0.000000   0.000000   0.000000
    16  O    0.000000   0.000000   0.000000   0.000000   0.000000   0.000000
    17  N    0.000000   0.000000   0.000000   0.000000   0.000000   0.000000
    18  H    0.000000   0.000000   0.000000   0.000000   0.000000   0.000000
    19  C    0.000000   0.000000   0.000000   0.000000   0.000000   0.000000
    20  H    0.000000   0.000000   0.000000   0.000000   0.000000   0.000000
    21  C    0.000000   0.000000   0.000000   0.000000   0.000000   0.000000
    22  H    0.000000   0.000000   0.000000   0.000000   0.000000   0.000000
    23  H    0.000000   0.000000   0.000000   0.000000   0.000000   0.000000
    24  H    0.000000   0.000000   0.000000   0.000000   0.000000   0.000000
    25  C   -0.000100   0.000002   0.000001   0.000000   0.000000   0.000000
    26  O   -0.000002   0.000001   0.000000   0.000000   0.000000   0.000000
    27  N    0.002782   0.000018  -0.000049  -0.000004   0.000000   0.000001
    28  H    0.000730  -0.000022  -0.000010  -0.000010   0.000000   0.000000
    29  C   -0.116564   0.001145   0.003676   0.000589  -0.000108  -0.000005
    30  H    0.002248   0.000505  -0.000219  -0.000017   0.000011  -0.000002
    31  C    0.002275  -0.000017  -0.000083  -0.000050  -0.000004   0.000013
    32  H    0.000143   0.000003  -0.000041  -0.000001   0.000001   0.000002
    33  H    0.000252   0.002573   0.000174  -0.000008   0.000002  -0.000001
    34  H    0.000086  -0.000084   0.000003   0.000000   0.000000  -0.000001
    35  C    0.286284  -0.020477  -0.025538  -0.001919   0.000771   0.000950
    36  O   -0.099044   0.002379  -0.004881   0.010111   0.000366   0.000374
    37  N    7.334774   0.322528   0.186931  -0.031760  -0.047314  -0.048164
[...]
    30  H    0.000000   0.000000   0.000000  -0.000003  -0.000006   0.000000
    31  C    0.000000   0.000000   0.000079   0.000242   0.000010   0.000000
    32  H    0.000000   0.000000   0.000027   0.000277  -0.000004   0.000000
    33  H    0.000000   0.000000   0.000000   0.000004   0.000000   0.000000
    34  H    0.000002   0.000000   0.000048   0.000082  -0.000026   0.000000
    35  C    0.000000   0.000000   0.000000  -0.000004  -0.000001   0.000000
    36  O    0.000000   0.000000   0.000000  -0.000001   0.000000   0.000000
    37  N    0.000000   0.000000   0.000000   0.000000   0.000000   0.000000
    38  H    0.000000   0.000000   0.000000   0.000000   0.000000   0.000000
    39  C    0.000000   0.000000   0.000000   0.000000   0.000000   0.000000
    40  H    0.000000   0.000000   0.000000   0.000000   0.000000   0.000000
    41  H    0.000000   0.000000   0.000000   0.000000   0.000000   0.000000
    42  H    0.000000   0.000000   0.000000   0.000000   0.000000   0.000000
             19         20         21         22         23         24
     1  H    0.000000   0.000000   0.000000   0.000000   0.000000   0.000000
     2  C    0.000000   0.000000   0.000000   0.000000   0.000000   0.000000
     3  H    0.000000   0.000000   0.000000   0.000000   0.000000   0.000000
     4  H    0.000000   0.000000   0.000000   0.000000   0.000000   0.000000
     5  C    0.000001   0.000000   0.000000   0.000000   0.000000   0.000000
     6  O    0.000000   0.000000   0.000000   0.000000   0.000000   0.000000
     7  N   -0.000101   0.000005   0.000001   0.000000   0.000000   0.000000
     8  H   -0.000027   0.000000   0.000000   0.000000   0.000000   0.000000
     9  C    0.005640  -0.000053  -0.000075  -0.000009   0.000002  -0.000007
    10  H    0.000014  -0.000014  -0.000019   0.000000   0.000000   0.000001
    11  C   -0.000529  -0.000013   0.000003  -0.000003   0.000000   0.000001
    12  H   -0.000013  -0.000001   0.000000   0.000000   0.000000   0.000000
    13  H   -0.000132   0.000004  -0.000002   0.000008   0.000000  -0.000001
    14  H    0.000005   0.000000   0.000000   0.000000   0.000000   0.000000
    15  C   -0.032790  -0.002182   0.003227  -0.000192  -0.000016  -0.000118
    16  O    0.008786   0.002414   0.000323  -0.000007   0.000003  -0.000002
    17  N    0.204673  -0.041306  -0.057573  -0.002089   0.003777  -0.000570
    18  H   -0.025522   0.002941  -0.003384   0.002671   0.000039   0.000292
    19  C    5.032537   0.412313   0.350174  -0.035124  -0.035435  -0.039671
    20  H    0.412313   0.495109  -0.031517   0.003887  -0.001148  -0.004318
    21  C    0.350174  -0.031517   5.132733   0.387342   0.392770   0.392696
    22  H   -0.035124   0.003887   0.387342   0.495220  -0.021318  -0.026610
    23  H   -0.035435  -0.001148   0.392770  -0.021318   0.496633  -0.022101
    24  H   -0.039671  -0.004318   0.392696  -0.026610  -0.022101   0.510556
    25  C    0.358591  -0.061584  -0.050765  -0.006706  -0.002423   0.005323
    26  O   -0.078685   0.002672   0.000489   0.006072  -0.000082   0.000012
    27  N   -0.096069   0.009524   0.000257   0.000498   0.000855  -0.000106
    28  H   -0.001323   0.001913   0.000151  -0.000008  -0.000008  -0.000007
    29  C    0.005282  -0.000012  -0.000194  -0.000007  -0.000024   0.000003
    30  H    0.000180  -0.000024   0.000018  -0.000003  -0.000006   0.000000
    31  C   -0.000442   0.000017  -0.000003   0.000000   0.000001   0.000000
    32  H   -0.000003  -0.000005   0.000000   0.000000   0.000000   0.000000
    33  H    0.000005   0.000000   0.000000   0.000000   0.000000   0.000000
    34  H    0.000110  -0.000011   0.000000  -0.000001   0.000000   0.000000
    35  C   -0.000028  -0.000031   0.000001   0.000000  -0.000002   0.000000
    36  O   -0.000035  -0.000025   0.000000   0.000000   0.000000   0.000000
    37  N    0.000000   0.000000   0.000000   0.000000   0.000000   0.000000
    38  H    0.000000   0.000000   0.000000   0.000000   0.000000   0.000000
    39  C    0.000000   0.000000   0.000000   0.000000   0.000000   0.000000
    40  H    0.000000   0.000000   0.000000   0.000000   0.000000   0.000000
    41  H    0.000000   0.000000   0.000000   0.000000   0.000000   0.000000
    42  H    0.000000   0.000000   0.000000   0.000000   0.000000   0.000000
             25         26         27         28         29         30
     1  H    0.000000   0.000000   0.000000   0.000000   0.000000   0.000000
     2  C    0.000000   0.000000   0.000000   0.000000   0.000000   0.000000
     3  H    0.000000   0.000000   0.000000   0.000000   0.000000   0.000000
     4  H    0.000000   0.000000   0.000000   0.000000   0.000000   0.000000
     5  C    0.000000   0.000000   0.000000   0.000000   0.000000   0.000000
     6  O    0.000000   0.000000   0.000000   0.000000   0.000000   0.000000
     7  N   -0.000003   0.000000   0.000000   0.000000   0.000000   0.000000
     8  H   -0.000002   0.000000   0.000001  -0.000001   0.000000   0.000000
     9  C   -0.000430  -0.000142  -0.000018   0.000013  -0.000002   0.000000
    10  H    0.000005  -0.000002   0.000000   0.000000   0.000000   0.000000
    11  C    0.000209  -0.000010   0.000001  -0.000001   0.000001   0.000000
    12  H    0.000043   0.000006  -0.000002   0.000000  -0.000001   0.000000
    13  H    0.000060   0.000449   0.000003   0.000000   0.000000   0.000000
    14  H   -0.000001   0.000002   0.000000   0.000000   0.000000   0.000000
    15  C   -0.000542   0.001321   0.001065  -0.000016  -0.000104   0.000000
    16  O    0.003312  -0.000221  -0.002714   0.001834  -0.000308  -0.000003
    17  N   -0.066272   0.003128   0.001998  -0.000046  -0.000091  -0.000006
    18  H    0.001018   0.000563  -0.000047  -0.000003   0.000003   0.000000
    19  C    0.358591  -0.078685  -0.096069  -0.001323   0.005282   0.000180
    20  H   -0.061584   0.002672   0.009524   0.001913  -0.000012  -0.000024
    21  C   -0.050765   0.000489   0.000257   0.000151  -0.000194   0.000018
    22  H   -0.006706   0.006072   0.000498  -0.000008  -0.000007  -0.000003
    23  H   -0.002423  -0.000082   0.000855  -0.000008  -0.000024  -0.000006
    24  H    0.005323   0.000012  -0.000106  -0.000007   0.000003   0.000000
    25  C    4.223710   0.578601   0.267959  -0.013359  -0.034350  -0.001799
    26  O    0.578601   8.218956  -0.105291   0.001880   0.008984   0.005964
    27  N    0.267959  -0.105291   7.379262   0.306774   0.204581  -0.041633
    28  H   -0.013359   0.001880   0.306774   0.281125  -0.025239   0.002943
    29  C   -0.034350   0.008984   0.204581  -0.025239   5.056769   0.410899
    30  H   -0.001799   0.005964  -0.041633   0.002943   0.410899   0.488699
    31  C   -0.002293  -0.003795  -0.065927   0.002191   0.338081  -0.038967
    32  H   -0.000027   0.000005  -0.000717   0.000974  -0.037105   0.003812
    33  H    0.000085  -0.000011   0.004731  -0.000063  -0.037997  -0.000170
    34  H    0.002015   0.004587  -0.005255  -0.000241  -0.029857  -0.003581
    35  C    0.003740   0.000386  -0.044399  -0.006966   0.371416  -0.044385
    36  O    0.000297  -0.000003  -0.006007   0.019187  -0.078209   0.001976
    37  N   -0.000141  -0.000002   0.002194   0.000862  -0.113117   0.004657
    38  H   -0.000007  -0.000002  -0.000020  -0.000026   0.000669   0.001627
    39  C    0.000002   0.000000  -0.000092  -0.000024   0.004587  -0.000069
    40  H    0.000000   0.000000  -0.000006  -0.000003   0.000132  -0.000001
    41  H    0.000000   0.000000   0.000011   0.000001  -0.000176  -0.000005
    42  H    0.000000   0.000000   0.000000   0.000000   0.000001  -0.000014
             31         32         33         34         35         36
     1  H    0.000000   0.000000   0.000000   0.000000   0.000000   0.000000
     2  C    0.000000   0.000000   0.000000   0.000000   0.000000   0.000000
     3  H    0.000000   0.000000   0.000000   0.000000   0.000000   0.000000
     4  H    0.000000   0.000000   0.000000   0.000000   0.000000   0.000000
     5  C    0.000000   0.000000   0.000000   0.000000   0.000000   0.000000
     6  O    0.000000   0.000000   0.000000   0.000000   0.000000   0.000000
     7  N    0.000000   0.000000   0.000000   0.000000   0.000000   0.000000
     8  H    0.000000   0.000001   0.000000   0.000000   0.000000   0.000000
     9  C    0.000002   0.000001   0.000000  -0.000007   0.000000   0.000000
    10  H    0.000000   0.000000   0.000000   0.000000   0.000000   0.000000
    11  C   -0.000012  -0.000001   0.000000   0.000023   0.000000   0.000000
    12  H    0.000009   0.000001   0.000000   0.000134   0.000000   0.000000
    13  H    0.000000   0.000000   0.000000   0.000002   0.000000   0.000000
    14  H    0.000000   0.000000   0.000000   0.000000   0.000000   0.000000
    15  C    0.000079   0.000027   0.000000   0.000048   0.000000   0.000000
    16  O    0.000242   0.000277   0.000004   0.000082  -0.000004  -0.000001
    17  N    0.000010  -0.000004   0.000000  -0.000026  -0.000001   0.000000
    18  H    0.000000   0.000000   0.000000   0.000000   0.000000   0.000000
    19  C   -0.000442  -0.000003   0.000005   0.000110  -0.000028  -0.000035
    20  H    0.000017  -0.000005   0.000000  -0.000011  -0.000031  -0.000025
    21  C   -0.000003   0.000000   0.000000   0.000000   0.000001   0.000000
    22  H    0.000000   0.000000   0.000000  -0.000001   0.000000   0.000000
    23  H    0.000001   0.000000   0.000000   0.000000  -0.000002   0.000000
    24  H    0.000000   0.000000   0.000000   0.000000   0.000000   0.000000
    25  C   -0.002293  -0.000027   0.000085   0.002015   0.003740   0.000297
    26  O   -0.003795   0.000005  -0.000011   0.004587   0.000386  -0.000003
    27  N   -0.065927  -0.000717   0.004731  -0.005255  -0.044399  -0.006007
    28  H    0.002191   0.000974  -0.000063  -0.000241  -0.006966   0.019187
    29  C    0.338081  -0.037105  -0.037997  -0.029857   0.371416  -0.078209
    30  H   -0.038967   0.003812  -0.000170  -0.003581  -0.044385   0.001976
    31  C    5.149879   0.390313   0.380109   0.391854  -0.053511  -0.000854
    32  H    0.390313   0.498804  -0.024086  -0.022281  -0.003893   0.001943
    33  H    0.380109  -0.024086   0.542133  -0.023605  -0.002545   0.000025
    34  H    0.391854  -0.022281  -0.023605   0.475464   0.004157  -0.000066
    35  C   -0.053511  -0.003893  -0.002545   0.004157   4.167691   0.598445
    36  O   -0.000854   0.001943   0.000025  -0.000066   0.598445   8.178587
    37  N    0.000200   0.000419   0.002369  -0.000068   0.281276  -0.103805
    38  H    0.000322   0.000003   0.000275  -0.000028  -0.021644   0.002513
    39  C   -0.000282  -0.000005  -0.000034   0.000003  -0.029349   0.008399
    40  H    0.000017   0.000003  -0.000014   0.000000  -0.002872   0.003318
    41  H   -0.000007   0.000000   0.000003   0.000000  -0.003678   0.001172
    42  H    0.000006   0.000000  -0.000006   0.000000   0.004555   0.000354
             37         38         39         40         41         42
     1  H    0.000000   0.000000   0.000000   0.000000   0.000000   0.000000
     2  C    0.000000   0.000000   0.000000   0.000000   0.000000   0.000000
     3  H    0.000000   0.000000   0.000000   0.000000   0.000000   0.000000
     4  H    0.000000   0.000000   0.000000   0.000000   0.000000   0.000000
     5  C    0.000000   0.000000   0.000000   0.000000   0.000000   0.000000
     6  O    0.000000   0.000000   0.000000   0.000000   0.000000   0.000000
     7  N    0.000000   0.000000   0.000000   0.000000   0.000000   0.000000
     8  H    0.000000   0.000000   0.000000   0.000000   0.000000   0.000000
     9  C    0.000000   0.000000   0.000000   0.000000   0.000000   0.000000
    10  H    0.000000   0.000000   0.000000   0.000000   0.000000   0.000000
    11  C    0.000000   0.000000   0.000000   0.000000   0.000000   0.000000
    12  H    0.000000   0.000000   0.000000   0.000000   0.000000   0.000000
    13  H    0.000000   0.000000   0.000000   0.000000   0.000000   0.000000
    14  H    0.000000   0.000000   0.000000   0.000000   0.000000   0.000000
    15  C    0.000000   0.000000   0.000000   0.000000   0.000000   0.000000
    16  O    0.000000   0.000000   0.000000   0.000000   0.000000   0.000000
    17  N    0.000000   0.000000   0.000000   0.000000   0.000000   0.000000
    18  H    0.000000   0.000000   0.000000   0.000000   0.000000   0.000000
    19  C    0.000000   0.000000   0.000000   0.000000   0.000000   0.000000
    20  H    0.000000   0.000000   0.000000   0.000000   0.000000   0.000000
    21  C    0.000000   0.000000   0.000000   0.000000   0.000000   0.000000
    22  H    0.000000   0.000000   0.000000   0.000000   0.000000   0.000000
    23  H    0.000000   0.000000   0.000000   0.000000   0.000000   0.000000
    24  H    0.000000   0.000000   0.000000   0.000000   0.000000   0.000000
    25  C   -0.000141  -0.000007   0.000002   0.000000   0.000000   0.000000
    26  O   -0.000002  -0.000002   0.000000   0.000000   0.000000   0.000000
    27  N    0.002194  -0.000020  -0.000092  -0.000006   0.000011   0.000000
    28  H    0.000862  -0.000026  -0.000024  -0.000003   0.000001   0.000000
    29  C   -0.113117   0.000669   0.004587   0.000132  -0.000176   0.000001
    30  H    0.004657   0.001627  -0.000069  -0.000001  -0.000005  -0.000014
    31  C    0.000200   0.000322  -0.000282   0.000017  -0.000007   0.000006
    32  H    0.000419   0.000003  -0.000005   0.000003   0.000000   0.000000
    33  H    0.002369   0.000275  -0.000034  -0.000014   0.000003  -0.000006
    34  H   -0.000068  -0.000028   0.000003   0.000000   0.000000   0.000000
    35  C    0.281276  -0.021644  -0.029349  -0.002872  -0.003678   0.004555
    36  O   -0.103805   0.002513   0.008399   0.003318   0.001172   0.000354
    37  N    7.325608   0.328429   0.195327  -0.040575  -0.045633  -0.037382
    38  H    0.328429   0.322018  -0.022377   0.002506   0.001370  -0.004582
    39  C    0.195327  -0.022377   4.908618   0.404355   0.406242   0.397304
    40  H   -0.040575   0.002506   0.404355   0.486961  -0.032788  -0.024765
    41  H   -0.045633   0.001370   0.406242  -0.032788   0.521405  -0.031297
    42  H   -0.037382  -0.004582   0.397304  -0.024765  -0.031297   0.524849
 Mulliken atomic charges:
              1
     1  H    0.208365
     2  C   -0.576143
     3  H    0.173350
     4  H    0.202505
     5  C    0.756955
     6  O   -0.621686
     7  N   -0.823122
     8  H    0.416987
     9  C   -0.036086
    10  H    0.222081
    11  C   -0.491146
    12  H    0.178950
    13  H    0.170087
    14  H    0.210559
    15  C    0.791216
    16  O   -0.637822
    17  N   -0.800845
    18  H    0.394744
    19  C   -0.032383
    20  H    0.211443
    21  C   -0.516652
    22  H    0.196376
    23  H    0.188484
    24  H    0.184628
    25  C    0.795735
    26  O   -0.645833
    27  N   -0.811411
    28  H    0.427485
    29  C   -0.044615
    30  H    0.209893
    31  C   -0.487237
    32  H    0.191545
    33  H    0.158793
    34  H    0.206549
    35  C    0.781642
    36  O   -0.627210
    37  N   -0.800617
    38  H    0.388953
    39  C   -0.272606
    40  H    0.203732
    41  H    0.183380
    42  H    0.170976
 Sum of Mulliken atomic charges =   0.00000
 Mulliken charges with hydrogens summed into heavy atoms:
              1
     2  C    0.008078
     5  C    0.756955
     6  O   -0.621686
     7  N   -0.406135
     9  C    0.185995
    11  C    0.068450
    15  C    0.791216
    16  O   -0.637822
    17  N   -0.406101
    19  C    0.179060
    21  C    0.052836
    25  C    0.795735
    26  O   -0.645833
    27  N   -0.383926
    29  C    0.165278
    31  C    0.069650
    35  C    0.781642
    36  O   -0.627210
    37  N   -0.411664
    39  C    0.285481
 Sum of Mulliken charges with hydrogens summed into heavy atoms =   0.00000
 Electronic spatial extent (au):  <R**2>=           8862.8047
 Charge=              0.0000 electrons
 Dipole moment (field-independent basis, Debye):
    X=              4.3106    Y=             -0.0543    Z=              0.6771  Tot=              4.3637
 Quadrupole moment (field-independent basis, Debye-Ang):
   XX=           -119.0116   YY=           -110.0714   ZZ=           -124.3617
   XY=              2.9369   XZ=             14.4092   YZ=             -7.6750
 Traceless Quadrupole moment (field-independent basis, Debye-Ang):
   XX=             -1.1967   YY=              7.7435   ZZ=             -6.5468
   XY=              2.9369   XZ=             14.4092   YZ=             -7.6750
 Octapole moment (field-independent basis, Debye-Ang**2):
  XXX=            350.8276  YYY=              4.2071  ZZZ=             -0.4044  XYY=            -34.6551
  XXY=            -66.7618  XXZ=             23.5083  XZZ=            -11.1352  YZZ=             -4.7800
  YYZ=            -12.1177  XYZ=            -26.4101
 Hexadecapole moment (field-independent basis, Debye-Ang**3):
 XXXX=          -9144.4628 YYYY=          -1727.5812 ZZZZ=           -713.3169 XXXY=             37.9462
 XXXZ=            443.0455 YYYX=             17.6981 YYYZ=             -0.5942 ZZZX=             26.3301
 ZZZY=            -12.9296 XXYY=          -1619.0876 XXZZ=          -1588.9210 YYZZ=           -432.5742
 XXYZ=              2.3939 YYXZ=             -6.1029 ZZXY=             11.3259
 N-N= 1.632090260305D+03 E-N=-5.572359488954D+03  KE= 9.831111147157D+02
 1\1\GINC-NODE001\FOpt\RHF\6-31G(d)\C12H22N4O4\MANAGER\27-Dec-2016\0\\#
  HF/6-31G* Opt=(ModRedundant, maxcycles=1000, calcfc) geom=nocrowd\\Ph
 i Psi fixed scan\\0,1\H,6.1281596176,1.0648890706,-3.337730281\C,6.933
 7504053,1.7541422407,-3.1228924412\H,7.0578004854,2.4383502198,-3.9534
 738982\H,7.8443320276,1.1758897371,-3.0083050649\C,6.6379240796,2.4518
 694203,-1.8130270367\O,6.2108987923,1.8530097675,-0.8604937468\N,6.903
 0496715,3.7738916462,-1.7792545926\H,7.2467207983,4.2522473207,-2.5812
 66679\C,6.6863186576,4.5712464646,-0.5971056951\H,5.772648784,4.235433
 5612,-0.1241007625\C,7.8444708996,4.4538172919,0.4044110998\H,8.771916
 7929,4.7772339564,-0.0549445102\H,7.6720790584,5.0612559217,1.28693734
 98\H,7.9437227476,3.4207457018,0.7102537427\C,6.5317870804,6.019553723
 ,-1.0419645587\O,7.0235177197,6.4239313279,-2.0642304769\N,5.819567788
 8,6.8156355506,-0.2152688179\H,5.6033416767,6.4617253917,0.6900790943\
 C,5.8357058876,8.2609128382,-0.3597940145\H,5.4681572962,8.492803465,-
 1.350631823\C,4.9200005205,8.891199867,0.6836126636\H,5.2866052032,8.6
 874128764,1.6826890453\H,4.8844427328,9.9664794687,0.5516252142\H,3.91
 31042688,8.5015702327,0.583398752\C,7.2615742817,8.8006039009,-0.19786
 62629\O,7.8557506037,8.6475344444,0.8397405862\N,7.7616057149,9.463697
 0963,-1.2503197389\H,7.3104199309,9.4043638274,-2.1366127983\C,9.11178
 98721,9.9753944025,-1.2623889772\H,9.3040193847,10.4248228207,-0.29697
 09868\C,10.150465685,8.8759445212,-1.5237942846\H,9.9628118269,8.40389
 57039,-2.4812614351\H,11.1565391454,9.2831682192,-1.5274524815\H,10.08
 39814328,8.1272514241,-0.7457573055\C,9.1858026409,11.0325110624,-2.35
 94850114\O,8.4822669252,10.9731408803,-3.333600564\N,10.1174895313,11.
 9880325077,-2.1874229026\H,10.5970346639,12.0434510829,-1.3193170572\C
 ,10.3181356443,13.0397212477,-3.162716822\H,10.4017226438,12.614124124
 2,-4.152266096\H,9.4968198195,13.7471822493,-3.1617514783\H,11.2345472
 605,13.562713423,-2.9246789463\\Version=EM64L-G09RevA.02\State=1-A\HF=
 -984.5649197\RMSD=5.634e-09\RMSF=7.834e-04\Dipole=0.7296974,1.5539314,
 0.0184288\Quadrupole=8.7347203,-2.3076055,-6.4271148,3.1422262,-3.2552
 615,9.9485271\PG=C01 [X(C12H22N4O4)]\\@


 THERE ARE TWO THINGS THAT EVERYBODY THINKS THEY CAN DO BETTER THAN
 ANYONE ELSE - PUNCH THE FIRE, AND EDIT A DAILY PAPER.
 -- UNCLE ESEK, "CENTURY MAGAZINE", 1885
 Job cpu time:  0 days  4 hours 52 minutes 35.9 seconds.
 File lengths (MBytes):  RWF=    553 Int=      0 D2E=      0 Chk=     11 Scr=      1
 Normal termination of Gaussian 09 at Tue Dec 27 11:14:42 2016.
