 Entering Gaussian System, Link 0=g09
 Initial command:
 /home/steboss/Software/g09/l1.exe /tmp/Gau-26026.inp -scrdir=/tmp/
 Entering Link 1 = /home/steboss/Software/g09/l1.exe PID=     26028.
  
 Copyright (c) 1988,1990,1992,1993,1995,1998,2003,2009, Gaussian, Inc.
                  All Rights Reserved.
  
 This is part of the Gaussian(R) 09 program.  It is based on
 the Gaussian(R) 03 system (copyright 2003, Gaussian, Inc.),
 the Gaussian(R) 98 system (copyright 1998, Gaussian, Inc.),
 the Gaussian(R) 94 system (copyright 1995, Gaussian, Inc.),
 the Gaussian 92(TM) system (copyright 1992, Gaussian, Inc.),
 the Gaussian 90(TM) system (copyright 1990, Gaussian, Inc.),
 the Gaussian 88(TM) system (copyright 1988, Gaussian, Inc.),
 the Gaussian 86(TM) system (copyright 1986, Carnegie Mellon
 University), and the Gaussian 82(TM) system (copyright 1983,
 Carnegie Mellon University). Gaussian is a federally registered
 trademark of Gaussian, Inc.
  
 This software contains proprietary and confidential information,
 including trade secrets, belonging to Gaussian, Inc.
  
 This software is provided under written license and may be
 used, copied, transmitted, or stored only in accord with that
 written license.
  
 The following legend is applicable only to US Government
 contracts under FAR:
  
                    RESTRICTED RIGHTS LEGEND
  
 Use, reproduction and disclosure by the US Government is
 subject to restrictions as set forth in subparagraphs (a)
 and (c) of the Commercial Computer Software - Restricted
 Rights clause in FAR 52.227-19.
  
 Gaussian, Inc.
 340 Quinnipiac St., Bldg. 40, Wallingford CT 06492
  
  
 ---------------------------------------------------------------
 Warning -- This program may not be used in any manner that
 competes with the business of Gaussian, Inc. or will provide
 assistance to any competitor of Gaussian, Inc.  The licensee
 of this program is prohibited from giving any competitor of
 Gaussian, Inc. access to this program.  By using this program,
 the user acknowledges that Gaussian, Inc. is engaged in the
 business of creating and licensing software in the field of
 computational chemistry and represents and warrants to the
 licensee that it is not a competitor of Gaussian, Inc. and that
 it will not use this program in any manner prohibited above.
 ---------------------------------------------------------------
  

 Cite this work as:
 Gaussian 09, Revision A.02,
 M. J. Frisch, G. W. Trucks, H. B. Schlegel, G. E. Scuseria, 
 M. A. Robb, J. R. Cheeseman, G. Scalmani, V. Barone, B. Mennucci, 
 G. A. Petersson, H. Nakatsuji, M. Caricato, X. Li, H. P. Hratchian, 
 A. F. Izmaylov, J. Bloino, G. Zheng, J. L. Sonnenberg, M. Hada, 
 M. Ehara, K. Toyota, R. Fukuda, J. Hasegawa, M. Ishida, T. Nakajima, 
 Y. Honda, O. Kitao, H. Nakai, T. Vreven, J. A. Montgomery, Jr., 
 J. E. Peralta, F. Ogliaro, M. Bearpark, J. J. Heyd, E. Brothers, 
 K. N. Kudin, V. N. Staroverov, R. Kobayashi, J. Normand, 
 K. Raghavachari, A. Rendell, J. C. Burant, S. S. Iyengar, J. Tomasi, 
 M. Cossi, N. Rega, J. M. Millam, M. Klene, J. E. Knox, J. B. Cross, 
 V. Bakken, C. Adamo, J. Jaramillo, R. Gomperts, R. E. Stratmann, 
 O. Yazyev, A. J. Austin, R. Cammi, C. Pomelli, J. W. Ochterski, 
 R. L. Martin, K. Morokuma, V. G. Zakrzewski, G. A. Voth, 
 P. Salvador, J. J. Dannenberg, S. Dapprich, A. D. Daniels, 
 O. Farkas, J. B. Foresman, J. V. Ortiz, J. Cioslowski, 
 and D. J. Fox, Gaussian, Inc., Wallingford CT, 2009.
 
 ******************************************
 Gaussian 09:  EM64L-G09RevA.02 11-Jun-2009
                27-Dec-2016 
 ******************************************
 %chk=structure_0.chk
 -------------------------------------------------------------------
 # HF/6-31G* Opt=(ModRedundant, maxcycles=1000, calcfc) geom=nocrowd
 -------------------------------------------------------------------
 1/6=1000,10=4,18=120,19=15,38=1/1,3;
 2/9=110,12=1,17=6,18=5,40=1/2;
 3/5=1,6=6,7=1,11=9,16=1,25=1,30=1,71=2/1,2,3;
 4//1;
 5/5=2,38=5/2;
 8/6=4,10=90,11=11/1;
 11/6=1,8=1,9=11,15=111,16=1/1,2,10;
 10/6=1,7=6,13=1/2;
 6/7=2,8=2,9=2,10=2,28=1/1;
 7/10=1,18=20,25=1/1,2,3,16;
 1/6=1000,10=4,18=20,19=15/3(2);
 2/9=110,12=1/2;
 99//99;
 2/9=110,12=1/2;
 3/5=1,6=6,7=1,11=9,16=1,25=1,30=1,71=1/1,2,3;
 4/5=5,16=3/1;
 5/5=2,38=5/2;
 7//1,2,3,16;
 1/6=1000,18=20,19=15/3(-5);
 2/9=110,12=1/2;
 6/7=2,8=2,9=2,10=2,19=2,28=1/1;
 99/9=1/99;
 ------------------
 Phi Psi fixed scan
 ------------------
 Symbolic Z-matrix:
 Charge =  0 Multiplicity = 1
 H                     7.7691    1.       -3.3308 
 C                     7.7691    2.09     -3.3308 
 H                     7.2553    2.4539   -4.2206 
 H                     8.7965    2.4539   -3.3308 
 C                     7.0554    2.6408   -2.0946 
 O                     6.5738    1.8774   -1.2605 
 N                     6.9914    3.9697   -1.9838 
 H                     7.4025    4.5562   -2.6959 
 C                     6.3425    4.6139   -0.8598 
 H                     5.2947    4.3155   -0.8246 
 C                     7.0055    4.2208    0.4561 
 H                     8.0531    4.5213    0.4396 
 H                     6.4981    4.7189    1.2822 
 H                     6.9399    3.1409    0.5882 
 C                     6.4127    6.1294   -0.9815 
 O                     6.9688    6.6527   -1.9446 
 N                     5.846     6.8349    0. 
 H                     5.4006    6.3592    0.7716 
 C                     5.8461    8.2839    0. 
 H                     5.3323    8.6477   -0.8898 
 C                     5.1347    8.8329    1.2322 
 H                     5.6431    8.4846    2.1312 
 H                     5.1499    9.9224    1.2058 
 H                     4.1019    8.4846    1.2414 
 C                     7.266     8.8318    0. 
 O                     7.4667    10.0443   0. 
 N                     8.2534    7.9333    0. 
 H                     8.0383    6.9465    0. 
 C                     9.6477    8.3279    0. 
 H                     9.8579    8.9213   -0.8898 
 C                     9.9822    9.1618    1.2321 
 H                     9.7855    8.5778    2.1312 
 H                     11.0348   9.4439    1.2058 
 H                     9.3659    10.0608   1.2414 
 C                     10.5615   7.1107    0. 
 O                     10.0892   5.9761    0. 
 N                     11.875    7.3494    0. 
 H                     12.2155   8.3003    0. 
 C                     12.8483   6.276     0. 
 H                     12.3316   5.3163    0. 
 H                     13.4733   6.3516   -0.8899 
 H                     13.4733   6.3516    0.8898 
 
 The following ModRedundant input section has been read:
 D   15   17   19   25 F                                                       
 D   17   19   25   27 F                                                       

 GradGradGradGradGradGradGradGradGradGradGradGradGradGradGradGradGradGrad
 Berny optimization.
 Initialization pass.
                           ----------------------------
                           !    Initial Parameters    !
                           ! (Angstroms and Degrees)  !
 --------------------------                            --------------------------
 ! Name  Definition              Value          Derivative Info.                !
 --------------------------------------------------------------------------------
 ! R1    R(1,2)                  1.09           calculate D2E/DX2 analytically  !
 ! R2    R(2,3)                  1.09           calculate D2E/DX2 analytically  !
 ! R3    R(2,4)                  1.0899         calculate D2E/DX2 analytically  !
 ! R4    R(2,5)                  1.53           calculate D2E/DX2 analytically  !
 ! R5    R(5,6)                  1.229          calculate D2E/DX2 analytically  !
 ! R6    R(5,7)                  1.335          calculate D2E/DX2 analytically  !
 ! R7    R(7,8)                  1.01           calculate D2E/DX2 analytically  !
 ! R8    R(7,9)                  1.4489         calculate D2E/DX2 analytically  !
 ! R9    R(9,10)                 1.09           calculate D2E/DX2 analytically  !
 ! R10   R(9,11)                 1.525          calculate D2E/DX2 analytically  !
 ! R11   R(9,15)                 1.522          calculate D2E/DX2 analytically  !
 ! R12   R(11,12)                1.09           calculate D2E/DX2 analytically  !
 ! R13   R(11,13)                1.09           calculate D2E/DX2 analytically  !
 ! R14   R(11,14)                1.0899         calculate D2E/DX2 analytically  !
 ! R15   R(15,16)                1.2291         calculate D2E/DX2 analytically  !
 ! R16   R(15,17)                1.335          calculate D2E/DX2 analytically  !
 ! R17   R(17,18)                1.01           calculate D2E/DX2 analytically  !
 ! R18   R(17,19)                1.449          calculate D2E/DX2 analytically  !
 ! R19   R(19,20)                1.09           calculate D2E/DX2 analytically  !
 ! R20   R(19,21)                1.5251         calculate D2E/DX2 analytically  !
 ! R21   R(19,25)                1.5219         calculate D2E/DX2 analytically  !
 ! R22   R(21,22)                1.0899         calculate D2E/DX2 analytically  !
 ! R23   R(21,23)                1.0899         calculate D2E/DX2 analytically  !
 ! R24   R(21,24)                1.09           calculate D2E/DX2 analytically  !
 ! R25   R(25,26)                1.229          calculate D2E/DX2 analytically  !
 ! R26   R(25,27)                1.335          calculate D2E/DX2 analytically  !
 ! R27   R(27,28)                1.01           calculate D2E/DX2 analytically  !
 ! R28   R(27,29)                1.4491         calculate D2E/DX2 analytically  !
 ! R29   R(29,30)                1.09           calculate D2E/DX2 analytically  !
 ! R30   R(29,31)                1.5249         calculate D2E/DX2 analytically  !
 ! R31   R(29,35)                1.522          calculate D2E/DX2 analytically  !
 ! R32   R(31,32)                1.09           calculate D2E/DX2 analytically  !
 ! R33   R(31,33)                1.0901         calculate D2E/DX2 analytically  !
 ! R34   R(31,34)                1.09           calculate D2E/DX2 analytically  !
 ! R35   R(35,36)                1.229          calculate D2E/DX2 analytically  !
 ! R36   R(35,37)                1.335          calculate D2E/DX2 analytically  !
 ! R37   R(37,38)                1.01           calculate D2E/DX2 analytically  !
 ! R38   R(37,39)                1.449          calculate D2E/DX2 analytically  !
 ! R39   R(39,40)                1.09           calculate D2E/DX2 analytically  !
 ! R40   R(39,41)                1.0901         calculate D2E/DX2 analytically  !
 ! R41   R(39,42)                1.09           calculate D2E/DX2 analytically  !
 ! A1    A(1,2,3)              109.5023         calculate D2E/DX2 analytically  !
 ! A2    A(1,2,4)              109.5039         calculate D2E/DX2 analytically  !
 ! A3    A(1,2,5)              111.1            calculate D2E/DX2 analytically  !
 ! A4    A(3,2,4)              109.4422         calculate D2E/DX2 analytically  !
 ! A5    A(3,2,5)              108.6323         calculate D2E/DX2 analytically  !
 ! A6    A(4,2,5)              108.6332         calculate D2E/DX2 analytically  !
 ! A7    A(2,5,6)              120.4994         calculate D2E/DX2 analytically  !
 ! A8    A(2,5,7)              116.5999         calculate D2E/DX2 analytically  !
 ! A9    A(6,5,7)              122.9007         calculate D2E/DX2 analytically  !
 ! A10   A(5,7,8)              120.0            calculate D2E/DX2 analytically  !
 ! A11   A(5,7,9)              121.8976         calculate D2E/DX2 analytically  !
 ! A12   A(8,7,9)              118.1024         calculate D2E/DX2 analytically  !
 ! A13   A(7,9,10)             109.5016         calculate D2E/DX2 analytically  !
 ! A14   A(7,9,11)             111.1039         calculate D2E/DX2 analytically  !
 ! A15   A(7,9,15)             111.1012         calculate D2E/DX2 analytically  !
 ! A16   A(10,9,11)            108.6312         calculate D2E/DX2 analytically  !
 ! A17   A(10,9,15)            108.6329         calculate D2E/DX2 analytically  !
 ! A18   A(11,9,15)            107.7949         calculate D2E/DX2 analytically  !
 ! A19   A(9,11,12)            109.4947         calculate D2E/DX2 analytically  !
 ! A20   A(9,11,13)            109.5            calculate D2E/DX2 analytically  !
 ! A21   A(9,11,14)            109.5002         calculate D2E/DX2 analytically  !
 ! A22   A(12,11,13)           109.4455         calculate D2E/DX2 analytically  !
 ! A23   A(12,11,14)           109.4414         calculate D2E/DX2 analytically  !
 ! A24   A(13,11,14)           109.4454         calculate D2E/DX2 analytically  !
 ! A25   A(9,15,16)            120.4955         calculate D2E/DX2 analytically  !
 ! A26   A(9,15,17)            116.6053         calculate D2E/DX2 analytically  !
 ! A27   A(16,15,17)           122.8992         calculate D2E/DX2 analytically  !
 ! A28   A(15,17,18)           119.9987         calculate D2E/DX2 analytically  !
 ! A29   A(15,17,19)           121.8998         calculate D2E/DX2 analytically  !
 ! A30   A(18,17,19)           118.1015         calculate D2E/DX2 analytically  !
 ! A31   A(17,19,20)           109.4954         calculate D2E/DX2 analytically  !
 ! A32   A(17,19,21)           111.0974         calculate D2E/DX2 analytically  !
 ! A33   A(17,19,25)           111.1042         calculate D2E/DX2 analytically  !
 ! A34   A(20,19,21)           108.6349         calculate D2E/DX2 analytically  !
 ! A35   A(20,19,25)           108.6399         calculate D2E/DX2 analytically  !
 ! A36   A(21,19,25)           107.7944         calculate D2E/DX2 analytically  !
 ! A37   A(19,21,22)           109.4996         calculate D2E/DX2 analytically  !
 ! A38   A(19,21,23)           109.4977         calculate D2E/DX2 analytically  !
 ! A39   A(19,21,24)           109.4988         calculate D2E/DX2 analytically  !
 ! A40   A(22,21,23)           109.4452         calculate D2E/DX2 analytically  !
 ! A41   A(22,21,24)           109.4447         calculate D2E/DX2 analytically  !
 ! A42   A(23,21,24)           109.4412         calculate D2E/DX2 analytically  !
 ! A43   A(19,25,26)           120.4989         calculate D2E/DX2 analytically  !
 ! A44   A(19,25,27)           116.5987         calculate D2E/DX2 analytically  !
 ! A45   A(26,25,27)           122.9024         calculate D2E/DX2 analytically  !
 ! A46   A(25,27,28)           120.0043         calculate D2E/DX2 analytically  !
 ! A47   A(25,27,29)           121.8969         calculate D2E/DX2 analytically  !
 ! A48   A(28,27,29)           118.0988         calculate D2E/DX2 analytically  !
 ! A49   A(27,29,30)           109.5003         calculate D2E/DX2 analytically  !
 ! A50   A(27,29,31)           111.0991         calculate D2E/DX2 analytically  !
 ! A51   A(27,29,35)           111.095          calculate D2E/DX2 analytically  !
 ! A52   A(30,29,31)           108.6373         calculate D2E/DX2 analytically  !
 ! A53   A(30,29,35)           108.6385         calculate D2E/DX2 analytically  !
 ! A54   A(31,29,35)           107.796          calculate D2E/DX2 analytically  !
 ! A55   A(29,31,32)           109.5052         calculate D2E/DX2 analytically  !
 ! A56   A(29,31,33)           109.5023         calculate D2E/DX2 analytically  !
 ! A57   A(29,31,34)           109.5052         calculate D2E/DX2 analytically  !
 ! A58   A(32,31,33)           109.4394         calculate D2E/DX2 analytically  !
 ! A59   A(32,31,34)           109.4399         calculate D2E/DX2 analytically  !
 ! A60   A(33,31,34)           109.4352         calculate D2E/DX2 analytically  !
 ! A61   A(29,35,36)           120.5025         calculate D2E/DX2 analytically  !
 ! A62   A(29,35,37)           116.5971         calculate D2E/DX2 analytically  !
 ! A63   A(36,35,37)           122.9004         calculate D2E/DX2 analytically  !
 ! A64   A(35,37,38)           120.0014         calculate D2E/DX2 analytically  !
 ! A65   A(35,37,39)           121.9002         calculate D2E/DX2 analytically  !
 ! A66   A(38,37,39)           118.0985         calculate D2E/DX2 analytically  !
 ! A67   A(37,39,40)           109.5021         calculate D2E/DX2 analytically  !
 ! A68   A(37,39,41)           109.497          calculate D2E/DX2 analytically  !
 ! A69   A(37,39,42)           109.4985         calculate D2E/DX2 analytically  !
 ! A70   A(40,39,41)           109.4429         calculate D2E/DX2 analytically  !
 ! A71   A(40,39,42)           109.4444         calculate D2E/DX2 analytically  !
 ! A72   A(41,39,42)           109.4423         calculate D2E/DX2 analytically  !
 ! D1    D(1,2,5,6)             -0.0022         calculate D2E/DX2 analytically  !
 ! D2    D(1,2,5,7)           -179.9987         calculate D2E/DX2 analytically  !
 ! D3    D(3,2,5,6)            120.5106         calculate D2E/DX2 analytically  !
 ! D4    D(3,2,5,7)            -59.486          calculate D2E/DX2 analytically  !
 ! D5    D(4,2,5,6)           -120.5174         calculate D2E/DX2 analytically  !
 ! D6    D(4,2,5,7)             59.4861         calculate D2E/DX2 analytically  !
 ! D7    D(2,5,7,8)             -0.0002         calculate D2E/DX2 analytically  !
 ! D8    D(2,5,7,9)           -179.9989         calculate D2E/DX2 analytically  !
 ! D9    D(6,5,7,8)           -179.9966         calculate D2E/DX2 analytically  !
 ! D10   D(6,5,7,9)              0.0046         calculate D2E/DX2 analytically  !
 ! D11   D(5,7,9,10)           -60.0012         calculate D2E/DX2 analytically  !
 ! D12   D(5,7,9,11)            59.9966         calculate D2E/DX2 analytically  !
 ! D13   D(5,7,9,15)          -179.9994         calculate D2E/DX2 analytically  !
 ! D14   D(8,7,9,10)           120.0            calculate D2E/DX2 analytically  !
 ! D15   D(8,7,9,11)          -120.0021         calculate D2E/DX2 analytically  !
 ! D16   D(8,7,9,15)             0.0018         calculate D2E/DX2 analytically  !
 ! D17   D(7,9,11,12)           59.997          calculate D2E/DX2 analytically  !
 ! D18   D(7,9,11,13)          179.9976         calculate D2E/DX2 analytically  !
 ! D19   D(7,9,11,14)          -59.9986         calculate D2E/DX2 analytically  !
 ! D20   D(10,9,11,12)        -179.4894         calculate D2E/DX2 analytically  !
 ! D21   D(10,9,11,13)         -59.4889         calculate D2E/DX2 analytically  !
 ! D22   D(10,9,11,14)          60.515          calculate D2E/DX2 analytically  !
 ! D23   D(15,9,11,12)         -61.9521         calculate D2E/DX2 analytically  !
 ! D24   D(15,9,11,13)          58.0485         calculate D2E/DX2 analytically  !
 ! D25   D(15,9,11,14)         178.0523         calculate D2E/DX2 analytically  !
 ! D26   D(7,9,15,16)           -0.0061         calculate D2E/DX2 analytically  !
 ! D27   D(7,9,15,17)          179.9974         calculate D2E/DX2 analytically  !
 ! D28   D(10,9,15,16)        -120.519          calculate D2E/DX2 analytically  !
 ! D29   D(10,9,15,17)          59.4845         calculate D2E/DX2 analytically  !
 ! D30   D(11,9,15,16)         121.9447         calculate D2E/DX2 analytically  !
 ! D31   D(11,9,15,17)         -58.0518         calculate D2E/DX2 analytically  !
 ! D32   D(9,15,17,18)           0.0036         calculate D2E/DX2 analytically  !
 ! D33   D(9,15,17,19)         179.9935         calculate D2E/DX2 analytically  !
 ! D34   D(16,15,17,18)       -179.9928         calculate D2E/DX2 analytically  !
 ! D35   D(16,15,17,19)         -0.0029         calculate D2E/DX2 analytically  !
 ! D36   D(15,17,19,20)         60.0082         calculate D2E/DX2 analytically  !
 ! D37   D(15,17,19,21)       -179.9975         calculate D2E/DX2 analytically  !
 ! D38   D(15,17,19,25)        -59.9965         frozen, calculate D2E/DX2 analyt!
 ! D39   D(18,17,19,20)       -120.0017         calculate D2E/DX2 analytically  !
 ! D40   D(18,17,19,21)         -0.0074         calculate D2E/DX2 analytically  !
 ! D41   D(18,17,19,25)        119.9935         calculate D2E/DX2 analytically  !
 ! D42   D(17,19,21,22)         60.0039         calculate D2E/DX2 analytically  !
 ! D43   D(17,19,21,23)       -179.9943         calculate D2E/DX2 analytically  !
 ! D44   D(17,19,21,24)        -59.998          calculate D2E/DX2 analytically  !
 ! D45   D(20,19,21,22)       -179.4919         calculate D2E/DX2 analytically  !
 ! D46   D(20,19,21,23)        -59.4901         calculate D2E/DX2 analytically  !
 ! D47   D(20,19,21,24)         60.5062         calculate D2E/DX2 analytically  !
 ! D48   D(25,19,21,22)        -61.9445         calculate D2E/DX2 analytically  !
 ! D49   D(25,19,21,23)         58.0573         calculate D2E/DX2 analytically  !
 ! D50   D(25,19,21,24)        178.0536         calculate D2E/DX2 analytically  !
 ! D51   D(17,19,25,26)        180.0            calculate D2E/DX2 analytically  !
 ! D52   D(17,19,25,27)          0.0            frozen, calculate D2E/DX2 analyt!
 ! D53   D(20,19,25,26)         59.4883         calculate D2E/DX2 analytically  !
 ! D54   D(20,19,25,27)       -120.5117         calculate D2E/DX2 analytically  !
 ! D55   D(21,19,25,26)        -58.0558         calculate D2E/DX2 analytically  !
 ! D56   D(21,19,25,27)        121.9442         calculate D2E/DX2 analytically  !
 ! D57   D(19,25,27,28)          0.0            calculate D2E/DX2 analytically  !
 ! D58   D(19,25,27,29)        180.0            calculate D2E/DX2 analytically  !
 ! D59   D(26,25,27,28)        180.0            calculate D2E/DX2 analytically  !
 ! D60   D(26,25,27,29)          0.0            calculate D2E/DX2 analytically  !
 ! D61   D(25,27,29,30)        -59.9996         calculate D2E/DX2 analytically  !
 ! D62   D(25,27,29,31)         60.002          calculate D2E/DX2 analytically  !
 ! D63   D(25,27,29,35)        180.0            calculate D2E/DX2 analytically  !
 ! D64   D(28,27,29,30)        120.0004         calculate D2E/DX2 analytically  !
 ! D65   D(28,27,29,31)       -119.998          calculate D2E/DX2 analytically  !
 ! D66   D(28,27,29,35)          0.0            calculate D2E/DX2 analytically  !
 ! D67   D(27,29,31,32)         59.9983         calculate D2E/DX2 analytically  !
 ! D68   D(27,29,31,33)        179.9992         calculate D2E/DX2 analytically  !
 ! D69   D(27,29,31,34)        -60.005          calculate D2E/DX2 analytically  !
 ! D70   D(30,29,31,32)       -179.4887         calculate D2E/DX2 analytically  !
 ! D71   D(30,29,31,33)        -59.4878         calculate D2E/DX2 analytically  !
 ! D72   D(30,29,31,34)         60.5079         calculate D2E/DX2 analytically  !
 ! D73   D(35,29,31,32)        -61.9409         calculate D2E/DX2 analytically  !
 ! D74   D(35,29,31,33)         58.0601         calculate D2E/DX2 analytically  !
 ! D75   D(35,29,31,34)        178.0558         calculate D2E/DX2 analytically  !
 ! D76   D(27,29,35,36)          0.0            calculate D2E/DX2 analytically  !
 ! D77   D(27,29,35,37)        180.0            calculate D2E/DX2 analytically  !
 ! D78   D(30,29,35,36)       -120.5111         calculate D2E/DX2 analytically  !
 ! D79   D(30,29,35,37)         59.4889         calculate D2E/DX2 analytically  !
 ! D80   D(31,29,35,36)        121.9417         calculate D2E/DX2 analytically  !
 ! D81   D(31,29,35,37)        -58.0583         calculate D2E/DX2 analytically  !
 ! D82   D(29,35,37,38)          0.0            calculate D2E/DX2 analytically  !
 ! D83   D(29,35,37,39)        180.0            calculate D2E/DX2 analytically  !
 ! D84   D(36,35,37,38)        180.0            calculate D2E/DX2 analytically  !
 ! D85   D(36,35,37,39)          0.0            calculate D2E/DX2 analytically  !
 ! D86   D(35,37,39,40)          0.0            calculate D2E/DX2 analytically  !
 ! D87   D(35,37,39,41)        120.0            calculate D2E/DX2 analytically  !
 ! D88   D(35,37,39,42)       -120.0028         calculate D2E/DX2 analytically  !
 ! D89   D(38,37,39,40)        180.0            calculate D2E/DX2 analytically  !
 ! D90   D(38,37,39,41)        -60.0            calculate D2E/DX2 analytically  !
 ! D91   D(38,37,39,42)         59.9972         calculate D2E/DX2 analytically  !
 --------------------------------------------------------------------------------
 Trust Radius=3.00D-01 FncErr=1.00D-07 GrdErr=1.00D-07
 Number of steps in this run= 252 maximum allowed number of steps= 252.
 GradGradGradGradGradGradGradGradGradGradGradGradGradGradGradGradGradGrad

                          Input orientation:                          
 ---------------------------------------------------------------------
 Center     Atomic      Atomic             Coordinates (Angstroms)
 Number     Number       Type             X           Y           Z
 ---------------------------------------------------------------------
      1          1           0        7.769100    1.000000   -3.330800
      2          6           0        7.769100    2.090000   -3.330800
      3          1           0        7.255300    2.453900   -4.220600
      4          1           0        8.796500    2.453900   -3.330800
      5          6           0        7.055400    2.640800   -2.094600
      6          8           0        6.573800    1.877400   -1.260500
      7          7           0        6.991400    3.969700   -1.983800
      8          1           0        7.402500    4.556200   -2.695900
      9          6           0        6.342500    4.613900   -0.859800
     10          1           0        5.294700    4.315500   -0.824600
     11          6           0        7.005500    4.220800    0.456100
     12          1           0        8.053100    4.521300    0.439600
     13          1           0        6.498100    4.718900    1.282200
     14          1           0        6.939900    3.140900    0.588200
     15          6           0        6.412700    6.129400   -0.981500
     16          8           0        6.968800    6.652700   -1.944600
     17          7           0        5.846000    6.834900    0.000000
     18          1           0        5.400600    6.359200    0.771600
     19          6           0        5.846100    8.283900    0.000000
     20          1           0        5.332300    8.647700   -0.889800
     21          6           0        5.134700    8.832900    1.232200
     22          1           0        5.643100    8.484600    2.131200
     23          1           0        5.149900    9.922400    1.205800
     24          1           0        4.101900    8.484600    1.241400
     25          6           0        7.266000    8.831800    0.000000
     26          8           0        7.466700   10.044300    0.000000
     27          7           0        8.253400    7.933300    0.000000
     28          1           0        8.038300    6.946500    0.000000
     29          6           0        9.647700    8.327900    0.000000
     30          1           0        9.857900    8.921300   -0.889800
     31          6           0        9.982200    9.161800    1.232100
     32          1           0        9.785500    8.577800    2.131200
     33          1           0       11.034800    9.443900    1.205800
     34          1           0        9.365900   10.060800    1.241400
     35          6           0       10.561500    7.110700    0.000000
     36          8           0       10.089200    5.976100    0.000000
     37          7           0       11.875000    7.349400    0.000000
     38          1           0       12.215500    8.300300    0.000000
     39          6           0       12.848300    6.276000    0.000000
     40          1           0       12.331600    5.316300    0.000000
     41          1           0       13.473300    6.351600   -0.889900
     42          1           0       13.473300    6.351600    0.889800
 ---------------------------------------------------------------------
                    Distance matrix (angstroms):
                    1          2          3          4          5
     1  H    0.000000
     2  C    1.090000   0.000000
     3  H    1.780326   1.090026   0.000000
     4  H    1.780274   1.089942   1.779618   0.000000
     5  C    2.174806   1.530013   2.143541   2.143490   0.000000
     6  O    2.546510   2.400017   3.091761   3.091745   1.229000
     7  N    3.352364   2.439774   2.714879   2.714856   1.335046
     8  H    3.630985   2.572865   2.601162   2.601153   2.037351
     9  C    4.604487   3.809344   4.098022   4.097994   2.434354
    10  H    4.836965   4.166119   4.340774   4.691396   2.741821
    11  C    5.029637   4.411803   5.005583   4.546452   3.000827
    12  H    5.166829   4.495308   5.160241   4.363795   3.309661
    13  H    6.060151   5.459517   5.998699   5.629621   4.003981
    14  H    4.541980   4.141319   4.867854   4.390614   2.731457
    15  C    5.802566   4.865777   4.971020   4.971017   3.717847
    16  O    5.874951   4.835314   4.784577   4.784554   4.015637
    17  N    6.988462   6.107914   6.244418   6.244425   4.841536
    18  H    7.152657   6.376954   6.604040   6.604028   4.977948
    19  C    8.236951   7.290854   7.334045   7.334030   6.139571
    20  H    8.389505   7.409447   7.290769   7.504820   6.364233
    21  C    9.440093   8.557320   8.655727   8.655714   7.286892
    22  H    9.506448   8.674343   8.905835   8.726209   7.348604
    23  H   10.346505   9.422709   9.468739   9.468734   8.218593
    24  H    9.506451   8.674346   8.726209   8.905820   7.348609
    25  C    8.525516   7.536525   7.647953   7.356240   6.539127
    26  O    9.642875   8.628822   8.687481   8.395044   7.705085
    27  N    7.707102   6.743362   6.988096   6.435294   5.816624
    28  H    6.821111   5.895107   6.213695   5.643806   4.887995
    29  C    8.265681   7.316745   7.618459   6.806074   6.591697
    30  H    8.548015   7.549055   7.726255   6.993734   6.982136
    31  C    9.608998   8.702196   9.064427   8.198894   7.883941
    32  H    9.556274   8.717274   9.178749   8.265211   7.781954
    33  H   10.126450   9.237174   9.622398   8.628489   8.544614
    34  H   10.273893   9.326759   9.599636   8.893490   8.457169
    35  C    7.498825   6.640719   7.101423   5.991264   6.054758
    36  O    6.421734   5.619508   6.184686   5.017090   4.971470
    37  N    8.262416   7.457475   7.944873   6.673628   7.055977
    38  H    9.173826   8.332618   8.751996   7.547462   7.940020
    39  C    8.045413   7.376659   7.981451   6.489974   7.152602
    40  H    7.109225   6.505355   7.195528   5.637774   6.275662
    41  H    8.193626   7.527093   8.059104   6.559155   7.510711
    42  H    8.887687   8.277234   8.942694   7.407968   7.991628
                    6          7          8          9         10
     6  O    0.000000
     7  N    2.252836   0.000000
     8  H    3.150093   1.009986   0.000000
     9  C    2.775336   1.448945   2.120894   0.000000
    10  H    2.787550   2.083774   2.828873   1.090030   0.000000
    11  C    2.936768   2.452827   3.194559   1.525021   2.139158
    12  H    3.474029   2.702654   3.202477   2.150155   3.041270
    13  H    3.813814   3.386946   4.082853   2.150209   2.459575
    14  H    2.268954   2.702729   3.605882   2.150191   2.466247
    15  C    4.264188   2.450266   2.528602   1.521998   2.136533
    16  O    4.840197   2.683382   2.268890   2.392854   3.085371
    17  N    5.166755   3.668348   3.857855   2.432819   2.707632
    18  H    5.058889   3.979018   4.391124   2.568017   2.595338
    19  C    6.569753   4.884618   4.856543   3.801916   4.090502
    20  H    6.893163   5.082631   4.928296   4.158479   4.332854
    21  C    7.527519   6.118881   6.234024   4.861605   4.966179
    22  H    7.484980   6.255834   6.467512   4.941413   5.122454
    23  H    8.534176   6.999951   7.006681   5.819723   5.964966
    24  H    7.484977   6.255833   6.467505   4.941422   4.803387
    25  C    7.101527   5.258411   5.056408   4.402589   4.996294
    26  O    8.311702   6.407975   6.114838   5.611802   6.181966
    27  N    6.409668   4.608496   4.404170   3.925457   4.745772
    28  H    5.424887   3.727305   3.658641   3.009322   3.889662
    29  C    7.255803   5.475883   5.151167   5.045533   5.977284
    30  H    7.780698   5.825118   5.324010   5.559913   6.483860
    31  C    8.419782   6.800353   6.579938   6.189253   7.049063
    32  H    8.167864   6.780472   6.719587   6.042585   6.860848
    33  H    9.123326   7.515950   7.232322   7.043670   7.960638
    34  H    9.001298   7.289833   7.046836   6.574550   7.338358
    35  C    6.699107   5.152374   4.875718   4.977271   6.019326
    36  O    5.544929   4.190163   4.062308   4.078309   5.140505
    37  N    7.722329   6.261580   5.922255   6.231434   7.292795
    38  H    8.641255   7.069709   6.667168   6.987198   8.028454
    39  C    7.765687   6.599830   6.315246   6.769584   7.847318
    40  H    6.824013   5.853762   5.669361   6.091136   7.155385
    41  H    8.231580   6.991787   6.583290   7.339538   8.428491
    42  H    8.499727   7.479709   7.275666   7.545132   8.600835
                   11         12         13         14         15
    11  C    0.000000
    12  H    1.089972   0.000000
    13  H    1.089954   1.779619   0.000000
    14  H    1.089926   1.779551   1.779581   0.000000
    15  C    2.461881   2.701189   2.668547   3.416582   0.000000
    16  O    3.417433   3.376830   3.791224   4.329971   1.229086
    17  N    2.895857   3.227582   2.558657   3.897208   1.334999
    18  H    2.692211   3.244049   2.038579   3.572189   2.037281
    19  C    4.249826   4.384205   3.844264   5.290825   2.434389
    20  H    4.920212   5.118323   4.638118   5.923994   2.741807
    21  C    5.037230   5.266419   4.334323   6.006026   3.720573
    22  H    4.779339   4.937343   3.953773   5.711188   3.978461
    23  H    6.042644   6.179605   5.375862   7.040900   4.556950
    24  H    5.218005   5.653549   4.463624   6.085725   3.978448
    25  C    4.640820   4.403769   4.376032   5.730503   2.999071
    26  O    5.859512   5.571413   5.562563   6.948412   4.171415
    27  N    3.943087   3.446028   3.880397   5.003834   2.757821
    28  H    2.950279   2.464764   2.996407   4.004379   2.067261
    29  C    4.904846   4.150446   4.958719   5.880742   4.032613
    30  H    5.660595   4.938077   5.802241   6.641704   4.435371
    31  C    5.820344   5.087605   5.646311   6.776535   5.180425
    32  H    5.433029   4.724184   5.139933   6.327572   5.201860
    33  H    6.639133   5.805996   6.550810   7.541714   6.093767
    34  H    6.347739   5.749121   6.063154   7.361872   5.396164
    35  C    4.604855   3.631847   4.886304   5.405671   4.374795
    36  O    3.577473   2.540747   4.015045   4.278134   3.808345
    37  N    5.805876   4.774758   6.121652   6.512501   5.682294
    38  H    6.632831   5.639119   6.867250   7.402523   6.272849
    39  C    6.210490   5.125053   6.662855   6.714464   6.511665
    40  H    5.456692   4.373881   6.002553   5.843695   6.054573
    41  H    6.941503   5.873341   7.485796   7.428236   7.064689
    42  H    6.823550   5.738575   7.174476   7.285937   7.307750
                   16         17         18         19         20
    16  O    0.000000
    17  N    2.252853   0.000000
    18  H    3.150101   1.009969   0.000000
    19  C    2.775381   1.449000   2.120921   0.000000
    20  H    2.787608   2.083717   2.828807   1.089993   0.000000
    21  C    4.267230   2.452808   2.530227   1.525060   2.139212
    22  H    4.661060   2.702719   2.534688   2.150233   3.041322
    23  H    4.891253   3.386911   3.598302   2.150193   2.459608
    24  H    4.661070   2.702678   2.534691   2.150253   2.466272
    25  C    2.935690   2.450308   3.191995   1.521943   2.136547
    26  O    3.941107   3.595402   4.294659   2.392771   2.701462
    27  N    2.659249   2.646140   3.348377   2.432697   3.136070
    28  H    2.238664   2.195139   2.810293   2.567952   3.317870
    29  C    3.710023   4.084357   4.744366   3.801855   4.417770
    30  H    3.821786   4.608704   5.402974   4.158433   4.533863
    31  C    5.046542   4.903130   5.390518   4.404101   5.136957
    32  H    5.315257   4.806181   5.098828   4.488570   5.381665
    33  H    5.852194   5.931651   6.438021   5.451803   6.127314
    34  H    5.245172   4.933275   5.444829   4.133696   4.775855
    35  C    4.110806   4.723559   5.272097   4.859156   5.522558
    36  O    3.738469   4.329236   4.767085   4.830097   5.527865
    37  N    5.323313   6.050913   6.594977   6.100895   6.729357
    38  H    5.833002   6.535895   7.127840   6.369421   6.949163
    39  C    6.204183   7.024569   7.488025   7.284399   7.931391
    40  H    5.858930   6.661017   7.051366   7.132206   7.802575
    41  H    6.596330   7.694232   8.241913   7.918326   8.458602
    42  H    7.101620   7.694220   8.073569   7.918315   8.643780
                   21         22         23         24         25
    21  C    0.000000
    22  H    1.089947   0.000000
    23  H    1.089926   1.779573   0.000000
    24  H    1.089988   1.779618   1.779562   0.000000
    25  C    2.461861   2.701179   2.668565   3.416599   0.000000
    26  O    2.902418   3.209392   2.614646   3.910961   1.228998
    27  N    3.471871   3.414617   3.878426   4.368061   1.335013
    28  H    3.675284   3.555945   4.318887   4.404778   2.037352
    29  C    4.705370   4.539096   4.922051   5.685202   2.434422
    30  H    5.178737   5.204007   5.249667   6.153394   2.741842
    31  C    4.858645   4.482719   4.891863   5.919173   3.000785
    32  H    4.743756   4.143448   4.914581   5.753585   3.309745
    33  H    5.931711   5.554012   5.904321   6.999045   4.004057
    34  H    4.405778   4.139492   4.218421   5.494916   2.731500
    35  C    5.825328   5.533559   6.216512   6.719755   3.717863
    36  O    5.850358   5.531943   6.436142   6.609191   4.015654
    37  N    7.010758   6.683358   7.300771   7.953039   4.841528
    38  H    7.206921   6.911760   7.349004   8.210088   4.977956
    39  C    8.219226   7.831656   8.603229   9.105960   6.139559
    40  H    8.104330   7.701699   8.616666   8.905457   6.165958
    41  H    8.955021   8.659605   9.296320   9.844555   6.743433
    42  H    8.706683   8.209921   9.062530   9.617507   6.743420
                   26         27         28         29         30
    26  O    0.000000
    27  N    2.252824   0.000000
    28  H    3.150094   1.009971   0.000000
    29  C    2.775390   1.449062   2.120951   0.000000
    30  H    2.787599   2.083821   2.828873   1.089978   0.000000
    31  C    2.936770   2.452760   3.194428   1.524910   2.139100
    32  H    3.474114   2.702725   3.202477   2.150221   3.041328
    33  H    3.813892   3.387042   4.082888   2.150222   2.459623
    34  H    2.268988   2.702774   3.605892   2.150216   2.466280
    35  C    4.264246   2.450305   2.528537   1.522040   2.136602
    36  O    4.840223   2.683429   2.268891   2.392882   3.085360
    37  N    5.166778   3.668368   3.857797   2.432761   2.707638
    38  H    5.058917   3.979061   4.391102   2.567948   2.595316
    39  C    6.569757   4.884644   4.856508   3.801859   4.090458
    40  H    6.783895   4.845658   4.592382   4.033987   4.461722
    41  H    7.106842   5.526396   5.539409   4.396919   4.435592
    42  H    7.106829   5.526380   5.539393   4.396899   4.779273
                   31         32         33         34         35
    31  C    0.000000
    32  H    1.090013   0.000000
    33  H    1.090064   1.779675   0.000000
    34  H    1.090006   1.779634   1.779624   0.000000
    35  C    2.461843   2.701217   2.668668   3.416668   0.000000
    36  O    3.417339   3.376846   3.791273   4.330013   1.228977
    37  N    2.895782   3.227536   2.558675   3.897223   1.335013
    38  H    2.692189   3.244059   2.038585   3.572206   2.037367
    39  C    4.249758   4.384181   3.844259   5.290831   2.434374
    40  H    4.671790   4.654248   4.491406   5.731207   2.520541
    41  H    4.958617   5.261452   4.461004   5.930543   3.137951
    42  H    4.494683   4.482958   3.950754   5.545496   3.137922
                   36         37         38         39         40
    36  O    0.000000
    37  N    2.252784   0.000000
    38  H    3.150088   1.010025   0.000000
    39  C    2.775351   1.448965   2.120902   0.000000
    40  H    2.337455   2.083742   2.986258   1.089955   0.000000
    41  H    3.519241   2.083768   2.484233   1.090074   1.779676
    42  H    3.519215   2.083725   2.484197   1.089993   1.779626
                   41         42
    41  H    0.000000
    42  H    1.779700   0.000000
 Stoichiometry    C12H22N4O4
 Framework group  C1[X(C12H22N4O4)]
 Deg. of freedom   120
 Full point group                 C1      NOp   1
 Largest Abelian subgroup         C1      NOp   1
 Largest concise Abelian subgroup C1      NOp   1
                         Standard orientation:                         
 ---------------------------------------------------------------------
 Center     Atomic      Atomic             Coordinates (Angstroms)
 Number     Number       Type             X           Y           Z
 ---------------------------------------------------------------------
      1          1           0        5.732551    1.897955   -0.700216
      2          6           0        4.791802    1.520596   -1.101079
      3          1           0        4.977988    1.007734   -2.044724
      4          1           0        4.108031    2.352582   -1.269095
      5          6           0        4.135092    0.536347   -0.131066
      6          8           0        4.671630    0.265156    0.940859
      7          7           0        2.971914    0.005125   -0.514689
      8          1           0        2.570182    0.259182   -1.405834
      9          6           0        2.251042   -0.939412    0.314548
     10          1           0        2.873147   -1.816743    0.491867
     11          6           0        1.885347   -0.321476    1.659952
     12          1           0        1.254874    0.553004    1.499247
     13          1           0        1.345238   -1.052628    2.261367
     14          1           0        2.794164   -0.022468    2.182047
     15          6           0        0.960930   -1.386014   -0.358233
     16          8           0        0.650529   -0.948868   -1.464220
     17          7           0        0.208079   -2.260362    0.313297
     18          1           0        0.505437   -2.590926    1.220129
     19          6           0       -1.042549   -2.761915   -0.219597
     20          1           0       -0.856276   -3.274741   -1.163205
     21          6           0       -1.697115   -3.742981    0.747285
     22          1           0       -1.898083   -3.241509    1.693922
     23          1           0       -2.633545   -4.103259    0.321565
     24          1           0       -1.028125   -4.586356    0.918293
     25          6           0       -2.026363   -1.627654   -0.468342
     26          8           0       -3.145058   -1.860287   -0.920934
     27          7           0       -1.606198   -0.395921   -0.170761
     28          1           0       -0.677116   -0.254853    0.199306
     29          6           0       -2.448491    0.767542   -0.362276
     30          1           0       -2.720904    0.850301   -1.414414
     31          6           0       -3.725268    0.663073    0.464935
     32          1           0       -3.469122    0.588684    1.521809
     33          1           0       -4.338186    1.549600    0.301722
     34          1           0       -4.282697   -0.223777    0.163464
     35          6           0       -1.726781    2.040984    0.054960
     36          8           0       -0.577586    1.993402    0.487942
     37          7           0       -2.405446    3.183081   -0.076531
     38          1           0       -3.348667    3.171367   -0.437569
     39          6           0       -1.829256    4.462218    0.285841
     40          1           0       -0.815036    4.312686    0.655977
     41          1           0       -1.803996    5.111017   -0.589764
     42          1           0       -2.434777    4.926609    1.064153
 ---------------------------------------------------------------------
 Rotational constants (GHZ):      0.3759436      0.2371650      0.1612602
 Standard basis: 6-31G(d) (6D, 7F)
 There are   344 symmetry adapted basis functions of A   symmetry.
 Integral buffers will be    131072 words long.
 Raffenetti 1 integral format.
 Two-electron integral symmetry is turned on.
   344 basis functions,   648 primitive gaussians,   344 cartesian basis functions
    77 alpha electrons       77 beta electrons
       nuclear repulsion energy      1705.3089526051 Hartrees.
 NAtoms=   42 NActive=   42 NUniq=   42 SFac= 7.50D-01 NAtFMM=   80 NAOKFM=F Big=F
 One-electron integrals computed using PRISM.
 NBasis=   344 RedAO= T  NBF=   344
 NBsUse=   344 1.00D-06 NBFU=   344
 Harris functional with IExCor=  205 diagonalized for initial guess.
 ExpMin= 1.61D-01 ExpMax= 5.48D+03 ExpMxC= 8.25D+02 IAcc=1 IRadAn=         1 AccDes= 0.00D+00
 HarFok:  IExCor=  205 AccDes= 0.00D+00 IRadAn=         1 IDoV= 1
 ScaDFX=  1.000000  1.000000  1.000000  1.000000
 FoFCou: FMM=F IPFlag=           0 FMFlag=      100000 FMFlg1=           0
         NFxFlg=           0 DoJE=T BraDBF=F KetDBF=T FulRan=T
         Omega=  0.000000  0.000000  1.000000  0.000000  0.000000 ICntrl=     500 IOpCl=  0
         NMat0=    1 NMatS0=    1 NMatT0=    0 NMatD0=    1 NMtDS0=    0 NMtDT0=    0
         I1Cent=           4 NGrid=           0.
 Petite list used in FoFCou.
 Initial guess orbital symmetries:
       Occupied  (A) (A) (A) (A) (A) (A) (A) (A) (A) (A) (A) (A)
                 (A) (A) (A) (A) (A) (A) (A) (A) (A) (A) (A) (A)
                 (A) (A) (A) (A) (A) (A) (A) (A) (A) (A) (A) (A)
                 (A) (A) (A) (A) (A) (A) (A) (A) (A) (A) (A) (A)
                 (A) (A) (A) (A) (A) (A) (A) (A) (A) (A) (A) (A)
                 (A) (A) (A) (A) (A) (A) (A) (A) (A) (A) (A) (A)
                 (A) (A) (A) (A) (A)
       Virtual   (A) (A) (A) (A) (A) (A) (A) (A) (A) (A) (A) (A)
                 (A) (A) (A) (A) (A) (A) (A) (A) (A) (A) (A) (A)
                 (A) (A) (A) (A) (A) (A) (A) (A) (A) (A) (A) (A)
                 (A) (A) (A) (A) (A) (A) (A) (A) (A) (A) (A) (A)
                 (A) (A) (A) (A) (A) (A) (A) (A) (A) (A) (A) (A)
                 (A) (A) (A) (A) (A) (A) (A) (A) (A) (A) (A) (A)
                 (A) (A) (A) (A) (A) (A) (A) (A) (A) (A) (A) (A)
                 (A) (A) (A) (A) (A) (A) (A) (A) (A) (A) (A) (A)
                 (A) (A) (A) (A) (A) (A) (A) (A) (A) (A) (A) (A)
                 (A) (A) (A) (A) (A) (A) (A) (A) (A) (A) (A) (A)
                 (A) (A) (A) (A) (A) (A) (A) (A) (A) (A) (A) (A)
                 (A) (A) (A) (A) (A) (A) (A) (A) (A) (A) (A) (A)
                 (A) (A) (A) (A) (A) (A) (A) (A) (A) (A) (A) (A)
                 (A) (A) (A) (A) (A) (A) (A) (A) (A) (A) (A) (A)
                 (A) (A) (A) (A) (A) (A) (A) (A) (A) (A) (A) (A)
                 (A) (A) (A) (A) (A) (A) (A) (A) (A) (A) (A) (A)
                 (A) (A) (A) (A) (A) (A) (A) (A) (A) (A) (A) (A)
                 (A) (A) (A) (A) (A) (A) (A) (A) (A) (A) (A) (A)
                 (A) (A) (A) (A) (A) (A) (A) (A) (A) (A) (A) (A)
                 (A) (A) (A) (A) (A) (A) (A) (A) (A) (A) (A) (A)
                 (A) (A) (A) (A) (A) (A) (A) (A) (A) (A) (A) (A)
                 (A) (A) (A) (A) (A) (A) (A) (A) (A) (A) (A) (A)
                 (A) (A) (A)
 The electronic state of the initial guess is 1-A.
 Requested convergence on RMS density matrix=1.00D-08 within 128 cycles.
 Requested convergence on MAX density matrix=1.00D-06.
 Requested convergence on             energy=1.00D-06.
 No special actions if energy rises.
 Integral accuracy reduced to 1.0D-05 until final iterations.
 Initial convergence to 1.0D-05 achieved.  Increase integral accuracy.
 SCF Done:  E(RHF) =  -984.529691704     A.U. after   15 cycles
             Convg  =    0.3271D-08             -V/T =  2.0019
 Range of M.O.s used for correlation:     1   344
 NBasis=   344 NAE=    77 NBE=    77 NFC=     0 NFV=     0
 NROrb=    344 NOA=    77 NOB=    77 NVA=   267 NVB=   267
 Symmetrizing basis deriv contribution to polar:
 IMax=3 JMax=2 DiffMx= 0.00D+00
 G2DrvN: will do    43 centers at a time, making    1 passes doing MaxLOS=2.
 Calling FoFCou, ICntrl=  3107 FMM=F I1Cent=   0 AccDes= 0.00D+00.
 FoFDir/FoFCou used for L=0 through L=2.
 End of G2Drv Frequency-dependent properties file   721 does not exist.
 End of G2Drv Frequency-dependent properties file   722 does not exist.
          IDoAtm=111111111111111111111111111111111111111111
          Differentiating once with respect to nuclear coordinates.
          There are   129 degrees of freedom in the 1st order CPHF.  IDoFFX=5.
    123 vectors produced by pass  0 Test12= 2.06D-10 1.00D-07 XBig12= 8.89D-02 5.34D-02.
 AX will form   123 AO Fock derivatives at one time.
    123 vectors produced by pass  1 Test12= 2.06D-10 1.00D-07 XBig12= 7.02D-03 3.45D-02.
    123 vectors produced by pass  2 Test12= 2.06D-10 1.00D-07 XBig12= 9.48D-05 1.95D-03.
    123 vectors produced by pass  3 Test12= 2.06D-10 1.00D-07 XBig12= 9.38D-07 1.17D-04.
    123 vectors produced by pass  4 Test12= 2.06D-10 1.00D-07 XBig12= 5.92D-09 7.61D-06.
     38 vectors produced by pass  5 Test12= 2.06D-10 1.00D-07 XBig12= 3.19D-11 5.24D-07.
 Inverted reduced A of dimension   653 with in-core refinement.
 End of Minotr Frequency-dependent properties file   721 does not exist.
 End of Minotr Frequency-dependent properties file   722 does not exist.

 **********************************************************************

            Population analysis using the SCF density.

 **********************************************************************

 Orbital symmetries:
       Occupied  (A) (A) (A) (A) (A) (A) (A) (A) (A) (A) (A) (A)
                 (A) (A) (A) (A) (A) (A) (A) (A) (A) (A) (A) (A)
                 (A) (A) (A) (A) (A) (A) (A) (A) (A) (A) (A) (A)
                 (A) (A) (A) (A) (A) (A) (A) (A) (A) (A) (A) (A)
                 (A) (A) (A) (A) (A) (A) (A) (A) (A) (A) (A) (A)
                 (A) (A) (A) (A) (A) (A) (A) (A) (A) (A) (A) (A)
                 (A) (A) (A) (A) (A)
       Virtual   (A) (A) (A) (A) (A) (A) (A) (A) (A) (A) (A) (A)
                 (A) (A) (A) (A) (A) (A) (A) (A) (A) (A) (A) (A)
                 (A) (A) (A) (A) (A) (A) (A) (A) (A) (A) (A) (A)
                 (A) (A) (A) (A) (A) (A) (A) (A) (A) (A) (A) (A)
                 (A) (A) (A) (A) (A) (A) (A) (A) (A) (A) (A) (A)
                 (A) (A) (A) (A) (A) (A) (A) (A) (A) (A) (A) (A)
                 (A) (A) (A) (A) (A) (A) (A) (A) (A) (A) (A) (A)
                 (A) (A) (A) (A) (A) (A) (A) (A) (A) (A) (A) (A)
                 (A) (A) (A) (A) (A) (A) (A) (A) (A) (A) (A) (A)
                 (A) (A) (A) (A) (A) (A) (A) (A) (A) (A) (A) (A)
                 (A) (A) (A) (A) (A) (A) (A) (A) (A) (A) (A) (A)
                 (A) (A) (A) (A) (A) (A) (A) (A) (A) (A) (A) (A)
                 (A) (A) (A) (A) (A) (A) (A) (A) (A) (A) (A) (A)
                 (A) (A) (A) (A) (A) (A) (A) (A) (A) (A) (A) (A)
                 (A) (A) (A) (A) (A) (A) (A) (A) (A) (A) (A) (A)
                 (A) (A) (A) (A) (A) (A) (A) (A) (A) (A) (A) (A)
                 (A) (A) (A) (A) (A) (A) (A) (A) (A) (A) (A) (A)
                 (A) (A) (A) (A) (A) (A) (A) (A) (A) (A) (A) (A)
                 (A) (A) (A) (A) (A) (A) (A) (A) (A) (A) (A) (A)
                 (A) (A) (A) (A) (A) (A) (A) (A) (A) (A) (A) (A)
                 (A) (A) (A) (A) (A) (A) (A) (A) (A) (A) (A) (A)
                 (A) (A) (A) (A) (A) (A) (A) (A) (A) (A) (A) (A)
                 (A) (A) (A)
 The electronic state is 1-A.
 Alpha  occ. eigenvalues --  -20.53991 -20.53271 -20.51541 -20.50981 -15.61227
 Alpha  occ. eigenvalues --  -15.60375 -15.58346 -15.58048 -11.36556 -11.36056
 Alpha  occ. eigenvalues --  -11.34601 -11.34324 -11.29152 -11.28521 -11.28390
 Alpha  occ. eigenvalues --  -11.26884 -11.24007 -11.22969 -11.22232 -11.21423
 Alpha  occ. eigenvalues --   -1.40429  -1.39100  -1.37265  -1.36650  -1.26678
 Alpha  occ. eigenvalues --   -1.24706  -1.23366  -1.22942  -1.08199  -1.05320
 Alpha  occ. eigenvalues --   -1.03488  -0.98070  -0.96317  -0.91582  -0.89477
 Alpha  occ. eigenvalues --   -0.87172  -0.82528  -0.80671  -0.78299  -0.77620
 Alpha  occ. eigenvalues --   -0.75131  -0.72853  -0.68977  -0.68502  -0.67543
 Alpha  occ. eigenvalues --   -0.66097  -0.64874  -0.64570  -0.63178  -0.62402
 Alpha  occ. eigenvalues --   -0.60950  -0.60478  -0.60066  -0.58265  -0.57636
 Alpha  occ. eigenvalues --   -0.57314  -0.56525  -0.55931  -0.55900  -0.55343
 Alpha  occ. eigenvalues --   -0.55210  -0.54648  -0.54229  -0.53202  -0.52541
 Alpha  occ. eigenvalues --   -0.52077  -0.51300  -0.49247  -0.48482  -0.44119
 Alpha  occ. eigenvalues --   -0.43365  -0.42528  -0.40523  -0.40338  -0.39675
 Alpha  occ. eigenvalues --   -0.38210  -0.37349
 Alpha virt. eigenvalues --    0.17350   0.18402   0.19707   0.20022   0.20792
 Alpha virt. eigenvalues --    0.21458   0.24228   0.25821   0.26474   0.27729
 Alpha virt. eigenvalues --    0.28509   0.28931   0.29558   0.29686   0.30214
 Alpha virt. eigenvalues --    0.30669   0.31029   0.31644   0.32078   0.32436
 Alpha virt. eigenvalues --    0.33043   0.33476   0.34639   0.34996   0.35569
 Alpha virt. eigenvalues --    0.36093   0.36744   0.37522   0.39325   0.40112
 Alpha virt. eigenvalues --    0.40975   0.42807   0.43406   0.44169   0.46520
 Alpha virt. eigenvalues --    0.48394   0.49367   0.52565   0.53281   0.54503
 Alpha virt. eigenvalues --    0.55654   0.59615   0.60452   0.61758   0.67103
 Alpha virt. eigenvalues --    0.71286   0.71780   0.72512   0.72925   0.74176
 Alpha virt. eigenvalues --    0.74760   0.75324   0.75702   0.76725   0.77574
 Alpha virt. eigenvalues --    0.77761   0.78370   0.78964   0.80675   0.82299
 Alpha virt. eigenvalues --    0.82864   0.84015   0.84879   0.86911   0.88329
 Alpha virt. eigenvalues --    0.89180   0.90597   0.91307   0.92791   0.93021
 Alpha virt. eigenvalues --    0.93959   0.94162   0.95659   0.96886   0.98600
 Alpha virt. eigenvalues --    0.98700   0.99826   1.00165   1.00690   1.01540
 Alpha virt. eigenvalues --    1.02158   1.03985   1.04952   1.06639   1.07938
 Alpha virt. eigenvalues --    1.09441   1.09954   1.10238   1.10908   1.11874
 Alpha virt. eigenvalues --    1.12497   1.13730   1.14370   1.14598   1.15098
 Alpha virt. eigenvalues --    1.15551   1.15858   1.16124   1.16761   1.17335
 Alpha virt. eigenvalues --    1.18245   1.19051   1.19673   1.20112   1.20850
 Alpha virt. eigenvalues --    1.21016   1.21842   1.22693   1.23285   1.23502
 Alpha virt. eigenvalues --    1.24865   1.26268   1.26759   1.28302   1.30914
 Alpha virt. eigenvalues --    1.32850   1.33625   1.35120   1.36838   1.37001
 Alpha virt. eigenvalues --    1.39463   1.40380   1.43094   1.44947   1.46182
 Alpha virt. eigenvalues --    1.47294   1.48324   1.50405   1.52935   1.53943
 Alpha virt. eigenvalues --    1.56413   1.57520   1.59501   1.61114   1.61709
 Alpha virt. eigenvalues --    1.62977   1.64437   1.65544   1.66235   1.67902
 Alpha virt. eigenvalues --    1.70866   1.71230   1.74053   1.74526   1.75533
 Alpha virt. eigenvalues --    1.76874   1.79456   1.79863   1.81961   1.87124
 Alpha virt. eigenvalues --    1.91832   1.93892   1.95742   1.98056   1.98958
 Alpha virt. eigenvalues --    2.00361   2.01208   2.04130   2.04659   2.06016
 Alpha virt. eigenvalues --    2.07062   2.08863   2.10549   2.11008   2.11767
 Alpha virt. eigenvalues --    2.13540   2.13928   2.14562   2.15132   2.15945
 Alpha virt. eigenvalues --    2.16228   2.17276   2.18123   2.19496   2.19859
 Alpha virt. eigenvalues --    2.22120   2.22618   2.23972   2.24671   2.27346
 Alpha virt. eigenvalues --    2.28900   2.30193   2.31187   2.32266   2.33937
 Alpha virt. eigenvalues --    2.35372   2.36586   2.37214   2.37759   2.39345
 Alpha virt. eigenvalues --    2.42196   2.42720   2.44828   2.46274   2.47502
 Alpha virt. eigenvalues --    2.49726   2.52008   2.52562   2.55732   2.57441
 Alpha virt. eigenvalues --    2.58711   2.59893   2.60638   2.61585   2.62669
 Alpha virt. eigenvalues --    2.63467   2.64322   2.65413   2.66435   2.68278
 Alpha virt. eigenvalues --    2.68902   2.71776   2.73618   2.74837   2.77498
 Alpha virt. eigenvalues --    2.78444   2.79339   2.81727   2.82416   2.83150
 Alpha virt. eigenvalues --    2.88688   2.90690   2.92593   2.94347   2.96749
 Alpha virt. eigenvalues --    2.99143   3.00466   3.01601   3.03552   3.07507
 Alpha virt. eigenvalues --    3.08150   3.09111   3.11831   3.16369   3.19380
 Alpha virt. eigenvalues --    3.25742   3.28671   3.30841   3.33110   3.35484
 Alpha virt. eigenvalues --    3.38812   3.40055   3.41366   3.53262   3.56897
 Alpha virt. eigenvalues --    3.62073   3.62939   4.39707   4.44072   4.44969
 Alpha virt. eigenvalues --    4.47395   4.51038   4.52990   4.60370   4.61441
 Alpha virt. eigenvalues --    4.63388   4.65643   4.66247   4.72514   4.77422
 Alpha virt. eigenvalues --    4.83172   4.84235   4.88398   4.92304   5.03573
 Alpha virt. eigenvalues --    5.08224   5.17875
          Condensed to atoms (all electrons):
              1          2          3          4          5          6
     1  H    0.460439   0.385572  -0.019026  -0.018696  -0.030839   0.003555
     2  C    0.385572   5.245270   0.374268   0.375170   0.378323  -0.067222
     3  H   -0.019026   0.374268   0.513233  -0.023598  -0.034517   0.001279
     4  H   -0.018696   0.375170  -0.023598   0.508464  -0.035183   0.001158
     5  C   -0.030839   0.378323  -0.034517  -0.035183   4.181395   0.586693
     6  O    0.003555  -0.067222   0.001279   0.001158   0.586693   8.212861
     7  N    0.003854  -0.119718   0.003480   0.003706   0.249000  -0.107510
     8  H   -0.000016  -0.001177   0.000641   0.000467  -0.017347   0.002012
     9  C   -0.000076   0.004560  -0.000243  -0.000090  -0.029659   0.014518
    10  H    0.000002  -0.000010  -0.000004  -0.000002  -0.001715   0.002979
    11  C    0.000006  -0.000500   0.000008   0.000030  -0.003681  -0.015929
    12  H    0.000000  -0.000036   0.000000   0.000003  -0.000010  -0.000060
    13  H    0.000000   0.000007   0.000000  -0.000001   0.000279   0.000273
    14  H    0.000001   0.000303  -0.000005  -0.000025   0.000458   0.011206
    15  C    0.000000   0.000011  -0.000011  -0.000006   0.004110   0.000574
    16  O    0.000000  -0.000039  -0.000001  -0.000001   0.000242  -0.000003
    17  N    0.000000   0.000000   0.000000   0.000000  -0.000087  -0.000002
    18  H    0.000000   0.000000   0.000000   0.000000   0.000000   0.000001
    19  C    0.000000   0.000000   0.000000   0.000000   0.000001   0.000000
    20  H    0.000000   0.000000   0.000000   0.000000   0.000000   0.000000
    21  C    0.000000   0.000000   0.000000   0.000000   0.000000   0.000000
    22  H    0.000000   0.000000   0.000000   0.000000   0.000000   0.000000
    23  H    0.000000   0.000000   0.000000   0.000000   0.000000   0.000000
    24  H    0.000000   0.000000   0.000000   0.000000   0.000000   0.000000
    25  C    0.000000   0.000000   0.000000   0.000000   0.000000   0.000000
    26  O    0.000000   0.000000   0.000000   0.000000   0.000000   0.000000
    27  N    0.000000   0.000000   0.000000   0.000000   0.000000   0.000000
    28  H    0.000000   0.000000   0.000000   0.000000  -0.000003   0.000000
    29  C    0.000000   0.000000   0.000000   0.000000   0.000000   0.000000
    30  H    0.000000   0.000000   0.000000   0.000000   0.000000   0.000000
    31  C    0.000000   0.000000   0.000000   0.000000   0.000000   0.000000
    32  H    0.000000   0.000000   0.000000   0.000000   0.000000   0.000000
    33  H    0.000000   0.000000   0.000000   0.000000   0.000000   0.000000
    34  H    0.000000   0.000000   0.000000   0.000000   0.000000   0.000000
    35  C    0.000000   0.000000   0.000000   0.000000   0.000000   0.000000
    36  O    0.000000   0.000000   0.000000   0.000000  -0.000003   0.000000
    37  N    0.000000   0.000000   0.000000   0.000000   0.000000   0.000000
    38  H    0.000000   0.000000   0.000000   0.000000   0.000000   0.000000
    39  C    0.000000   0.000000   0.000000   0.000000   0.000000   0.000000
    40  H    0.000000   0.000000   0.000000   0.000000   0.000000   0.000000
    41  H    0.000000   0.000000   0.000000   0.000000   0.000000   0.000000
    42  H    0.000000   0.000000   0.000000   0.000000   0.000000   0.000000
              7          8          9         10         11         12
     1  H    0.003854  -0.000016  -0.000076   0.000002   0.000006   0.000000
     2  C   -0.119718  -0.001177   0.004560  -0.000010  -0.000500  -0.000036
     3  H    0.003480   0.000641  -0.000243  -0.000004   0.000008   0.000000
     4  H    0.003706   0.000467  -0.000090  -0.000002   0.000030   0.000003
     5  C    0.249000  -0.017347  -0.029659  -0.001715  -0.003681  -0.000010
     6  O   -0.107510   0.002012   0.014518   0.002979  -0.015929  -0.000060
     7  N    7.408984   0.311793   0.202633  -0.042016  -0.062626   0.001129
     8  H    0.311793   0.287128  -0.026209   0.002343   0.002986   0.000154
     9  C    0.202633  -0.026209   4.995832   0.407476   0.328440  -0.037748
    10  H   -0.042016   0.002343   0.407476   0.504810  -0.046999   0.003981
    11  C   -0.062626   0.002986   0.328440  -0.046999   5.268865   0.382376
    12  H    0.001129   0.000154  -0.037748   0.003981   0.382376   0.458392
    13  H    0.005010  -0.000081  -0.044397   0.000147   0.374529  -0.022977
    14  H   -0.005734  -0.000196  -0.025950  -0.004062   0.385620  -0.016836
    15  C   -0.038163  -0.006013   0.388308  -0.041050  -0.062941  -0.003284
    16  O   -0.006169   0.019564  -0.074020   0.001167  -0.000292   0.000449
    17  N    0.002874   0.000744  -0.117373   0.002499   0.001854   0.000028
    18  H    0.000037  -0.000017  -0.000490   0.000699   0.000685   0.000039
    19  C   -0.000044  -0.000022   0.003745  -0.000269   0.000217  -0.000052
    20  H   -0.000002  -0.000001  -0.000120   0.000007  -0.000008   0.000000
    21  C    0.000000   0.000000  -0.000026  -0.000006  -0.000022  -0.000001
    22  H    0.000000   0.000000  -0.000016   0.000001  -0.000002   0.000000
    23  H    0.000000   0.000000   0.000001   0.000000   0.000000   0.000000
    24  H    0.000000   0.000000  -0.000003   0.000000   0.000000   0.000000
    25  C   -0.000002   0.000000   0.000202   0.000005  -0.000142   0.000034
    26  O    0.000000   0.000000  -0.000001   0.000000   0.000000   0.000000
    27  N    0.000004   0.000015  -0.000624  -0.000021   0.000418  -0.000477
    28  H    0.000077   0.000093  -0.003792   0.000135   0.000689   0.002441
    29  C    0.000000  -0.000002  -0.000004   0.000000   0.000014  -0.000018
    30  H    0.000000  -0.000001   0.000002   0.000000  -0.000001   0.000000
    31  C    0.000000   0.000000   0.000000   0.000000   0.000000  -0.000004
    32  H    0.000000   0.000000   0.000000   0.000000   0.000000   0.000000
    33  H    0.000000   0.000000   0.000000   0.000000   0.000000   0.000000
    34  H    0.000000   0.000000   0.000000   0.000000   0.000000   0.000000
    35  C    0.000011   0.000008  -0.000019   0.000000   0.000052  -0.000141
    36  O   -0.000028   0.000046   0.000320  -0.000001  -0.003453   0.007624
    37  N    0.000000   0.000000   0.000000   0.000000  -0.000003   0.000023
    38  H    0.000000   0.000000   0.000000   0.000000   0.000000   0.000000
    39  C    0.000000   0.000000   0.000000   0.000000   0.000000  -0.000001
    40  H    0.000000   0.000000   0.000000   0.000000   0.000000   0.000003
    41  H    0.000000   0.000000   0.000000   0.000000   0.000000   0.000000
    42  H    0.000000   0.000000   0.000000   0.000000   0.000000   0.000000
             13         14         15         16         17         18
     1  H    0.000000   0.000001   0.000000   0.000000   0.000000   0.000000
     2  C    0.000007   0.000303   0.000011  -0.000039   0.000000   0.000000
     3  H    0.000000  -0.000005  -0.000011  -0.000001   0.000000   0.000000
     4  H   -0.000001  -0.000025  -0.000006  -0.000001   0.000000   0.000000
     5  C    0.000279   0.000458   0.004110   0.000242  -0.000087   0.000000
     6  O    0.000273   0.011206   0.000574  -0.000003  -0.000002   0.000001
     7  N    0.005010  -0.005734  -0.038163  -0.006169   0.002874   0.000037
     8  H   -0.000081  -0.000196  -0.006013   0.019564   0.000744  -0.000017
     9  C   -0.044397  -0.025950   0.388308  -0.074020  -0.117373  -0.000490
    10  H    0.000147  -0.004062  -0.041050   0.001167   0.002499   0.000699
    11  C    0.374529   0.385620  -0.062941  -0.000292   0.001854   0.000685
    12  H   -0.022977  -0.016836  -0.003284   0.000449   0.000028   0.000039
    13  H    0.580663  -0.019827  -0.007016   0.000042   0.000323   0.003259
    14  H   -0.019827   0.422814   0.004059  -0.000063   0.000029  -0.000089
    15  C   -0.007016   0.004059   4.267140   0.566088   0.248519  -0.020277
    16  O    0.000042  -0.000063   0.566088   8.245121  -0.105665   0.002276
    17  N    0.000323   0.000029   0.248519  -0.105665   7.508279   0.318775
    18  H    0.003259  -0.000089  -0.020277   0.002276   0.318775   0.303896
    19  C    0.000365  -0.000001  -0.029837   0.010504   0.127676  -0.019818
    20  H    0.000001   0.000000  -0.001865   0.002718  -0.041838   0.001567
    21  C   -0.000017   0.000000   0.003867   0.000282  -0.050757  -0.004250
    22  H    0.000031   0.000000  -0.000179  -0.000004  -0.000540   0.001540
    23  H    0.000000   0.000000  -0.000024   0.000002   0.003635   0.000012
    24  H   -0.000007   0.000000  -0.000234  -0.000001  -0.002163   0.001823
    25  C   -0.000073   0.000000  -0.005849   0.002162  -0.054502   0.002186
    26  O    0.000000   0.000000  -0.000018  -0.000089   0.002581  -0.000048
    27  N    0.000026   0.000004   0.010457  -0.028787  -0.010082  -0.000009
    28  H   -0.000196   0.000017  -0.000091  -0.002824   0.003052  -0.000207
    29  C    0.000001   0.000000   0.000247   0.000586   0.000293   0.000013
    30  H    0.000000   0.000000  -0.000105   0.000209  -0.000034   0.000000
    31  C    0.000000   0.000000   0.000022  -0.000001  -0.000033  -0.000001
    32  H    0.000000   0.000000  -0.000005   0.000000  -0.000004   0.000001
    33  H    0.000000   0.000000   0.000000   0.000000   0.000000   0.000000
    34  H    0.000000   0.000000   0.000000  -0.000001  -0.000011   0.000000
    35  C    0.000000  -0.000001   0.000083   0.000101  -0.000053   0.000000
    36  O    0.000016   0.000028  -0.000162  -0.000172   0.000010   0.000000
    37  N    0.000000   0.000000  -0.000001   0.000001   0.000000   0.000000
    38  H    0.000000   0.000000   0.000000   0.000000   0.000000   0.000000
    39  C    0.000000   0.000000   0.000000   0.000000   0.000000   0.000000
    40  H    0.000000   0.000000   0.000000   0.000000   0.000000   0.000000
    41  H    0.000000   0.000000   0.000000   0.000000   0.000000   0.000000
    42  H    0.000000   0.000000   0.000000   0.000000   0.000000   0.000000
             19         20         21         22         23         24
     1  H    0.000000   0.000000   0.000000   0.000000   0.000000   0.000000
     2  C    0.000000   0.000000   0.000000   0.000000   0.000000   0.000000
     3  H    0.000000   0.000000   0.000000   0.000000   0.000000   0.000000
     4  H    0.000000   0.000000   0.000000   0.000000   0.000000   0.000000
     5  C    0.000001   0.000000   0.000000   0.000000   0.000000   0.000000
     6  O    0.000000   0.000000   0.000000   0.000000   0.000000   0.000000
     7  N   -0.000044  -0.000002   0.000000   0.000000   0.000000   0.000000
     8  H   -0.000022  -0.000001   0.000000   0.000000   0.000000   0.000000
     9  C    0.003745  -0.000120  -0.000026  -0.000016   0.000001  -0.000003
    10  H   -0.000269   0.000007  -0.000006   0.000001   0.000000   0.000000
    11  C    0.000217  -0.000008  -0.000022  -0.000002   0.000000   0.000000
    12  H   -0.000052   0.000000  -0.000001   0.000000   0.000000   0.000000
    13  H    0.000365   0.000001  -0.000017   0.000031   0.000000  -0.000007
    14  H   -0.000001   0.000000   0.000000   0.000000   0.000000   0.000000
    15  C   -0.029837  -0.001865   0.003867  -0.000179  -0.000024  -0.000234
    16  O    0.010504   0.002718   0.000282  -0.000004   0.000002  -0.000001
    17  N    0.127676  -0.041838  -0.050757  -0.000540   0.003635  -0.002163
    18  H   -0.019818   0.001567  -0.004250   0.001540   0.000012   0.001823
    19  C    5.055260   0.409409   0.344581  -0.040424  -0.033122  -0.042131
    20  H    0.409409   0.462963  -0.031946   0.004073  -0.000710  -0.004073
    21  C    0.344581  -0.031946   5.143870   0.386936   0.391998   0.389579
    22  H   -0.040424   0.004073   0.386936   0.529099  -0.018106  -0.027830
    23  H   -0.033122  -0.000710   0.391998  -0.018106   0.445842  -0.020264
    24  H   -0.042131  -0.004073   0.389579  -0.027830  -0.020264   0.524011
    25  C    0.392462  -0.040069  -0.053048  -0.007269  -0.004536   0.006100
    26  O   -0.069438   0.002316  -0.000567   0.000282   0.006590   0.000073
    27  N   -0.103481   0.001279   0.000569   0.001117   0.000437  -0.000085
    28  H   -0.004134   0.000334  -0.000137   0.000101  -0.000020  -0.000006
    29  C    0.004537  -0.000102  -0.000175  -0.000071  -0.000012   0.000003
    30  H   -0.000047   0.000019  -0.000012   0.000002   0.000000   0.000000
    31  C   -0.000556  -0.000006   0.000060   0.000015   0.000009   0.000000
    32  H   -0.000021   0.000001  -0.000011   0.000030  -0.000001   0.000000
    33  H    0.000008   0.000000  -0.000001   0.000000   0.000000   0.000000
    34  H    0.000243  -0.000003   0.000001  -0.000002   0.000001   0.000000
    35  C    0.000083  -0.000002  -0.000001  -0.000001   0.000000   0.000000
    36  O   -0.000016   0.000000   0.000000   0.000000   0.000000   0.000000
    37  N    0.000000   0.000000   0.000000   0.000000   0.000000   0.000000
    38  H    0.000000   0.000000   0.000000   0.000000   0.000000   0.000000
    39  C    0.000000   0.000000   0.000000   0.000000   0.000000   0.000000
    40  H    0.000000   0.000000   0.000000   0.000000   0.000000   0.000000
    41  H    0.000000   0.000000   0.000000   0.000000   0.000000   0.000000
    42  H    0.000000   0.000000   0.000000   0.000000   0.000000   0.000000
             25         26         27         28         29         30
     1  H    0.000000   0.000000   0.000000   0.000000   0.000000   0.000000
     2  C    0.000000   0.000000   0.000000   0.000000   0.000000   0.000000
     3  H    0.000000   0.000000   0.000000   0.000000   0.000000   0.000000
     4  H    0.000000   0.000000   0.000000   0.000000   0.000000   0.000000
     5  C    0.000000   0.000000   0.000000  -0.000003   0.000000   0.000000
     6  O    0.000000   0.000000   0.000000   0.000000   0.000000   0.000000
     7  N   -0.000002   0.000000   0.000004   0.000077   0.000000   0.000000
     8  H    0.000000   0.000000   0.000015   0.000093  -0.000002  -0.000001
     9  C    0.000202  -0.000001  -0.000624  -0.003792  -0.000004   0.000002
    10  H    0.000005   0.000000  -0.000021   0.000135   0.000000   0.000000
    11  C   -0.000142   0.000000   0.000418   0.000689   0.000014  -0.000001
    12  H    0.000034   0.000000  -0.000477   0.002441  -0.000018   0.000000
    13  H   -0.000073   0.000000   0.000026  -0.000196   0.000001   0.000000
    14  H    0.000000   0.000000   0.000004   0.000017   0.000000   0.000000
    15  C   -0.005849  -0.000018   0.010457  -0.000091   0.000247  -0.000105
    16  O    0.002162  -0.000089  -0.028787  -0.002824   0.000586   0.000209
    17  N   -0.054502   0.002581  -0.010082   0.003052   0.000293  -0.000034
    18  H    0.002186  -0.000048  -0.000009  -0.000207   0.000013   0.000000
    19  C    0.392462  -0.069438  -0.103481  -0.004134   0.004537  -0.000047
    20  H   -0.040069   0.002316   0.001279   0.000334  -0.000102   0.000019
    21  C   -0.053048  -0.000567   0.000569  -0.000137  -0.000175  -0.000012
    22  H   -0.007269   0.000282   0.001117   0.000101  -0.000071   0.000002
    23  H   -0.004536   0.006590   0.000437  -0.000020  -0.000012   0.000000
    24  H    0.006100   0.000073  -0.000085  -0.000006   0.000003   0.000000
    25  C    4.130054   0.551730   0.313436  -0.013001  -0.033776  -0.001889
    26  O    0.551730   8.267184  -0.101297   0.001945   0.012400   0.003171
    27  N    0.313436  -0.101297   7.396097   0.290717   0.209230  -0.041035
    28  H   -0.013001   0.001945   0.290717   0.270874  -0.029008   0.003108
    29  C   -0.033776   0.012400   0.209230  -0.029008   5.014406   0.401652
    30  H   -0.001889   0.003171  -0.041035   0.003108   0.401652   0.496682
    31  C   -0.003864  -0.015089  -0.062677   0.002316   0.336251  -0.046383
    32  H   -0.000060  -0.000026   0.001829   0.000441  -0.042505   0.004520
    33  H    0.000306   0.000242   0.005042  -0.000055  -0.042616   0.000592
    34  H    0.000647   0.010374  -0.005758  -0.000245  -0.026470  -0.004076
    35  C    0.003293   0.000434  -0.036287  -0.005411   0.384290  -0.036183
    36  O    0.000284  -0.000003  -0.006466   0.022070  -0.076313   0.000958
    37  N   -0.000087  -0.000001   0.002720   0.000724  -0.115282   0.001913
    38  H    0.000000   0.000001   0.000030  -0.000019   0.001201   0.000476
    39  C    0.000001   0.000000  -0.000050  -0.000011   0.003628  -0.000216
    40  H    0.000000   0.000000  -0.000003  -0.000011   0.000576  -0.000017
    41  H    0.000000   0.000000   0.000000   0.000000  -0.000107   0.000011
    42  H    0.000000   0.000000   0.000001   0.000000  -0.000006  -0.000002
             31         32         33         34         35         36
     1  H    0.000000   0.000000   0.000000   0.000000   0.000000   0.000000
     2  C    0.000000   0.000000   0.000000   0.000000   0.000000   0.000000
     3  H    0.000000   0.000000   0.000000   0.000000   0.000000   0.000000
     4  H    0.000000   0.000000   0.000000   0.000000   0.000000   0.000000
     5  C    0.000000   0.000000   0.000000   0.000000   0.000000  -0.000003
     6  O    0.000000   0.000000   0.000000   0.000000   0.000000   0.000000
     7  N    0.000000   0.000000   0.000000   0.000000   0.000011  -0.000028
     8  H    0.000000   0.000000   0.000000   0.000000   0.000008   0.000046
     9  C    0.000000   0.000000   0.000000   0.000000  -0.000019   0.000320
    10  H    0.000000   0.000000   0.000000   0.000000   0.000000  -0.000001
    11  C    0.000000   0.000000   0.000000   0.000000   0.000052  -0.003453
    12  H   -0.000004   0.000000   0.000000   0.000000  -0.000141   0.007624
    13  H    0.000000   0.000000   0.000000   0.000000   0.000000   0.000016
    14  H    0.000000   0.000000   0.000000   0.000000  -0.000001   0.000028
    15  C    0.000022  -0.000005   0.000000   0.000000   0.000083  -0.000162
    16  O   -0.000001   0.000000   0.000000  -0.000001   0.000101  -0.000172
    17  N   -0.000033  -0.000004   0.000000  -0.000011  -0.000053   0.000010
    18  H   -0.000001   0.000001   0.000000   0.000000   0.000000   0.000000
    19  C   -0.000556  -0.000021   0.000008   0.000243   0.000083  -0.000016
    20  H   -0.000006   0.000001   0.000000  -0.000003  -0.000002   0.000000
    21  C    0.000060  -0.000011  -0.000001   0.000001  -0.000001   0.000000
    22  H    0.000015   0.000030   0.000000  -0.000002  -0.000001   0.000000
    23  H    0.000009  -0.000001   0.000000   0.000001   0.000000   0.000000
    24  H    0.000000   0.000000   0.000000   0.000000   0.000000   0.000000
    25  C   -0.003864  -0.000060   0.000306   0.000647   0.003293   0.000284
    26  O   -0.015089  -0.000026   0.000242   0.010374   0.000434  -0.000003
    27  N   -0.062677   0.001829   0.005042  -0.005758  -0.036287  -0.006466
    28  H    0.002316   0.000441  -0.000055  -0.000245  -0.005411   0.022070
    29  C    0.336251  -0.042505  -0.042616  -0.026470   0.384290  -0.076313
    30  H   -0.046383   0.004520   0.000592  -0.004076  -0.036183   0.000958
    31  C    5.208837   0.384498   0.377546   0.388333  -0.063597  -0.000002
    32  H    0.384498   0.529249  -0.024075  -0.020911  -0.002822   0.000633
    33  H    0.377546  -0.024075   0.570395  -0.020608  -0.006848   0.000026
    34  H    0.388333  -0.020911  -0.020608   0.429371   0.003917  -0.000064
    35  C   -0.063597  -0.002822  -0.006848   0.003917   4.145013   0.579648
    36  O   -0.000002   0.000633   0.000026  -0.000064   0.579648   8.226493
    37  N    0.002479   0.000201   0.000285   0.000090   0.288705  -0.096559
    38  H    0.000055  -0.000007   0.002617  -0.000080  -0.020787   0.002286
    39  C   -0.000075  -0.000044   0.000160   0.000003  -0.025399  -0.004794
    40  H   -0.000049  -0.000002  -0.000008   0.000000  -0.002029   0.010032
    41  H   -0.000004   0.000001   0.000003   0.000000   0.000793   0.000359
    42  H    0.000014   0.000002  -0.000002  -0.000001   0.000861   0.000378
             37         38         39         40         41         42
     1  H    0.000000   0.000000   0.000000   0.000000   0.000000   0.000000
     2  C    0.000000   0.000000   0.000000   0.000000   0.000000   0.000000
     3  H    0.000000   0.000000   0.000000   0.000000   0.000000   0.000000
     4  H    0.000000   0.000000   0.000000   0.000000   0.000000   0.000000
     5  C    0.000000   0.000000   0.000000   0.000000   0.000000   0.000000
     6  O    0.000000   0.000000   0.000000   0.000000   0.000000   0.000000
     7  N    0.000000   0.000000   0.000000   0.000000   0.000000   0.000000
     8  H    0.000000   0.000000   0.000000   0.000000   0.000000   0.000000
     9  C    0.000000   0.000000   0.000000   0.000000   0.000000   0.000000
    10  H    0.000000   0.000000   0.000000   0.000000   0.000000   0.000000
    11  C   -0.000003   0.000000   0.000000   0.000000   0.000000   0.000000
    12  H    0.000023   0.000000  -0.000001   0.000003   0.000000   0.000000
    13  H    0.000000   0.000000   0.000000   0.000000   0.000000   0.000000
    14  H    0.000000   0.000000   0.000000   0.000000   0.000000   0.000000
    15  C   -0.000001   0.000000   0.000000   0.000000   0.000000   0.000000
    16  O    0.000001   0.000000   0.000000   0.000000   0.000000   0.000000
    17  N    0.000000   0.000000   0.000000   0.000000   0.000000   0.000000
    18  H    0.000000   0.000000   0.000000   0.000000   0.000000   0.000000
    19  C    0.000000   0.000000   0.000000   0.000000   0.000000   0.000000
    20  H    0.000000   0.000000   0.000000   0.000000   0.000000   0.000000
    21  C    0.000000   0.000000   0.000000   0.000000   0.000000   0.000000
    22  H    0.000000   0.000000   0.000000   0.000000   0.000000   0.000000
    23  H    0.000000   0.000000   0.000000   0.000000   0.000000   0.000000
    24  H    0.000000   0.000000   0.000000   0.000000   0.000000   0.000000
    25  C   -0.000087   0.000000   0.000001   0.000000   0.000000   0.000000
    26  O   -0.000001   0.000001   0.000000   0.000000   0.000000   0.000000
    27  N    0.002720   0.000030  -0.000050  -0.000003   0.000000   0.000001
    28  H    0.000724  -0.000019  -0.000011  -0.000011   0.000000   0.000000
    29  C   -0.115282   0.001201   0.003628   0.000576  -0.000107  -0.000006
    30  H    0.001913   0.000476  -0.000216  -0.000017   0.000011  -0.000002
    31  C    0.002479   0.000055  -0.000075  -0.000049  -0.000004   0.000014
    32  H    0.000201  -0.000007  -0.000044  -0.000002   0.000001   0.000002
    33  H    0.000285   0.002617   0.000160  -0.000008   0.000003  -0.000002
    34  H    0.000090  -0.000080   0.000003   0.000000   0.000000  -0.000001
    35  C    0.288705  -0.020787  -0.025399  -0.002029   0.000793   0.000861
    36  O   -0.096559   0.002286  -0.004794   0.010032   0.000359   0.000378
    37  N    7.328815   0.322919   0.186134  -0.031814  -0.047047  -0.048091
[...]
    28  H    0.000090   0.000011   0.003771   0.002361   0.001579  -0.000101
    29  C    0.000003   0.000000  -0.000064  -0.000126   0.000034   0.000006
    30  H    0.000000   0.000000  -0.000019   0.000020  -0.000022   0.000000
    31  C    0.000000   0.000000   0.000004  -0.000001  -0.000001  -0.000001
    32  H    0.000001   0.000000  -0.000002   0.000000   0.000000   0.000000
    33  H    0.000000   0.000000   0.000000   0.000000   0.000000   0.000000
    34  H    0.000000   0.000000   0.000000   0.000000  -0.000005   0.000000
    35  C   -0.000003   0.000000   0.000068   0.000192  -0.000046  -0.000001
    36  O   -0.000013   0.000010  -0.000159  -0.000084   0.000018   0.000000
    37  N    0.000000   0.000000  -0.000002   0.000000   0.000000   0.000000
    38  H    0.000000   0.000000   0.000000   0.000000   0.000000   0.000000
    39  C    0.000000   0.000000   0.000000   0.000000   0.000000   0.000000
    40  H    0.000000   0.000000   0.000000   0.000000   0.000000   0.000000
    41  H    0.000000   0.000000   0.000000   0.000000   0.000000   0.000000
    42  H    0.000000   0.000000   0.000000   0.000000   0.000000   0.000000
             19         20         21         22         23         24
     1  H    0.000000   0.000000   0.000000   0.000000   0.000000   0.000000
     2  C    0.000000   0.000000   0.000000   0.000000   0.000000   0.000000
     3  H    0.000000   0.000000   0.000000   0.000000   0.000000   0.000000
     4  H    0.000000   0.000000   0.000000   0.000000   0.000000   0.000000
     5  C    0.000001   0.000000   0.000000   0.000000   0.000000   0.000000
     6  O    0.000000   0.000000   0.000000   0.000000   0.000000   0.000000
     7  N   -0.000080   0.000003   0.000001   0.000000   0.000000   0.000000
     8  H   -0.000023  -0.000001   0.000000   0.000000   0.000000   0.000000
     9  C    0.004006  -0.000081  -0.000056  -0.000014   0.000002  -0.000009
    10  H    0.000004  -0.000009  -0.000019   0.000001   0.000000   0.000000
    11  C   -0.000268  -0.000008  -0.000002  -0.000002   0.000000   0.000001
    12  H    0.000007   0.000000   0.000000   0.000000   0.000000   0.000000
    13  H    0.000001   0.000003  -0.000007   0.000009   0.000000  -0.000001
    14  H    0.000002   0.000000   0.000000   0.000000   0.000000   0.000000
    15  C   -0.024605  -0.002256   0.003209  -0.000198  -0.000018  -0.000145
    16  O    0.009169   0.002763   0.000239  -0.000004   0.000002  -0.000003
    17  N    0.133512  -0.042548  -0.056290  -0.001819   0.003757  -0.001534
    18  H   -0.021982   0.002559  -0.004422   0.002809   0.000037   0.000631
    19  C    5.030627   0.410443   0.346709  -0.037817  -0.033316  -0.040010
    20  H    0.410443   0.470950  -0.031418   0.003982  -0.000994  -0.004391
    21  C    0.346709  -0.031418   5.143825   0.385527   0.393469   0.391757
    22  H   -0.037817   0.003982   0.385527   0.536150  -0.019912  -0.029121
    23  H   -0.033316  -0.000994   0.393469  -0.019912   0.446707  -0.020387
    24  H   -0.040010  -0.004391   0.391757  -0.029121  -0.020387   0.516918
    25  C    0.390291  -0.047518  -0.047810  -0.006630  -0.003968   0.005519
    26  O   -0.073831   0.003021  -0.002369   0.000493   0.007095   0.000062
    27  N   -0.095526   0.001613   0.000723   0.000711   0.000372  -0.000074
    28  H   -0.001773   0.000129  -0.000026   0.000012  -0.000012  -0.000002
    29  C    0.004157  -0.000114  -0.000134  -0.000040  -0.000010   0.000003
    30  H    0.000188   0.000014  -0.000016   0.000000  -0.000001   0.000000
    31  C   -0.000311  -0.000003   0.000029   0.000006   0.000003   0.000000
    32  H   -0.000003   0.000000  -0.000002   0.000002   0.000000   0.000000
    33  H    0.000004   0.000000   0.000000   0.000000   0.000000   0.000000
    34  H    0.000075  -0.000001   0.000002   0.000003  -0.000001   0.000000
    35  C    0.000069  -0.000002   0.000000   0.000000   0.000000   0.000000
    36  O   -0.000020   0.000000   0.000000   0.000000   0.000000   0.000000
    37  N    0.000000   0.000000   0.000000   0.000000   0.000000   0.000000
    38  H    0.000000   0.000000   0.000000   0.000000   0.000000   0.000000
    39  C    0.000000   0.000000   0.000000   0.000000   0.000000   0.000000
    40  H    0.000000   0.000000   0.000000   0.000000   0.000000   0.000000
    41  H    0.000000   0.000000   0.000000   0.000000   0.000000   0.000000
    42  H    0.000000   0.000000   0.000000   0.000000   0.000000   0.000000
             25         26         27         28         29         30
     1  H    0.000000   0.000000   0.000000   0.000000   0.000000   0.000000
     2  C    0.000000   0.000000   0.000000   0.000000   0.000000   0.000000
     3  H    0.000000   0.000000   0.000000   0.000000   0.000000   0.000000
     4  H    0.000000   0.000000   0.000000   0.000000   0.000000   0.000000
     5  C    0.000000   0.000000   0.000000  -0.000001   0.000000   0.000000
     6  O    0.000000   0.000000   0.000000   0.000000   0.000000   0.000000
     7  N   -0.000002   0.000000   0.000005  -0.000003   0.000000   0.000000
     8  H   -0.000001   0.000000   0.000000   0.000016   0.000000   0.000000
     9  C    0.000062   0.000000  -0.000436  -0.001066  -0.000003   0.000000
    10  H   -0.000003   0.000000  -0.000004   0.000027   0.000000   0.000000
    11  C   -0.000002   0.000000   0.000236   0.000209   0.000011   0.000000
    12  H   -0.000003   0.000000  -0.000194   0.000957  -0.000011  -0.000001
    13  H   -0.000024   0.000000   0.000071   0.000090   0.000003   0.000000
    14  H    0.000000   0.000000   0.000002   0.000011   0.000000   0.000000
    15  C   -0.003673  -0.000035   0.006840   0.003771  -0.000064  -0.000019
    16  O    0.001205  -0.000009  -0.006166   0.002361  -0.000126   0.000020
    17  N   -0.047089   0.002811   0.001376   0.001579   0.000034  -0.000022
    18  H    0.000907  -0.000038   0.000018  -0.000101   0.000006   0.000000
    19  C    0.390291  -0.073831  -0.095526  -0.001773   0.004157   0.000188
    20  H   -0.047518   0.003021   0.001613   0.000129  -0.000114   0.000014
    21  C   -0.047810  -0.002369   0.000723  -0.000026  -0.000134  -0.000016
    22  H   -0.006630   0.000493   0.000711   0.000012  -0.000040   0.000000
    23  H   -0.003968   0.007095   0.000372  -0.000012  -0.000010  -0.000001
    24  H    0.005519   0.000062  -0.000074  -0.000002   0.000003   0.000000
    25  C    4.142207   0.559918   0.303470  -0.011680  -0.032102  -0.001338
    26  O    0.559918   8.229517  -0.102709   0.001829   0.008783   0.006543
    27  N    0.303470  -0.102709   7.390661   0.296082   0.202797  -0.044813
    28  H   -0.011680   0.001829   0.296082   0.266816  -0.029630   0.002818
    29  C   -0.032102   0.008783   0.202797  -0.029630   5.035976   0.411738
    30  H   -0.001338   0.006543  -0.044813   0.002818   0.411738   0.489641
    31  C   -0.002202  -0.004496  -0.062945   0.002473   0.336735  -0.041648
    32  H    0.000173  -0.000006   0.000383   0.000409  -0.038514   0.004025
    33  H    0.000048   0.000020   0.004579  -0.000043  -0.037721   0.000287
    34  H    0.002033   0.005099  -0.005364  -0.000191  -0.029474  -0.003636
    35  C    0.003449   0.000491  -0.038155  -0.007041   0.377783  -0.044031
    36  O    0.000362  -0.000005  -0.008949   0.023510  -0.075008   0.001798
    37  N   -0.000107  -0.000001   0.002488   0.001109  -0.113704   0.003855
    38  H   -0.000008  -0.000001   0.000003  -0.000033   0.000602   0.001563
    39  C    0.000002   0.000000  -0.000078  -0.000034   0.004391  -0.000082
    40  H    0.000000   0.000000  -0.000004  -0.000004   0.000135  -0.000002
    41  H    0.000000   0.000000   0.000008   0.000002  -0.000169  -0.000003
    42  H    0.000000   0.000000   0.000000   0.000000   0.000001  -0.000012
             31         32         33         34         35         36
     1  H    0.000000   0.000000   0.000000   0.000000   0.000000   0.000000
     2  C    0.000000   0.000000   0.000000   0.000000   0.000000   0.000000
     3  H    0.000000   0.000000   0.000000   0.000000   0.000000   0.000000
     4  H    0.000000   0.000000   0.000000   0.000000   0.000000   0.000000
     5  C    0.000000   0.000000   0.000000   0.000000   0.000000   0.000000
     6  O    0.000000   0.000000   0.000000   0.000000   0.000000   0.000000
     7  N    0.000000   0.000000   0.000000   0.000000   0.000000  -0.000003
     8  H    0.000000   0.000000   0.000000   0.000000   0.000001   0.000002
     9  C    0.000000   0.000000   0.000000   0.000000   0.000000   0.000037
    10  H    0.000000   0.000000   0.000000   0.000000   0.000000   0.000000
    11  C   -0.000001   0.000001   0.000000   0.000000   0.000016  -0.001083
    12  H    0.000001   0.000000   0.000000   0.000000  -0.000027   0.003997
    13  H    0.000000   0.000001   0.000000   0.000000  -0.000003  -0.000013
    14  H    0.000000   0.000000   0.000000   0.000000   0.000000   0.000010
    15  C    0.000004  -0.000002   0.000000   0.000000   0.000068  -0.000159
    16  O   -0.000001   0.000000   0.000000   0.000000   0.000192  -0.000084
    17  N   -0.000001   0.000000   0.000000  -0.000005  -0.000046   0.000018
    18  H   -0.000001   0.000000   0.000000   0.000000  -0.000001   0.000000
    19  C   -0.000311  -0.000003   0.000004   0.000075   0.000069  -0.000020
    20  H   -0.000003   0.000000   0.000000  -0.000001  -0.000002   0.000000
    21  C    0.000029  -0.000002   0.000000   0.000002   0.000000   0.000000
    22  H    0.000006   0.000002   0.000000   0.000003   0.000000   0.000000
    23  H    0.000003   0.000000   0.000000  -0.000001   0.000000   0.000000
    24  H    0.000000   0.000000   0.000000   0.000000   0.000000   0.000000
    25  C   -0.002202   0.000173   0.000048   0.002033   0.003449   0.000362
    26  O   -0.004496  -0.000006   0.000020   0.005099   0.000491  -0.000005
    27  N   -0.062945   0.000383   0.004579  -0.005364  -0.038155  -0.008949
    28  H    0.002473   0.000409  -0.000043  -0.000191  -0.007041   0.023510
    29  C    0.336735  -0.038514  -0.037721  -0.029474   0.377783  -0.075008
    30  H   -0.041648   0.004025   0.000287  -0.003636  -0.044031   0.001798
    31  C    5.148372   0.388266   0.381462   0.391563  -0.051864  -0.000914
    32  H    0.388266   0.516526  -0.024504  -0.023124  -0.004187   0.001758
    33  H    0.381462  -0.024504   0.538956  -0.022762  -0.003102   0.000022
    34  H    0.391563  -0.023124  -0.022762   0.470627   0.004191  -0.000071
    35  C   -0.051864  -0.004187  -0.003102   0.004191   4.167677   0.586240
    36  O   -0.000914   0.001758   0.000022  -0.000071   0.586240   8.190395
    37  N    0.001278   0.000438   0.002359  -0.000053   0.284105  -0.102712
    38  H    0.000291   0.000007   0.000414  -0.000034  -0.022078   0.002486
    39  C   -0.000269  -0.000008  -0.000016   0.000003  -0.028969   0.008308
    40  H    0.000007   0.000002  -0.000012   0.000000  -0.003004   0.003207
    41  H   -0.000006   0.000000   0.000003   0.000000  -0.003731   0.001217
    42  H    0.000005   0.000000  -0.000006   0.000000   0.004521   0.000355
             37         38         39         40         41         42
     1  H    0.000000   0.000000   0.000000   0.000000   0.000000   0.000000
     2  C    0.000000   0.000000   0.000000   0.000000   0.000000   0.000000
     3  H    0.000000   0.000000   0.000000   0.000000   0.000000   0.000000
     4  H    0.000000   0.000000   0.000000   0.000000   0.000000   0.000000
     5  C    0.000000   0.000000   0.000000   0.000000   0.000000   0.000000
     6  O    0.000000   0.000000   0.000000   0.000000   0.000000   0.000000
     7  N    0.000000   0.000000   0.000000   0.000000   0.000000   0.000000
     8  H    0.000000   0.000000   0.000000   0.000000   0.000000   0.000000
     9  C    0.000000   0.000000   0.000000   0.000000   0.000000   0.000000
    10  H    0.000000   0.000000   0.000000   0.000000   0.000000   0.000000
    11  C   -0.000001   0.000000   0.000000   0.000000   0.000000   0.000000
    12  H    0.000007   0.000000   0.000000   0.000000   0.000000   0.000000
    13  H    0.000000   0.000000   0.000000   0.000000   0.000000   0.000000
    14  H    0.000000   0.000000   0.000000   0.000000   0.000000   0.000000
    15  C   -0.000002   0.000000   0.000000   0.000000   0.000000   0.000000
    16  O    0.000000   0.000000   0.000000   0.000000   0.000000   0.000000
    17  N    0.000000   0.000000   0.000000   0.000000   0.000000   0.000000
    18  H    0.000000   0.000000   0.000000   0.000000   0.000000   0.000000
    19  C    0.000000   0.000000   0.000000   0.000000   0.000000   0.000000
    20  H    0.000000   0.000000   0.000000   0.000000   0.000000   0.000000
    21  C    0.000000   0.000000   0.000000   0.000000   0.000000   0.000000
    22  H    0.000000   0.000000   0.000000   0.000000   0.000000   0.000000
    23  H    0.000000   0.000000   0.000000   0.000000   0.000000   0.000000
    24  H    0.000000   0.000000   0.000000   0.000000   0.000000   0.000000
    25  C   -0.000107  -0.000008   0.000002   0.000000   0.000000   0.000000
    26  O   -0.000001  -0.000001   0.000000   0.000000   0.000000   0.000000
    27  N    0.002488   0.000003  -0.000078  -0.000004   0.000008   0.000000
    28  H    0.001109  -0.000033  -0.000034  -0.000004   0.000002   0.000000
    29  C   -0.113704   0.000602   0.004391   0.000135  -0.000169   0.000001
    30  H    0.003855   0.001563  -0.000082  -0.000002  -0.000003  -0.000012
    31  C    0.001278   0.000291  -0.000269   0.000007  -0.000006   0.000005
    32  H    0.000438   0.000007  -0.000008   0.000002   0.000000   0.000000
    33  H    0.002359   0.000414  -0.000016  -0.000012   0.000003  -0.000006
    34  H   -0.000053  -0.000034   0.000003   0.000000   0.000000   0.000000
    35  C    0.284105  -0.022078  -0.028969  -0.003004  -0.003731   0.004521
    36  O   -0.102712   0.002486   0.008308   0.003207   0.001217   0.000355
    37  N    7.318430   0.328451   0.195444  -0.040342  -0.045589  -0.037299
    38  H    0.328451   0.320715  -0.022255   0.002537   0.001291  -0.004532
    39  C    0.195444  -0.022255   4.909108   0.404096   0.406326   0.397526
    40  H   -0.040342   0.002537   0.404096   0.488120  -0.032644  -0.024820
    41  H   -0.045589   0.001291   0.406326  -0.032644   0.518820  -0.030992
    42  H   -0.037299  -0.004532   0.397526  -0.024820  -0.030992   0.522890
 Mulliken atomic charges:
              1
     1  H    0.202633
     2  C   -0.575985
     3  H    0.207914
     4  H    0.173821
     5  C    0.756279
     6  O   -0.622825
     7  N   -0.821377
     8  H    0.419636
     9  C   -0.029518
    10  H    0.219754
    11  C   -0.511195
    12  H    0.212177
    13  H    0.149859
    14  H    0.213645
    15  C    0.766434
    16  O   -0.625110
    17  N   -0.842016
    18  H    0.395385
    19  C    0.000299
    20  H    0.233862
    21  C   -0.522920
    22  H    0.165852
    23  H    0.227178
    24  H    0.180786
    25  C    0.794518
    26  O   -0.642183
    27  N   -0.847022
    28  H    0.447428
    29  C   -0.026327
    30  H    0.213131
    31  C   -0.485831
    32  H    0.178358
    33  H    0.160013
    34  H    0.211119
    35  C    0.777439
    36  O   -0.634702
    37  N   -0.798154
    38  H    0.390583
    39  C   -0.273495
    40  H    0.202729
    41  H    0.185466
    42  H    0.172364
 Sum of Mulliken atomic charges =   0.00000
 Mulliken charges with hydrogens summed into heavy atoms:
              1
     2  C    0.008382
     5  C    0.756279
     6  O   -0.622825
     7  N   -0.401742
     9  C    0.190236
    11  C    0.064486
    15  C    0.766434
    16  O   -0.625110
    17  N   -0.446631
    19  C    0.234161
    21  C    0.050896
    25  C    0.794518
    26  O   -0.642183
    27  N   -0.399594
    29  C    0.186804
    31  C    0.063660
    35  C    0.777439
    36  O   -0.634702
    37  N   -0.407570
    39  C    0.287064
 Sum of Mulliken charges with hydrogens summed into heavy atoms =   0.00000
 Electronic spatial extent (au):  <R**2>=           7481.1411
 Charge=              0.0000 electrons
 Dipole moment (field-independent basis, Debye):
    X=              3.1309    Y=             -1.6751    Z=             -0.2448  Tot=              3.5593
 Quadrupole moment (field-independent basis, Debye-Ang):
   XX=           -127.4119   YY=           -107.3581   ZZ=           -122.9284
   XY=            -14.2386   XZ=              9.9924   YZ=             12.1613
 Traceless Quadrupole moment (field-independent basis, Debye-Ang):
   XX=             -8.1791   YY=             11.8747   ZZ=             -3.6956
   XY=            -14.2386   XZ=              9.9924   YZ=             12.1613
 Octapole moment (field-independent basis, Debye-Ang**2):
  XXX=            152.5887  YYY=            -28.4198  ZZZ=             -0.2986  XYY=             -6.9861
  XXY=            -97.0114  XXZ=            -72.9525  XZZ=              2.9469  YZZ=             -3.4699
  YYZ=             -2.9547  XYZ=             12.9104
 Hexadecapole moment (field-independent basis, Debye-Ang**3):
 XXXX=          -6565.1978 YYYY=          -2747.8203 ZZZZ=           -599.3605 XXXY=           -162.5403
 XXXZ=            318.6850 YYYX=           -162.5295 YYYZ=             46.6476 ZZZX=             -9.9295
 ZZZY=              2.8047 XXYY=          -1401.1001 XXZZ=          -1157.7249 YYZZ=           -592.8802
 XXYZ=            131.7373 YYXZ=            -10.3696 ZZXY=            -18.1507
 N-N= 1.669395105537D+03 E-N=-5.646821028361D+03  KE= 9.830992110599D+02
 1\1\GINC-NODE003\FOpt\RHF\6-31G(d)\C12H22N4O4\MANAGER\27-Dec-2016\0\\#
  HF/6-31G* Opt=(ModRedundant, maxcycles=1000, calcfc) geom=nocrowd\\Ph
 i Psi fixed scan\\0,1\H,7.7875094658,1.1180206805,-3.1617058768\C,7.00
 09647633,1.8118672225,-3.4390129918\H,6.2080412098,1.2458555595,-3.908
 8106978\H,7.4037580085,2.5291148974,-4.1438446802\C,6.4589501176,2.454
 0940668,-2.1806550351\O,5.710646795,1.8675886703,-1.4424854522\N,6.887
 1293369,3.7083989567,-1.931929665\H,7.4864149237,4.1858681484,-2.56686
 60133\C,6.4679670417,4.4442757758,-0.7657169422\H,5.4200609243,4.23458
 52202,-0.5909477744\C,7.2715012342,4.0560692753,0.4847193416\H,8.32331
 04257,4.2823161139,0.3517394222\H,6.9147112787,4.5816867248,1.36565355
 67\H,7.156819446,2.9944425442,0.6581422867\C,6.6415795671,5.928308552,
 -1.074800656\O,7.3677195046,6.314306509,-1.9524937172\N,5.9314994995,6
 .7711559097,-0.2921568975\H,5.4022615502,6.3746786943,0.45152597\C,6.0
 639691933,8.2196049508,-0.3052235031\H,5.8778389705,8.5605888372,-1.31
 61185132\C,5.0017596404,8.8171240875,0.6172871103\H,5.1540194288,8.496
 4819966,1.6445791208\H,5.0550997257,9.8947224366,0.587244534\H,4.01330
 52702,8.5030036694,0.3004699334\C,7.4347622347,8.823459823,0.034160315
 7\O,7.5339614882,10.0254340027,0.0180422547\N,8.4624544023,8.017974473
 ,0.3301118087\H,8.3978363073,7.0331389081,0.2267760178\C,9.7916051888,
 8.5383260194,0.55131746\H,9.9667969569,9.3446815964,-0.1503578913\C,9.
 9709097647,9.0710897845,1.9787202632\H,9.8163322703,8.2748363216,2.698
 4888393\H,10.9661407143,9.4786589595,2.1229511558\H,9.2486134539,9.855
 747333,2.1595243907\C,10.7734972246,7.4002539557,0.2876914715\O,10.442
 4527837,6.246459517,0.3878530646\N,12.0299807603,7.7744087407,-0.00919
 64202\H,12.2148865528,8.7332041278,-0.192422108\C,13.0694128882,6.8024
 513673,-0.2799979137\H,13.0894502887,6.0569827607,0.5016919085\H,12.91
 07502175,6.302361085,-1.2284645609\H,14.0224191813,7.313271725,-0.3046
 829164\\Version=EM64L-G09RevA.02\State=1-A\HF=-984.5611208\RMSD=6.972e
 -09\RMSF=1.514e-03\Dipole=1.2053229,0.6689933,0.2460966\Quadrupole=14.
 6233172,-17.8728255,3.2495083,-1.1478818,-3.4990629,4.9760865\PG=C01 [
 X(C12H22N4O4)]\\@


 You never know when you're making a memory.
                        -- Rickie Lee Jones
 Job cpu time:  0 days  5 hours 29 minutes  5.8 seconds.
 File lengths (MBytes):  RWF=    553 Int=      0 D2E=      0 Chk=     11 Scr=      1
 Normal termination of Gaussian 09 at Tue Dec 27 11:31:11 2016.
