 Entering Gaussian System, Link 0=g09
 Initial command:
 /home/steboss/Software/g09/l1.exe /tmp/Gau-25037.inp -scrdir=/tmp/
 Entering Link 1 = /home/steboss/Software/g09/l1.exe PID=     25039.
  
 Copyright (c) 1988,1990,1992,1993,1995,1998,2003,2009, Gaussian, Inc.
                  All Rights Reserved.
  
 This is part of the Gaussian(R) 09 program.  It is based on
 the Gaussian(R) 03 system (copyright 2003, Gaussian, Inc.),
 the Gaussian(R) 98 system (copyright 1998, Gaussian, Inc.),
 the Gaussian(R) 94 system (copyright 1995, Gaussian, Inc.),
 the Gaussian 92(TM) system (copyright 1992, Gaussian, Inc.),
 the Gaussian 90(TM) system (copyright 1990, Gaussian, Inc.),
 the Gaussian 88(TM) system (copyright 1988, Gaussian, Inc.),
 the Gaussian 86(TM) system (copyright 1986, Carnegie Mellon
 University), and the Gaussian 82(TM) system (copyright 1983,
 Carnegie Mellon University). Gaussian is a federally registered
 trademark of Gaussian, Inc.
  
 This software contains proprietary and confidential information,
 including trade secrets, belonging to Gaussian, Inc.
  
 This software is provided under written license and may be
 used, copied, transmitted, or stored only in accord with that
 written license.
  
 The following legend is applicable only to US Government
 contracts under FAR:
  
                    RESTRICTED RIGHTS LEGEND
  
 Use, reproduction and disclosure by the US Government is
 subject to restrictions as set forth in subparagraphs (a)
 and (c) of the Commercial Computer Software - Restricted
 Rights clause in FAR 52.227-19.
  
 Gaussian, Inc.
 340 Quinnipiac St., Bldg. 40, Wallingford CT 06492
  
  
 ---------------------------------------------------------------
 Warning -- This program may not be used in any manner that
 competes with the business of Gaussian, Inc. or will provide
 assistance to any competitor of Gaussian, Inc.  The licensee
 of this program is prohibited from giving any competitor of
 Gaussian, Inc. access to this program.  By using this program,
 the user acknowledges that Gaussian, Inc. is engaged in the
 business of creating and licensing software in the field of
 computational chemistry and represents and warrants to the
 licensee that it is not a competitor of Gaussian, Inc. and that
 it will not use this program in any manner prohibited above.
 ---------------------------------------------------------------
  

 Cite this work as:
 Gaussian 09, Revision A.02,
 M. J. Frisch, G. W. Trucks, H. B. Schlegel, G. E. Scuseria, 
 M. A. Robb, J. R. Cheeseman, G. Scalmani, V. Barone, B. Mennucci, 
 G. A. Petersson, H. Nakatsuji, M. Caricato, X. Li, H. P. Hratchian, 
 A. F. Izmaylov, J. Bloino, G. Zheng, J. L. Sonnenberg, M. Hada, 
 M. Ehara, K. Toyota, R. Fukuda, J. Hasegawa, M. Ishida, T. Nakajima, 
 Y. Honda, O. Kitao, H. Nakai, T. Vreven, J. A. Montgomery, Jr., 
 J. E. Peralta, F. Ogliaro, M. Bearpark, J. J. Heyd, E. Brothers, 
 K. N. Kudin, V. N. Staroverov, R. Kobayashi, J. Normand, 
 K. Raghavachari, A. Rendell, J. C. Burant, S. S. Iyengar, J. Tomasi, 
 M. Cossi, N. Rega, J. M. Millam, M. Klene, J. E. Knox, J. B. Cross, 
 V. Bakken, C. Adamo, J. Jaramillo, R. Gomperts, R. E. Stratmann, 
 O. Yazyev, A. J. Austin, R. Cammi, C. Pomelli, J. W. Ochterski, 
 R. L. Martin, K. Morokuma, V. G. Zakrzewski, G. A. Voth, 
 P. Salvador, J. J. Dannenberg, S. Dapprich, A. D. Daniels, 
 O. Farkas, J. B. Foresman, J. V. Ortiz, J. Cioslowski, 
 and D. J. Fox, Gaussian, Inc., Wallingford CT, 2009.
 
 ******************************************
 Gaussian 09:  EM64L-G09RevA.02 11-Jun-2009
                27-Dec-2016 
 ******************************************
 %chk=structure_30.chk
 -------------------------------------------------------------------
 # HF/6-31G* Opt=(ModRedundant, maxcycles=1000, calcfc) geom=nocrowd
 -------------------------------------------------------------------
 1/6=1000,10=4,18=120,19=15,38=1/1,3;
 2/9=110,12=1,17=6,18=5,40=1/2;
 3/5=1,6=6,7=1,11=9,16=1,25=1,30=1,71=2/1,2,3;
 4//1;
 5/5=2,38=5/2;
 8/6=4,10=90,11=11/1;
 11/6=1,8=1,9=11,15=111,16=1/1,2,10;
 10/6=1,7=6,13=1/2;
 6/7=2,8=2,9=2,10=2,28=1/1;
 7/10=1,18=20,25=1/1,2,3,16;
 1/6=1000,10=4,18=20,19=15/3(2);
 2/9=110,12=1/2;
 99//99;
 2/9=110,12=1/2;
 3/5=1,6=6,7=1,11=9,16=1,25=1,30=1,71=1/1,2,3;
 4/5=5,16=3/1;
 5/5=2,38=5/2;
 7//1,2,3,16;
 1/6=1000,18=20,19=15/3(-5);
 2/9=110,12=1/2;
 6/7=2,8=2,9=2,10=2,19=2,28=1/1;
 99/9=1/99;
 ------------------
 Phi Psi fixed scan
 ------------------
 Symbolic Z-matrix:
 Charge =  0 Multiplicity = 1
 H                     7.7691    1.       -3.3308 
 C                     7.7691    2.09     -3.3308 
 H                     7.2553    2.4539   -4.2206 
 H                     8.7965    2.4539   -3.3308 
 C                     7.0554    2.6408   -2.0946 
 O                     6.5738    1.8774   -1.2605 
 N                     6.9914    3.9697   -1.9838 
 H                     7.4025    4.5562   -2.6959 
 C                     6.3425    4.6139   -0.8598 
 H                     5.2947    4.3155   -0.8246 
 C                     7.0055    4.2208    0.4561 
 H                     8.0531    4.5213    0.4396 
 H                     6.4981    4.7189    1.2822 
 H                     6.9399    3.1409    0.5882 
 C                     6.4127    6.1294   -0.9815 
 O                     6.9688    6.6527   -1.9446 
 N                     5.846     6.8349    0. 
 H                     5.4006    6.3592    0.7716 
 C                     5.8461    8.2839    0. 
 H                     5.3323    8.6477   -0.8898 
 C                     5.1347    8.8329    1.2322 
 H                     5.6431    8.4846    2.1312 
 H                     5.1499    9.9224    1.2058 
 H                     4.1019    8.4846    1.2414 
 C                     7.266     8.8318    0. 
 O                     7.5178    9.9119    0.5295 
 N                     8.1958    8.0825   -0.5969 
 H                     7.94      7.2011   -1.0185 
 C                     9.5836    8.4938   -0.6638 
 H                     9.6567    9.4425   -1.1954 
 C                     10.1717   8.6708    0.7321 
 H                     10.114    7.7266    1.2737 
 H                     11.2139   8.9796    0.6514 
 H                     9.6082    9.4329    1.2704 
 C                     10.4268   7.4597   -1.396 
 O                     9.9117    6.4362   -1.8403 
 N                     11.7283   7.7297   -1.5211 
 H                     12.1056   8.585    -1.1388 
 C                     12.6364   6.8252   -2.197 
 H                     12.0854   5.9542   -2.5517 
 H                     13.0938   7.3352   -3.0449 
 H                     13.4141   6.505    -1.5037 
 
 The following ModRedundant input section has been read:
 D   15   17   19   25 F                                                       
 D   17   19   25   27 F                                                       

 GradGradGradGradGradGradGradGradGradGradGradGradGradGradGradGradGradGrad
 Berny optimization.
 Initialization pass.
                           ----------------------------
                           !    Initial Parameters    !
                           ! (Angstroms and Degrees)  !
 --------------------------                            --------------------------
 ! Name  Definition              Value          Derivative Info.                !
 --------------------------------------------------------------------------------
 ! R1    R(1,2)                  1.09           calculate D2E/DX2 analytically  !
 ! R2    R(2,3)                  1.09           calculate D2E/DX2 analytically  !
 ! R3    R(2,4)                  1.0899         calculate D2E/DX2 analytically  !
 ! R4    R(2,5)                  1.53           calculate D2E/DX2 analytically  !
 ! R5    R(5,6)                  1.229          calculate D2E/DX2 analytically  !
 ! R6    R(5,7)                  1.335          calculate D2E/DX2 analytically  !
 ! R7    R(7,8)                  1.01           calculate D2E/DX2 analytically  !
 ! R8    R(7,9)                  1.4489         calculate D2E/DX2 analytically  !
 ! R9    R(9,10)                 1.09           calculate D2E/DX2 analytically  !
 ! R10   R(9,11)                 1.525          calculate D2E/DX2 analytically  !
 ! R11   R(9,15)                 1.522          calculate D2E/DX2 analytically  !
 ! R12   R(11,12)                1.09           calculate D2E/DX2 analytically  !
 ! R13   R(11,13)                1.09           calculate D2E/DX2 analytically  !
 ! R14   R(11,14)                1.0899         calculate D2E/DX2 analytically  !
 ! R15   R(15,16)                1.2291         calculate D2E/DX2 analytically  !
 ! R16   R(15,17)                1.335          calculate D2E/DX2 analytically  !
 ! R17   R(16,28)                1.4497         calculate D2E/DX2 analytically  !
 ! R18   R(17,18)                1.01           calculate D2E/DX2 analytically  !
 ! R19   R(17,19)                1.449          calculate D2E/DX2 analytically  !
 ! R20   R(19,20)                1.09           calculate D2E/DX2 analytically  !
 ! R21   R(19,21)                1.5251         calculate D2E/DX2 analytically  !
 ! R22   R(19,25)                1.5219         calculate D2E/DX2 analytically  !
 ! R23   R(21,22)                1.0899         calculate D2E/DX2 analytically  !
 ! R24   R(21,23)                1.0899         calculate D2E/DX2 analytically  !
 ! R25   R(21,24)                1.09           calculate D2E/DX2 analytically  !
 ! R26   R(25,26)                1.229          calculate D2E/DX2 analytically  !
 ! R27   R(25,27)                1.335          calculate D2E/DX2 analytically  !
 ! R28   R(27,28)                1.01           calculate D2E/DX2 analytically  !
 ! R29   R(27,29)                1.449          calculate D2E/DX2 analytically  !
 ! R30   R(29,30)                1.0899         calculate D2E/DX2 analytically  !
 ! R31   R(29,31)                1.525          calculate D2E/DX2 analytically  !
 ! R32   R(29,35)                1.522          calculate D2E/DX2 analytically  !
 ! R33   R(31,32)                1.09           calculate D2E/DX2 analytically  !
 ! R34   R(31,33)                1.09           calculate D2E/DX2 analytically  !
 ! R35   R(31,34)                1.09           calculate D2E/DX2 analytically  !
 ! R36   R(35,36)                1.2289         calculate D2E/DX2 analytically  !
 ! R37   R(35,37)                1.3351         calculate D2E/DX2 analytically  !
 ! R38   R(37,38)                1.01           calculate D2E/DX2 analytically  !
 ! R39   R(37,39)                1.449          calculate D2E/DX2 analytically  !
 ! R40   R(39,40)                1.09           calculate D2E/DX2 analytically  !
 ! R41   R(39,41)                1.0901         calculate D2E/DX2 analytically  !
 ! R42   R(39,42)                1.09           calculate D2E/DX2 analytically  !
 ! A1    A(1,2,3)              109.5023         calculate D2E/DX2 analytically  !
 ! A2    A(1,2,4)              109.5039         calculate D2E/DX2 analytically  !
 ! A3    A(1,2,5)              111.1            calculate D2E/DX2 analytically  !
 ! A4    A(3,2,4)              109.4422         calculate D2E/DX2 analytically  !
 ! A5    A(3,2,5)              108.6323         calculate D2E/DX2 analytically  !
 ! A6    A(4,2,5)              108.6332         calculate D2E/DX2 analytically  !
 ! A7    A(2,5,6)              120.4994         calculate D2E/DX2 analytically  !
 ! A8    A(2,5,7)              116.5999         calculate D2E/DX2 analytically  !
 ! A9    A(6,5,7)              122.9007         calculate D2E/DX2 analytically  !
 ! A10   A(5,7,8)              120.0            calculate D2E/DX2 analytically  !
 ! A11   A(5,7,9)              121.8976         calculate D2E/DX2 analytically  !
 ! A12   A(8,7,9)              118.1024         calculate D2E/DX2 analytically  !
 ! A13   A(7,9,10)             109.5016         calculate D2E/DX2 analytically  !
 ! A14   A(7,9,11)             111.1039         calculate D2E/DX2 analytically  !
 ! A15   A(7,9,15)             111.1012         calculate D2E/DX2 analytically  !
 ! A16   A(10,9,11)            108.6312         calculate D2E/DX2 analytically  !
 ! A17   A(10,9,15)            108.6329         calculate D2E/DX2 analytically  !
 ! A18   A(11,9,15)            107.7949         calculate D2E/DX2 analytically  !
 ! A19   A(9,11,12)            109.4947         calculate D2E/DX2 analytically  !
 ! A20   A(9,11,13)            109.5            calculate D2E/DX2 analytically  !
 ! A21   A(9,11,14)            109.5002         calculate D2E/DX2 analytically  !
 ! A22   A(12,11,13)           109.4455         calculate D2E/DX2 analytically  !
 ! A23   A(12,11,14)           109.4414         calculate D2E/DX2 analytically  !
 ! A24   A(13,11,14)           109.4454         calculate D2E/DX2 analytically  !
 ! A25   A(9,15,16)            120.4955         calculate D2E/DX2 analytically  !
 ! A26   A(9,15,17)            116.6053         calculate D2E/DX2 analytically  !
 ! A27   A(16,15,17)           122.8992         calculate D2E/DX2 analytically  !
 ! A28   A(15,17,18)           119.9987         calculate D2E/DX2 analytically  !
 ! A29   A(15,17,19)           121.8998         calculate D2E/DX2 analytically  !
 ! A30   A(18,17,19)           118.1015         calculate D2E/DX2 analytically  !
 ! A31   A(17,19,20)           109.4954         calculate D2E/DX2 analytically  !
 ! A32   A(17,19,21)           111.0974         calculate D2E/DX2 analytically  !
 ! A33   A(17,19,25)           111.1042         calculate D2E/DX2 analytically  !
 ! A34   A(20,19,21)           108.6349         calculate D2E/DX2 analytically  !
 ! A35   A(20,19,25)           108.6399         calculate D2E/DX2 analytically  !
 ! A36   A(21,19,25)           107.7944         calculate D2E/DX2 analytically  !
 ! A37   A(19,21,22)           109.4996         calculate D2E/DX2 analytically  !
 ! A38   A(19,21,23)           109.4977         calculate D2E/DX2 analytically  !
 ! A39   A(19,21,24)           109.4988         calculate D2E/DX2 analytically  !
 ! A40   A(22,21,23)           109.4452         calculate D2E/DX2 analytically  !
 ! A41   A(22,21,24)           109.4447         calculate D2E/DX2 analytically  !
 ! A42   A(23,21,24)           109.4412         calculate D2E/DX2 analytically  !
 ! A43   A(19,25,26)           120.5            calculate D2E/DX2 analytically  !
 ! A44   A(19,25,27)           116.5974         calculate D2E/DX2 analytically  !
 ! A45   A(26,25,27)           122.9027         calculate D2E/DX2 analytically  !
 ! A46   A(25,27,28)           120.0038         calculate D2E/DX2 analytically  !
 ! A47   A(25,27,29)           121.8959         calculate D2E/DX2 analytically  !
 ! A48   A(28,27,29)           118.1003         calculate D2E/DX2 analytically  !
 ! A49   A(27,29,30)           109.5007         calculate D2E/DX2 analytically  !
 ! A50   A(27,29,31)           111.1017         calculate D2E/DX2 analytically  !
 ! A51   A(27,29,35)           111.0978         calculate D2E/DX2 analytically  !
 ! A52   A(30,29,31)           108.6355         calculate D2E/DX2 analytically  !
 ! A53   A(30,29,35)           108.6386         calculate D2E/DX2 analytically  !
 ! A54   A(31,29,35)           107.7917         calculate D2E/DX2 analytically  !
 ! A55   A(29,31,32)           109.5023         calculate D2E/DX2 analytically  !
 ! A56   A(29,31,33)           109.502          calculate D2E/DX2 analytically  !
 ! A57   A(29,31,34)           109.501          calculate D2E/DX2 analytically  !
 ! A58   A(32,31,33)           109.4392         calculate D2E/DX2 analytically  !
 ! A59   A(32,31,34)           109.4443         calculate D2E/DX2 analytically  !
 ! A60   A(33,31,34)           109.4385         calculate D2E/DX2 analytically  !
 ! A61   A(29,35,36)           120.5025         calculate D2E/DX2 analytically  !
 ! A62   A(29,35,37)           116.5992         calculate D2E/DX2 analytically  !
 ! A63   A(36,35,37)           122.8984         calculate D2E/DX2 analytically  !
 ! A64   A(35,37,38)           119.9981         calculate D2E/DX2 analytically  !
 ! A65   A(35,37,39)           121.8981         calculate D2E/DX2 analytically  !
 ! A66   A(38,37,39)           118.1038         calculate D2E/DX2 analytically  !
 ! A67   A(37,39,40)           109.4996         calculate D2E/DX2 analytically  !
 ! A68   A(37,39,41)           109.4967         calculate D2E/DX2 analytically  !
 ! A69   A(37,39,42)           109.5019         calculate D2E/DX2 analytically  !
 ! A70   A(40,39,41)           109.4424         calculate D2E/DX2 analytically  !
 ! A71   A(40,39,42)           109.4467         calculate D2E/DX2 analytically  !
 ! A72   A(41,39,42)           109.4399         calculate D2E/DX2 analytically  !
 ! D1    D(1,2,5,6)             -0.0022         calculate D2E/DX2 analytically  !
 ! D2    D(1,2,5,7)           -179.9987         calculate D2E/DX2 analytically  !
 ! D3    D(3,2,5,6)            120.5106         calculate D2E/DX2 analytically  !
 ! D4    D(3,2,5,7)            -59.486          calculate D2E/DX2 analytically  !
 ! D5    D(4,2,5,6)           -120.5174         calculate D2E/DX2 analytically  !
 ! D6    D(4,2,5,7)             59.4861         calculate D2E/DX2 analytically  !
 ! D7    D(2,5,7,8)             -0.0002         calculate D2E/DX2 analytically  !
 ! D8    D(2,5,7,9)           -179.9989         calculate D2E/DX2 analytically  !
 ! D9    D(6,5,7,8)           -179.9966         calculate D2E/DX2 analytically  !
 ! D10   D(6,5,7,9)              0.0046         calculate D2E/DX2 analytically  !
 ! D11   D(5,7,9,10)           -60.0012         calculate D2E/DX2 analytically  !
 ! D12   D(5,7,9,11)            59.9966         calculate D2E/DX2 analytically  !
 ! D13   D(5,7,9,15)          -179.9994         calculate D2E/DX2 analytically  !
 ! D14   D(8,7,9,10)           120.0            calculate D2E/DX2 analytically  !
 ! D15   D(8,7,9,11)          -120.0021         calculate D2E/DX2 analytically  !
 ! D16   D(8,7,9,15)             0.0018         calculate D2E/DX2 analytically  !
 ! D17   D(7,9,11,12)           59.997          calculate D2E/DX2 analytically  !
 ! D18   D(7,9,11,13)          179.9976         calculate D2E/DX2 analytically  !
 ! D19   D(7,9,11,14)          -59.9986         calculate D2E/DX2 analytically  !
 ! D20   D(10,9,11,12)        -179.4894         calculate D2E/DX2 analytically  !
 ! D21   D(10,9,11,13)         -59.4889         calculate D2E/DX2 analytically  !
 ! D22   D(10,9,11,14)          60.515          calculate D2E/DX2 analytically  !
 ! D23   D(15,9,11,12)         -61.9521         calculate D2E/DX2 analytically  !
 ! D24   D(15,9,11,13)          58.0485         calculate D2E/DX2 analytically  !
 ! D25   D(15,9,11,14)         178.0523         calculate D2E/DX2 analytically  !
 ! D26   D(7,9,15,16)           -0.0061         calculate D2E/DX2 analytically  !
 ! D27   D(7,9,15,17)          179.9974         calculate D2E/DX2 analytically  !
 ! D28   D(10,9,15,16)        -120.519          calculate D2E/DX2 analytically  !
 ! D29   D(10,9,15,17)          59.4845         calculate D2E/DX2 analytically  !
 ! D30   D(11,9,15,16)         121.9447         calculate D2E/DX2 analytically  !
 ! D31   D(11,9,15,17)         -58.0518         calculate D2E/DX2 analytically  !
 ! D32   D(9,15,17,18)           0.0036         calculate D2E/DX2 analytically  !
 ! D33   D(9,15,17,19)         179.9935         calculate D2E/DX2 analytically  !
 ! D34   D(16,15,17,18)       -179.9928         calculate D2E/DX2 analytically  !
 ! D35   D(16,15,17,19)         -0.0029         calculate D2E/DX2 analytically  !
 ! D36   D(15,17,19,20)         60.0082         calculate D2E/DX2 analytically  !
 ! D37   D(15,17,19,21)       -179.9975         calculate D2E/DX2 analytically  !
 ! D38   D(15,17,19,25)        -59.9965         frozen, calculate D2E/DX2 analyt!
 ! D39   D(18,17,19,20)       -120.0017         calculate D2E/DX2 analytically  !
 ! D40   D(18,17,19,21)         -0.0074         calculate D2E/DX2 analytically  !
 ! D41   D(18,17,19,25)        119.9935         calculate D2E/DX2 analytically  !
 ! D42   D(17,19,21,22)         60.0039         calculate D2E/DX2 analytically  !
 ! D43   D(17,19,21,23)       -179.9943         calculate D2E/DX2 analytically  !
 ! D44   D(17,19,21,24)        -59.998          calculate D2E/DX2 analytically  !
 ! D45   D(20,19,21,22)       -179.4919         calculate D2E/DX2 analytically  !
 ! D46   D(20,19,21,23)        -59.4901         calculate D2E/DX2 analytically  !
 ! D47   D(20,19,21,24)         60.5062         calculate D2E/DX2 analytically  !
 ! D48   D(25,19,21,22)        -61.9445         calculate D2E/DX2 analytically  !
 ! D49   D(25,19,21,23)         58.0573         calculate D2E/DX2 analytically  !
 ! D50   D(25,19,21,24)        178.0536         calculate D2E/DX2 analytically  !
 ! D51   D(17,19,25,26)       -149.9976         calculate D2E/DX2 analytically  !
 ! D52   D(17,19,25,27)         30.0017         frozen, calculate D2E/DX2 analyt!
 ! D53   D(20,19,25,26)         89.4907         calculate D2E/DX2 analytically  !
 ! D54   D(20,19,25,27)        -90.5099         calculate D2E/DX2 analytically  !
 ! D55   D(21,19,25,26)        -28.0535         calculate D2E/DX2 analytically  !
 ! D56   D(21,19,25,27)        151.9459         calculate D2E/DX2 analytically  !
 ! D57   D(19,25,27,28)         -0.0011         calculate D2E/DX2 analytically  !
 ! D58   D(19,25,27,29)       -179.9996         calculate D2E/DX2 analytically  !
 ! D59   D(26,25,27,28)        179.9982         calculate D2E/DX2 analytically  !
 ! D60   D(26,25,27,29)         -0.0002         calculate D2E/DX2 analytically  !
 ! D61   D(25,27,29,30)        -60.0016         calculate D2E/DX2 analytically  !
 ! D62   D(25,27,29,31)         59.9997         calculate D2E/DX2 analytically  !
 ! D63   D(25,27,29,35)        179.9959         calculate D2E/DX2 analytically  !
 ! D64   D(28,27,29,30)        120.0            calculate D2E/DX2 analytically  !
 ! D65   D(28,27,29,31)       -119.9988         calculate D2E/DX2 analytically  !
 ! D66   D(28,27,29,35)         -0.0026         calculate D2E/DX2 analytically  !
 ! D67   D(27,29,31,32)         60.0004         calculate D2E/DX2 analytically  !
 ! D68   D(27,29,31,33)        179.9991         calculate D2E/DX2 analytically  !
 ! D69   D(27,29,31,34)        -60.0039         calculate D2E/DX2 analytically  !
 ! D70   D(30,29,31,32)       -179.4857         calculate D2E/DX2 analytically  !
 ! D71   D(30,29,31,33)        -59.487          calculate D2E/DX2 analytically  !
 ! D72   D(30,29,31,34)         60.51           calculate D2E/DX2 analytically  !
 ! D73   D(35,29,31,32)        -61.941          calculate D2E/DX2 analytically  !
 ! D74   D(35,29,31,33)         58.0577         calculate D2E/DX2 analytically  !
 ! D75   D(35,29,31,34)        178.0547         calculate D2E/DX2 analytically  !
 ! D76   D(27,29,35,36)          0.0048         calculate D2E/DX2 analytically  !
 ! D77   D(27,29,35,37)        179.9987         calculate D2E/DX2 analytically  !
 ! D78   D(30,29,35,36)       -120.5087         calculate D2E/DX2 analytically  !
 ! D79   D(30,29,35,37)         59.4852         calculate D2E/DX2 analytically  !
 ! D80   D(31,29,35,36)        121.9486         calculate D2E/DX2 analytically  !
 ! D81   D(31,29,35,37)        -58.0575         calculate D2E/DX2 analytically  !
 ! D82   D(29,35,37,38)          0.0044         calculate D2E/DX2 analytically  !
 ! D83   D(29,35,37,39)       -179.9996         calculate D2E/DX2 analytically  !
 ! D84   D(36,35,37,38)        179.9981         calculate D2E/DX2 analytically  !
 ! D85   D(36,35,37,39)         -0.0059         calculate D2E/DX2 analytically  !
 ! D86   D(35,37,39,40)          0.0057         calculate D2E/DX2 analytically  !
 ! D87   D(35,37,39,41)        120.0034         calculate D2E/DX2 analytically  !
 ! D88   D(35,37,39,42)       -120.0005         calculate D2E/DX2 analytically  !
 ! D89   D(38,37,39,40)       -179.9982         calculate D2E/DX2 analytically  !
 ! D90   D(38,37,39,41)        -60.0005         calculate D2E/DX2 analytically  !
 ! D91   D(38,37,39,42)         59.9956         calculate D2E/DX2 analytically  !
 --------------------------------------------------------------------------------
 Trust Radius=3.00D-01 FncErr=1.00D-07 GrdErr=1.00D-07
 Number of steps in this run= 252 maximum allowed number of steps= 252.
 GradGradGradGradGradGradGradGradGradGradGradGradGradGradGradGradGradGrad

                          Input orientation:                          
 ---------------------------------------------------------------------
 Center     Atomic      Atomic             Coordinates (Angstroms)
 Number     Number       Type             X           Y           Z
 ---------------------------------------------------------------------
      1          1           0        7.769100    1.000000   -3.330800
      2          6           0        7.769100    2.090000   -3.330800
      3          1           0        7.255300    2.453900   -4.220600
      4          1           0        8.796500    2.453900   -3.330800
      5          6           0        7.055400    2.640800   -2.094600
      6          8           0        6.573800    1.877400   -1.260500
      7          7           0        6.991400    3.969700   -1.983800
      8          1           0        7.402500    4.556200   -2.695900
      9          6           0        6.342500    4.613900   -0.859800
     10          1           0        5.294700    4.315500   -0.824600
     11          6           0        7.005500    4.220800    0.456100
     12          1           0        8.053100    4.521300    0.439600
     13          1           0        6.498100    4.718900    1.282200
     14          1           0        6.939900    3.140900    0.588200
     15          6           0        6.412700    6.129400   -0.981500
     16          8           0        6.968800    6.652700   -1.944600
     17          7           0        5.846000    6.834900    0.000000
     18          1           0        5.400600    6.359200    0.771600
     19          6           0        5.846100    8.283900    0.000000
     20          1           0        5.332300    8.647700   -0.889800
     21          6           0        5.134700    8.832900    1.232200
     22          1           0        5.643100    8.484600    2.131200
     23          1           0        5.149900    9.922400    1.205800
     24          1           0        4.101900    8.484600    1.241400
     25          6           0        7.266000    8.831800    0.000000
     26          8           0        7.517800    9.911900    0.529500
     27          7           0        8.195800    8.082500   -0.596900
     28          1           0        7.940000    7.201100   -1.018500
     29          6           0        9.583600    8.493800   -0.663800
     30          1           0        9.656700    9.442500   -1.195400
     31          6           0       10.171700    8.670800    0.732100
     32          1           0       10.114000    7.726600    1.273700
     33          1           0       11.213900    8.979600    0.651400
     34          1           0        9.608200    9.432900    1.270400
     35          6           0       10.426800    7.459700   -1.396000
     36          8           0        9.911700    6.436200   -1.840300
     37          7           0       11.728300    7.729700   -1.521100
     38          1           0       12.105600    8.585000   -1.138800
     39          6           0       12.636400    6.825200   -2.197000
     40          1           0       12.085400    5.954200   -2.551700
     41          1           0       13.093800    7.335200   -3.044900
     42          1           0       13.414100    6.505000   -1.503700
 ---------------------------------------------------------------------
                    Distance matrix (angstroms):
                    1          2          3          4          5
     1  H    0.000000
     2  C    1.090000   0.000000
     3  H    1.780326   1.090026   0.000000
     4  H    1.780274   1.089942   1.779618   0.000000
     5  C    2.174806   1.530013   2.143541   2.143490   0.000000
     6  O    2.546510   2.400017   3.091761   3.091745   1.229000
     7  N    3.352364   2.439774   2.714879   2.714856   1.335046
     8  H    3.630985   2.572865   2.601162   2.601153   2.037351
     9  C    4.604487   3.809344   4.098022   4.097994   2.434354
    10  H    4.836965   4.166119   4.340774   4.691396   2.741821
    11  C    5.029637   4.411803   5.005583   4.546452   3.000827
    12  H    5.166829   4.495308   5.160241   4.363795   3.309661
    13  H    6.060151   5.459517   5.998699   5.629621   4.003981
    14  H    4.541980   4.141319   4.867854   4.390614   2.731457
    15  C    5.802566   4.865777   4.971020   4.971017   3.717847
    16  O    5.874951   4.835314   4.784577   4.784554   4.015637
    17  N    6.988462   6.107914   6.244418   6.244425   4.841536
    18  H    7.152657   6.376954   6.604040   6.604028   4.977948
    19  C    8.236951   7.290854   7.334045   7.334030   6.139571
    20  H    8.389505   7.409447   7.290769   7.504820   6.364233
    21  C    9.440093   8.557320   8.655727   8.655714   7.286892
    22  H    9.506448   8.674343   8.905835   8.726209   7.348604
    23  H   10.346505   9.422709   9.468739   9.468734   8.218593
    24  H    9.506451   8.674346   8.726209   8.905820   7.348609
    25  C    8.525516   7.536525   7.647953   7.356240   6.539127
    26  O    9.715299   8.726236   8.846136   8.494631   7.743940
    27  N    7.603821   6.600480   6.759947   6.286190   5.758100
    28  H    6.620391   5.612422   5.766989   5.349414   4.768317
    29  C    8.158574   7.170352   7.385946   6.649271   6.534263
    30  H    8.910599   7.885571   7.984929   7.358017   7.337469
    31  C    9.006709   8.098554   8.466668   7.553024   7.352718
    32  H    8.482165   7.646649   8.133933   7.123103   6.823917
    33  H    9.560260   8.671283   9.054925   8.017886   8.063127
    34  H    9.780958   8.858415   9.186602   8.398592   7.998290
    35  C    7.248072   6.296070   6.564664   5.608865   5.922514
    36  O    6.030306   5.069692   5.346120   4.395904   4.756909
    37  N    8.014932   7.124359   7.424897   6.301153   6.932662
    38  H    9.007903   8.111419   8.403171   7.303793   7.858218
    39  C    7.675224   6.884637   7.222151   5.927782   6.976192
    40  H    6.616762   5.845467   6.194126   4.865795   6.040568
    41  H    8.280636   7.479725   7.700483   6.509656   7.707317
    42  H    8.093784   7.395711   7.856448   6.408739   7.464199
                    6          7          8          9         10
     6  O    0.000000
     7  N    2.252836   0.000000
     8  H    3.150093   1.009986   0.000000
     9  C    2.775336   1.448945   2.120894   0.000000
    10  H    2.787550   2.083774   2.828873   1.090030   0.000000
    11  C    2.936768   2.452827   3.194559   1.525021   2.139158
    12  H    3.474029   2.702654   3.202477   2.150155   3.041270
    13  H    3.813814   3.386946   4.082853   2.150209   2.459575
    14  H    2.268954   2.702729   3.605882   2.150191   2.466247
    15  C    4.264188   2.450266   2.528602   1.521998   2.136533
    16  O    4.840197   2.683382   2.268890   2.392854   3.085371
    17  N    5.166755   3.668348   3.857855   2.432819   2.707632
    18  H    5.058889   3.979018   4.391124   2.568017   2.595338
    19  C    6.569753   4.884618   4.856543   3.801916   4.090502
    20  H    6.893163   5.082631   4.928296   4.158479   4.332854
    21  C    7.527519   6.118881   6.234024   4.861605   4.966179
    22  H    7.484980   6.255834   6.467512   4.941413   5.122454
    23  H    8.534176   6.999951   7.006681   5.819723   5.964966
    24  H    7.484977   6.255833   6.467505   4.941422   4.803387
    25  C    7.101527   5.258411   5.056408   4.402589   4.996294
    26  O    8.285435   6.473292   6.253001   5.601811   6.172151
    27  N    6.447830   4.504353   4.179703   3.941449   4.760096
    28  H    5.501531   3.503369   3.177747   3.044798   3.919426
    29  C    7.293264   5.378604   4.938757   5.059325   5.989884
    30  H    8.169409   6.138154   5.586488   5.866168   6.741711
    31  C    7.941387   6.292119   6.029062   5.801324   6.721390
    32  H    7.291661   5.871647   5.758593   5.335254   6.266109
    33  H    8.696386   7.062074   6.730353   6.713688   7.679149
    34  H    8.526348   6.876337   6.661745   6.198815   7.013066
    35  C    6.784250   4.932300   4.389356   5.006755   6.045738
    36  O    5.679824   3.825228   3.250006   4.125693   5.181284
    37  N    7.802961   6.065469   5.492158   6.257185   7.316631
    38  H    8.695258   6.940465   6.385526   7.004341   8.044608
    39  C    7.881172   6.329720   5.726340   6.803758   7.879253
    40  H    6.976047   5.496325   4.889248   6.135131   7.195958
    41  H    8.688041   7.049242   6.343149   7.600012   8.652993
    42  H    8.262175   6.921656   6.431057   7.348360   8.436809
                   11         12         13         14         15
    11  C    0.000000
    12  H    1.089972   0.000000
    13  H    1.089954   1.779619   0.000000
    14  H    1.089926   1.779551   1.779581   0.000000
    15  C    2.461881   2.701189   2.668547   3.416582   0.000000
    16  O    3.417433   3.376830   3.791224   4.329971   1.229086
    17  N    2.895857   3.227582   2.558657   3.897208   1.334999
    18  H    2.692211   3.244049   2.038579   3.572189   2.037281
    19  C    4.249826   4.384205   3.844264   5.290825   2.434389
    20  H    4.920212   5.118323   4.638118   5.923994   2.741807
    21  C    5.037230   5.266419   4.334323   6.006026   3.720573
    22  H    4.779339   4.937343   3.953773   5.711188   3.978461
    23  H    6.042644   6.179605   5.375862   7.040900   4.556950
    24  H    5.218005   5.653549   4.463624   6.085725   3.978448
    25  C    4.640820   4.403769   4.376032   5.730503   2.999071
    26  O    5.714583   5.417859   5.345427   6.795870   4.220388
    27  N    4.175925   3.711717   4.210345   5.234611   2.672445
    28  H    3.453972   3.052896   3.678806   4.479610   1.866161
    29  C    5.114617   4.397804   5.249485   6.100016   3.968114
    30  H    6.084609   5.427980   6.199004   7.090303   4.641758
    31  C    5.468409   4.668230   5.423602   6.406640   4.850280
    32  H    4.756246   3.900895   4.703304   5.619027   4.619155
    33  H    6.355702   5.469182   6.386724   7.236124   5.817347
    34  H    5.882442   5.218465   5.647536   6.868368   5.118143
    35  C    5.062217   4.199771   5.488117   5.894706   4.249060
    36  O    4.315953   3.509869   4.934753   5.058479   3.615891
    37  N    6.206975   5.257877   6.654202   6.959526   5.577431
    38  H    6.899345   5.952122   7.228556   7.700988   6.201921
    39  C    6.747509   5.767690   7.363427   7.333588   6.379343
    40  H    6.152798   5.221161   6.887864   6.652052   5.888612
    41  H    7.682700   6.743028   8.310961   8.286257   7.095680
    42  H    7.080151   6.037533   7.666971   7.590025   7.030887
                   16         17         18         19         20
    16  O    0.000000
    17  N    2.252853   0.000000
    18  H    3.150101   1.009969   0.000000
    19  C    2.775381   1.449000   2.120921   0.000000
    20  H    2.787608   2.083717   2.828807   1.089993   0.000000
    21  C    4.267230   2.452808   2.530227   1.525060   2.139212
    22  H    4.661060   2.702719   2.534688   2.150233   3.041322
    23  H    4.891253   3.386911   3.598302   2.150193   2.459608
    24  H    4.661070   2.702678   2.534691   2.150253   2.466272
    25  C    2.935690   2.450308   3.191995   1.521943   2.136547
    26  O    4.128554   3.541640   4.142804   2.392767   2.896381
    27  N    2.316496   2.726601   3.557485   2.432682   2.933407
    28  H    1.449701   2.357176   3.218976   2.567920   2.984847
    29  C    3.444891   4.142733   4.910639   3.801788   4.260084
    30  H    3.945769   4.769695   5.611614   4.158366   4.407441
    31  C    4.636380   4.755857   5.301740   4.404143   5.104007
    32  H    4.626338   4.542385   4.933359   4.488637   5.328584
    33  H    5.493137   5.817079   6.377727   5.451752   6.089226
    34  H    5.003216   4.745279   5.234533   4.133705   4.854516
    35  C    3.593045   4.829381   5.583214   4.859108   5.255617
    36  O    2.952696   4.480578   5.213250   4.830093   5.173499
    37  N    4.898175   6.141324   6.868372   6.100915   6.492309
    38  H    5.547054   6.598660   7.318527   6.369369   6.778165
    39  C    5.675839   7.136977   7.834957   7.284421   7.640691
    40  H    5.199622   6.798303   7.476289   7.132148   7.457963
    41  H    6.260359   7.877330   8.643123   7.918371   8.161372
    42  H    6.462051   7.723088   8.331532   7.918347   8.383527
                   21         22         23         24         25
    21  C    0.000000
    22  H    1.089947   0.000000
    23  H    1.089926   1.779573   0.000000
    24  H    1.089988   1.779618   1.779562   0.000000
    25  C    2.461861   2.701179   2.668565   3.416599   0.000000
    26  O    2.708726   2.849057   2.462609   3.769928   1.228979
    27  N    3.644042   3.757724   3.989043   4.505668   1.335016
    28  H    3.949447   4.104112   4.487498   4.635249   2.037351
    29  C    4.847939   4.831113   5.019362   5.803353   2.434367
    30  H    5.168495   5.300266   5.129065   6.140958   2.741784
    31  C    5.064360   4.743455   5.197054   6.093975   3.000831
    32  H    5.100887   4.615064   5.428484   6.059782   3.309816
    33  H    6.108643   5.785209   6.161844   7.153577   4.004008
    34  H    4.513719   4.166805   4.485557   5.587437   2.731508
    35  C    6.066254   6.031198   6.378082   6.928972   3.717813
    36  O    6.164751   6.179782   6.641314   6.888149   4.015636
    37  N    7.230026   7.137144   7.451125   8.146365   4.841538
    38  H    7.367262   7.243403   7.461069   8.350727   4.977902
    39  C    8.489156   8.390064   8.787456   9.349540   6.139581
    40  H    8.421226   8.356776   8.829869   9.193846   6.165904
    41  H    9.158819   9.144729   9.373772  10.027350   6.743477
    42  H    9.025117   8.804530   9.344357   9.908151   6.743459
                   26         27         28         29         30
    26  O    0.000000
    27  N    2.252813   0.000000
    28  H    3.150078   1.009973   0.000000
    29  C    2.775338   1.449011   2.120921   0.000000
    30  H    2.787563   2.083754   2.828821   1.089942   0.000000
    31  C    2.936760   2.452859   3.194543   1.525034   2.139159
    32  H    3.474136   2.702832   3.202594   2.150308   3.041363
    33  H    3.813817   3.387030   4.082897   2.150263   2.459638
    34  H    2.268953   2.702825   3.605951   2.150266   2.466296
    35  C    4.264167   2.450266   2.528548   1.521994   2.136537
    36  O    4.840165   2.683405   2.268927   2.392806   3.085249
    37  N    5.166746   3.668402   3.857880   2.432807   2.707636
    38  H    5.058834   3.979032   4.391113   2.567962   2.595308
    39  C    6.569748   4.884675   4.856577   3.801910   4.090486
    40  H    6.783815   4.845605   4.592364   4.033948   4.461656
    41  H    7.106862   5.526442   5.539489   4.396987   4.435653
    42  H    7.106843   5.526432   5.539472   4.396986   4.779332
                   31         32         33         34         35
    31  C    0.000000
    32  H    1.090034   0.000000
    33  H    1.089977   1.779620   0.000000
    34  H    1.089998   1.779692   1.779583   0.000000
    35  C    2.461839   2.701181   2.668608   3.416623   0.000000
    36  O    3.417350   3.376841   3.791197   4.329986   1.228936
    37  N    2.895787   3.227519   2.558635   3.897202   1.335085
    38  H    2.692136   3.243991   2.038542   3.572140   2.037356
    39  C    4.249778   4.384151   3.844259   5.290837   2.434445
    40  H    4.671778   4.654192   4.491370   5.731171   2.520541
    41  H    4.958652   5.261436   4.461021   5.930562   3.138034
    42  H    4.494736   4.482959   3.950820   5.545548   3.137995
                   36         37         38         39         40
    36  O    0.000000
    37  N    2.252791   0.000000
    38  H    3.150022   1.009974   0.000000
    39  C    2.775346   1.449002   2.120951   0.000000
    40  H    2.337389   2.083760   2.986269   1.089979   0.000000
    41  H    3.519236   2.083791   2.484302   1.090068   1.779685
    42  H    3.519210   2.083774   2.484296   1.089959   1.779643
                   41         42
    41  H    0.000000
    42  H    1.779641   0.000000
 Stoichiometry    C12H22N4O4
 Framework group  C1[X(C12H22N4O4)]
 Deg. of freedom   120
 Full point group                 C1      NOp   1
 Largest Abelian subgroup         C1      NOp   1
 Largest concise Abelian subgroup C1      NOp   1
                         Standard orientation:                         
 ---------------------------------------------------------------------
 Center     Atomic      Atomic             Coordinates (Angstroms)
 Number     Number       Type             X           Y           Z
 ---------------------------------------------------------------------
      1          1           0        5.620863    1.940901   -0.280763
      2          6           0        4.633628    1.701012   -0.675629
      3          1           0        4.706208    1.511776   -1.746648
      4          1           0        3.958200    2.538245   -0.500097
      5          6           0        4.056542    0.456856    0.002594
      6          8           0        4.695211   -0.132851    0.871380
      7          7           0        2.845930    0.063713   -0.400153
      8          1           0        2.359787    0.581472   -1.118249
      9          6           0        2.191342   -1.099059    0.164575
     10          1           0        2.805244   -1.982752   -0.009715
     11          6           0        1.985219   -0.937597    1.666950
     12          1           0        1.364665   -0.061892    1.856928
     13          1           0        1.492067   -1.824830    2.063962
     14          1           0        2.951359   -0.810404    2.155145
     15          6           0        0.826443   -1.322099   -0.470865
     16          8           0        0.413391   -0.562348   -1.344260
     17          7           0        0.125373   -2.368980   -0.029546
     18          1           0        0.507381   -2.965127    0.690674
     19          6           0       -1.187050   -2.687789   -0.554435
     20          1           0       -1.114380   -2.877003   -1.625416
     21          6           0       -1.762249   -3.927924    0.121598
     22          1           0       -1.849511   -3.750558    1.193471
     23          1           0       -2.747347   -4.143759   -0.291845
     24          1           0       -1.101503   -4.777027   -0.053080
     25          6           0       -2.161251   -1.540605   -0.328137
     26          8           0       -3.360682   -1.761534   -0.176666
     27          7           0       -1.641811   -0.310997   -0.305453
     28          1           0       -0.648795   -0.179763   -0.434853
     29          6           0       -2.464251    0.863875   -0.098331
     30          1           0       -3.211170    0.929217   -0.889417
     31          6           0       -3.182121    0.801561    1.245733
     32          1           0       -2.447038    0.745051    2.048623
     33          1           0       -3.791836    1.695843    1.374414
     34          1           0       -3.821360   -0.080786    1.276265
     35          6           0       -1.622856    2.132001   -0.117820
     36          8           0       -0.408007    2.071909   -0.293353
     37          7           0       -2.273276    3.283784    0.063296
     38          1           0       -3.273426    3.282217    0.203807
     39          6           0       -1.585612    4.559212    0.065973
     40          1           0       -0.519882    4.398301   -0.096450
     41          1           0       -1.983070    5.188503   -0.730437
     42          1           0       -1.735984    5.051660    1.026647
 ---------------------------------------------------------------------
 Rotational constants (GHZ):      0.3653284      0.2507089      0.1624802
 Standard basis: 6-31G(d) (6D, 7F)
 There are   344 symmetry adapted basis functions of A   symmetry.
 Integral buffers will be    131072 words long.
 Raffenetti 1 integral format.
 Two-electron integral symmetry is turned on.
   344 basis functions,   648 primitive gaussians,   344 cartesian basis functions
    77 alpha electrons       77 beta electrons
       nuclear repulsion energy      1714.2746127754 Hartrees.
 NAtoms=   42 NActive=   42 NUniq=   42 SFac= 7.50D-01 NAtFMM=   80 NAOKFM=F Big=F
 One-electron integrals computed using PRISM.
 NBasis=   344 RedAO= T  NBF=   344
 NBsUse=   344 1.00D-06 NBFU=   344
 Harris functional with IExCor=  205 diagonalized for initial guess.
 ExpMin= 1.61D-01 ExpMax= 5.48D+03 ExpMxC= 8.25D+02 IAcc=1 IRadAn=         1 AccDes= 0.00D+00
 HarFok:  IExCor=  205 AccDes= 0.00D+00 IRadAn=         1 IDoV= 1
 ScaDFX=  1.000000  1.000000  1.000000  1.000000
 FoFCou: FMM=F IPFlag=           0 FMFlag=      100000 FMFlg1=           0
         NFxFlg=           0 DoJE=T BraDBF=F KetDBF=T FulRan=T
         Omega=  0.000000  0.000000  1.000000  0.000000  0.000000 ICntrl=     500 IOpCl=  0
         NMat0=    1 NMatS0=    1 NMatT0=    0 NMatD0=    1 NMtDS0=    0 NMtDT0=    0
         I1Cent=           4 NGrid=           0.
 Petite list used in FoFCou.
 Initial guess orbital symmetries:
       Occupied  (A) (A) (A) (A) (A) (A) (A) (A) (A) (A) (A) (A)
                 (A) (A) (A) (A) (A) (A) (A) (A) (A) (A) (A) (A)
                 (A) (A) (A) (A) (A) (A) (A) (A) (A) (A) (A) (A)
                 (A) (A) (A) (A) (A) (A) (A) (A) (A) (A) (A) (A)
                 (A) (A) (A) (A) (A) (A) (A) (A) (A) (A) (A) (A)
                 (A) (A) (A) (A) (A) (A) (A) (A) (A) (A) (A) (A)
                 (A) (A) (A) (A) (A)
       Virtual   (A) (A) (A) (A) (A) (A) (A) (A) (A) (A) (A) (A)
                 (A) (A) (A) (A) (A) (A) (A) (A) (A) (A) (A) (A)
                 (A) (A) (A) (A) (A) (A) (A) (A) (A) (A) (A) (A)
                 (A) (A) (A) (A) (A) (A) (A) (A) (A) (A) (A) (A)
                 (A) (A) (A) (A) (A) (A) (A) (A) (A) (A) (A) (A)
                 (A) (A) (A) (A) (A) (A) (A) (A) (A) (A) (A) (A)
                 (A) (A) (A) (A) (A) (A) (A) (A) (A) (A) (A) (A)
                 (A) (A) (A) (A) (A) (A) (A) (A) (A) (A) (A) (A)
                 (A) (A) (A) (A) (A) (A) (A) (A) (A) (A) (A) (A)
                 (A) (A) (A) (A) (A) (A) (A) (A) (A) (A) (A) (A)
                 (A) (A) (A) (A) (A) (A) (A) (A) (A) (A) (A) (A)
                 (A) (A) (A) (A) (A) (A) (A) (A) (A) (A) (A) (A)
                 (A) (A) (A) (A) (A) (A) (A) (A) (A) (A) (A) (A)
                 (A) (A) (A) (A) (A) (A) (A) (A) (A) (A) (A) (A)
                 (A) (A) (A) (A) (A) (A) (A) (A) (A) (A) (A) (A)
                 (A) (A) (A) (A) (A) (A) (A) (A) (A) (A) (A) (A)
                 (A) (A) (A) (A) (A) (A) (A) (A) (A) (A) (A) (A)
                 (A) (A) (A) (A) (A) (A) (A) (A) (A) (A) (A) (A)
                 (A) (A) (A) (A) (A) (A) (A) (A) (A) (A) (A) (A)
                 (A) (A) (A) (A) (A) (A) (A) (A) (A) (A) (A) (A)
                 (A) (A) (A) (A) (A) (A) (A) (A) (A) (A) (A) (A)
                 (A) (A) (A) (A) (A) (A) (A) (A) (A) (A) (A) (A)
                 (A) (A) (A)
 The electronic state of the initial guess is 1-A.
 Requested convergence on RMS density matrix=1.00D-08 within 128 cycles.
 Requested convergence on MAX density matrix=1.00D-06.
 Requested convergence on             energy=1.00D-06.
 No special actions if energy rises.
 Integral accuracy reduced to 1.0D-05 until final iterations.
 Initial convergence to 1.0D-05 achieved.  Increase integral accuracy.
 SCF Done:  E(RHF) =  -984.501576785     A.U. after   15 cycles
             Convg  =    0.2891D-08             -V/T =  2.0016
 Range of M.O.s used for correlation:     1   344
 NBasis=   344 NAE=    77 NBE=    77 NFC=     0 NFV=     0
 NROrb=    344 NOA=    77 NOB=    77 NVA=   267 NVB=   267
 Symmetrizing basis deriv contribution to polar:
 IMax=3 JMax=2 DiffMx= 0.00D+00
 G2DrvN: will do    43 centers at a time, making    1 passes doing MaxLOS=2.
 Calling FoFCou, ICntrl=  3107 FMM=F I1Cent=   0 AccDes= 0.00D+00.
 FoFDir/FoFCou used for L=0 through L=2.
 End of G2Drv Frequency-dependent properties file   721 does not exist.
 End of G2Drv Frequency-dependent properties file   722 does not exist.
          IDoAtm=111111111111111111111111111111111111111111
          Differentiating once with respect to nuclear coordinates.
          There are   129 degrees of freedom in the 1st order CPHF.  IDoFFX=5.
    123 vectors produced by pass  0 Test12= 2.06D-10 1.00D-07 XBig12= 9.20D-02 5.38D-02.
 AX will form   123 AO Fock derivatives at one time.
    123 vectors produced by pass  1 Test12= 2.06D-10 1.00D-07 XBig12= 8.29D-03 3.79D-02.
    123 vectors produced by pass  2 Test12= 2.06D-10 1.00D-07 XBig12= 1.09D-04 2.07D-03.
    123 vectors produced by pass  3 Test12= 2.06D-10 1.00D-07 XBig12= 1.10D-06 1.56D-04.
    123 vectors produced by pass  4 Test12= 2.06D-10 1.00D-07 XBig12= 6.95D-09 1.14D-05.
     34 vectors produced by pass  5 Test12= 2.06D-10 1.00D-07 XBig12= 3.70D-11 6.22D-07.
 Inverted reduced A of dimension   649 with in-core refinement.
 End of Minotr Frequency-dependent properties file   721 does not exist.
 End of Minotr Frequency-dependent properties file   722 does not exist.

 **********************************************************************

            Population analysis using the SCF density.

 **********************************************************************

 Orbital symmetries:
       Occupied  (A) (A) (A) (A) (A) (A) (A) (A) (A) (A) (A) (A)
                 (A) (A) (A) (A) (A) (A) (A) (A) (A) (A) (A) (A)
                 (A) (A) (A) (A) (A) (A) (A) (A) (A) (A) (A) (A)
                 (A) (A) (A) (A) (A) (A) (A) (A) (A) (A) (A) (A)
                 (A) (A) (A) (A) (A) (A) (A) (A) (A) (A) (A) (A)
                 (A) (A) (A) (A) (A) (A) (A) (A) (A) (A) (A) (A)
                 (A) (A) (A) (A) (A)
       Virtual   (A) (A) (A) (A) (A) (A) (A) (A) (A) (A) (A) (A)
                 (A) (A) (A) (A) (A) (A) (A) (A) (A) (A) (A) (A)
                 (A) (A) (A) (A) (A) (A) (A) (A) (A) (A) (A) (A)
                 (A) (A) (A) (A) (A) (A) (A) (A) (A) (A) (A) (A)
                 (A) (A) (A) (A) (A) (A) (A) (A) (A) (A) (A) (A)
                 (A) (A) (A) (A) (A) (A) (A) (A) (A) (A) (A) (A)
                 (A) (A) (A) (A) (A) (A) (A) (A) (A) (A) (A) (A)
                 (A) (A) (A) (A) (A) (A) (A) (A) (A) (A) (A) (A)
                 (A) (A) (A) (A) (A) (A) (A) (A) (A) (A) (A) (A)
                 (A) (A) (A) (A) (A) (A) (A) (A) (A) (A) (A) (A)
                 (A) (A) (A) (A) (A) (A) (A) (A) (A) (A) (A) (A)
                 (A) (A) (A) (A) (A) (A) (A) (A) (A) (A) (A) (A)
                 (A) (A) (A) (A) (A) (A) (A) (A) (A) (A) (A) (A)
                 (A) (A) (A) (A) (A) (A) (A) (A) (A) (A) (A) (A)
                 (A) (A) (A) (A) (A) (A) (A) (A) (A) (A) (A) (A)
                 (A) (A) (A) (A) (A) (A) (A) (A) (A) (A) (A) (A)
                 (A) (A) (A) (A) (A) (A) (A) (A) (A) (A) (A) (A)
                 (A) (A) (A) (A) (A) (A) (A) (A) (A) (A) (A) (A)
                 (A) (A) (A) (A) (A) (A) (A) (A) (A) (A) (A) (A)
                 (A) (A) (A) (A) (A) (A) (A) (A) (A) (A) (A) (A)
                 (A) (A) (A) (A) (A) (A) (A) (A) (A) (A) (A) (A)
                 (A) (A) (A) (A) (A) (A) (A) (A) (A) (A) (A) (A)
                 (A) (A) (A)
 The electronic state is 1-A.
 Alpha  occ. eigenvalues --  -20.54915 -20.52225 -20.51246 -20.51000 -15.62079
 Alpha  occ. eigenvalues --  -15.59663 -15.58605 -15.55233 -11.37890 -11.35088
 Alpha  occ. eigenvalues --  -11.34558 -11.33823 -11.29212 -11.29128 -11.27305
 Alpha  occ. eigenvalues --  -11.26460 -11.23342 -11.23027 -11.22437 -11.21540
 Alpha  occ. eigenvalues --   -1.42987  -1.38130  -1.36997  -1.36691  -1.27306
 Alpha  occ. eigenvalues --   -1.23962  -1.23739  -1.21887  -1.08346  -1.04790
 Alpha  occ. eigenvalues --   -1.03378  -0.98270  -0.95753  -0.91404  -0.89950
 Alpha  occ. eigenvalues --   -0.86651  -0.83083  -0.79881  -0.78547  -0.78062
 Alpha  occ. eigenvalues --   -0.75105  -0.72747  -0.69863  -0.68415  -0.67539
 Alpha  occ. eigenvalues --   -0.66587  -0.64986  -0.63835  -0.62867  -0.62431
 Alpha  occ. eigenvalues --   -0.60850  -0.60563  -0.59543  -0.58819  -0.58085
 Alpha  occ. eigenvalues --   -0.56464  -0.55909  -0.55780  -0.55507  -0.55265
 Alpha  occ. eigenvalues --   -0.54937  -0.54367  -0.53827  -0.53311  -0.52928
 Alpha  occ. eigenvalues --   -0.51945  -0.50857  -0.49275  -0.48683  -0.44622
 Alpha  occ. eigenvalues --   -0.43219  -0.41391  -0.40717  -0.40001  -0.39277
 Alpha  occ. eigenvalues --   -0.38441  -0.36226
 Alpha virt. eigenvalues --    0.15978   0.18863   0.19678   0.20806   0.21232
 Alpha virt. eigenvalues --    0.21629   0.24310   0.25779   0.26454   0.27319
 Alpha virt. eigenvalues --    0.27621   0.28933   0.29511   0.29969   0.30579
 Alpha virt. eigenvalues --    0.31318   0.31425   0.31860   0.32325   0.32596
 Alpha virt. eigenvalues --    0.33200   0.33656   0.34665   0.35105   0.36076
 Alpha virt. eigenvalues --    0.36216   0.37156   0.38487   0.40062   0.40367
 Alpha virt. eigenvalues --    0.41366   0.43060   0.43583   0.45047   0.47652
 Alpha virt. eigenvalues --    0.48481   0.49782   0.52468   0.53698   0.54717
 Alpha virt. eigenvalues --    0.59372   0.59718   0.60879   0.61648   0.66719
 Alpha virt. eigenvalues --    0.70748   0.71919   0.71984   0.73401   0.73993
 Alpha virt. eigenvalues --    0.74798   0.75174   0.76024   0.76414   0.77517
 Alpha virt. eigenvalues --    0.78192   0.78864   0.79239   0.80017   0.82368
 Alpha virt. eigenvalues --    0.82570   0.83419   0.84897   0.87088   0.87873
 Alpha virt. eigenvalues --    0.88199   0.91078   0.91625   0.92336   0.93053
 Alpha virt. eigenvalues --    0.94096   0.94751   0.95357   0.96931   0.98140
 Alpha virt. eigenvalues --    0.98980   0.99632   1.00696   1.00947   1.01309
 Alpha virt. eigenvalues --    1.02441   1.04011   1.05418   1.06340   1.07982
 Alpha virt. eigenvalues --    1.08604   1.09605   1.11269   1.11639   1.11878
 Alpha virt. eigenvalues --    1.13172   1.13619   1.14574   1.15098   1.15522
 Alpha virt. eigenvalues --    1.15747   1.16287   1.16529   1.16946   1.17898
 Alpha virt. eigenvalues --    1.18167   1.18793   1.19044   1.20211   1.20729
 Alpha virt. eigenvalues --    1.21384   1.21682   1.22593   1.23463   1.23673
 Alpha virt. eigenvalues --    1.24463   1.25514   1.26212   1.28334   1.29321
 Alpha virt. eigenvalues --    1.29866   1.31205   1.33650   1.36549   1.36987
 Alpha virt. eigenvalues --    1.38796   1.40799   1.43198   1.44299   1.47199
 Alpha virt. eigenvalues --    1.49333   1.50869   1.51676   1.54044   1.55653
 Alpha virt. eigenvalues --    1.56582   1.57903   1.59609   1.61083   1.61616
 Alpha virt. eigenvalues --    1.62901   1.64426   1.64651   1.67018   1.69957
 Alpha virt. eigenvalues --    1.72558   1.73517   1.74166   1.75286   1.76284
 Alpha virt. eigenvalues --    1.77316   1.79613   1.80524   1.83724   1.85131
 Alpha virt. eigenvalues --    1.92530   1.94253   1.96362   1.98148   2.00716
 Alpha virt. eigenvalues --    2.01792   2.02413   2.04235   2.06275   2.07037
 Alpha virt. eigenvalues --    2.07857   2.09563   2.09697   2.11293   2.11668
 Alpha virt. eigenvalues --    2.12987   2.14089   2.14601   2.14787   2.16015
 Alpha virt. eigenvalues --    2.16267   2.17644   2.19557   2.20462   2.21112
 Alpha virt. eigenvalues --    2.22184   2.23762   2.24924   2.25322   2.29305
 Alpha virt. eigenvalues --    2.29717   2.30211   2.32455   2.33483   2.34200
 Alpha virt. eigenvalues --    2.34852   2.36378   2.37545   2.38310   2.38661
 Alpha virt. eigenvalues --    2.41579   2.43660   2.44987   2.47943   2.47988
 Alpha virt. eigenvalues --    2.49429   2.50445   2.52548   2.56047   2.57261
 Alpha virt. eigenvalues --    2.59428   2.60903   2.61486   2.62435   2.63134
 Alpha virt. eigenvalues --    2.63424   2.64016   2.64751   2.67021   2.68789
 Alpha virt. eigenvalues --    2.69108   2.71108   2.73287   2.75362   2.77192
 Alpha virt. eigenvalues --    2.79087   2.79843   2.80886   2.82039   2.85844
 Alpha virt. eigenvalues --    2.88836   2.90662   2.92704   2.95191   2.97256
 Alpha virt. eigenvalues --    2.99075   3.00893   3.01966   3.03643   3.06675
 Alpha virt. eigenvalues --    3.08097   3.09222   3.12746   3.17512   3.18870
 Alpha virt. eigenvalues --    3.24759   3.28121   3.30655   3.34497   3.35341
 Alpha virt. eigenvalues --    3.38816   3.39631   3.43078   3.54106   3.56536
 Alpha virt. eigenvalues --    3.61034   3.66098   4.40299   4.42585   4.44054
 Alpha virt. eigenvalues --    4.46979   4.50828   4.52497   4.57712   4.62157
 Alpha virt. eigenvalues --    4.63324   4.65330   4.67051   4.73708   4.73987
 Alpha virt. eigenvalues --    4.86226   4.87609   4.89814   4.92965   5.00139
 Alpha virt. eigenvalues --    5.07697   5.15559
          Condensed to atoms (all electrons):
              1          2          3          4          5          6
     1  H    0.461708   0.385453  -0.019159  -0.018737  -0.031009   0.003463
     2  C    0.385453   5.243554   0.374407   0.375560   0.379125  -0.067316
     3  H   -0.019159   0.374407   0.512027  -0.023080  -0.034372   0.001306
     4  H   -0.018737   0.375560  -0.023080   0.502526  -0.034725   0.001163
     5  C   -0.031009   0.379125  -0.034372  -0.034725   4.181684   0.586099
     6  O    0.003463  -0.067316   0.001306   0.001163   0.586099   8.214409
     7  N    0.003859  -0.119186   0.003355   0.003556   0.249467  -0.107792
     8  H   -0.000009  -0.001167   0.000643   0.000450  -0.016704   0.001939
     9  C   -0.000079   0.004594  -0.000246  -0.000094  -0.029686   0.014788
    10  H    0.000002   0.000001  -0.000004  -0.000002  -0.001499   0.003072
    11  C    0.000006  -0.000503   0.000009   0.000030  -0.003932  -0.016015
    12  H    0.000000  -0.000039   0.000000   0.000002   0.000040  -0.000030
    13  H    0.000000   0.000007   0.000000  -0.000001   0.000286   0.000271
    14  H    0.000001   0.000301  -0.000005  -0.000026   0.000335   0.011566
    15  C    0.000000   0.000016  -0.000011  -0.000006   0.004047   0.000589
    16  O    0.000000  -0.000034   0.000000  -0.000001   0.000187  -0.000003
    17  N    0.000000   0.000000   0.000000   0.000000  -0.000084  -0.000002
    18  H    0.000000   0.000000   0.000000   0.000000   0.000000   0.000001
    19  C    0.000000   0.000000   0.000000   0.000000   0.000001   0.000000
    20  H    0.000000   0.000000   0.000000   0.000000   0.000000   0.000000
    21  C    0.000000   0.000000   0.000000   0.000000   0.000000   0.000000
    22  H    0.000000   0.000000   0.000000   0.000000   0.000000   0.000000
    23  H    0.000000   0.000000   0.000000   0.000000   0.000000   0.000000
    24  H    0.000000   0.000000   0.000000   0.000000   0.000000   0.000000
    25  C    0.000000   0.000000   0.000000   0.000000   0.000000   0.000000
    26  O    0.000000   0.000000   0.000000   0.000000   0.000000   0.000000
    27  N    0.000000   0.000000   0.000000   0.000000   0.000000   0.000000
    28  H    0.000000   0.000000   0.000000   0.000000   0.000003   0.000000
    29  C    0.000000   0.000000   0.000000   0.000000   0.000000   0.000000
    30  H    0.000000   0.000000   0.000000   0.000000   0.000000   0.000000
    31  C    0.000000   0.000000   0.000000   0.000000   0.000000   0.000000
    32  H    0.000000   0.000000   0.000000   0.000000   0.000000   0.000000
    33  H    0.000000   0.000000   0.000000   0.000000   0.000000   0.000000
    34  H    0.000000   0.000000   0.000000   0.000000   0.000000   0.000000
    35  C    0.000000   0.000000   0.000000   0.000000   0.000000   0.000000
    36  O    0.000000  -0.000005   0.000000   0.000012   0.000001   0.000000
    37  N    0.000000   0.000000   0.000000   0.000000   0.000000   0.000000
    38  H    0.000000   0.000000   0.000000   0.000000   0.000000   0.000000
    39  C    0.000000   0.000000   0.000000   0.000000   0.000000   0.000000
    40  H    0.000000   0.000000   0.000000   0.000001   0.000000   0.000000
    41  H    0.000000   0.000000   0.000000   0.000000   0.000000   0.000000
    42  H    0.000000   0.000000   0.000000   0.000000   0.000000   0.000000
              7          8          9         10         11         12
     1  H    0.003859  -0.000009  -0.000079   0.000002   0.000006   0.000000
     2  C   -0.119186  -0.001167   0.004594   0.000001  -0.000503  -0.000039
     3  H    0.003355   0.000643  -0.000246  -0.000004   0.000009   0.000000
     4  H    0.003556   0.000450  -0.000094  -0.000002   0.000030   0.000002
     5  C    0.249467  -0.016704  -0.029686  -0.001499  -0.003932   0.000040
     6  O   -0.107792   0.001939   0.014788   0.003072  -0.016015  -0.000030
     7  N    7.408052   0.311236   0.204821  -0.041985  -0.062903   0.001271
     8  H    0.311236   0.276573  -0.024227   0.002128   0.002883   0.000177
     9  C    0.204821  -0.024227   4.992971   0.406606   0.334551  -0.040648
    10  H   -0.041985   0.002128   0.406606   0.498544  -0.046146   0.004301
    11  C   -0.062903   0.002883   0.334551  -0.046146   5.224297   0.384897
    12  H    0.001271   0.000177  -0.040648   0.004301   0.384897   0.506467
    13  H    0.004907  -0.000079  -0.042890   0.000242   0.376033  -0.024138
    14  H   -0.005694  -0.000173  -0.026204  -0.003936   0.386396  -0.018788
    15  C   -0.039011  -0.006150   0.385688  -0.039111  -0.064791  -0.003439
    16  O   -0.004874   0.015906  -0.068812   0.001298  -0.000563   0.000404
    17  N    0.002763   0.000613  -0.112998   0.001762   0.001664   0.000183
    18  H    0.000053  -0.000013  -0.000087   0.000617   0.000642   0.000026
    19  C   -0.000045  -0.000020   0.003690  -0.000281   0.000145  -0.000092
    20  H   -0.000001  -0.000001  -0.000069   0.000005  -0.000007   0.000001
    21  C    0.000000   0.000000  -0.000051  -0.000007  -0.000017  -0.000002
    22  H    0.000000   0.000000  -0.000013   0.000001  -0.000003   0.000001
    23  H    0.000000   0.000000   0.000001   0.000000   0.000000   0.000000
    24  H    0.000000   0.000000  -0.000007   0.000001  -0.000001   0.000000
    25  C   -0.000001   0.000003  -0.000034   0.000014  -0.000054   0.000044
    26  O    0.000000   0.000000   0.000000   0.000000   0.000000   0.000000
    27  N   -0.000019   0.000029  -0.000859  -0.000039   0.000477   0.000121
    28  H    0.000170   0.000340  -0.002341   0.000154  -0.000326   0.000853
    29  C    0.000002  -0.000007   0.000019   0.000000  -0.000006  -0.000045
    30  H    0.000000   0.000000   0.000000   0.000000   0.000000   0.000001
    31  C    0.000000   0.000000   0.000000   0.000000   0.000000  -0.000017
    32  H    0.000000   0.000000  -0.000002   0.000000   0.000000   0.000094
    33  H    0.000000   0.000000   0.000000   0.000000   0.000000   0.000000
    34  H    0.000000   0.000000   0.000000   0.000000   0.000000   0.000000
    35  C    0.000025  -0.000002   0.000005   0.000000  -0.000019   0.000101
    36  O   -0.000137   0.001033   0.000248   0.000001  -0.000250   0.000937
    37  N    0.000000   0.000001   0.000000   0.000000   0.000000  -0.000001
    38  H    0.000000   0.000000   0.000000   0.000000   0.000000   0.000000
    39  C    0.000000   0.000000   0.000000   0.000000   0.000000   0.000000
    40  H    0.000000   0.000000   0.000000   0.000000   0.000000   0.000000
    41  H    0.000000   0.000000   0.000000   0.000000   0.000000   0.000000
    42  H    0.000000   0.000000   0.000000   0.000000   0.000000   0.000000
             13         14         15         16         17         18
     1  H    0.000000   0.000001   0.000000   0.000000   0.000000   0.000000
     2  C    0.000007   0.000301   0.000016  -0.000034   0.000000   0.000000
     3  H    0.000000  -0.000005  -0.000011   0.000000   0.000000   0.000000
     4  H   -0.000001  -0.000026  -0.000006  -0.000001   0.000000   0.000000
     5  C    0.000286   0.000335   0.004047   0.000187  -0.000084   0.000000
     6  O    0.000271   0.011566   0.000589  -0.000003  -0.000002   0.000001
     7  N    0.004907  -0.005694  -0.039011  -0.004874   0.002763   0.000053
     8  H   -0.000079  -0.000173  -0.006150   0.015906   0.000613  -0.000013
     9  C   -0.042890  -0.026204   0.385688  -0.068812  -0.112998  -0.000087
    10  H    0.000242  -0.003936  -0.039111   0.001298   0.001762   0.000617
    11  C    0.376033   0.386396  -0.064791  -0.000563   0.001664   0.000642
    12  H   -0.024138  -0.018788  -0.003439   0.000404   0.000183   0.000026
    13  H    0.572307  -0.019917  -0.007257   0.000041   0.000631   0.003343
    14  H   -0.019917   0.420637   0.004207  -0.000062   0.000046  -0.000087
    15  C   -0.007257   0.004207   4.260353   0.502400   0.281151  -0.020318
    16  O    0.000041  -0.000062   0.502400   8.417046  -0.105331   0.002122
    17  N    0.000631   0.000046   0.281151  -0.105331   7.430204   0.319904
    18  H    0.003343  -0.000087  -0.020318   0.002122   0.319904   0.298472
    19  C    0.000298   0.000000  -0.032113   0.013370   0.140635  -0.019948
    20  H    0.000001   0.000000   0.000517   0.001479  -0.044145   0.001640
    21  C   -0.000014   0.000000   0.003057   0.000267  -0.050283  -0.004394
    22  H    0.000028   0.000000  -0.000104  -0.000009  -0.000975   0.001672
    23  H    0.000000   0.000000  -0.000021   0.000004   0.003440   0.000024
    24  H   -0.000007   0.000000  -0.000234   0.000000  -0.001996   0.001662
    25  C   -0.000047  -0.000001  -0.008814  -0.000337  -0.054064   0.002156
    26  O    0.000000   0.000000   0.000031  -0.000037   0.002082  -0.000062
    27  N    0.000009   0.000002   0.018235  -0.126981   0.004157  -0.000026
    28  H    0.000052  -0.000006   0.001195   0.018649  -0.003217  -0.000104
    29  C    0.000000   0.000000   0.000437   0.004130  -0.000164   0.000012
    30  H    0.000000   0.000000  -0.000019  -0.000114  -0.000009   0.000000
    31  C    0.000000   0.000000  -0.000050  -0.000072   0.000031  -0.000003
    32  H    0.000000   0.000000  -0.000003  -0.000007   0.000006   0.000001
    33  H    0.000000   0.000000   0.000000   0.000001  -0.000001   0.000000
    34  H    0.000000   0.000000  -0.000002   0.000000  -0.000021   0.000000
    35  C    0.000000   0.000000  -0.000017   0.000843  -0.000035   0.000000
    36  O    0.000001   0.000001  -0.000294  -0.002981   0.000012   0.000000
    37  N    0.000000   0.000000  -0.000001  -0.000002   0.000000   0.000000
    38  H    0.000000   0.000000   0.000000   0.000000   0.000000   0.000000
    39  C    0.000000   0.000000   0.000000   0.000000   0.000000   0.000000
    40  H    0.000000   0.000000   0.000000   0.000000   0.000000   0.000000
    41  H    0.000000   0.000000   0.000000   0.000000   0.000000   0.000000
    42  H    0.000000   0.000000   0.000000   0.000000   0.000000   0.000000
             19         20         21         22         23         24
     1  H    0.000000   0.000000   0.000000   0.000000   0.000000   0.000000
     2  C    0.000000   0.000000   0.000000   0.000000   0.000000   0.000000
     3  H    0.000000   0.000000   0.000000   0.000000   0.000000   0.000000
     4  H    0.000000   0.000000   0.000000   0.000000   0.000000   0.000000
     5  C    0.000001   0.000000   0.000000   0.000000   0.000000   0.000000
     6  O    0.000000   0.000000   0.000000   0.000000   0.000000   0.000000
     7  N   -0.000045  -0.000001   0.000000   0.000000   0.000000   0.000000
     8  H   -0.000020  -0.000001   0.000000   0.000000   0.000000   0.000000
     9  C    0.003690  -0.000069  -0.000051  -0.000013   0.000001  -0.000007
    10  H   -0.000281   0.000005  -0.000007   0.000001   0.000000   0.000001
    11  C    0.000145  -0.000007  -0.000017  -0.000003   0.000000  -0.000001
    12  H   -0.000092   0.000001  -0.000002   0.000001   0.000000   0.000000
    13  H    0.000298   0.000001  -0.000014   0.000028   0.000000  -0.000007
    14  H    0.000000   0.000000   0.000000   0.000000   0.000000   0.000000
    15  C   -0.032113   0.000517   0.003057  -0.000104  -0.000021  -0.000234
    16  O    0.013370   0.001479   0.000267  -0.000009   0.000004   0.000000
    17  N    0.140635  -0.044145  -0.050283  -0.000975   0.003440  -0.001996
    18  H   -0.019948   0.001640  -0.004394   0.001672   0.000024   0.001662
    19  C    5.101728   0.405909   0.348027  -0.038571  -0.029707  -0.044958
    20  H    0.405909   0.476429  -0.033103   0.004031  -0.001015  -0.003709
    21  C    0.348027  -0.033103   5.129331   0.389433   0.392850   0.387132
    22  H   -0.038571   0.004031   0.389433   0.521704  -0.016652  -0.029211
    23  H   -0.029707  -0.001015   0.392850  -0.016652   0.443265  -0.022161
    24  H   -0.044958  -0.003709   0.387132  -0.029211  -0.022161   0.543183
    25  C    0.376969  -0.037513  -0.058871  -0.006237  -0.004222   0.006273
    26  O   -0.077145   0.001246  -0.000511   0.001013   0.005766   0.000465
    27  N   -0.111490   0.000079   0.002559   0.000090   0.000306  -0.000044
    28  H   -0.003352  -0.000174  -0.000343  -0.000010  -0.000004   0.000004
    29  C    0.005165  -0.000191  -0.000126  -0.000026  -0.000006   0.000002
    30  H   -0.000144   0.000025  -0.000014   0.000001   0.000001   0.000000
    31  C   -0.000557  -0.000002   0.000027   0.000006   0.000002   0.000000
    32  H   -0.000042   0.000001  -0.000006   0.000005   0.000000   0.000000
    33  H    0.000008   0.000000   0.000000   0.000000   0.000000   0.000000
    34  H    0.000296  -0.000004   0.000006  -0.000001  -0.000002   0.000000
    35  C    0.000068  -0.000005   0.000000   0.000000   0.000000   0.000000
    36  O   -0.000022   0.000000   0.000000   0.000000   0.000000   0.000000
    37  N    0.000000   0.000000   0.000000   0.000000   0.000000   0.000000
    38  H    0.000000   0.000000   0.000000   0.000000   0.000000   0.000000
    39  C    0.000000   0.000000   0.000000   0.000000   0.000000   0.000000
    40  H    0.000000   0.000000   0.000000   0.000000   0.000000   0.000000
    41  H    0.000000   0.000000   0.000000   0.000000   0.000000   0.000000
    42  H    0.000000   0.000000   0.000000   0.000000   0.000000   0.000000
             25         26         27         28         29         30
     1  H    0.000000   0.000000   0.000000   0.000000   0.000000   0.000000
     2  C    0.000000   0.000000   0.000000   0.000000   0.000000   0.000000
     3  H    0.000000   0.000000   0.000000   0.000000   0.000000   0.000000
     4  H    0.000000   0.000000   0.000000   0.000000   0.000000   0.000000
     5  C    0.000000   0.000000   0.000000   0.000003   0.000000   0.000000
     6  O    0.000000   0.000000   0.000000   0.000000   0.000000   0.000000
     7  N   -0.000001   0.000000  -0.000019   0.000170   0.000002   0.000000
     8  H    0.000003   0.000000   0.000029   0.000340  -0.000007   0.000000
     9  C   -0.000034   0.000000  -0.000859  -0.002341   0.000019   0.000000
    10  H    0.000014   0.000000  -0.000039   0.000154   0.000000   0.000000
    11  C   -0.000054   0.000000   0.000477  -0.000326  -0.000006   0.000000
    12  H    0.000044   0.000000   0.000121   0.000853  -0.000045   0.000001
    13  H   -0.000047   0.000000   0.000009   0.000052   0.000000   0.000000
    14  H   -0.000001   0.000000   0.000002  -0.000006   0.000000   0.000000
    15  C   -0.008814   0.000031   0.018235   0.001195   0.000437  -0.000019
    16  O   -0.000337  -0.000037  -0.126981   0.018649   0.004130  -0.000114
    17  N   -0.054064   0.002082   0.004157  -0.003217  -0.000164  -0.000009
    18  H    0.002156  -0.000062  -0.000026  -0.000104   0.000012   0.000000
    19  C    0.376969  -0.077145  -0.111490  -0.003352   0.005165  -0.000144
    20  H   -0.037513   0.001246   0.000079  -0.000174  -0.000191   0.000025
    21  C   -0.058871  -0.000511   0.002559  -0.000343  -0.000126  -0.000014
    22  H   -0.006237   0.001013   0.000090  -0.000010  -0.000026   0.000001
    23  H   -0.004222   0.005766   0.000306  -0.000004  -0.000006   0.000001
    24  H    0.006273   0.000465  -0.000044   0.000004   0.000002   0.000000
    25  C    4.109288   0.563304   0.341476  -0.003862  -0.034570  -0.002887
    26  O    0.563304   8.267145  -0.105051   0.001220   0.011628   0.003273
    27  N    0.341476  -0.105051   7.574039   0.229410   0.211061  -0.041753
    28  H   -0.003862   0.001220   0.229410   0.217698  -0.025554   0.003383
    29  C   -0.034570   0.011628   0.211061  -0.025554   5.005408   0.403297
    30  H   -0.002887   0.003273  -0.041753   0.003383   0.403297   0.509799
    31  C   -0.003516  -0.014669  -0.063711   0.001054   0.335369  -0.047167
    32  H   -0.000028  -0.000032   0.001627   0.000541  -0.042335   0.004658
    33  H    0.000259   0.000225   0.005167  -0.000023  -0.042750   0.000487
    34  H    0.000493   0.010194  -0.005912  -0.000226  -0.026423  -0.004202
    35  C    0.003360   0.000399  -0.036696  -0.005319   0.385931  -0.037192
    36  O    0.000247  -0.000002  -0.003739   0.020738  -0.078488   0.001045
    37  N   -0.000090  -0.000001   0.002734   0.000690  -0.116659   0.002012
    38  H    0.000001   0.000001   0.000027  -0.000021   0.001161   0.000497
    39  C    0.000001   0.000000  -0.000052  -0.000009   0.003709  -0.000227
    40  H    0.000000   0.000000  -0.000004  -0.000009   0.000603  -0.000019
    41  H    0.000000   0.000000   0.000000   0.000000  -0.000107   0.000011
    42  H    0.000000   0.000000   0.000001   0.000000  -0.000001  -0.000002
             31         32         33         34         35         36
     1  H    0.000000   0.000000   0.000000   0.000000   0.000000   0.000000
     2  C    0.000000   0.000000   0.000000   0.000000   0.000000  -0.000005
     3  H    0.000000   0.000000   0.000000   0.000000   0.000000   0.000000
     4  H    0.000000   0.000000   0.000000   0.000000   0.000000   0.000012
     5  C    0.000000   0.000000   0.000000   0.000000   0.000000   0.000001
     6  O    0.000000   0.000000   0.000000   0.000000   0.000000   0.000000
     7  N    0.000000   0.000000   0.000000   0.000000   0.000025  -0.000137
     8  H    0.000000   0.000000   0.000000   0.000000  -0.000002   0.001033
     9  C    0.000000  -0.000002   0.000000   0.000000   0.000005   0.000248
    10  H    0.000000   0.000000   0.000000   0.000000   0.000000   0.000001
    11  C    0.000000   0.000000   0.000000   0.000000  -0.000019  -0.000250
    12  H   -0.000017   0.000094   0.000000   0.000000   0.000101   0.000937
    13  H    0.000000   0.000000   0.000000   0.000000   0.000000   0.000001
    14  H    0.000000   0.000000   0.000000   0.000000   0.000000   0.000001
    15  C   -0.000050  -0.000003   0.000000  -0.000002  -0.000017  -0.000294
    16  O   -0.000072  -0.000007   0.000001   0.000000   0.000843  -0.002981
    17  N    0.000031   0.000006  -0.000001  -0.000021  -0.000035   0.000012
    18  H   -0.000003   0.000001   0.000000   0.000000   0.000000   0.000000
    19  C   -0.000557  -0.000042   0.000008   0.000296   0.000068  -0.000022
    20  H   -0.000002   0.000001   0.000000  -0.000004  -0.000005   0.000000
    21  C    0.000027  -0.000006   0.000000   0.000006   0.000000   0.000000
    22  H    0.000006   0.000005   0.000000  -0.000001   0.000000   0.000000
    23  H    0.000002   0.000000   0.000000  -0.000002   0.000000   0.000000
    24  H    0.000000   0.000000   0.000000   0.000000   0.000000   0.000000
    25  C   -0.003516  -0.000028   0.000259   0.000493   0.003360   0.000247
    26  O   -0.014669  -0.000032   0.000225   0.010194   0.000399  -0.000002
    27  N   -0.063711   0.001627   0.005167  -0.005912  -0.036696  -0.003739
    28  H    0.001054   0.000541  -0.000023  -0.000226  -0.005319   0.020738
    29  C    0.335369  -0.042335  -0.042750  -0.026423   0.385931  -0.078488
    30  H   -0.047167   0.004658   0.000487  -0.004202  -0.037192   0.001045
    31  C    5.210549   0.384307   0.375900   0.389205  -0.064358   0.000132
    32  H    0.384307   0.534254  -0.024604  -0.021346  -0.002849   0.000647
    33  H    0.375900  -0.024604   0.577518  -0.021192  -0.006388   0.000022
    34  H    0.389205  -0.021346  -0.021192   0.434184   0.003902  -0.000066
    35  C   -0.064358  -0.002849  -0.006388   0.003902   4.148397   0.589909
    36  O    0.000132   0.000647   0.000022  -0.000066   0.589909   8.218539
    37  N    0.002979   0.000194   0.000070   0.000085   0.281946  -0.097574
    38  H    0.000023  -0.000003   0.002600  -0.000084  -0.020623   0.002348
    39  C   -0.000086  -0.000045   0.000164   0.000003  -0.025250  -0.004995
    40  H   -0.000050  -0.000002  -0.000008   0.000000  -0.001808   0.010713
    41  H   -0.000005   0.000001   0.000003   0.000000   0.000776   0.000367
    42  H    0.000014   0.000002  -0.000002  -0.000001   0.000916   0.000375
             37         38         39         40         41         42
     1  H    0.000000   0.000000   0.000000   0.000000   0.000000   0.000000
     2  C    0.000000   0.000000   0.000000   0.000000   0.000000   0.000000
     3  H    0.000000   0.000000   0.000000   0.000000   0.000000   0.000000
     4  H    0.000000   0.000000   0.000000   0.000001   0.000000   0.000000
     5  C    0.000000   0.000000   0.000000   0.000000   0.000000   0.000000
     6  O    0.000000   0.000000   0.000000   0.000000   0.000000   0.000000
     7  N    0.000000   0.000000   0.000000   0.000000   0.000000   0.000000
     8  H    0.000001   0.000000   0.000000   0.000000   0.000000   0.000000
     9  C    0.000000   0.000000   0.000000   0.000000   0.000000   0.000000
    10  H    0.000000   0.000000   0.000000   0.000000   0.000000   0.000000
    11  C    0.000000   0.000000   0.000000   0.000000   0.000000   0.000000
    12  H   -0.000001   0.000000   0.000000   0.000000   0.000000   0.000000
    13  H    0.000000   0.000000   0.000000   0.000000   0.000000   0.000000
    14  H    0.000000   0.000000   0.000000   0.000000   0.000000   0.000000
    15  C   -0.000001   0.000000   0.000000   0.000000   0.000000   0.000000
    16  O   -0.000002   0.000000   0.000000   0.000000   0.000000   0.000000
    17  N    0.000000   0.000000   0.000000   0.000000   0.000000   0.000000
    18  H    0.000000   0.000000   0.000000   0.000000   0.000000   0.000000
    19  C    0.000000   0.000000   0.000000   0.000000   0.000000   0.000000
    20  H    0.000000   0.000000   0.000000   0.000000   0.000000   0.000000
    21  C    0.000000   0.000000   0.000000   0.000000   0.000000   0.000000
    22  H    0.000000   0.000000   0.000000   0.000000   0.000000   0.000000
    23  H    0.000000   0.000000   0.000000   0.000000   0.000000   0.000000
    24  H    0.000000   0.000000   0.000000   0.000000   0.000000   0.000000
    25  C   -0.000090   0.000001   0.000001   0.000000   0.000000   0.000000
    26  O   -0.000001   0.000001   0.000000   0.000000   0.000000   0.000000
    27  N    0.002734   0.000027  -0.000052  -0.000004   0.000000   0.000001
    28  H    0.000690  -0.000021  -0.000009  -0.000009   0.000000   0.000000
    29  C   -0.116659   0.001161   0.003709   0.000603  -0.000107  -0.000001
    30  H    0.002012   0.000497  -0.000227  -0.000019   0.000011  -0.000002
    31  C    0.002979   0.000023  -0.000086  -0.000050  -0.000005   0.000014
    32  H    0.000194  -0.000003  -0.000045  -0.000002   0.000001   0.000002
    33  H    0.000070   0.002600   0.000164  -0.000008   0.000003  -0.000002
    34  H    0.000085  -0.000084   0.000003   0.000000   0.000000  -0.000001
    35  C    0.281946  -0.020623  -0.025250  -0.001808   0.000776   0.000916
    36  O   -0.097574   0.002348  -0.004995   0.010713   0.000367   0.000375
[...]
    29  C   -0.000008   0.000000   0.000115   0.000465  -0.000242  -0.000001
    30  H    0.000000   0.000000   0.000003  -0.000002  -0.000012   0.000000
    31  C    0.000002   0.000000  -0.000021  -0.000007   0.000027  -0.000001
    32  H    0.000037   0.000000   0.000001  -0.000001   0.000000   0.000001
    33  H    0.000000   0.000000   0.000000   0.000000   0.000000   0.000000
    34  H    0.000000   0.000000  -0.000001   0.000000  -0.000012   0.000000
    35  C   -0.000001   0.000000  -0.000027  -0.000073  -0.000006   0.000000
    36  O   -0.000002   0.000001  -0.000142  -0.000168   0.000010   0.000000
    37  N    0.000000   0.000000   0.000000  -0.000001   0.000000   0.000000
    38  H    0.000000   0.000000   0.000000   0.000000   0.000000   0.000000
    39  C    0.000000   0.000000   0.000000   0.000000   0.000000   0.000000
    40  H    0.000000   0.000000   0.000000   0.000000   0.000000   0.000000
    41  H    0.000000   0.000000   0.000000   0.000000   0.000000   0.000000
    42  H    0.000000   0.000000   0.000000   0.000000   0.000000   0.000000
             19         20         21         22         23         24
     1  H    0.000000   0.000000   0.000000   0.000000   0.000000   0.000000
     2  C    0.000000   0.000000   0.000000   0.000000   0.000000   0.000000
     3  H    0.000000   0.000000   0.000000   0.000000   0.000000   0.000000
     4  H    0.000000   0.000000   0.000000   0.000000   0.000000   0.000000
     5  C    0.000001   0.000000   0.000000   0.000000   0.000000   0.000000
     6  O    0.000000   0.000000   0.000000   0.000000   0.000000   0.000000
     7  N   -0.000090   0.000006   0.000001   0.000000   0.000000   0.000000
     8  H   -0.000021  -0.000001   0.000000   0.000000   0.000000   0.000000
     9  C    0.004578  -0.000024  -0.000077  -0.000010   0.000002  -0.000014
    10  H    0.000064  -0.000015  -0.000023  -0.000001   0.000000   0.000002
    11  C   -0.000443  -0.000008  -0.000002  -0.000001   0.000000   0.000001
    12  H    0.000002   0.000000  -0.000001   0.000000   0.000000   0.000000
    13  H   -0.000094   0.000004  -0.000004   0.000006   0.000000   0.000000
    14  H    0.000003   0.000000   0.000000   0.000000   0.000000   0.000000
    15  C   -0.023483  -0.001062   0.002682  -0.000216  -0.000011  -0.000113
    16  O    0.011824   0.002488   0.000228  -0.000004   0.000002  -0.000003
    17  N    0.156831  -0.042843  -0.058934  -0.002608   0.003641  -0.001550
    18  H   -0.024942   0.003094  -0.004041   0.003509   0.000033   0.000088
    19  C    5.060179   0.404455   0.349065  -0.036007  -0.030207  -0.042146
    20  H    0.404455   0.479754  -0.032182   0.003893  -0.001619  -0.003756
    21  C    0.349065  -0.032182   5.123976   0.387505   0.394921   0.391464
    22  H   -0.036007   0.003893   0.387505   0.529938  -0.019850  -0.029102
    23  H   -0.030207  -0.001619   0.394921  -0.019850   0.450310  -0.021832
    24  H   -0.042146  -0.003756   0.391464  -0.029102  -0.021832   0.524073
    25  C    0.380374  -0.042708  -0.052187  -0.005619  -0.003106   0.005274
    26  O   -0.076879   0.001427  -0.000391   0.001217   0.004901   0.000344
    27  N   -0.105288   0.000441   0.002510   0.000048   0.000210  -0.000031
    28  H    0.001441  -0.000412  -0.000011  -0.000010  -0.000003   0.000001
    29  C    0.004681  -0.000200  -0.000094  -0.000017  -0.000006   0.000002
    30  H    0.000139   0.000005  -0.000018   0.000000   0.000001   0.000000
    31  C   -0.000329  -0.000001   0.000015   0.000002   0.000001   0.000000
    32  H   -0.000008   0.000001  -0.000001   0.000000   0.000000   0.000000
    33  H    0.000003   0.000000   0.000000   0.000000   0.000000   0.000000
    34  H    0.000128  -0.000001   0.000002   0.000001  -0.000001   0.000000
    35  C    0.000030  -0.000004   0.000000   0.000000   0.000000   0.000000
    36  O   -0.000025   0.000000   0.000000   0.000000   0.000000   0.000000
    37  N    0.000000   0.000000   0.000000   0.000000   0.000000   0.000000
    38  H    0.000000   0.000000   0.000000   0.000000   0.000000   0.000000
    39  C    0.000000   0.000000   0.000000   0.000000   0.000000   0.000000
    40  H    0.000000   0.000000   0.000000   0.000000   0.000000   0.000000
    41  H    0.000000   0.000000   0.000000   0.000000   0.000000   0.000000
    42  H    0.000000   0.000000   0.000000   0.000000   0.000000   0.000000
             25         26         27         28         29         30
     1  H    0.000000   0.000000   0.000000   0.000000   0.000000   0.000000
     2  C    0.000000   0.000000   0.000000   0.000000   0.000000   0.000000
     3  H    0.000000   0.000000   0.000000   0.000000   0.000000   0.000000
     4  H    0.000000   0.000000   0.000000   0.000000   0.000000   0.000000
     5  C    0.000000   0.000000   0.000000  -0.000001   0.000000   0.000000
     6  O    0.000000   0.000000   0.000000   0.000000   0.000000   0.000000
     7  N   -0.000001   0.000000   0.000008  -0.000039   0.000000   0.000000
     8  H    0.000001   0.000000   0.000001   0.000008   0.000000   0.000000
     9  C   -0.000215   0.000000  -0.000792   0.000729   0.000011   0.000000
    10  H    0.000003   0.000000  -0.000007   0.000000   0.000000   0.000000
    11  C    0.000116   0.000000   0.000414  -0.000426   0.000001   0.000000
    12  H    0.000012   0.000000   0.000096   0.000311  -0.000036   0.000001
    13  H    0.000014   0.000000   0.000171  -0.000016  -0.000008   0.000000
    14  H   -0.000001   0.000000   0.000004   0.000009   0.000000   0.000000
    15  C   -0.004050  -0.000004   0.005098   0.001289   0.000115   0.000003
    16  O   -0.002593  -0.000002  -0.013501   0.022749   0.000465  -0.000002
    17  N   -0.045646   0.002060   0.005443  -0.003893  -0.000242  -0.000012
    18  H    0.000514  -0.000031   0.000169  -0.000169  -0.000001   0.000000
    19  C    0.380374  -0.076879  -0.105288   0.001441   0.004681   0.000139
    20  H   -0.042708   0.001427   0.000441  -0.000412  -0.000200   0.000005
    21  C   -0.052187  -0.000391   0.002510  -0.000011  -0.000094  -0.000018
    22  H   -0.005619   0.001217   0.000048  -0.000010  -0.000017   0.000000
    23  H   -0.003106   0.004901   0.000210  -0.000003  -0.000006   0.000001
    24  H    0.005274   0.000344  -0.000031   0.000001   0.000002   0.000000
    25  C    4.132489   0.575016   0.316410  -0.007910  -0.034891  -0.001305
    26  O    0.575016   8.214196  -0.106848   0.001460   0.008702   0.006333
    27  N    0.316410  -0.106848   7.460772   0.270785   0.190805  -0.045966
    28  H   -0.007910   0.001460   0.270785   0.235084  -0.025800   0.001879
    29  C   -0.034891   0.008702   0.190805  -0.025800   5.036641   0.414095
    30  H   -0.001305   0.006333  -0.045966   0.001879   0.414095   0.500497
    31  C   -0.002481  -0.005396  -0.061286   0.002527   0.335281  -0.042102
    32  H    0.000238   0.000000   0.000576   0.000134  -0.039198   0.004108
    33  H    0.000062   0.000031   0.004518  -0.000035  -0.037628   0.000433
    34  H    0.002059   0.005473  -0.005361  -0.000148  -0.029374  -0.003772
    35  C    0.003539   0.000530  -0.033114  -0.005033   0.372754  -0.047694
    36  O    0.000313  -0.000004  -0.006358   0.019727  -0.077010   0.001914
    37  N   -0.000113  -0.000002   0.002341   0.000923  -0.113103   0.004529
    38  H   -0.000008  -0.000002  -0.000006  -0.000036   0.000591   0.001849
    39  C    0.000002   0.000000  -0.000077  -0.000029   0.004557  -0.000057
    40  H    0.000000   0.000000   0.000009   0.000004  -0.000164  -0.000004
    41  H    0.000000   0.000000   0.000000   0.000000   0.000002  -0.000014
    42  H    0.000000   0.000000  -0.000005  -0.000004   0.000110  -0.000001
             31         32         33         34         35         36
     1  H    0.000000   0.000000   0.000000   0.000000   0.000000   0.000000
     2  C    0.000000   0.000000   0.000000   0.000000   0.000000   0.000000
     3  H    0.000000   0.000000   0.000000   0.000000   0.000000   0.000000
     4  H    0.000000   0.000000   0.000000   0.000000   0.000000   0.000000
     5  C    0.000000   0.000000   0.000000   0.000000   0.000000   0.000000
     6  O    0.000000   0.000000   0.000000   0.000000   0.000000   0.000000
     7  N    0.000000   0.000000   0.000000   0.000000   0.000000  -0.000002
     8  H    0.000000   0.000000   0.000000   0.000000   0.000001   0.000004
     9  C    0.000000  -0.000003   0.000000   0.000000  -0.000003   0.000018
    10  H    0.000000   0.000000   0.000000   0.000000   0.000000   0.000000
    11  C   -0.000007   0.000017   0.000000   0.000000  -0.000001  -0.000293
    12  H   -0.000008   0.000075   0.000000   0.000000   0.000025   0.001602
    13  H    0.000002   0.000037   0.000000   0.000000  -0.000001  -0.000002
    14  H    0.000000   0.000000   0.000000   0.000000   0.000000   0.000001
    15  C   -0.000021   0.000001   0.000000  -0.000001  -0.000027  -0.000142
    16  O   -0.000007  -0.000001   0.000000   0.000000  -0.000073  -0.000168
    17  N    0.000027   0.000000   0.000000  -0.000012  -0.000006   0.000010
    18  H   -0.000001   0.000001   0.000000   0.000000   0.000000   0.000000
    19  C   -0.000329  -0.000008   0.000003   0.000128   0.000030  -0.000025
    20  H   -0.000001   0.000001   0.000000  -0.000001  -0.000004   0.000000
    21  C    0.000015  -0.000001   0.000000   0.000002   0.000000   0.000000
    22  H    0.000002   0.000000   0.000000   0.000001   0.000000   0.000000
    23  H    0.000001   0.000000   0.000000  -0.000001   0.000000   0.000000
    24  H    0.000000   0.000000   0.000000   0.000000   0.000000   0.000000
    25  C   -0.002481   0.000238   0.000062   0.002059   0.003539   0.000313
    26  O   -0.005396   0.000000   0.000031   0.005473   0.000530  -0.000004
    27  N   -0.061286   0.000576   0.004518  -0.005361  -0.033114  -0.006358
    28  H    0.002527   0.000134  -0.000035  -0.000148  -0.005033   0.019727
    29  C    0.335281  -0.039198  -0.037628  -0.029374   0.372754  -0.077010
    30  H   -0.042102   0.004108   0.000433  -0.003772  -0.047694   0.001914
    31  C    5.151267   0.388502   0.381778   0.391802  -0.049615  -0.000881
    32  H    0.388502   0.514986  -0.024202  -0.023157  -0.004345   0.002050
    33  H    0.381778  -0.024202   0.538325  -0.022910  -0.003474   0.000021
    34  H    0.391802  -0.023157  -0.022910   0.470821   0.004223  -0.000069
    35  C   -0.049615  -0.004345  -0.003474   0.004223   4.180817   0.594003
    36  O   -0.000881   0.002050   0.000021  -0.000069   0.594003   8.176135
    37  N    0.000486   0.000495   0.002539  -0.000059   0.277385  -0.103997
    38  H    0.000206   0.000006   0.000352  -0.000032  -0.021425   0.002523
    39  C   -0.000283  -0.000007  -0.000027   0.000003  -0.029198   0.008641
    40  H   -0.000007   0.000000   0.000004   0.000000  -0.003778   0.001252
    41  H    0.000005   0.000000  -0.000006   0.000000   0.004588   0.000363
    42  H    0.000016   0.000003  -0.000014   0.000000  -0.002865   0.003148
             37         38         39         40         41         42
     1  H    0.000000   0.000000   0.000000   0.000000   0.000000   0.000000
     2  C    0.000000   0.000000   0.000000   0.000000   0.000000   0.000000
     3  H    0.000000   0.000000   0.000000   0.000000   0.000000   0.000000
     4  H    0.000000   0.000000   0.000000   0.000000   0.000000   0.000000
     5  C    0.000000   0.000000   0.000000   0.000000   0.000000   0.000000
     6  O    0.000000   0.000000   0.000000   0.000000   0.000000   0.000000
     7  N    0.000000   0.000000   0.000000   0.000000   0.000000   0.000000
     8  H    0.000000   0.000000   0.000000   0.000000   0.000000   0.000000
     9  C    0.000000   0.000000   0.000000   0.000000   0.000000   0.000000
    10  H    0.000000   0.000000   0.000000   0.000000   0.000000   0.000000
    11  C    0.000000   0.000000   0.000000   0.000000   0.000000   0.000000
    12  H    0.000002   0.000000   0.000000   0.000000   0.000000   0.000000
    13  H    0.000000   0.000000   0.000000   0.000000   0.000000   0.000000
    14  H    0.000000   0.000000   0.000000   0.000000   0.000000   0.000000
    15  C    0.000000   0.000000   0.000000   0.000000   0.000000   0.000000
    16  O   -0.000001   0.000000   0.000000   0.000000   0.000000   0.000000
    17  N    0.000000   0.000000   0.000000   0.000000   0.000000   0.000000
    18  H    0.000000   0.000000   0.000000   0.000000   0.000000   0.000000
    19  C    0.000000   0.000000   0.000000   0.000000   0.000000   0.000000
    20  H    0.000000   0.000000   0.000000   0.000000   0.000000   0.000000
    21  C    0.000000   0.000000   0.000000   0.000000   0.000000   0.000000
    22  H    0.000000   0.000000   0.000000   0.000000   0.000000   0.000000
    23  H    0.000000   0.000000   0.000000   0.000000   0.000000   0.000000
    24  H    0.000000   0.000000   0.000000   0.000000   0.000000   0.000000
    25  C   -0.000113  -0.000008   0.000002   0.000000   0.000000   0.000000
    26  O   -0.000002  -0.000002   0.000000   0.000000   0.000000   0.000000
    27  N    0.002341  -0.000006  -0.000077   0.000009   0.000000  -0.000005
    28  H    0.000923  -0.000036  -0.000029   0.000004   0.000000  -0.000004
    29  C   -0.113103   0.000591   0.004557  -0.000164   0.000002   0.000110
    30  H    0.004529   0.001849  -0.000057  -0.000004  -0.000014  -0.000001
    31  C    0.000486   0.000206  -0.000283  -0.000007   0.000005   0.000016
    32  H    0.000495   0.000006  -0.000007   0.000000   0.000000   0.000003
    33  H    0.002539   0.000352  -0.000027   0.000004  -0.000006  -0.000014
    34  H   -0.000059  -0.000032   0.000003   0.000000   0.000000   0.000000
    35  C    0.277385  -0.021425  -0.029198  -0.003778   0.004588  -0.002865
    36  O   -0.103997   0.002523   0.008641   0.001252   0.000363   0.003148
    37  N    7.328037   0.328076   0.195973  -0.045491  -0.037307  -0.040897
    38  H    0.328076   0.321845  -0.022395   0.001373  -0.004607   0.002516
    39  C    0.195973  -0.022395   4.907022   0.406354   0.397197   0.404384
    40  H   -0.045491   0.001373   0.406354   0.519496  -0.030998  -0.032991
    41  H   -0.037307  -0.004607   0.397197  -0.030998   0.525229  -0.025095
    42  H   -0.040897   0.002516   0.404384  -0.032991  -0.025095   0.490410
 Mulliken atomic charges:
              1
     1  H    0.208703
     2  C   -0.577425
     3  H    0.175818
     4  H    0.202553
     5  C    0.756435
     6  O   -0.622154
     7  N   -0.819758
     8  H    0.420551
     9  C   -0.036804
    10  H    0.222278
    11  C   -0.500642
    12  H    0.201140
    13  H    0.154540
    14  H    0.211561
    15  C    0.792855
    16  O   -0.647091
    17  N   -0.820596
    18  H    0.393680
    19  C   -0.033836
    20  H    0.229270
    21  C   -0.504403
    22  H    0.167324
    23  H    0.222613
    24  H    0.177300
    25  C    0.786397
    26  O   -0.632133
    27  N   -0.882188
    28  H    0.484914
    29  C   -0.011040
    30  H    0.205162
    31  C   -0.489491
    32  H    0.179693
    33  H    0.160228
    34  H    0.210385
    35  C    0.762763
    36  O   -0.622775
    37  N   -0.799815
    38  H    0.389175
    39  C   -0.272060
    40  H    0.184942
    41  H    0.170644
    42  H    0.201287
 Sum of Mulliken atomic charges =   0.00000
 Mulliken charges with hydrogens summed into heavy atoms:
              1
     2  C    0.009650
     5  C    0.756435
     6  O   -0.622154
     7  N   -0.399207
     9  C    0.185474
    11  C    0.066599
    15  C    0.792855
    16  O   -0.647091
    17  N   -0.426915
    19  C    0.195434
    21  C    0.062834
    25  C    0.786397
    26  O   -0.632133
    27  N   -0.397274
    29  C    0.194121
    31  C    0.060814
    35  C    0.762763
    36  O   -0.622775
    37  N   -0.410641
    39  C    0.284812
 Sum of Mulliken charges with hydrogens summed into heavy atoms =   0.00000
 Electronic spatial extent (au):  <R**2>=           7605.4490
 Charge=              0.0000 electrons
 Dipole moment (field-independent basis, Debye):
    X=              3.3668    Y=             -1.0395    Z=             -0.5912  Tot=              3.5729
 Quadrupole moment (field-independent basis, Debye-Ang):
   XX=           -122.4548   YY=           -112.5905   ZZ=           -120.8226
   XY=            -13.5766   XZ=              7.3107   YZ=              4.3802
 Traceless Quadrupole moment (field-independent basis, Debye-Ang):
   XX=             -3.8322   YY=              6.0322   ZZ=             -2.2000
   XY=            -13.5766   XZ=              7.3107   YZ=              4.3802
 Octapole moment (field-independent basis, Debye-Ang**2):
  XXX=            199.9273  YYY=            -25.8222  ZZZ=             -2.4909  XYY=            -27.2089
  XXY=           -106.3340  XXZ=            -73.1107  XZZ=              9.3582  YZZ=              2.3370
  YYZ=             -8.5667  XYZ=             -3.8283
 Hexadecapole moment (field-independent basis, Debye-Ang**3):
 XXXX=          -6536.3420 YYYY=          -2823.9746 ZZZZ=           -629.5862 XXXY=           -205.9580
 XXXZ=            284.4855 YYYX=           -152.9640 YYYZ=             16.2062 ZZZX=            -11.1962
 ZZZY=              0.1727 XXYY=          -1410.7572 XXZZ=          -1194.4121 YYZZ=           -576.5050
 XXYZ=             90.4030 YYXZ=            -26.8150 ZZXY=              5.3362
 N-N= 1.665570145262D+03 E-N=-5.639230224048D+03  KE= 9.830910069367D+02
 1\1\GINC-NODE007\FOpt\RHF\6-31G(d)\C12H22N4O4\MANAGER\27-Dec-2016\0\\#
  HF/6-31G* Opt=(ModRedundant, maxcycles=1000, calcfc) geom=nocrowd\\Ph
 i Psi fixed scan\\0,1\H,5.7115931871,0.921785915,-3.4785572887\C,6.538
 6387806,1.576898125,-3.2416835133\H,6.7252787224,2.245355545,-4.073460
 8496\H,7.4196444451,0.9626411006,-3.0869152585\C,6.2265405616,2.307518
 7521,-1.9540809875\O,5.6539438436,1.7705053258,-1.0418771754\N,6.65138
 29529,3.5865583886,-1.8902089858\H,7.1387871864,4.0080236064,-2.648876
 1659\C,6.46992954,4.3955987724,-0.711549872\H,5.4980836851,4.169072359
 ,-0.292959533\C,7.5520504822,4.1316671154,0.3469828147\H,8.5328200853,
 4.3754520562,-0.0461843314\H,7.3836169881,4.7218414411,1.2427124808\H,
 7.5287031739,3.0850877104,0.6203588264\C,6.5247975454,5.8554257754,-1.
 1430887349\O,7.1184151601,6.1921596842,-2.1376732269\N,5.8815189596,6.
 7282633413,-0.3429418514\H,5.4970300433,6.3544975194,0.4966763332\C,6.
 0316026417,8.1812714677,-0.3600452419\H,5.7916964093,8.5106545605,-1.3
 662251367\C,5.0088825501,8.7767484443,0.6025684709\H,5.2145928117,8.47
 44176495,1.6251477295\H,5.0422177971,9.8539195419,0.5657125132\H,4.014
 3162863,8.4401828275,0.3319119516\C,7.4353658437,8.7603595352,-0.08372
 85282\O,7.5149163771,9.8523737146,0.421962007\N,8.5219245754,8.0513527
 204,-0.4286119352\H,8.4494118881,7.2643093204,-1.0365217494\C,9.847897
 7027,8.5917617087,-0.2188792196\H,9.8530263338,9.6364352378,-0.5070726
 749\C,10.2852159133,8.4796750149,1.247702451\H,10.3066966415,7.4389176
 067,1.5510167376\H,11.2740032184,8.9026961781,1.3923125996\H,9.5872925
 371,9.017658626,1.8745090602\C,10.8137412328,7.8062605695,-1.099785592
 1\O,10.5923466697,6.6690892508,-1.4237687893\N,11.9438614356,8.4541639
 021,-1.4388721077\H,12.0225239261,9.42379593,-1.2382849562\C,12.961803
 3293,7.827411625,-2.2563409031\H,12.6268692557,7.6949850156,-3.2786668
 163\H,13.8434185624,8.4540698384,-2.2517548942\H,13.2164007188,6.85833
 7181,-1.8517576565\\Version=EM64L-G09RevA.02\State=1-A\HF=-984.5589518
 \RMSD=5.649e-09\RMSF=2.101e-03\Dipole=1.0316623,0.9392095,-0.1716871\Q
 uadrupole=11.0326799,-13.026318,1.993638,1.7090196,-2.1125167,1.553866
 9\PG=C01 [X(C12H22N4O4)]\\@


 Make no judgements where you have no compassion.
                               -- Anne McCaffrey
 Job cpu time:  0 days  2 hours 51 minutes 33.4 seconds.
 File lengths (MBytes):  RWF=    553 Int=      0 D2E=      0 Chk=     11 Scr=      1
 Normal termination of Gaussian 09 at Tue Dec 27 10:34:42 2016.
