 Entering Gaussian System, Link 0=g09
 Initial command:
 /home/steboss/Software/g09/l1.exe /home/steboss/projects/phi_psi_scan/alanine/150/4254/Gau-25789.inp -scrdir=/home/steboss/projects/phi_psi_scan/alanine/150/4254/
 Entering Link 1 = /home/steboss/Software/g09/l1.exe PID=     25791.
  
 Copyright (c) 1988,1990,1992,1993,1995,1998,2003,2009, Gaussian, Inc.
                  All Rights Reserved.
  
 This is part of the Gaussian(R) 09 program.  It is based on
 the Gaussian(R) 03 system (copyright 2003, Gaussian, Inc.),
 the Gaussian(R) 98 system (copyright 1998, Gaussian, Inc.),
 the Gaussian(R) 94 system (copyright 1995, Gaussian, Inc.),
 the Gaussian 92(TM) system (copyright 1992, Gaussian, Inc.),
 the Gaussian 90(TM) system (copyright 1990, Gaussian, Inc.),
 the Gaussian 88(TM) system (copyright 1988, Gaussian, Inc.),
 the Gaussian 86(TM) system (copyright 1986, Carnegie Mellon
 University), and the Gaussian 82(TM) system (copyright 1983,
 Carnegie Mellon University). Gaussian is a federally registered
 trademark of Gaussian, Inc.
  
 This software contains proprietary and confidential information,
 including trade secrets, belonging to Gaussian, Inc.
  
 This software is provided under written license and may be
 used, copied, transmitted, or stored only in accord with that
 written license.
  
 The following legend is applicable only to US Government
 contracts under FAR:
  
                    RESTRICTED RIGHTS LEGEND
  
 Use, reproduction and disclosure by the US Government is
 subject to restrictions as set forth in subparagraphs (a)
 and (c) of the Commercial Computer Software - Restricted
 Rights clause in FAR 52.227-19.
  
 Gaussian, Inc.
 340 Quinnipiac St., Bldg. 40, Wallingford CT 06492
  
  
 ---------------------------------------------------------------
 Warning -- This program may not be used in any manner that
 competes with the business of Gaussian, Inc. or will provide
 assistance to any competitor of Gaussian, Inc.  The licensee
 of this program is prohibited from giving any competitor of
 Gaussian, Inc. access to this program.  By using this program,
 the user acknowledges that Gaussian, Inc. is engaged in the
 business of creating and licensing software in the field of
 computational chemistry and represents and warrants to the
 licensee that it is not a competitor of Gaussian, Inc. and that
 it will not use this program in any manner prohibited above.
 ---------------------------------------------------------------
  

 Cite this work as:
 Gaussian 09, Revision A.02,
 M. J. Frisch, G. W. Trucks, H. B. Schlegel, G. E. Scuseria, 
 M. A. Robb, J. R. Cheeseman, G. Scalmani, V. Barone, B. Mennucci, 
 G. A. Petersson, H. Nakatsuji, M. Caricato, X. Li, H. P. Hratchian, 
 A. F. Izmaylov, J. Bloino, G. Zheng, J. L. Sonnenberg, M. Hada, 
 M. Ehara, K. Toyota, R. Fukuda, J. Hasegawa, M. Ishida, T. Nakajima, 
 Y. Honda, O. Kitao, H. Nakai, T. Vreven, J. A. Montgomery, Jr., 
 J. E. Peralta, F. Ogliaro, M. Bearpark, J. J. Heyd, E. Brothers, 
 K. N. Kudin, V. N. Staroverov, R. Kobayashi, J. Normand, 
 K. Raghavachari, A. Rendell, J. C. Burant, S. S. Iyengar, J. Tomasi, 
 M. Cossi, N. Rega, J. M. Millam, M. Klene, J. E. Knox, J. B. Cross, 
 V. Bakken, C. Adamo, J. Jaramillo, R. Gomperts, R. E. Stratmann, 
 O. Yazyev, A. J. Austin, R. Cammi, C. Pomelli, J. W. Ochterski, 
 R. L. Martin, K. Morokuma, V. G. Zakrzewski, G. A. Voth, 
 P. Salvador, J. J. Dannenberg, S. Dapprich, A. D. Daniels, 
 O. Farkas, J. B. Foresman, J. V. Ortiz, J. Cioslowski, 
 and D. J. Fox, Gaussian, Inc., Wallingford CT, 2009.
 
 ******************************************
 Gaussian 09:  EM64L-G09RevA.02 11-Jun-2009
                10-Feb-2017 
 ******************************************
 %chk=structure_180.chk
 %NProcShared=8
 Will use up to    8 processors via shared memory.
 ----------------------------------------------------------------------
 # b3lyp/6-31G* Opt=(ModRedundant, maxcycles=1000, calcfc) geom=nocrowd
 ----------------------------------------------------------------------
 1/6=1000,10=4,14=-1,18=120,19=15,26=3,38=1/1,3;
 2/9=110,12=1,17=6,18=5,40=1/2;
 3/5=1,6=6,7=1,11=2,16=1,25=1,30=1,71=2,74=-5/1,2,3;
 4//1;
 5/5=2,38=5/2;
 8/6=4,10=90,11=11/1;
 11/6=1,8=1,9=11,15=111,16=1/1,2,10;
 10/6=1,7=6,13=1/2;
 6/7=2,8=2,9=2,10=2,28=1/1;
 7/10=1,18=20,25=1/1,2,3,16;
 1/6=1000,10=4,14=-1,18=20,19=15/3(2);
 2/9=110,12=1/2;
 99//99;
 2/9=110,12=1/2;
 3/5=1,6=6,7=1,11=2,16=1,25=1,30=1,71=1,74=-5/1,2,3;
 4/5=5,16=3/1;
 5/5=2,38=5/2;
 7//1,2,3,16;
 1/6=1000,14=-1,18=20,19=15/3(-5);
 2/9=110,12=1/2;
 6/7=2,8=2,9=2,10=2,19=2,28=1/1;
 99/9=1/99;
 ------------------
 Phi Psi fixed scan
 ------------------
 Symbolic Z-matrix:
 Charge =  0 Multiplicity = 1
 H                     1.8827    1.2362   -0.9842 
 C                     1.9409    2.209    -0.496 
 H                     1.658     2.1079    0.5517 
 H                     1.2624    2.9049   -0.9895 
 C                     3.3599    2.7768   -0.5667 
 O                     4.2568    2.1469   -1.1227 
 N                     3.5554    3.9697    0. 
 H                     2.7862    4.4492    0.4455 
 C                     4.8533    4.6139    0. 
 H                     5.4076    4.3155    0.8898 
 C                     5.6613    4.2208   -1.2322 
 H                     5.1233    4.5214   -2.1312 
 H                     6.6305    4.7189   -1.2058 
 H                     5.8085    3.1409   -1.2414 
 C                     4.7127    6.1294    0. 
 O                     3.6006    6.6527    0. 
 N                     5.846     6.8349    0. 
 H                     6.737     6.3592    0. 
 C                     5.8461    8.2839    0. 
 H                     4.8186    8.6477    0. 
 H                     6.3598    8.6477    0.8898 
 H                     6.3598    8.6477   -0.8898 
 
 The following ModRedundant input section has been read:
 D    5    7    9   15 F                                                       
 D    7    9   15   17 F                                                       

 GradGradGradGradGradGradGradGradGradGradGradGradGradGradGradGradGradGrad
 Berny optimization.
 Initialization pass.
                           ----------------------------
                           !    Initial Parameters    !
                           ! (Angstroms and Degrees)  !
 --------------------------                            --------------------------
 ! Name  Definition              Value          Derivative Info.                !
 --------------------------------------------------------------------------------
 ! R1    R(1,2)                  1.09           calculate D2E/DX2 analytically  !
 ! R2    R(2,3)                  1.0899         calculate D2E/DX2 analytically  !
 ! R3    R(2,4)                  1.09           calculate D2E/DX2 analytically  !
 ! R4    R(2,5)                  1.53           calculate D2E/DX2 analytically  !
 ! R5    R(5,6)                  1.229          calculate D2E/DX2 analytically  !
 ! R6    R(5,7)                  1.3351         calculate D2E/DX2 analytically  !
 ! R7    R(7,8)                  1.01           calculate D2E/DX2 analytically  !
 ! R8    R(7,9)                  1.449          calculate D2E/DX2 analytically  !
 ! R9    R(9,10)                 1.09           calculate D2E/DX2 analytically  !
 ! R10   R(9,11)                 1.525          calculate D2E/DX2 analytically  !
 ! R11   R(9,15)                 1.522          calculate D2E/DX2 analytically  !
 ! R12   R(11,12)                1.09           calculate D2E/DX2 analytically  !
 ! R13   R(11,13)                1.09           calculate D2E/DX2 analytically  !
 ! R14   R(11,14)                1.0899         calculate D2E/DX2 analytically  !
 ! R15   R(15,16)                1.2291         calculate D2E/DX2 analytically  !
 ! R16   R(15,17)                1.335          calculate D2E/DX2 analytically  !
 ! R17   R(17,18)                1.01           calculate D2E/DX2 analytically  !
 ! R18   R(17,19)                1.449          calculate D2E/DX2 analytically  !
 ! R19   R(19,20)                1.09           calculate D2E/DX2 analytically  !
 ! R20   R(19,21)                1.0899         calculate D2E/DX2 analytically  !
 ! R21   R(19,22)                1.0899         calculate D2E/DX2 analytically  !
 ! A1    A(1,2,3)              109.5057         calculate D2E/DX2 analytically  !
 ! A2    A(1,2,4)              109.4976         calculate D2E/DX2 analytically  !
 ! A3    A(1,2,5)              111.1022         calculate D2E/DX2 analytically  !
 ! A4    A(3,2,4)              109.442          calculate D2E/DX2 analytically  !
 ! A5    A(3,2,5)              108.6368         calculate D2E/DX2 analytically  !
 ! A6    A(4,2,5)              108.6296         calculate D2E/DX2 analytically  !
 ! A7    A(2,5,6)              120.5005         calculate D2E/DX2 analytically  !
 ! A8    A(2,5,7)              116.6018         calculate D2E/DX2 analytically  !
 ! A9    A(6,5,7)              122.8977         calculate D2E/DX2 analytically  !
 ! A10   A(5,7,8)              119.9947         calculate D2E/DX2 analytically  !
 ! A11   A(5,7,9)              121.8985         calculate D2E/DX2 analytically  !
 ! A12   A(8,7,9)              118.1068         calculate D2E/DX2 analytically  !
 ! A13   A(7,9,10)             109.5            calculate D2E/DX2 analytically  !
 ! A14   A(7,9,11)             111.0992         calculate D2E/DX2 analytically  !
 ! A15   A(7,9,15)             111.0966         calculate D2E/DX2 analytically  !
 ! A16   A(10,9,11)            108.6382         calculate D2E/DX2 analytically  !
 ! A17   A(10,9,15)            108.6373         calculate D2E/DX2 analytically  !
 ! A18   A(11,9,15)            107.7947         calculate D2E/DX2 analytically  !
 ! A19   A(9,11,12)            109.5007         calculate D2E/DX2 analytically  !
 ! A20   A(9,11,13)            109.4959         calculate D2E/DX2 analytically  !
 ! A21   A(9,11,14)            109.4978         calculate D2E/DX2 analytically  !
 ! A22   A(12,11,13)           109.441          calculate D2E/DX2 analytically  !
 ! A23   A(12,11,14)           109.4482         calculate D2E/DX2 analytically  !
 ! A24   A(13,11,14)           109.4436         calculate D2E/DX2 analytically  !
 ! A25   A(9,15,16)            120.4998         calculate D2E/DX2 analytically  !
 ! A26   A(9,15,17)            116.6026         calculate D2E/DX2 analytically  !
 ! A27   A(16,15,17)           122.8976         calculate D2E/DX2 analytically  !
 ! A28   A(15,17,18)           119.9995         calculate D2E/DX2 analytically  !
 ! A29   A(15,17,19)           121.907          calculate D2E/DX2 analytically  !
 ! A30   A(18,17,19)           118.0936         calculate D2E/DX2 analytically  !
 ! A31   A(17,19,20)           109.4932         calculate D2E/DX2 analytically  !
 ! A32   A(17,19,21)           109.5002         calculate D2E/DX2 analytically  !
 ! A33   A(17,19,22)           109.5002         calculate D2E/DX2 analytically  !
 ! A34   A(20,19,21)           109.4437         calculate D2E/DX2 analytically  !
 ! A35   A(20,19,22)           109.4437         calculate D2E/DX2 analytically  !
 ! A36   A(21,19,22)           109.4463         calculate D2E/DX2 analytically  !
 ! D1    D(1,2,5,6)             -0.0047         calculate D2E/DX2 analytically  !
 ! D2    D(1,2,5,7)            179.9966         calculate D2E/DX2 analytically  !
 ! D3    D(3,2,5,6)            120.5165         calculate D2E/DX2 analytically  !
 ! D4    D(3,2,5,7)            -59.4823         calculate D2E/DX2 analytically  !
 ! D5    D(4,2,5,6)           -120.5112         calculate D2E/DX2 analytically  !
 ! D6    D(4,2,5,7)             59.4901         calculate D2E/DX2 analytically  !
 ! D7    D(2,5,7,8)              0.0022         calculate D2E/DX2 analytically  !
 ! D8    D(2,5,7,9)            179.9961         calculate D2E/DX2 analytically  !
 ! D9    D(6,5,7,8)           -179.9965         calculate D2E/DX2 analytically  !
 ! D10   D(6,5,7,9)             -0.0027         calculate D2E/DX2 analytically  !
 ! D11   D(5,7,9,10)           -89.9989         calculate D2E/DX2 analytically  !
 ! D12   D(5,7,9,11)            30.0037         calculate D2E/DX2 analytically  !
 ! D13   D(5,7,9,15)           150.0013         frozen, calculate D2E/DX2 analyt!
 ! D14   D(8,7,9,10)            89.9951         calculate D2E/DX2 analytically  !
 ! D15   D(8,7,9,11)          -150.0023         calculate D2E/DX2 analytically  !
 ! D16   D(8,7,9,15)           -30.0047         calculate D2E/DX2 analytically  !
 ! D17   D(7,9,11,12)           60.0024         calculate D2E/DX2 analytically  !
 ! D18   D(7,9,11,13)          179.9986         calculate D2E/DX2 analytically  !
 ! D19   D(7,9,11,14)          -60.0038         calculate D2E/DX2 analytically  !
 ! D20   D(10,9,11,12)        -179.4843         calculate D2E/DX2 analytically  !
 ! D21   D(10,9,11,13)         -59.4881         calculate D2E/DX2 analytically  !
 ! D22   D(10,9,11,14)          60.5095         calculate D2E/DX2 analytically  !
 ! D23   D(15,9,11,12)         -61.938          calculate D2E/DX2 analytically  !
 ! D24   D(15,9,11,13)          58.0582         calculate D2E/DX2 analytically  !
 ! D25   D(15,9,11,14)         178.0558         calculate D2E/DX2 analytically  !
 ! D26   D(7,9,15,16)            0.0            calculate D2E/DX2 analytically  !
 ! D27   D(7,9,15,17)          180.0            frozen, calculate D2E/DX2 analyt!
 ! D28   D(10,9,15,16)        -120.5111         calculate D2E/DX2 analytically  !
 ! D29   D(10,9,15,17)          59.4889         calculate D2E/DX2 analytically  !
 ! D30   D(11,9,15,16)         121.942          calculate D2E/DX2 analytically  !
 ! D31   D(11,9,15,17)         -58.058          calculate D2E/DX2 analytically  !
 ! D32   D(9,15,17,18)           0.0            calculate D2E/DX2 analytically  !
 ! D33   D(9,15,17,19)         180.0            calculate D2E/DX2 analytically  !
 ! D34   D(16,15,17,18)        180.0            calculate D2E/DX2 analytically  !
 ! D35   D(16,15,17,19)          0.0            calculate D2E/DX2 analytically  !
 ! D36   D(15,17,19,20)          0.0            calculate D2E/DX2 analytically  !
 ! D37   D(15,17,19,21)        119.9975         calculate D2E/DX2 analytically  !
 ! D38   D(15,17,19,22)       -119.9975         calculate D2E/DX2 analytically  !
 ! D39   D(18,17,19,20)        180.0            calculate D2E/DX2 analytically  !
 ! D40   D(18,17,19,21)        -60.0025         calculate D2E/DX2 analytically  !
 ! D41   D(18,17,19,22)         60.0025         calculate D2E/DX2 analytically  !
 --------------------------------------------------------------------------------
 Trust Radius=3.00D-01 FncErr=1.00D-07 GrdErr=1.00D-06
 Number of steps in this run= 132 maximum allowed number of steps= 132.
 GradGradGradGradGradGradGradGradGradGradGradGradGradGradGradGradGradGrad

                          Input orientation:                          
 ---------------------------------------------------------------------
 Center     Atomic      Atomic             Coordinates (Angstroms)
 Number     Number       Type             X           Y           Z
 ---------------------------------------------------------------------
      1          1           0        1.882700    1.236200   -0.984200
      2          6           0        1.940900    2.209000   -0.496000
      3          1           0        1.658000    2.107900    0.551700
      4          1           0        1.262400    2.904900   -0.989500
      5          6           0        3.359900    2.776800   -0.566700
      6          8           0        4.256800    2.146900   -1.122700
      7          7           0        3.555400    3.969700    0.000000
      8          1           0        2.786200    4.449200    0.445500
      9          6           0        4.853300    4.613900    0.000000
     10          1           0        5.407600    4.315500    0.889800
     11          6           0        5.661300    4.220800   -1.232200
     12          1           0        5.123300    4.521400   -2.131200
     13          1           0        6.630500    4.718900   -1.205800
     14          1           0        5.808500    3.140900   -1.241400
     15          6           0        4.712700    6.129400    0.000000
     16          8           0        3.600600    6.652700    0.000000
     17          7           0        5.846000    6.834900    0.000000
     18          1           0        6.737000    6.359200    0.000000
     19          6           0        5.846100    8.283900    0.000000
     20          1           0        4.818600    8.647700    0.000000
     21          1           0        6.359800    8.647700    0.889800
     22          1           0        6.359800    8.647700   -0.889800
 ---------------------------------------------------------------------
                    Distance matrix (angstroms):
                    1          2          3          4          5
     1  H    0.000000
     2  C    1.089985   0.000000
     3  H    1.780264   1.089922   0.000000
     4  H    1.780270   1.090037   1.779608   0.000000
     5  C    2.174827   1.530018   2.143527   2.143519   0.000000
     6  O    2.546548   2.400000   3.091747   3.091721   1.228959
     7  N    3.352402   2.439814   2.714922   2.714914   1.335058
     8  H    3.630940   2.572829   2.601115   2.601164   2.037303
     9  C    4.604560   3.809414   4.098091   4.098092   2.434405
    10  H    5.041714   4.286700   4.364322   4.764897   2.946534
    11  C    4.821531   4.293100   4.865497   4.597914   2.797225
    12  H    4.754959   4.260134   5.003123   4.338560   2.932724
    13  H    5.892360   5.366168   5.884886   5.670439   3.857075
    14  H    4.371034   4.047516   4.637774   4.559186   2.565820
    15  C    5.737679   4.826844   5.080160   4.825047   3.659391
    16  O    5.767001   4.769391   4.973256   4.526842   3.924498
    17  N    6.929779   6.074107   6.339420   6.118284   4.792705
    18  H    7.125869   6.361820   6.646365   6.548476   4.955759
    19  C    8.145383   7.238854   7.482482   7.136039   6.068813
    20  H    8.032340   7.069939   7.284418   6.826816   6.075889
    21  H    8.859268   7.931203   8.061651   7.905378   6.751908
    22  H    8.659311   7.819118   8.182532   7.679400   6.600853
                    6          7          8          9         10
     6  O    0.000000
     7  N    2.252780   0.000000
     8  H    3.150000   1.009980   0.000000
     9  C    2.775312   1.448978   2.120966   0.000000
    10  H    3.174480   2.083739   2.662145   1.089970   0.000000
    11  C    2.507124   2.452791   3.336622   1.525027   2.139209
    12  H    2.721423   2.702720   3.479459   2.150225   3.041326
    13  H    3.500934   3.386959   4.192633   2.150214   2.459625
    14  H    1.846591   2.702673   3.700213   2.150165   2.466256
    15  C    4.162764   2.450234   2.594792   1.522008   2.136554
    16  O    4.689700   2.683381   2.391052   2.392898   3.085368
    17  N    5.075762   3.668272   3.905433   2.432754   2.707640
    18  H    5.015508   3.978981   4.410827   2.567956   2.595334
    19  C    6.438097   4.884632   4.926092   3.801914   4.090504
    20  H    6.620912   4.845550   4.685779   4.033949   4.461684
    21  H    7.122722   5.526309   5.531313   4.396911   4.435611
    22  H    6.836465   5.526309   5.672834   4.396911   4.779291
                   11         12         13         14         15
    11  C    0.000000
    12  H    1.089957   0.000000
    13  H    1.090023   1.779613   0.000000
    14  H    1.089925   1.779613   1.779617   0.000000
    15  C    2.461892   2.701161   2.668599   3.416575   0.000000
    16  O    3.417446   3.376843   3.791283   4.329969   1.229068
    17  N    2.895850   3.227474   2.558681   3.897193   1.334953
    18  H    2.692248   3.244002   2.038598   3.572204   2.037302
    19  C    4.249853   4.384160   3.844277   5.290835   2.434433
    20  H    4.671820   4.654160   4.491370   5.731127   2.520526
    21  H    4.958652   5.261343   4.460974   5.930497   3.137916
    22  H    4.494728   4.482896   3.950773   5.545485   3.137916
                   16         17         18         19         20
    16  O    0.000000
    17  N    2.252780   0.000000
    18  H    3.150103   1.010035   0.000000
    19  C    2.775443   1.449000   2.120890   0.000000
    20  H    2.337424   2.083697   2.986217   1.090003   0.000000
    21  H    3.519226   2.083741   2.484201   1.089946   1.779618
    22  H    3.519226   2.083741   2.484201   1.089946   1.779618
                   21         22
    21  H    0.000000
    22  H    1.779600   0.000000
 Stoichiometry    C6H12N2O2
 Framework group  C1[X(C6H12N2O2)]
 Deg. of freedom    60
 Full point group                 C1      NOp   1
 Largest Abelian subgroup         C1      NOp   1
 Largest concise Abelian subgroup C1      NOp   1
                         Standard orientation:                         
 ---------------------------------------------------------------------
 Center     Atomic      Atomic             Coordinates (Angstroms)
 Number     Number       Type             X           Y           Z
 ---------------------------------------------------------------------
      1          1           0        4.353493   -0.574578   -0.357939
      2          6           0        3.405800   -1.060005   -0.124903
      3          1           0        3.501891   -1.617545    0.806678
      4          1           0        3.139285   -1.743606   -0.931030
      5          6           0        2.284479   -0.031304    0.034374
      6          8           0        2.514719    1.168311   -0.100732
      7          7           0        1.071454   -0.508943    0.322143
      8          1           0        0.931646   -1.504042    0.423590
      9          6           0       -0.072752    0.362558    0.497694
     10          1           0       -0.150699    0.654178    1.545032
     11          6           0        0.061816    1.622832   -0.350427
     12          1           0        0.131682    1.347500   -1.402718
     13          1           0       -0.810787    2.258230   -0.198830
     14          1           0        0.960677    2.164759   -0.056658
     15          6           0       -1.361707   -0.336825    0.090303
     16          8           0       -1.339656   -1.493912   -0.323546
     17          7           0       -2.488253    0.369581    0.208559
     18          1           0       -2.455618    1.318163    0.553956
     19          6           0       -3.779736   -0.183297   -0.146401
     20          1           0       -3.652686   -1.206686   -0.499446
     21          1           0       -4.430046   -0.179336    0.728278
     22          1           0       -4.229157    0.419546   -0.935441
 ---------------------------------------------------------------------
 Rotational constants (GHZ):      3.3213167      0.6766188      0.5843935
 Standard basis: 6-31G(d) (6D, 7F)
 There are   174 symmetry adapted basis functions of A   symmetry.
 Integral buffers will be    131072 words long.
 Raffenetti 2 integral format.
 Two-electron integral symmetry is turned on.
   174 basis functions,   328 primitive gaussians,   174 cartesian basis functions
    39 alpha electrons       39 beta electrons
       nuclear repulsion energy       557.5579138685 Hartrees.
 NAtoms=   22 NActive=   22 NUniq=   22 SFac= 7.50D-01 NAtFMM=   80 NAOKFM=F Big=F
 One-electron integrals computed using PRISM.
 NBasis=   174 RedAO= T  NBF=   174
 NBsUse=   174 1.00D-06 NBFU=   174
 Harris functional with IExCor=  402 diagonalized for initial guess.
 ExpMin= 1.61D-01 ExpMax= 5.48D+03 ExpMxC= 8.25D+02 IAcc=1 IRadAn=         1 AccDes= 0.00D+00
 HarFok:  IExCor=  402 AccDes= 0.00D+00 IRadAn=         1 IDoV= 1
 ScaDFX=  1.000000  1.000000  1.000000  1.000000
 FoFCou: FMM=F IPFlag=           0 FMFlag=      100000 FMFlg1=           0
         NFxFlg=           0 DoJE=T BraDBF=F KetDBF=T FulRan=T
         Omega=  0.000000  0.000000  1.000000  0.000000  0.000000 ICntrl=     500 IOpCl=  0
         NMat0=    1 NMatS0=    1 NMatT0=    0 NMatD0=    1 NMtDS0=    0 NMtDT0=    0
         I1Cent=           4 NGrid=           0.
 Petite list used in FoFCou.
 Initial guess orbital symmetries:
       Occupied  (A) (A) (A) (A) (A) (A) (A) (A) (A) (A) (A) (A)
                 (A) (A) (A) (A) (A) (A) (A) (A) (A) (A) (A) (A)
                 (A) (A) (A) (A) (A) (A) (A) (A) (A) (A) (A) (A)
                 (A) (A) (A)
       Virtual   (A) (A) (A) (A) (A) (A) (A) (A) (A) (A) (A) (A)
                 (A) (A) (A) (A) (A) (A) (A) (A) (A) (A) (A) (A)
                 (A) (A) (A) (A) (A) (A) (A) (A) (A) (A) (A) (A)
                 (A) (A) (A) (A) (A) (A) (A) (A) (A) (A) (A) (A)
                 (A) (A) (A) (A) (A) (A) (A) (A) (A) (A) (A) (A)
                 (A) (A) (A) (A) (A) (A) (A) (A) (A) (A) (A) (A)
                 (A) (A) (A) (A) (A) (A) (A) (A) (A) (A) (A) (A)
                 (A) (A) (A) (A) (A) (A) (A) (A) (A) (A) (A) (A)
                 (A) (A) (A) (A) (A) (A) (A) (A) (A) (A) (A) (A)
                 (A) (A) (A) (A) (A) (A) (A) (A) (A) (A) (A) (A)
                 (A) (A) (A) (A) (A) (A) (A) (A) (A) (A) (A) (A)
                 (A) (A) (A)
 The electronic state of the initial guess is 1-A.
 Requested convergence on RMS density matrix=1.00D-08 within 128 cycles.
 Requested convergence on MAX density matrix=1.00D-06.
 Requested convergence on             energy=1.00D-06.
 No special actions if energy rises.
 Integral accuracy reduced to 1.0D-05 until final iterations.
 Initial convergence to 1.0D-05 achieved.  Increase integral accuracy.
 SCF Done:  E(RB3LYP) =  -495.828434653     A.U. after   14 cycles
             Convg  =    0.9215D-08             -V/T =  2.0086
 Range of M.O.s used for correlation:     1   174
 NBasis=   174 NAE=    39 NBE=    39 NFC=     0 NFV=     0
 NROrb=    174 NOA=    39 NOB=    39 NVA=   135 NVB=   135
 Symmetrizing basis deriv contribution to polar:
 IMax=3 JMax=2 DiffMx= 0.00D+00
 G2DrvN: will do    23 centers at a time, making    1 passes doing MaxLOS=2.
 Calling FoFCou, ICntrl=  3107 FMM=F I1Cent=   0 AccDes= 0.00D+00.
 FoFDir/FoFCou used for L=0 through L=2.
 End of G2Drv Frequency-dependent properties file   721 does not exist.
 End of G2Drv Frequency-dependent properties file   722 does not exist.
          IDoAtm=1111111111111111111111
          Differentiating once with respect to nuclear coordinates.
          There are    69 degrees of freedom in the 1st order CPHF.  IDoFFX=5.
     63 vectors produced by pass  0 Test12= 7.63D-11 1.45D-07 XBig12= 1.88D-01 9.62D-02.
 AX will form    63 AO Fock derivatives at one time.
     63 vectors produced by pass  1 Test12= 7.63D-11 1.45D-07 XBig12= 2.64D-02 5.82D-02.
     63 vectors produced by pass  2 Test12= 7.63D-11 1.45D-07 XBig12= 3.86D-05 1.08D-03.
     63 vectors produced by pass  3 Test12= 7.63D-11 1.45D-07 XBig12= 9.21D-08 6.32D-05.
     30 vectors produced by pass  4 Test12= 7.63D-11 1.45D-07 XBig12= 8.43D-11 1.71D-06.
 Inverted reduced A of dimension   282 with in-core refinement.
 End of Minotr Frequency-dependent properties file   721 does not exist.
 End of Minotr Frequency-dependent properties file   722 does not exist.

 **********************************************************************

            Population analysis using the SCF density.

 **********************************************************************

 Orbital symmetries:
       Occupied  (A) (A) (A) (A) (A) (A) (A) (A) (A) (A) (A) (A)
                 (A) (A) (A) (A) (A) (A) (A) (A) (A) (A) (A) (A)
                 (A) (A) (A) (A) (A) (A) (A) (A) (A) (A) (A) (A)
                 (A) (A) (A)
       Virtual   (A) (A) (A) (A) (A) (A) (A) (A) (A) (A) (A) (A)
                 (A) (A) (A) (A) (A) (A) (A) (A) (A) (A) (A) (A)
                 (A) (A) (A) (A) (A) (A) (A) (A) (A) (A) (A) (A)
                 (A) (A) (A) (A) (A) (A) (A) (A) (A) (A) (A) (A)
                 (A) (A) (A) (A) (A) (A) (A) (A) (A) (A) (A) (A)
                 (A) (A) (A) (A) (A) (A) (A) (A) (A) (A) (A) (A)
                 (A) (A) (A) (A) (A) (A) (A) (A) (A) (A) (A) (A)
                 (A) (A) (A) (A) (A) (A) (A) (A) (A) (A) (A) (A)
                 (A) (A) (A) (A) (A) (A) (A) (A) (A) (A) (A) (A)
                 (A) (A) (A) (A) (A) (A) (A) (A) (A) (A) (A) (A)
                 (A) (A) (A) (A) (A) (A) (A) (A) (A) (A) (A) (A)
                 (A) (A) (A)
 The electronic state is 1-A.
 Alpha  occ. eigenvalues --  -19.11214 -19.09448 -14.36923 -14.35535 -10.28616
 Alpha  occ. eigenvalues --  -10.27889 -10.23417 -10.22219 -10.18379 -10.16541
 Alpha  occ. eigenvalues --   -1.03947  -1.02443  -0.93194  -0.92136  -0.78643
 Alpha  occ. eigenvalues --   -0.72864  -0.70581  -0.64903  -0.59941  -0.56881
 Alpha  occ. eigenvalues --   -0.54267  -0.50298  -0.47555  -0.46060  -0.45125
 Alpha  occ. eigenvalues --   -0.44250  -0.42493  -0.40589  -0.40164  -0.39485
 Alpha  occ. eigenvalues --   -0.39288  -0.37430  -0.36728  -0.35808  -0.34709
 Alpha  occ. eigenvalues --   -0.26136  -0.25267  -0.24737  -0.22483
 Alpha virt. eigenvalues --    0.02867   0.03884   0.06674   0.09642   0.11760
 Alpha virt. eigenvalues --    0.13923   0.14039   0.14764   0.15869   0.16276
 Alpha virt. eigenvalues --    0.16877   0.17624   0.17976   0.19898   0.21113
 Alpha virt. eigenvalues --    0.21912   0.24564   0.25766   0.29048   0.34104
 Alpha virt. eigenvalues --    0.34747   0.40870   0.42277   0.50688   0.51510
 Alpha virt. eigenvalues --    0.52864   0.53829   0.54226   0.55666   0.57130
 Alpha virt. eigenvalues --    0.58477   0.58770   0.60913   0.64165   0.66674
 Alpha virt. eigenvalues --    0.67949   0.69013   0.71781   0.72276   0.73063
 Alpha virt. eigenvalues --    0.74923   0.77248   0.79927   0.80856   0.83785
 Alpha virt. eigenvalues --    0.85305   0.86800   0.87272   0.87856   0.88974
 Alpha virt. eigenvalues --    0.89774   0.90451   0.91410   0.93918   0.94692
 Alpha virt. eigenvalues --    0.94823   0.95263   0.97552   0.98904   1.05060
 Alpha virt. eigenvalues --    1.06186   1.06267   1.10552   1.13750   1.20961
 Alpha virt. eigenvalues --    1.24926   1.27196   1.31461   1.32619   1.35369
 Alpha virt. eigenvalues --    1.37060   1.39180   1.42530   1.47252   1.49598
 Alpha virt. eigenvalues --    1.52192   1.52790   1.61428   1.65954   1.70122
 Alpha virt. eigenvalues --    1.73054   1.74745   1.78187   1.80544   1.82600
 Alpha virt. eigenvalues --    1.84610   1.85351   1.87225   1.89464   1.91407
 Alpha virt. eigenvalues --    1.93894   1.95090   1.98281   2.00209   2.04264
 Alpha virt. eigenvalues --    2.05626   2.06773   2.11529   2.14088   2.18758
 Alpha virt. eigenvalues --    2.19965   2.25735   2.26420   2.28805   2.29832
 Alpha virt. eigenvalues --    2.30560   2.32140   2.36604   2.40060   2.42372
 Alpha virt. eigenvalues --    2.44033   2.45965   2.56235   2.59858   2.61716
 Alpha virt. eigenvalues --    2.65732   2.68500   2.74158   2.79290   2.88319
 Alpha virt. eigenvalues --    2.94000   2.97790   3.02424   3.15061   3.23042
 Alpha virt. eigenvalues --    3.96314   3.99657   4.07698   4.08719   4.20536
 Alpha virt. eigenvalues --    4.23792   4.30813   4.41588   4.46082   4.64007
          Condensed to atoms (all electrons):
              1          2          3          4          5          6
     1  H    0.505069   0.359693  -0.021631  -0.021094  -0.017935   0.005105
     2  C    0.359693   5.327611   0.350239   0.352155   0.355355  -0.074896
     3  H   -0.021631   0.350239   0.552940  -0.026250  -0.024980   0.001262
     4  H   -0.021094   0.352155  -0.026250   0.545280  -0.026957   0.001184
     5  C   -0.017935   0.355355  -0.024980  -0.026957   4.337957   0.578416
     6  O    0.005105  -0.074896   0.001262   0.001184   0.578416   8.137812
     7  N    0.004625  -0.134204   0.004539   0.004928   0.249781  -0.101773
     8  H   -0.000136  -0.000874   0.001040   0.000666  -0.015886   0.003421
     9  C   -0.000126   0.004927  -0.000186   0.000187  -0.031994  -0.002729
    10  H    0.000004  -0.000165   0.000013   0.000001  -0.001139   0.000767
    11  C    0.000017  -0.000557   0.000031  -0.000041  -0.000594  -0.048055
    12  H    0.000004  -0.000169   0.000001   0.000017   0.001340  -0.003036
    13  H   -0.000001   0.000025   0.000000  -0.000002   0.000950   0.002841
    14  H    0.000004   0.000799  -0.000035  -0.000011  -0.002737   0.023604
    15  C    0.000000  -0.000099  -0.000017   0.000008   0.004119   0.000496
    16  O    0.000000  -0.000054   0.000001   0.000002   0.000638  -0.000003
    17  N    0.000000   0.000001   0.000000   0.000000  -0.000036  -0.000003
    18  H    0.000000   0.000000   0.000000   0.000000   0.000010   0.000006
    19  C    0.000000   0.000000   0.000000   0.000000   0.000001   0.000000
    20  H    0.000000   0.000000   0.000000   0.000000   0.000000   0.000000
    21  H    0.000000   0.000000   0.000000   0.000000   0.000000   0.000000
    22  H    0.000000   0.000000   0.000000   0.000000   0.000000   0.000000
              7          8          9         10         11         12
     1  H    0.004625  -0.000136  -0.000126   0.000004   0.000017   0.000004
     2  C   -0.134204  -0.000874   0.004927  -0.000165  -0.000557  -0.000169
     3  H    0.004539   0.001040  -0.000186   0.000013   0.000031   0.000001
     4  H    0.004928   0.000666   0.000187   0.000001  -0.000041   0.000017
     5  C    0.249781  -0.015886  -0.031994  -0.001139  -0.000594   0.001340
     6  O   -0.101773   0.003421  -0.002729   0.000767  -0.048055  -0.003036
     7  N    7.142529   0.296608   0.252793  -0.052315  -0.046558  -0.001074
     8  H    0.296608   0.393323  -0.047947   0.002117   0.005437   0.000070
     9  C    0.252793  -0.047947   5.110720   0.368622   0.357406  -0.035834
    10  H   -0.052315   0.002117   0.368622   0.609626  -0.046736   0.006361
    11  C   -0.046558   0.005437   0.357406  -0.046736   5.213654   0.377212
    12  H   -0.001074   0.000070  -0.035834   0.006361   0.377212   0.556008
    13  H    0.004522  -0.000107  -0.038049  -0.002033   0.332184  -0.030787
    14  H   -0.005736  -0.000297  -0.020344  -0.004433   0.355411  -0.023240
    15  C   -0.027887   0.002015   0.311679  -0.040441  -0.039513  -0.004028
    16  O   -0.006213   0.021982  -0.092626   0.001319  -0.000684   0.001002
    17  N    0.003725   0.000889  -0.126461   0.002087   0.001523  -0.000343
    18  H    0.000095  -0.000039   0.001082   0.001264   0.000707  -0.000136
    19  C   -0.000077  -0.000006   0.005939  -0.000352   0.000087  -0.000085
    20  H   -0.000005  -0.000021   0.001267  -0.000039  -0.000077  -0.000007
    21  H    0.000001   0.000000  -0.000191   0.000026  -0.000005   0.000001
    22  H    0.000002   0.000000  -0.000022  -0.000005   0.000010   0.000002
             13         14         15         16         17         18
     1  H   -0.000001   0.000004   0.000000   0.000000   0.000000   0.000000
     2  C    0.000025   0.000799  -0.000099  -0.000054   0.000001   0.000000
     3  H    0.000000  -0.000035  -0.000017   0.000001   0.000000   0.000000
     4  H   -0.000002  -0.000011   0.000008   0.000002   0.000000   0.000000
     5  C    0.000950  -0.002737   0.004119   0.000638  -0.000036   0.000010
     6  O    0.002841   0.023604   0.000496  -0.000003  -0.000003   0.000006
     7  N    0.004522  -0.005736  -0.027887  -0.006213   0.003725   0.000095
     8  H   -0.000107  -0.000297   0.002015   0.021982   0.000889  -0.000039
     9  C   -0.038049  -0.020344   0.311679  -0.092626  -0.126461   0.001082
    10  H   -0.002033  -0.004433  -0.040441   0.001319   0.002087   0.001264
    11  C    0.332184   0.355411  -0.039513  -0.000684   0.001523   0.000707
    12  H   -0.030787  -0.023240  -0.004028   0.001002  -0.000343  -0.000136
    13  H    0.642988  -0.019354  -0.010241  -0.000040   0.002788   0.008262
    14  H   -0.019354   0.458082   0.003283  -0.000084   0.000260  -0.000176
    15  C   -0.010241   0.003283   4.366501   0.607024   0.270197  -0.021926
    16  O   -0.000040  -0.000084   0.607024   8.091660  -0.103053   0.003631
    17  N    0.002788   0.000260   0.270197  -0.103053   7.089310   0.302292
    18  H    0.008262  -0.000176  -0.021926   0.003631   0.302292   0.403213
    19  C    0.000079   0.000005  -0.025127  -0.009439   0.267788  -0.031345
    20  H   -0.000011   0.000001  -0.000993   0.021649  -0.037178   0.003690
    21  H    0.000000   0.000001   0.001291   0.000576  -0.043598  -0.001434
    22  H    0.000029  -0.000002   0.001450   0.000574  -0.044719  -0.000133
             19         20         21         22
     1  H    0.000000   0.000000   0.000000   0.000000
     2  C    0.000000   0.000000   0.000000   0.000000
     3  H    0.000000   0.000000   0.000000   0.000000
     4  H    0.000000   0.000000   0.000000   0.000000
     5  C    0.000001   0.000000   0.000000   0.000000
     6  O    0.000000   0.000000   0.000000   0.000000
     7  N   -0.000077  -0.000005   0.000001   0.000002
     8  H   -0.000006  -0.000021   0.000000   0.000000
     9  C    0.005939   0.001267  -0.000191  -0.000022
    10  H   -0.000352  -0.000039   0.000026  -0.000005
    11  C    0.000087  -0.000077  -0.000005   0.000010
    12  H   -0.000085  -0.000007   0.000001   0.000002
    13  H    0.000079  -0.000011   0.000000   0.000029
    14  H    0.000005   0.000001   0.000001  -0.000002
    15  C   -0.025127  -0.000993   0.001291   0.001450
    16  O   -0.009439   0.021649   0.000576   0.000574
    17  N    0.267788  -0.037178  -0.043598  -0.044719
    18  H   -0.031345   0.003690  -0.001434  -0.000133
    19  C    4.962839   0.376790   0.382487   0.383642
    20  H    0.376790   0.473114  -0.023838  -0.024427
    21  H    0.382487  -0.023838   0.564545  -0.038974
    22  H    0.383642  -0.024427  -0.038974   0.560812
 Mulliken atomic charges:
              1
     1  H    0.186403
     2  C   -0.539788
     3  H    0.163032
     4  H    0.169928
     5  C    0.593691
     6  O   -0.524418
     7  N   -0.588304
     8  H    0.337745
     9  C   -0.018114
    10  H    0.155451
    11  C   -0.460861
    12  H    0.156722
    13  H    0.105955
    14  H    0.235001
    15  C    0.602210
    16  O   -0.537859
    17  N   -0.585468
    18  H    0.330937
    19  C   -0.313225
    20  H    0.210086
    21  H    0.159113
    22  H    0.161763
 Sum of Mulliken atomic charges =   0.00000
 Mulliken charges with hydrogens summed into heavy atoms:
              1
     2  C   -0.020424
     5  C    0.593691
     6  O   -0.524418
     7  N   -0.250559
     9  C    0.137337
    11  C    0.036817
    15  C    0.602210
    16  O   -0.537859
    17  N   -0.254531
    19  C    0.217738
 Sum of Mulliken charges with hydrogens summed into heavy atoms =   0.00000
 APT atomic charges:
              1
     1  H    0.721408
     2  C   -1.231412
     3  H    0.418138
     4  H    0.311194
     5  C   -0.031539
     6  O   -0.168934
     7  N   -0.680451
     8  H    0.533665
     9  C   -0.400370
    10  H    0.411311
    11  C   -1.113544
    12  H    0.318050
    13  H    0.394086
    14  H    0.477227
    15  C   -0.050604
    16  O   -0.243670
    17  N   -0.376625
    18  H    0.554102
    19  C   -1.403858
    20  H    0.394904
    21  H    0.620309
    22  H    0.546613
 Sum of APT charges=   0.00000
 APT Atomic charges with hydrogens summed into heavy atoms:
              1
     1  H    0.000000
     2  C    0.219328
     3  H    0.000000
     4  H    0.000000
     5  C   -0.031539
     6  O   -0.168934
     7  N   -0.146786
     8  H    0.000000
     9  C    0.010941
    10  H    0.000000
    11  C    0.075819
    12  H    0.000000
    13  H    0.000000
    14  H    0.000000
    15  C   -0.050604
    16  O   -0.243670
    17  N    0.177477
    18  H    0.000000
    19  C    0.157968
    20  H    0.000000
    21  H    0.000000
    22  H    0.000000
 Sum of APT charges=   0.00000
 Electronic spatial extent (au):  <R**2>=           1940.1733
 Charge=              0.0000 electrons
 Dipole moment (field-independent basis, Debye):
    X=             -2.6306    Y=              0.0318    Z=              1.5344  Tot=              3.0456
 Quadrupole moment (field-independent basis, Debye-Ang):
   XX=            -53.8849   YY=            -63.0053   ZZ=            -59.1486
   XY=            -12.6458   XZ=             -0.9193   YZ=             -0.1690
 Traceless Quadrupole moment (field-independent basis, Debye-Ang):
   XX=              4.7947   YY=             -4.3257   ZZ=             -0.4690
   XY=            -12.6458   XZ=             -0.9193   YZ=             -0.1690
 Octapole moment (field-independent basis, Debye-Ang**2):
  XXX=            -40.0012  YYY=              0.5831  ZZZ=             -0.2179  XYY=             -3.4921
  XXY=            -13.4919  XXZ=              1.8753  XZZ=              0.1756  YZZ=             -0.3179
  YYZ=              4.8525  XYZ=             -0.5681
 Hexadecapole moment (field-independent basis, Debye-Ang**3):
 XXXX=          -1824.3542 YYYY=           -417.2764 ZZZZ=           -109.0857 XXXY=            -47.4407
 XXXZ=             -0.5193 YYYX=            -13.7116 YYYZ=              1.5329 ZZZX=             -0.2704
 ZZZY=              1.7030 XXYY=           -408.7417 XXZZ=           -341.7717 YYZZ=            -85.5950
 XXYZ=              5.7523 YYXZ=             -2.1486 ZZXY=              0.0506
 N-N= 5.575579138685D+02 E-N=-2.271596235588D+03  KE= 4.916229690514D+02
  Exact polarizability:   0.000   0.000   0.000   0.000   0.000   0.000
 Approx polarizability: 120.503  -2.252 130.535  -5.131   4.678  84.072
 Calling FoFJK, ICntrl=    100147 FMM=F ISym2X=0 I1Cent= 0 IOpClX= 0 NMat=1 NMatS=1 NMatT=0.
 ***** Axes restored to original set *****
 -------------------------------------------------------------------
 Center     Atomic                   Forces (Hartrees/Bohr)
 Number     Number              X              Y              Z
 -------------------------------------------------------------------
      1        1           0.003790658    0.000846962   -0.000430094
      2        6           0.005419464    0.008740165    0.001957707
      3        1          -0.005499237   -0.000595334    0.003138209
      4        1          -0.006326292    0.000969978    0.000283763
      5        6          -0.006202188   -0.032861736   -0.013868716
      6        8          -0.014527533   -0.021797069    0.002080392
      7        7           0.000379536    0.019479874    0.010479193
      8        1           0.000616252    0.005326887   -0.001591447
      9        6           0.006418786   -0.000831765   -0.006222873
     10        1           0.004215915   -0.001709602    0.007034400
     11        6           0.017653134   -0.001981241   -0.001078525
     12        1           0.000916226   -0.000074406   -0.003873623
     13        1           0.003016113    0.003912558   -0.002485442
     14        1           0.004912158    0.010257415   -0.004201395
     15        6          -0.029754268   -0.007016533    0.005402368
     16        8          -0.005493682    0.002401583    0.001091600
     17        7           0.014764388    0.009103895    0.002300784
     18        1          -0.001016843    0.000116515   -0.000146443
     19        6           0.003629382    0.000155830    0.000129598
     20        1          -0.000255889   -0.003066074   -0.000025458
     21        1           0.001707069    0.004367405    0.002484742
     22        1           0.001636851    0.004254692   -0.002458741
 -------------------------------------------------------------------
 Cartesian Forces:  Max     0.032861736 RMS     0.008505769

 GradGradGradGradGradGradGradGradGradGradGradGradGradGradGradGradGradGrad
 Berny optimization.
 Internal  Forces:  Max     0.085303035 RMS     0.015822094
 Search for a local minimum.
 Step number   1 out of a maximum of  132
 All quantities printed in internal units (Hartrees-Bohrs-Radians)
 Mixed Optimization -- RFO/linear search
 Second derivative matrix not updated -- analytic derivatives used.
     Eigenvalues ---   -0.01172  -0.00062  -0.00021   0.00172   0.00374
     Eigenvalues ---    0.01101   0.01245   0.01857   0.03787   0.04225
     Eigenvalues ---    0.04601   0.04741   0.05234   0.05485   0.05825
     Eigenvalues ---    0.05977   0.06422   0.06592   0.11804   0.11921
     Eigenvalues ---    0.12469   0.13303   0.13358   0.13407   0.14209
     Eigenvalues ---    0.14330   0.15026   0.17738   0.18087   0.18594
     Eigenvalues ---    0.18879   0.21168   0.22661   0.23501   0.24342
     Eigenvalues ---    0.27220   0.29602   0.31273   0.33588   0.34593
     Eigenvalues ---    0.34624   0.34786   0.35102   0.35130   0.35374
     Eigenvalues ---    0.35558   0.35823   0.35902   0.36506   0.39318
     Eigenvalues ---    0.40559   0.47039   0.47160   0.50983   0.54489
     Eigenvalues ---    0.81400   0.83136   1.457371000.000001000.00000
     Eigenvalues --- 1000.000001000.000001000.000001000.000001000.00000
     Eigenvalues --- 1000.000001000.000001000.000001000.000001000.00000
     Eigenvalues --- 1000.000001000.000001000.000001000.000001000.00000
     Eigenvalues --- 1000.000001000.000001000.000001000.000001000.00000
     Eigenvalues --- 1000.000001000.000001000.000001000.000001000.00000
     Eigenvalues --- 1000.000001000.000001000.000001000.000001000.00000
     Eigenvalues --- 1000.000001000.000001000.000001000.000001000.00000
     Eigenvalues --- 1000.000001000.000001000.00000
 RFO step:  Lambda=-2.45449149D-02 EMin=-1.17191636D-02
 Linear search not attempted -- first point.
 Maximum step size (   0.300) exceeded in Quadratic search.
    -- Step size scaled by   0.307
 Iteration  1 RMS(Cart)=  0.06377486 RMS(Int)=  0.00195635
 Iteration  2 RMS(Cart)=  0.00313848 RMS(Int)=  0.00016117
 Iteration  3 RMS(Cart)=  0.00000524 RMS(Int)=  0.00016113
 Iteration  4 RMS(Cart)=  0.00000000 RMS(Int)=  0.00016113
 Iteration  1 RMS(Cart)=  0.00007145 RMS(Int)=  0.00002443
 Iteration  2 RMS(Cart)=  0.00003799 RMS(Int)=  0.00002719
 Iteration  3 RMS(Cart)=  0.00002049 RMS(Int)=  0.00003083
 Iteration  4 RMS(Cart)=  0.00001131 RMS(Int)=  0.00003347
 Iteration  5 RMS(Cart)=  0.00000644 RMS(Int)=  0.00003520
 Iteration  6 RMS(Cart)=  0.00000380 RMS(Int)=  0.00003631
 Iteration  7 RMS(Cart)=  0.00000233 RMS(Int)=  0.00003702
 Iteration  8 RMS(Cart)=  0.00000148 RMS(Int)=  0.00003748
 Iteration  9 RMS(Cart)=  0.00000096 RMS(Int)=  0.00003778
 Variable       Old X    -DE/DX   Delta X   Delta X   Delta X     New X
                                 (Linear)    (Quad)   (Total)
    R1        2.05977  -0.00076   0.00000   0.00016   0.00016   2.05993
    R2        2.05965   0.00450   0.00000   0.00368   0.00368   2.06333
    R3        2.05987   0.00443   0.00000   0.00292   0.00292   2.06280
    R4        2.89132  -0.00104   0.00000  -0.00432  -0.00432   2.88700
    R5        2.32240  -0.00037   0.00000   0.00134   0.00134   2.32373
    R6        2.52289   0.04626   0.00000   0.01418   0.01418   2.53708
    R7        1.90859   0.00136   0.00000   0.00172   0.00172   1.91030
    R8        2.73817   0.02886   0.00000   0.00051   0.00051   2.73868
    R9        2.05975   0.00835   0.00000   0.00498   0.00498   2.06472
   R10        2.88188   0.02033   0.00000   0.01323   0.01323   2.89512
   R11        2.87618   0.01164   0.00000   0.01141   0.01141   2.88758
   R12        2.05972   0.00273   0.00000   0.00371   0.00371   2.06343
   R13        2.05984   0.00441   0.00000   0.00202   0.00202   2.06186
   R14        2.05966  -0.00947   0.00000  -0.00130  -0.00130   2.05836
   R15        2.32260   0.00599   0.00000   0.00013   0.00013   2.32273
   R16        2.52270   0.02526   0.00000   0.01278   0.01278   2.53548
   R17        1.90869  -0.00095   0.00000  -0.00032  -0.00032   1.90837
   R18        2.73821   0.00571   0.00000   0.00242   0.00242   2.74063
   R19        2.05981  -0.00078   0.00000   0.00006   0.00006   2.05987
   R20        2.05970   0.00429   0.00000   0.00306   0.00306   2.06276
   R21        2.05970   0.00420   0.00000   0.00360   0.00360   2.06330
    A1        1.91123   0.00001   0.00000  -0.00402  -0.00403   1.90720
    A2        1.91109   0.00009   0.00000   0.00248   0.00251   1.91360
    A3        1.93910  -0.00785   0.00000  -0.01182  -0.01181   1.92729
    A4        1.91012  -0.00509   0.00000  -0.00789  -0.00794   1.90218
    A5        1.89607   0.00633   0.00000   0.00419   0.00416   1.90023
    A6        1.89594   0.00655   0.00000   0.01715   0.01714   1.91309
    A7        2.10313  -0.01339   0.00000   0.00982   0.00963   2.11276
    A8        2.03508  -0.03109   0.00000  -0.00805  -0.00824   2.02685
    A9        2.14497   0.04448   0.00000  -0.00177  -0.00196   2.14301
   A10        2.09430  -0.03880   0.00000   0.00736   0.00660   2.10090
   A11        2.12753   0.08530   0.00000   0.01383   0.01311   2.14064
   A12        2.06135  -0.04650   0.00000  -0.02118  -0.02187   2.03948
   A13        1.91114  -0.00508   0.00000   0.01055   0.01061   1.92175
   A14        1.93905   0.04488   0.00000  -0.00413  -0.00432   1.93473
   A15        1.93900  -0.03211   0.00000  -0.02354  -0.02354   1.91546
   A16        1.89609  -0.00930   0.00000   0.01023   0.01021   1.90630
   A17        1.89608   0.00693   0.00000   0.00872   0.00886   1.90494
   A18        1.88137  -0.00559   0.00000  -0.00106  -0.00140   1.87997
   A19        1.91115   0.00238   0.00000  -0.00453  -0.00452   1.90663
   A20        1.91106  -0.00112   0.00000   0.01079   0.01077   1.92183
   A21        1.91110   0.01005   0.00000   0.00136   0.00133   1.91243
   A22        1.91011  -0.00297   0.00000  -0.00638  -0.00637   1.90374
   A23        1.91023  -0.00417   0.00000  -0.00402  -0.00403   1.90621
   A24        1.91015  -0.00419   0.00000   0.00278   0.00273   1.91288
   A25        2.10312   0.00048   0.00000   0.00480   0.00480   2.10792
   A26        2.03510  -0.00134   0.00000  -0.00579  -0.00579   2.02930
   A27        2.14497   0.00086   0.00000   0.00100   0.00100   2.14596
   A28        2.09439  -0.00254   0.00000  -0.00596  -0.00597   2.08842
   A29        2.12768   0.00436   0.00000   0.00460   0.00459   2.13227
   A30        2.06112  -0.00182   0.00000   0.00136   0.00135   2.06247
   A31        1.91102  -0.00622   0.00000  -0.00956  -0.00954   1.90147
   A32        1.91114   0.00482   0.00000   0.00559   0.00557   1.91671
   A33        1.91114   0.00465   0.00000   0.00880   0.00879   1.91993
   A34        1.91015  -0.00009   0.00000  -0.00001   0.00000   1.91015
   A35        1.91015  -0.00008   0.00000  -0.00182  -0.00181   1.90835
   A36        1.91020  -0.00308   0.00000  -0.00300  -0.00303   1.90716
    D1       -0.00008  -0.00140   0.00000  -0.07291  -0.07298  -0.07307
    D2        3.14153   0.00150   0.00000  -0.03783  -0.03781   3.10373
    D3        2.10341  -0.00215   0.00000  -0.08250  -0.08257   2.02084
    D4       -1.03816   0.00075   0.00000  -0.04742  -0.04739  -1.08555
    D5       -2.10332  -0.00089   0.00000  -0.07975  -0.07977  -2.18308
    D6        1.03830   0.00201   0.00000  -0.04467  -0.04459   0.99371
    D7        0.00004   0.00421   0.00000   0.02833   0.02801   0.02805
    D8        3.14152   0.00175   0.00000   0.10042   0.10089  -3.04077
    D9       -3.14153   0.00719   0.00000   0.06433   0.06386  -3.07767
   D10       -0.00005   0.00473   0.00000   0.13642   0.13673   0.13669
   D11       -1.57078  -0.00116   0.00000   0.00284   0.00290  -1.56788
   D12        0.52366   0.01232   0.00000   0.01982   0.01985   0.54351
   D13        2.61802   0.01380   0.00000   0.00000   0.00000   2.61802
   D14        1.57071  -0.00357   0.00000   0.07362   0.07337   1.64408
   D15       -2.61803   0.00991   0.00000   0.09061   0.09031  -2.52772
   D16       -0.52368   0.01138   0.00000   0.07078   0.07047  -0.45321
   D17        1.04724  -0.00986   0.00000  -0.00449  -0.00452   1.04272
   D18        3.14157  -0.01272   0.00000  -0.00848  -0.00853   3.13304
   D19       -1.04726  -0.01237   0.00000   0.00238   0.00236  -1.04490
   D20       -3.13259   0.00562   0.00000   0.01263   0.01262  -3.11997
   D21       -1.03826   0.00275   0.00000   0.00865   0.00861  -1.02965
   D22        1.05609   0.00310   0.00000   0.01950   0.01949   1.07558
   D23       -1.08102   0.00577   0.00000   0.02789   0.02794  -1.05308
   D24        1.01331   0.00291   0.00000   0.02390   0.02393   1.03724
   D25        3.10766   0.00325   0.00000   0.03476   0.03481  -3.14071
   D26        0.00000  -0.01761   0.00000   0.00200   0.00200   0.00200
   D27        3.14159  -0.01910   0.00000   0.00000   0.00000  -3.14159
   D28       -2.10332   0.00406   0.00000  -0.00214  -0.00216  -2.10548
   D29        1.03828   0.00258   0.00000  -0.00413  -0.00416   1.03412
   D30        2.12829   0.01441   0.00000  -0.01837  -0.01835   2.10994
   D31       -1.01330   0.01292   0.00000  -0.02037  -0.02034  -1.03365
   D32        0.00000   0.00089   0.00000   0.00470   0.00469   0.00469
   D33        3.14159   0.00087   0.00000  -0.00276  -0.00275   3.13884
   D34        3.14159  -0.00064   0.00000   0.00265   0.00264  -3.13895
   D35        0.00000  -0.00066   0.00000  -0.00480  -0.00479  -0.00479
   D36        0.00000  -0.00001   0.00000   0.03350   0.03350   0.03350
   D37        2.09435  -0.00099   0.00000   0.03105   0.03103   2.12539
   D38       -2.09435   0.00105   0.00000   0.03620   0.03623  -2.05812
   D39        3.14159  -0.00003   0.00000   0.02618   0.02617  -3.11542
   D40       -1.04724  -0.00100   0.00000   0.02373   0.02370  -1.02354
   D41        1.04724   0.00103   0.00000   0.02888   0.02890   1.07614
         Item               Value     Threshold  Converged?
 Maximum Force            0.085303     0.000450     NO 
 RMS     Force            0.015600     0.000300     NO 
 Maximum Displacement     0.294473     0.001800     NO 
 RMS     Displacement     0.063949     0.001200     NO 
 Predicted change in Energy=-6.978714D-03
 GradGradGradGradGradGradGradGradGradGradGradGradGradGradGradGradGradGrad

                          Input orientation:                          
 ---------------------------------------------------------------------
 Center     Atomic      Atomic             Coordinates (Angstroms)
 Number     Number       Type             X           Y           Z
 ---------------------------------------------------------------------
      1          1           0        1.851352    1.297517   -1.038188
      2          6           0        1.928428    2.259216   -0.530800
      3          1           0        1.583893    2.151677    0.499689
      4          1           0        1.301881    2.993928   -1.039910
      5          6           0        3.378028    2.741397   -0.519485
      6          8           0        4.283372    2.039775   -0.966871
      7          7           0        3.597492    3.941859    0.040158
      8          1           0        2.832973    4.464058    0.446007
      9          6           0        4.893950    4.589209    0.018844
     10          1           0        5.474029    4.297341    0.897541
     11          6           0        5.670985    4.212223   -1.246548
     12          1           0        5.101583    4.523669   -2.124655
     13          1           0        6.640599    4.712485   -1.254432
     14          1           0        5.816293    3.133172   -1.277662
     15          6           0        4.713444    6.106554    0.018866
     16          8           0        3.590652    6.606323    0.037493
     17          7           0        5.837858    6.838362    0.000065
     18          1           0        6.735172    6.375367   -0.017135
     19          6           0        5.815402    8.288457   -0.005620
     20          1           0        4.780229    8.626575    0.042038
     21          1           0        6.362560    8.670467    0.858207
     22          1           0        6.277227    8.665571   -0.920300
 ---------------------------------------------------------------------
                    Distance matrix (angstroms):
                    1          2          3          4          5
     1  H    0.000000
     2  C    1.090068   0.000000
     3  H    1.779380   1.091869   0.000000
     4  H    1.783181   1.091584   1.777438   0.000000
     5  C    2.164389   1.527733   2.146021   2.155227   0.000000
     6  O    2.543768   2.405011   3.074168   3.131300   1.229665
     7  N    3.347294   2.437838   2.733222   2.708312   1.342562
     8  H    3.632271   2.575593   2.628723   2.591037   2.048614
     9  C    4.605426   3.811207   4.138750   4.070484   2.449944
    10  H    5.086234   4.331905   4.460416   4.781153   2.970210
    11  C    4.809212   4.281736   4.898929   4.540486   2.819503
    12  H    4.706641   4.211536   4.988755   4.237277   2.953592
    13  H    5.886055   5.361597   5.933376   5.612608   3.881971
    14  H    4.375812   4.054269   4.694201   4.522813   2.583303
    15  C    5.695241   4.781261   5.066195   4.737954   3.660251
    16  O    5.689084   4.688633   4.907603   4.410064   3.910637
    17  N    6.904431   6.044340   6.349083   6.036250   4.806851
    18  H    7.118905   6.349121   6.681492   6.480806   4.972777
    19  C    8.102662   7.192783   7.471350   7.033751   6.080684
    20  H    7.966197   7.000298   7.235351   6.707922   6.075919
    21  H    8.849164   7.918018   8.090662   7.838138   6.779332
    22  H    8.595957   7.752751   8.153193   7.545588   6.607711
                    6          7          8          9         10
     6  O    0.000000
     7  N    2.258863   0.000000
     8  H    3.158644   1.010889   0.000000
     9  C    2.800724   1.449248   2.108497   0.000000
    10  H    3.160744   2.093529   2.684558   1.092605   0.000000
    11  C    2.592917   2.455214   3.313982   1.532031   2.154798
    12  H    2.860011   2.699483   3.429060   2.154529   3.053459
    13  H    3.575274   3.395633   4.177466   2.164997   2.482784
    14  H    1.908390   2.704385   3.693574   2.156777   2.490772
    15  C    4.206582   2.435509   2.533064   1.528044   2.150304
    16  O    4.726729   2.664474   2.308735   2.401600   3.101320
    17  N    5.135935   3.662046   3.855583   2.439264   2.719306
    18  H    5.070570   3.971181   4.369755   2.565493   2.597172
    19  C    6.505163   4.879972   4.870819   3.812362   4.106244
    20  H    6.682118   4.831711   4.613192   4.039034   4.467158
    21  H    7.184707   5.538460   5.506521   4.417920   4.462652
    22  H    6.919451   5.515153   5.601999   4.405925   4.799073
                   11         12         13         14         15
    11  C    0.000000
    12  H    1.091920   0.000000
    13  H    1.091089   1.778063   0.000000
    14  H    1.089235   1.778115   1.781642   0.000000
    15  C    2.471163   2.692742   2.697896   3.426115   0.000000
    16  O    3.421734   3.360840   3.815478   4.329652   1.229137
    17  N    2.911786   3.227125   2.595671   3.919373   1.341717
    18  H    2.706131   3.246389   2.074856   3.597929   2.039838
    19  C    4.263384   4.378752   3.876604   5.309901   2.444506
    20  H    4.684059   4.650985   4.523485   5.743911   2.521012
    21  H    4.978374   5.261507   4.495128   5.960032   3.161918
    22  H    4.506249   4.470789   3.983789   5.563057   3.142613
                   16         17         18         19         20
    16  O    0.000000
    17  N    2.259464   0.000000
    18  H    3.153463   1.009868   0.000000
    19  C    2.789435   1.450279   2.122739   0.000000
    20  H    2.344469   2.077991   2.982154   1.090036   0.000000
    21  H    3.552145   2.090054   2.484461   1.091563   1.780963
    22  H    3.517891   2.092560   2.504088   1.091851   1.780062
                   21         22
    21  H    0.000000
    22  H    1.780560   0.000000
 Stoichiometry    C6H12N2O2
 Framework group  C1[X(C6H12N2O2)]
 Deg. of freedom    60
 Full point group                 C1      NOp   1
 Largest Abelian subgroup         C1      NOp   1
 Largest concise Abelian subgroup C1      NOp   1
                         Standard orientation:                         
 ---------------------------------------------------------------------
 Center     Atomic      Atomic             Coordinates (Angstroms)
 Number     Number       Type             X           Y           Z
 ---------------------------------------------------------------------
      1          1           0       -4.300881   -0.645084    0.475627
      2          6           0       -3.352160   -1.105072    0.198883
      3          1           0       -3.486669   -1.686514   -0.715453
      4          1           0       -3.020447   -1.771005    0.997668
      5          6           0       -2.292032   -0.033207   -0.048502
      6          8           0       -2.576362    1.162310   -0.004077
      7          7           0       -1.062360   -0.477162   -0.353931
      8          1           0       -0.882152   -1.468628   -0.434022
      9          6           0        0.075822    0.408658   -0.495995
     10          1           0        0.160132    0.748912   -1.530840
     11          6           0       -0.061452    1.624989    0.425315
     12          1           0       -0.123554    1.286339    1.461534
     13          1           0        0.805077    2.278799    0.315158
     14          1           0       -0.967742    2.173793    0.172556
     15          6           0        1.355840   -0.328643   -0.105019
     16          8           0        1.319274   -1.501482    0.260891
     17          7           0        2.495435    0.374558   -0.188887
     18          1           0        2.467492    1.336917   -0.493706
     19          6           0        3.783042   -0.197867    0.154203
     20          1           0        3.642829   -1.241824    0.434687
     21          1           0        4.454673   -0.139332   -0.704281
     22          1           0        4.222055    0.346079    0.992969
 ---------------------------------------------------------------------
 Rotational constants (GHZ):      3.2644023      0.6765693      0.5835644
 Standard basis: 6-31G(d) (6D, 7F)
 There are   174 symmetry adapted basis functions of A   symmetry.
 Integral buffers will be    131072 words long.
 Raffenetti 2 integral format.
 Two-electron integral symmetry is turned on.
   174 basis functions,   328 primitive gaussians,   174 cartesian basis functions
    39 alpha electrons       39 beta electrons
       nuclear repulsion energy       556.2506834092 Hartrees.
 NAtoms=   22 NActive=   22 NUniq=   22 SFac= 7.50D-01 NAtFMM=   80 NAOKFM=F Big=F
 One-electron integrals computed using PRISM.
 NBasis=   174 RedAO= T  NBF=   174
 NBsUse=   174 1.00D-06 NBFU=   174
 Initial guess read from the read-write file.
 B after Tr=     0.000000    0.000000    0.000000
         Rot=    1.000000    0.000000    0.000000    0.000000 Ang=   0.00 deg.
 Initial guess orbital symmetries:
       Occupied  (A) (A) (A) (A) (A) (A) (A) (A) (A) (A) (A) (A)
                 (A) (A) (A) (A) (A) (A) (A) (A) (A) (A) (A) (A)
                 (A) (A) (A) (A) (A) (A) (A) (A) (A) (A) (A) (A)
                 (A) (A) (A)
       Virtual   (A) (A) (A) (A) (A) (A) (A) (A) (A) (A) (A) (A)
                 (A) (A) (A) (A) (A) (A) (A) (A) (A) (A) (A) (A)
                 (A) (A) (A) (A) (A) (A) (A) (A) (A) (A) (A) (A)
                 (A) (A) (A) (A) (A) (A) (A) (A) (A) (A) (A) (A)
                 (A) (A) (A) (A) (A) (A) (A) (A) (A) (A) (A) (A)
                 (A) (A) (A) (A) (A) (A) (A) (A) (A) (A) (A) (A)
                 (A) (A) (A) (A) (A) (A) (A) (A) (A) (A) (A) (A)
                 (A) (A) (A) (A) (A) (A) (A) (A) (A) (A) (A) (A)
                 (A) (A) (A) (A) (A) (A) (A) (A) (A) (A) (A) (A)
                 (A) (A) (A) (A) (A) (A) (A) (A) (A) (A) (A) (A)
                 (A) (A) (A) (A) (A) (A) (A) (A) (A) (A) (A) (A)
                 (A) (A) (A)
 Harris functional with IExCor=  402 diagonalized for initial guess.
 ExpMin= 1.61D-01 ExpMax= 5.48D+03 ExpMxC= 8.25D+02 IAcc=1 IRadAn=         1 AccDes= 0.00D+00
 HarFok:  IExCor=  402 AccDes= 0.00D+00 IRadAn=         1 IDoV= 1
 ScaDFX=  1.000000  1.000000  1.000000  1.000000
 FoFCou: FMM=F IPFlag=           0 FMFlag=      100000 FMFlg1=           0
         NFxFlg=           0 DoJE=T BraDBF=F KetDBF=T FulRan=T
         Omega=  0.000000  0.000000  1.000000  0.000000  0.000000 ICntrl=     500 IOpCl=  0
         NMat0=    1 NMatS0=    1 NMatT0=    0 NMatD0=    1 NMtDS0=    0 NMtDT0=    0
         I1Cent=           4 NGrid=           0.
 Petite list used in FoFCou.
 Requested convergence on RMS density matrix=1.00D-08 within 128 cycles.
 Requested convergence on MAX density matrix=1.00D-06.
 Requested convergence on             energy=1.00D-06.
 No special actions if energy rises.
 Integral accuracy reduced to 1.0D-05 until final iterations.
 Initial convergence to 1.0D-05 achieved.  Increase integral accuracy.
 SCF Done:  E(RB3LYP) =  -495.835245219     A.U. after   16 cycles
             Convg  =    0.6979D-08             -V/T =  2.0088
 Calling FoFJK, ICntrl=      2127 FMM=F ISym2X=0 I1Cent= 0 IOpClX= 0 NMat=1 NMatS=1 NMatT=0.
 ***** Axes restored to original set *****
 -------------------------------------------------------------------
 Center     Atomic                   Forces (Hartrees/Bohr)
 Number     Number              X              Y              Z
 -------------------------------------------------------------------
      1        1           0.002767867    0.000417414   -0.000138220
      2        6           0.004269455    0.006473212    0.001437927
      3        1          -0.004210039   -0.000345858    0.001994971
      4        1          -0.004554408    0.000830571    0.000054019
      5        6          -0.002927168   -0.026846551   -0.004916806
      6        8          -0.011106741   -0.014189907    0.001033535
      7        7           0.000257220    0.015060445    0.007553234
      8        1          -0.000206676    0.004607484   -0.003668424
      9        6           0.005080740   -0.000699845   -0.008841858
     10        1           0.003361246   -0.001092038    0.004816441
     11        6           0.012197982   -0.001142283   -0.000884770
     12        1           0.000784711    0.000148718   -0.002763341
     13        1           0.002250249    0.002522210   -0.001827657
     14        1           0.003189458    0.006949023   -0.003081675
     15        6          -0.021698168   -0.005285873    0.006563132
     16        8          -0.003797452    0.001654415    0.000989510
     17        7           0.010297529    0.006814898    0.001875774
     18        1          -0.000758527   -0.000000592   -0.000081490
     19        6           0.002824155   -0.000003619   -0.000008658
     20        1          -0.000155796   -0.002209284    0.000013633
     21        1           0.001179606    0.003210774    0.001696223
     22        1           0.000954756    0.003126685   -0.001815498
 -------------------------------------------------------------------
 Cartesian Forces:  Max     0.026846551 RMS     0.006338043

 GradGradGradGradGradGradGradGradGradGradGradGradGradGradGradGradGradGrad
 Berny optimization.
 Using GEDIIS/GDIIS optimizer.
 Internal  Forces:  Max     0.059840611 RMS     0.011203051
 Search for a local minimum.
 Step number   2 out of a maximum of  132
 All quantities printed in internal units (Hartrees-Bohrs-Radians)
 Mixed Optimization -- RFO/linear search
 Update second derivatives using D2CorX and points    1    2
 DE= -6.81D-03 DEPred=-6.98D-03 R= 9.76D-01
 SS=  1.41D+00  RLast= 3.00D-01 DXNew= 5.0454D-01 8.9996D-01
 Trust test= 9.76D-01 RLast= 3.00D-01 DXMaxT set to 5.05D-01
 Use linear search instead of GDIIS.
 Linear search step of   0.515 exceeds DXMaxT=   0.505 but not scaled.
 Quartic linear search produced a step of  1.73589.
 Iteration  1 RMS(Cart)=  0.10607965 RMS(Int)=  0.00635313
 Iteration  2 RMS(Cart)=  0.01163654 RMS(Int)=  0.00075433
 Iteration  3 RMS(Cart)=  0.00009643 RMS(Int)=  0.00075105
 Iteration  4 RMS(Cart)=  0.00000003 RMS(Int)=  0.00075105
 Iteration  1 RMS(Cart)=  0.00034884 RMS(Int)=  0.00011971
 Iteration  2 RMS(Cart)=  0.00018740 RMS(Int)=  0.00013323
 Iteration  3 RMS(Cart)=  0.00010204 RMS(Int)=  0.00015120
 Iteration  4 RMS(Cart)=  0.00005668 RMS(Int)=  0.00016422
 Iteration  5 RMS(Cart)=  0.00003234 RMS(Int)=  0.00017273
 Iteration  6 RMS(Cart)=  0.00001905 RMS(Int)=  0.00017817
 Iteration  7 RMS(Cart)=  0.00001159 RMS(Int)=  0.00018163
 Iteration  8 RMS(Cart)=  0.00000727 RMS(Int)=  0.00018384
 Iteration  9 RMS(Cart)=  0.00000467 RMS(Int)=  0.00018527
 Iteration 10 RMS(Cart)=  0.00000305 RMS(Int)=  0.00018619
 Iteration 11 RMS(Cart)=  0.00000202 RMS(Int)=  0.00018678
 Iteration 12 RMS(Cart)=  0.00000134 RMS(Int)=  0.00018717
 Iteration 13 RMS(Cart)=  0.00000090 RMS(Int)=  0.00018743
 Variable       Old X    -DE/DX   Delta X   Delta X   Delta X     New X
                                 (Linear)    (Quad)   (Total)
    R1        2.05993  -0.00050   0.00027   0.00000   0.00027   2.06020
    R2        2.06333   0.00324   0.00639   0.00000   0.00639   2.06972
    R3        2.06280   0.00315   0.00507   0.00000   0.00508   2.06787
    R4        2.88700  -0.00071  -0.00750   0.00000  -0.00750   2.87950
    R5        2.32373  -0.00046   0.00232   0.00000   0.00232   2.32605
    R6        2.53708   0.03290   0.02462   0.00000   0.02462   2.56169
    R7        1.91030   0.00106   0.00298   0.00000   0.00298   1.91328
    R8        2.73868   0.02036   0.00088   0.00000   0.00088   2.73956
    R9        2.06472   0.00595   0.00864   0.00000   0.00864   2.07337
   R10        2.89512   0.01433   0.02297   0.00000   0.02297   2.91809
   R11        2.88758   0.00857   0.01980   0.00000   0.01980   2.90739
   R12        2.06343   0.00186   0.00644   0.00000   0.00644   2.06987
   R13        2.06186   0.00317   0.00350   0.00000   0.00350   2.06536
   R14        2.05836  -0.00637  -0.00226   0.00000  -0.00226   2.05609
   R15        2.32273   0.00416   0.00022   0.00000   0.00022   2.32296
   R16        2.53548   0.01797   0.02219   0.00000   0.02219   2.55766
   R17        1.90837  -0.00067  -0.00055   0.00000  -0.00055   1.90782
   R18        2.74063   0.00405   0.00420   0.00000   0.00420   2.74483
   R19        2.05987  -0.00054   0.00011   0.00000   0.00011   2.05998
   R20        2.06276   0.00306   0.00531   0.00000   0.00531   2.06806
   R21        2.06330   0.00300   0.00625   0.00000   0.00625   2.06955
    A1        1.90720  -0.00008  -0.00700   0.00000  -0.00706   1.90014
    A2        1.91360   0.00008   0.00436   0.00000   0.00452   1.91813
    A3        1.92729  -0.00567  -0.02050   0.00000  -0.02045   1.90684
    A4        1.90218  -0.00380  -0.01379   0.00000  -0.01406   1.88812
    A5        1.90023   0.00472   0.00721   0.00000   0.00704   1.90727
    A6        1.91309   0.00477   0.02976   0.00000   0.02971   1.94280
    A7        2.11276  -0.00904   0.01671   0.00000   0.01577   2.12853
    A8        2.02685  -0.02168  -0.01430   0.00000  -0.01520   2.01165
    A9        2.14301   0.03065  -0.00340   0.00000  -0.00426   2.13875
   A10        2.10090  -0.02692   0.01146   0.00000   0.00763   2.10853
   A11        2.14064   0.05984   0.02277   0.00000   0.01942   2.16006
   A12        2.03948  -0.03271  -0.03797   0.00000  -0.04101   1.99847
   A13        1.92175  -0.00375   0.01842   0.00000   0.01869   1.94044
   A14        1.93473   0.03144  -0.00749   0.00000  -0.00837   1.92636
   A15        1.91546  -0.02326  -0.04087   0.00000  -0.04092   1.87453
   A16        1.90630  -0.00693   0.01772   0.00000   0.01759   1.92389
   A17        1.90494   0.00375   0.01539   0.00000   0.01612   1.92106
   A18        1.87997  -0.00144  -0.00243   0.00000  -0.00412   1.87585
   A19        1.90663   0.00184  -0.00785   0.00000  -0.00782   1.89880
   A20        1.92183  -0.00061   0.01869   0.00000   0.01861   1.94044
   A21        1.91243   0.00698   0.00231   0.00000   0.00217   1.91459
   A22        1.90374  -0.00223  -0.01105   0.00000  -0.01098   1.89276
   A23        1.90621  -0.00296  -0.00699   0.00000  -0.00702   1.89919
   A24        1.91288  -0.00308   0.00474   0.00000   0.00450   1.91738
   A25        2.10792   0.00049   0.00833   0.00000   0.00832   2.11624
   A26        2.02930  -0.00108  -0.01006   0.00000  -0.01006   2.01924
   A27        2.14596   0.00058   0.00173   0.00000   0.00173   2.14769
   A28        2.08842  -0.00192  -0.01036   0.00000  -0.01040   2.07802
   A29        2.13227   0.00317   0.00797   0.00000   0.00794   2.14021
   A30        2.06247  -0.00125   0.00235   0.00000   0.00231   2.06478
   A31        1.90147  -0.00451  -0.01657   0.00000  -0.01650   1.88498
   A32        1.91671   0.00351   0.00967   0.00000   0.00960   1.92631
   A33        1.91993   0.00341   0.01525   0.00000   0.01520   1.93512
   A34        1.91015  -0.00009  -0.00001   0.00000   0.00004   1.91018
   A35        1.90835  -0.00008  -0.00313   0.00000  -0.00304   1.90530
   A36        1.90716  -0.00226  -0.00527   0.00000  -0.00546   1.90171
    D1       -0.07307  -0.00072  -0.12669   0.00000  -0.12701  -0.20007
    D2        3.10373   0.00078  -0.06563   0.00000  -0.06549   3.03824
    D3        2.02084  -0.00132  -0.14333   0.00000  -0.14363   1.87721
    D4       -1.08555   0.00018  -0.08226   0.00000  -0.08212  -1.16767
    D5       -2.18308  -0.00029  -0.13846   0.00000  -0.13852  -2.32160
    D6        0.99371   0.00121  -0.07740   0.00000  -0.07700   0.91671
    D7        0.02805   0.00317   0.04863   0.00000   0.04730   0.07535
    D8       -3.04077   0.00100   0.17513   0.00000   0.17721  -2.86356
    D9       -3.07767   0.00561   0.11086   0.00000   0.10877  -2.96890
   D10        0.13669   0.00344   0.23736   0.00000   0.23869   0.37538
   D11       -1.56788   0.00025   0.00503   0.00000   0.00532  -1.56256
   D12        0.54351   0.00968   0.03445   0.00000   0.03455   0.57805
   D13        2.61802   0.01267   0.00001   0.00000   0.00000   2.61802
   D14        1.64408  -0.00190   0.12736   0.00000   0.12612   1.77020
   D15       -2.52772   0.00753   0.15678   0.00000   0.15535  -2.37237
   D16       -0.45321   0.01052   0.12233   0.00000   0.12080  -0.33241
   D17        1.04272  -0.00674  -0.00784   0.00000  -0.00793   1.03480
   D18        3.13304  -0.00871  -0.01480   0.00000  -0.01500   3.11804
   D19       -1.04490  -0.00845   0.00409   0.00000   0.00403  -1.04087
   D20       -3.11997   0.00419   0.02190   0.00000   0.02185  -3.09812
   D21       -1.02965   0.00223   0.01495   0.00000   0.01478  -1.01488
   D22        1.07558   0.00248   0.03384   0.00000   0.03381   1.10940
   D23       -1.05308   0.00403   0.04850   0.00000   0.04873  -1.00436
   D24        1.03724   0.00207   0.04154   0.00000   0.04165   1.07889
   D25       -3.14071   0.00232   0.06043   0.00000   0.06069  -3.08002
   D26        0.00200  -0.01319   0.00347   0.00000   0.00347   0.00546
   D27       -3.14159  -0.01445   0.00001   0.00000   0.00000  -3.14159
   D28       -2.10548   0.00344  -0.00376   0.00000  -0.00389  -2.10937
   D29        1.03412   0.00219  -0.00722   0.00000  -0.00735   1.02676
   D30        2.10994   0.01046  -0.03185   0.00000  -0.03169   2.07825
   D31       -1.03365   0.00920  -0.03531   0.00000  -0.03516  -1.06880
   D32        0.00469   0.00073   0.00814   0.00000   0.00808   0.01277
   D33        3.13884   0.00072  -0.00477   0.00000  -0.00474   3.13410
   D34       -3.13895  -0.00056   0.00459   0.00000   0.00456  -3.13439
   D35       -0.00479  -0.00057  -0.00832   0.00000  -0.00827  -0.01306
   D36        0.03350   0.00000   0.05815   0.00000   0.05816   0.09166
   D37        2.12539  -0.00076   0.05387   0.00000   0.05381   2.17919
   D38       -2.05812   0.00082   0.06289   0.00000   0.06303  -1.99509
   D39       -3.11542  -0.00001   0.04543   0.00000   0.04538  -3.07004
   D40       -1.02354  -0.00077   0.04114   0.00000   0.04102  -0.98252
   D41        1.07614   0.00080   0.05017   0.00000   0.05025   1.12639
         Item               Value     Threshold  Converged?
 Maximum Force            0.059749     0.000450     NO 
 RMS     Force            0.010956     0.000300     NO 
 Maximum Displacement     0.538874     0.001800     NO 
 RMS     Displacement     0.111315     0.001200     NO 
 Predicted change in Energy=-7.010776D-03
 GradGradGradGradGradGradGradGradGradGradGradGradGradGradGradGradGradGrad

                          Input orientation:                          
 ---------------------------------------------------------------------
 Center     Atomic      Atomic             Coordinates (Angstroms)
 Number     Number       Type             X           Y           Z
 ---------------------------------------------------------------------
      1          1           0        1.831498    1.405620   -1.133856
      2          6           0        1.928572    2.348175   -0.594661
      3          1           0        1.472010    2.238845    0.394869
      4          1           0        1.396695    3.140292   -1.130465
      5          6           0        3.405891    2.684566   -0.432706
      6          8           0        4.291379    1.866640   -0.681711
      7          7           0        3.666439    3.897950    0.112673
      8          1           0        2.914730    4.489910    0.443737
      9          6           0        4.960903    4.547757    0.051130
     10          1           0        5.586597    4.266773    0.907493
     11          6           0        5.676560    4.196167   -1.271267
     12          1           0        5.052601    4.526325   -2.108774
     13          1           0        6.644570    4.698625   -1.342072
     14          1           0        5.813479    3.118906   -1.339001
     15          6           0        4.714039    6.066343    0.053364
     16          8           0        3.575770    6.527331    0.107257
     17          7           0        5.822480    6.841130   -0.000602
     18          1           0        6.728423    6.398305   -0.049764
     19          6           0        5.763562    8.292358   -0.015540
     20          1           0        4.723031    8.588660    0.117889
     21          1           0        6.367463    8.706498    0.797749
     22          1           0        6.130709    8.688025   -0.968440
 ---------------------------------------------------------------------
                    Distance matrix (angstroms):
                    1          2          3          4          5
     1  H    0.000000
     2  C    1.090213   0.000000
     3  H    1.777779   1.095250   0.000000
     4  H    1.788337   1.094270   1.773393   0.000000
     5  C    2.146166   1.523765   2.150219   2.175183   0.000000
     6  O    2.543224   2.412946   3.040789   3.194176   1.230892
     7  N    3.336548   2.433578   2.765462   2.696511   1.355589
     8  H    3.629744   2.576394   2.674158   2.569827   2.066073
     9  C    4.590249   3.801346   4.197809   4.010075   2.474599
    10  H    5.143353   4.395297   4.615745   4.793486   3.009152
    11  C    4.752951   4.233236   4.928019   4.410436   2.853781
    12  H    4.589637   4.098344   4.931675   4.030362   2.985453
    13  H    5.835486   5.322018   5.985220   5.478446   3.920768
    14  H    4.339770   4.029959   4.757012   4.421755   2.608927
    15  C    5.607216   4.690792   5.027635   4.579082   3.658405
    16  O    5.551105   4.546569   4.785357   4.213355   3.884232
    17  N    6.837907   5.975120   6.345393   5.878806   4.827384
    18  H    7.076866   6.303890   6.717789   6.341127   4.997772
    19  C    8.008677   7.097593   7.431747   6.845171   6.097538
    20  H    7.843717   6.874619   7.139048   6.504431   6.074236
    21  H    8.809591   7.878504   8.121472   7.707736   6.822653
    22  H    8.458368   7.615206   8.071803   7.294826   6.614617
                    6          7          8          9         10
     6  O    0.000000
     7  N    2.268879   0.000000
[...]
    13  H    6.173038   5.470488   5.904490   5.684022   4.049883
    14  H    4.735167   4.216062   4.885380   4.458462   2.757132
    15  C    5.587182   4.649427   4.537267   4.979930   3.681099
    16  O    5.454365   4.447230   4.090012   4.717762   3.866788
    17  N    6.872612   5.955742   5.892102   6.244846   4.873951
    18  H    7.152142   6.313463   6.389324   6.630798   5.060411
    19  C    8.031115   7.055005   6.852192   7.271107   6.134938
    20  H    7.799080   6.785394   6.443141   6.969815   6.077416
    21  H    8.739044   7.811205   7.563044   8.131068   6.846087
    22  H    8.627419   7.625196   7.509680   7.710342   6.691530
                    6          7          8          9         10
     6  O    0.000000
     7  N    2.298996   0.000000
     8  H    3.170779   1.016675   0.000000
     9  C    2.968053   1.457887   2.054844   0.000000
    10  H    3.340298   2.103015   2.735515   1.100869   0.000000
    11  C    2.914943   2.517792   3.242660   1.542040   2.161133
    12  H    3.216176   2.823237   3.344848   2.182511   3.074524
    13  H    3.895898   3.453648   4.114703   2.186875   2.465309
    14  H    2.248443   2.751971   3.662605   2.168269   2.532000
    15  C    4.364294   2.397890   2.308865   1.550646   2.159796
    16  O    4.804371   2.611346   2.021215   2.430986   3.097804
    17  N    5.370808   3.647612   3.664209   2.461185   2.744332
    18  H    5.334915   3.952846   4.207109   2.559331   2.617608
    19  C    6.735700   4.868681   4.660083   3.845486   4.127215
    20  H    6.846517   4.794708   4.364639   4.059695   4.464345
    21  H    7.418591   5.535702   5.355609   4.457863   4.487897
    22  H    7.207654   5.522844   5.363738   4.455375   4.847499
                   11         12         13         14         15
    11  C    0.000000
    12  H    1.095265   0.000000
    13  H    1.095683   1.775721   0.000000
    14  H    1.089062   1.771667   1.777187   0.000000
    15  C    2.544210   2.754890   2.835110   3.487398   0.000000
    16  O    3.520091   3.492144   3.977881   4.393191   1.229335
    17  N    2.963622   3.219046   2.727006   3.992946   1.358056
    18  H    2.700468   3.157217   2.130645   3.647340   2.043398
    19  C    4.336020   4.400656   4.033521   5.396478   2.470932
    20  H    4.760939   4.707079   4.687024   5.816038   2.523248
    21  H    5.040685   5.273689   4.619686   6.047510   3.196493
    22  H    4.606963   4.496450   4.190302   5.682589   3.182755
                   16         17         18         19         20
    16  O    0.000000
    17  N    2.275038   0.000000
    18  H    3.159301   1.009346   0.000000
    19  C    2.825428   1.453634   2.128193   0.000000
    20  H    2.362504   2.063269   2.972196   1.090253   0.000000
    21  H    3.588380   2.110469   2.513992   1.095971   1.781885
    22  H    3.562545   2.112149   2.530490   1.096186   1.781424
                   21         22
    21  H    0.000000
    22  H    1.783545   0.000000
 Stoichiometry    C6H12N2O2
 Framework group  C1[X(C6H12N2O2)]
 Deg. of freedom    60
 Full point group                 C1      NOp   1
 Largest Abelian subgroup         C1      NOp   1
 Largest concise Abelian subgroup C1      NOp   1
                         Standard orientation:                         
 ---------------------------------------------------------------------
 Center     Atomic      Atomic             Coordinates (Angstroms)
 Number     Number       Type             X           Y           Z
 ---------------------------------------------------------------------
      1          1           0       -4.189648   -1.115329   -0.148097
      2          6           0       -3.194629   -1.258779    0.279548
      3          1           0       -2.780957   -2.209514   -0.070829
      4          1           0       -3.305750   -1.309651    1.369006
      5          6           0       -2.332661   -0.051697   -0.075795
      6          8           0       -2.796629    1.083509   -0.078811
      7          7           0       -1.041320   -0.364554   -0.406513
      8          1           0       -0.734020   -1.319291   -0.240164
      9          6           0        0.095147    0.545945   -0.476301
     10          1           0        0.217518    0.910132   -1.507953
     11          6           0       -0.014495    1.763094    0.464132
     12          1           0       -0.023677    1.440682    1.510828
     13          1           0        0.831944    2.444082    0.321589
     14          1           0       -0.938640    2.302878    0.262523
     15          6           0        1.339086   -0.309686   -0.122729
     16          8           0        1.243231   -1.508041    0.134221
     17          7           0        2.524115    0.353625   -0.129089
     18          1           0        2.525309    1.338643   -0.349355
     19          6           0        3.792761   -0.290753    0.168176
     20          1           0        3.589792   -1.345557    0.354841
     21          1           0        4.485384   -0.201249   -0.676463
     22          1           0        4.259117    0.148197    1.057815
 ---------------------------------------------------------------------
 Rotational constants (GHZ):      3.0360863      0.6725392      0.5734655

 **********************************************************************

            Population analysis using the SCF density.

 **********************************************************************

 Orbital symmetries:
       Occupied  (A) (A) (A) (A) (A) (A) (A) (A) (A) (A) (A) (A)
                 (A) (A) (A) (A) (A) (A) (A) (A) (A) (A) (A) (A)
                 (A) (A) (A) (A) (A) (A) (A) (A) (A) (A) (A) (A)
                 (A) (A) (A)
       Virtual   (A) (A) (A) (A) (A) (A) (A) (A) (A) (A) (A) (A)
                 (A) (A) (A) (A) (A) (A) (A) (A) (A) (A) (A) (A)
                 (A) (A) (A) (A) (A) (A) (A) (A) (A) (A) (A) (A)
                 (A) (A) (A) (A) (A) (A) (A) (A) (A) (A) (A) (A)
                 (A) (A) (A) (A) (A) (A) (A) (A) (A) (A) (A) (A)
                 (A) (A) (A) (A) (A) (A) (A) (A) (A) (A) (A) (A)
                 (A) (A) (A) (A) (A) (A) (A) (A) (A) (A) (A) (A)
                 (A) (A) (A) (A) (A) (A) (A) (A) (A) (A) (A) (A)
                 (A) (A) (A) (A) (A) (A) (A) (A) (A) (A) (A) (A)
                 (A) (A) (A) (A) (A) (A) (A) (A) (A) (A) (A) (A)
                 (A) (A) (A) (A) (A) (A) (A) (A) (A) (A) (A) (A)
                 (A) (A) (A)
 The electronic state is 1-A.
 Alpha  occ. eigenvalues --  -19.12912 -19.09856 -14.37694 -14.34658 -10.29979
 Alpha  occ. eigenvalues --  -10.27875 -10.24294 -10.22899 -10.18406 -10.18198
 Alpha  occ. eigenvalues --   -1.04893  -1.01696  -0.93534  -0.91322  -0.78109
 Alpha  occ. eigenvalues --   -0.72602  -0.70995  -0.65331  -0.60100  -0.55737
 Alpha  occ. eigenvalues --   -0.53818  -0.49203  -0.47609  -0.46203  -0.45162
 Alpha  occ. eigenvalues --   -0.44188  -0.42982  -0.41157  -0.40376  -0.40197
 Alpha  occ. eigenvalues --   -0.38735  -0.38442  -0.36935  -0.36674  -0.34191
 Alpha  occ. eigenvalues --   -0.26985  -0.26769  -0.24600  -0.23470
 Alpha virt. eigenvalues --    0.01536   0.03698   0.06055   0.10461   0.11122
 Alpha virt. eigenvalues --    0.13608   0.13980   0.14591   0.15187   0.15718
 Alpha virt. eigenvalues --    0.16008   0.17551   0.18687   0.19309   0.20709
 Alpha virt. eigenvalues --    0.21073   0.24083   0.24989   0.28353   0.33305
 Alpha virt. eigenvalues --    0.33891   0.39320   0.42888   0.49737   0.50921
 Alpha virt. eigenvalues --    0.51795   0.52671   0.53624   0.55214   0.55661
 Alpha virt. eigenvalues --    0.56901   0.58980   0.62058   0.63069   0.66778
 Alpha virt. eigenvalues --    0.68049   0.69193   0.70695   0.72615   0.73930
 Alpha virt. eigenvalues --    0.74954   0.76348   0.79044   0.80089   0.83004
 Alpha virt. eigenvalues --    0.84153   0.85773   0.86352   0.87990   0.88630
 Alpha virt. eigenvalues --    0.88721   0.90406   0.92310   0.93186   0.93280
 Alpha virt. eigenvalues --    0.94746   0.95126   0.96488   0.99064   1.01935
 Alpha virt. eigenvalues --    1.04770   1.07616   1.10202   1.11938   1.18854
 Alpha virt. eigenvalues --    1.20821   1.24504   1.26916   1.32838   1.33715
 Alpha virt. eigenvalues --    1.35198   1.37419   1.41211   1.44611   1.47532
 Alpha virt. eigenvalues --    1.51092   1.52341   1.59983   1.66966   1.69809
 Alpha virt. eigenvalues --    1.73749   1.75296   1.77222   1.79792   1.81580
 Alpha virt. eigenvalues --    1.82918   1.83205   1.84998   1.86126   1.89780
 Alpha virt. eigenvalues --    1.91647   1.93517   1.95990   1.99322   2.01070
 Alpha virt. eigenvalues --    2.03640   2.05125   2.08403   2.10986   2.20659
 Alpha virt. eigenvalues --    2.21140   2.22980   2.25162   2.28082   2.29667
 Alpha virt. eigenvalues --    2.29917   2.31528   2.34258   2.38174   2.42031
 Alpha virt. eigenvalues --    2.42395   2.44437   2.51337   2.57199   2.57568
 Alpha virt. eigenvalues --    2.64793   2.69418   2.72093   2.76299   2.86310
 Alpha virt. eigenvalues --    2.92380   2.96831   3.00338   3.11029   3.19829
 Alpha virt. eigenvalues --    3.94129   3.98257   4.06658   4.09431   4.19505
 Alpha virt. eigenvalues --    4.22749   4.25558   4.38933   4.48139   4.62470
          Condensed to atoms (all electrons):
              1          2          3          4          5          6
     1  H    0.522353   0.357933  -0.025164  -0.023224  -0.019898   0.002976
     2  C    0.357933   5.330548   0.342283   0.361676   0.342737  -0.082667
     3  H   -0.025164   0.342283   0.567745  -0.025957  -0.024942   0.002895
     4  H   -0.023224   0.361676  -0.025957   0.529440  -0.020609   0.000046
     5  C   -0.019898   0.342737  -0.024942  -0.020609   4.310633   0.585259
     6  O    0.002976  -0.082667   0.002895   0.000046   0.585259   8.081819
     7  N    0.003335  -0.121202   0.006956   0.000150   0.268818  -0.089116
     8  H   -0.000039  -0.000166   0.002294   0.000040  -0.011987   0.002684
     9  C   -0.000206   0.007136   0.000268  -0.000107  -0.027400   0.002894
    10  H    0.000017  -0.000199  -0.000012  -0.000006  -0.002016   0.000427
    11  C    0.000002  -0.000548   0.000017   0.000030  -0.000778  -0.015316
    12  H    0.000004  -0.000061  -0.000004  -0.000008   0.000640  -0.000778
    13  H    0.000000   0.000009   0.000000  -0.000001   0.000386   0.000492
    14  H   -0.000006   0.000626  -0.000019  -0.000007   0.002417   0.023843
    15  C   -0.000001  -0.000053  -0.000079   0.000007   0.004526   0.000264
    16  O    0.000000  -0.000134  -0.000037   0.000001   0.000580  -0.000005
    17  N    0.000000   0.000001   0.000000   0.000000  -0.000057   0.000000
    18  H    0.000000   0.000000   0.000000   0.000000   0.000006   0.000001
    19  C    0.000000   0.000000   0.000000   0.000000   0.000001   0.000000
    20  H    0.000000   0.000000   0.000000   0.000000   0.000000   0.000000
    21  H    0.000000   0.000000   0.000000   0.000000   0.000000   0.000000
    22  H    0.000000   0.000000   0.000000   0.000000   0.000000   0.000000
              7          8          9         10         11         12
     1  H    0.003335  -0.000039  -0.000206   0.000017   0.000002   0.000004
     2  C   -0.121202  -0.000166   0.007136  -0.000199  -0.000548  -0.000061
     3  H    0.006956   0.002294   0.000268  -0.000012   0.000017  -0.000004
     4  H    0.000150   0.000040  -0.000107  -0.000006   0.000030  -0.000008
     5  C    0.268818  -0.011987  -0.027400  -0.002016  -0.000778   0.000640
     6  O   -0.089116   0.002684   0.002894   0.000427  -0.015316  -0.000778
     7  N    7.157050   0.275267   0.265679  -0.044264  -0.048165   0.000868
     8  H    0.275267   0.386217  -0.061703   0.004246   0.004587   0.000383
     9  C    0.265679  -0.061703   5.060445   0.365150   0.353212  -0.035686
    10  H   -0.044264   0.004246   0.365150   0.595382  -0.048195   0.005616
    11  C   -0.048165   0.004587   0.353212  -0.048195   5.176468   0.372452
    12  H    0.000868   0.000383  -0.035686   0.005616   0.372452   0.559206
    13  H    0.004264  -0.000115  -0.030216  -0.001482   0.345800  -0.030390
    14  H   -0.009703  -0.000214  -0.019015  -0.004579   0.357764  -0.025708
    15  C   -0.030692  -0.003903   0.319338  -0.037667  -0.033607  -0.004079
    16  O   -0.022384   0.048400  -0.080898   0.000898   0.000046   0.000598
    17  N    0.002724   0.002188  -0.112043   0.001222   0.001580   0.000192
    18  H    0.000202  -0.000089   0.000711   0.000883   0.001459  -0.000162
    19  C   -0.000075  -0.000024   0.005371  -0.000291  -0.000013  -0.000079
    20  H    0.000009  -0.000059   0.001041  -0.000034  -0.000049  -0.000007
    21  H    0.000001   0.000000  -0.000175   0.000026   0.000001   0.000001
    22  H    0.000001   0.000000  -0.000030  -0.000005  -0.000007   0.000000
             13         14         15         16         17         18
     1  H    0.000000  -0.000006  -0.000001   0.000000   0.000000   0.000000
     2  C    0.000009   0.000626  -0.000053  -0.000134   0.000001   0.000000
     3  H    0.000000  -0.000019  -0.000079  -0.000037   0.000000   0.000000
     4  H   -0.000001  -0.000007   0.000007   0.000001   0.000000   0.000000
     5  C    0.000386   0.002417   0.004526   0.000580  -0.000057   0.000006
     6  O    0.000492   0.023843   0.000264  -0.000005   0.000000   0.000001
     7  N    0.004264  -0.009703  -0.030692  -0.022384   0.002724   0.000202
     8  H   -0.000115  -0.000214  -0.003903   0.048400   0.002188  -0.000089
     9  C   -0.030216  -0.019015   0.319338  -0.080898  -0.112043   0.000711
    10  H   -0.001482  -0.004579  -0.037667   0.000898   0.001222   0.000883
    11  C    0.345800   0.357764  -0.033607   0.000046   0.001580   0.001459
    12  H   -0.030390  -0.025708  -0.004079   0.000598   0.000192  -0.000162
    13  H    0.607841  -0.021625  -0.006293  -0.000019   0.001553   0.007068
    14  H   -0.021625   0.474794   0.003165  -0.000070   0.000157  -0.000145
    15  C   -0.006293   0.003165   4.371963   0.574546   0.288633  -0.023667
    16  O   -0.000019  -0.000070   0.574546   8.083751  -0.092656   0.003334
    17  N    0.001553   0.000157   0.288633  -0.092656   7.046043   0.305041
    18  H    0.007068  -0.000145  -0.023667   0.003334   0.305041   0.402120
    19  C    0.000007   0.000004  -0.023270  -0.008012   0.267799  -0.031456
    20  H   -0.000003   0.000001  -0.001561   0.019910  -0.038840   0.003919
    21  H   -0.000001   0.000000   0.001308   0.000457  -0.040625  -0.001351
    22  H    0.000011  -0.000001   0.000900   0.000455  -0.041688  -0.000256
             19         20         21         22
     1  H    0.000000   0.000000   0.000000   0.000000
     2  C    0.000000   0.000000   0.000000   0.000000
     3  H    0.000000   0.000000   0.000000   0.000000
     4  H    0.000000   0.000000   0.000000   0.000000
     5  C    0.000001   0.000000   0.000000   0.000000
     6  O    0.000000   0.000000   0.000000   0.000000
     7  N   -0.000075   0.000009   0.000001   0.000001
     8  H   -0.000024  -0.000059   0.000000   0.000000
     9  C    0.005371   0.001041  -0.000175  -0.000030
    10  H   -0.000291  -0.000034   0.000026  -0.000005
    11  C   -0.000013  -0.000049   0.000001  -0.000007
    12  H   -0.000079  -0.000007   0.000001   0.000000
    13  H    0.000007  -0.000003  -0.000001   0.000011
    14  H    0.000004   0.000001   0.000000  -0.000001
    15  C   -0.023270  -0.001561   0.001308   0.000900
    16  O   -0.008012   0.019910   0.000457   0.000455
    17  N    0.267799  -0.038840  -0.040625  -0.041688
    18  H   -0.031456   0.003919  -0.001351  -0.000256
    19  C    4.961624   0.378228   0.381127   0.382320
    20  H    0.378228   0.478004  -0.023711  -0.024896
    21  H    0.381127  -0.023711   0.560412  -0.039702
    22  H    0.382320  -0.024896  -0.039702   0.559471
 Mulliken atomic charges:
              1
     1  H    0.181918
     2  C   -0.537919
     3  H    0.153757
     4  H    0.178530
     5  C    0.591685
     6  O   -0.515717
     7  N   -0.619724
     8  H    0.351992
     9  C   -0.013766
    10  H    0.164884
    11  C   -0.466742
    12  H    0.157001
    13  H    0.122716
    14  H    0.218320
    15  C    0.600222
    16  O   -0.528761
    17  N   -0.591222
    18  H    0.332382
    19  C   -0.313262
    20  H    0.208049
    21  H    0.162230
    22  H    0.163427
 Sum of Mulliken atomic charges =   0.00000
 Mulliken charges with hydrogens summed into heavy atoms:
              1
     2  C   -0.023714
     5  C    0.591685
     6  O   -0.515717
     7  N   -0.267732
     9  C    0.151118
    11  C    0.031296
    15  C    0.600222
    16  O   -0.528761
    17  N   -0.258840
    19  C    0.220445
 Sum of Mulliken charges with hydrogens summed into heavy atoms =   0.00000
 Electronic spatial extent (au):  <R**2>=           1972.5714
 Charge=              0.0000 electrons
 Dipole moment (field-independent basis, Debye):
    X=              3.9368    Y=              0.4151    Z=             -0.1276  Tot=              3.9607
 Quadrupole moment (field-independent basis, Debye-Ang):
   XX=            -56.2857   YY=            -62.2964   ZZ=            -59.5682
   XY=             12.3950   XZ=             -1.8709   YZ=             -0.3918
 Traceless Quadrupole moment (field-independent basis, Debye-Ang):
   XX=              3.0977   YY=             -2.9129   ZZ=             -0.1848
   XY=             12.3950   XZ=             -1.8709   YZ=             -0.3918
 Octapole moment (field-independent basis, Debye-Ang**2):
  XXX=             56.4660  YYY=              3.7652  ZZZ=              1.0884  XYY=              5.0723
  XXY=            -18.3987  XXZ=              1.9439  XZZ=             -0.4316  YZZ=              0.1077
  YYZ=             -2.2652  XYZ=             -0.9917
 Hexadecapole moment (field-independent basis, Debye-Ang**3):
 XXXX=          -1847.8193 YYYY=           -455.7500 ZZZZ=           -112.5984 XXXY=             63.4926
 XXXZ=              0.9935 YYYX=             10.5713 YYYZ=             -1.0999 ZZZX=             -2.9081
 ZZZY=             -3.6180 XXYY=           -412.2791 XXZZ=           -340.4163 YYZZ=            -95.9526
 XXYZ=             -4.1754 YYXZ=             -2.7739 ZZXY=             -2.7956
 N-N= 5.504773455928D+02 E-N=-2.256923960597D+03  KE= 4.912280036568D+02
 1\1\GINC-NODE007\FOpt\RB3LYP\6-31G(d)\C6H12N2O2\MANAGER\10-Feb-2017\0\
 \# b3lyp/6-31G* Opt=(ModRedundant, maxcycles=1000, calcfc) geom=nocrow
 d\\Phi Psi fixed scan\\0,1\H,1.6825052414,1.3493293825,-0.2712552907\C
 ,1.8676264462,2.4000438085,-0.5063108811\H,1.3101700975,3.0331817696,0
 .1909430069\H,1.4911461246,2.5849096224,-1.5191988379\C,3.3725613851,2
 .646911481,-0.4832280182\O,4.161220426,1.8149192446,-0.9188564686\N,3.
 7348942799,3.8404332627,0.0816052452\H,2.9935932665,4.5056931916,0.285
 3957743\C,5.0241457172,4.5119296145,-0.0295670894\H,5.6619508569,4.236
 9032773,0.824528167\C,5.7869020403,4.1987868954,-1.3326524619\H,5.2293
 323477,4.5639206272,-2.2017891289\H,6.7733217217,4.6757542518,-1.33186
 01863\H,5.9163002045,3.1222608882,-1.4346541759\C,4.7165303073,6.02817
 60663,0.0747012012\O,3.5694649879,6.442330631,0.2295652358\N,5.7953907
 551,6.8490370944,-0.0063212247\H,6.707751815,6.436690516,-0.1341744279
 \C,5.6961777141,8.2965996145,0.0818345849\H,4.6466256685,8.5449510892,
 0.2412498818\H,6.2883804666,8.6798272267,0.9206344131\H,6.0414081301,8
 .7726104447,-0.8432893187\\Version=EM64L-G09RevA.02\State=1-A\HF=-495.
 8464989\RMSD=5.153e-09\RMSF=1.191e-03\Dipole=0.8108822,1.3195366,0.171
 5469\Quadrupole=5.9865996,-5.041556,-0.9450436,7.4184203,1.1248364,-2.
 1392284\PG=C01 [X(C6H12N2O2)]\\@


 ... IT IS NO ONE DREAME THAT
     CAN PLEASE THESE ALL ...

                -- BEN JONSON
 Job cpu time:  0 days  1 hours 19 minutes 21.3 seconds.
 File lengths (MBytes):  RWF=    186 Int=      0 D2E=      0 Chk=      4 Scr=      2
 Normal termination of Gaussian 09 at Fri Feb 10 20:23:49 2017.
