 Entering Gaussian System, Link 0=g09
 Initial command:
 /home/steboss/Software/g09/l1.exe /home/steboss/projects/phi_psi_scan/alanine/150/4266/Gau-21018.inp -scrdir=/home/steboss/projects/phi_psi_scan/alanine/150/4266/
 Entering Link 1 = /home/steboss/Software/g09/l1.exe PID=     21020.
  
 Copyright (c) 1988,1990,1992,1993,1995,1998,2003,2009, Gaussian, Inc.
                  All Rights Reserved.
  
 This is part of the Gaussian(R) 09 program.  It is based on
 the Gaussian(R) 03 system (copyright 2003, Gaussian, Inc.),
 the Gaussian(R) 98 system (copyright 1998, Gaussian, Inc.),
 the Gaussian(R) 94 system (copyright 1995, Gaussian, Inc.),
 the Gaussian 92(TM) system (copyright 1992, Gaussian, Inc.),
 the Gaussian 90(TM) system (copyright 1990, Gaussian, Inc.),
 the Gaussian 88(TM) system (copyright 1988, Gaussian, Inc.),
 the Gaussian 86(TM) system (copyright 1986, Carnegie Mellon
 University), and the Gaussian 82(TM) system (copyright 1983,
 Carnegie Mellon University). Gaussian is a federally registered
 trademark of Gaussian, Inc.
  
 This software contains proprietary and confidential information,
 including trade secrets, belonging to Gaussian, Inc.
  
 This software is provided under written license and may be
 used, copied, transmitted, or stored only in accord with that
 written license.
  
 The following legend is applicable only to US Government
 contracts under FAR:
  
                    RESTRICTED RIGHTS LEGEND
  
 Use, reproduction and disclosure by the US Government is
 subject to restrictions as set forth in subparagraphs (a)
 and (c) of the Commercial Computer Software - Restricted
 Rights clause in FAR 52.227-19.
  
 Gaussian, Inc.
 340 Quinnipiac St., Bldg. 40, Wallingford CT 06492
  
  
 ---------------------------------------------------------------
 Warning -- This program may not be used in any manner that
 competes with the business of Gaussian, Inc. or will provide
 assistance to any competitor of Gaussian, Inc.  The licensee
 of this program is prohibited from giving any competitor of
 Gaussian, Inc. access to this program.  By using this program,
 the user acknowledges that Gaussian, Inc. is engaged in the
 business of creating and licensing software in the field of
 computational chemistry and represents and warrants to the
 licensee that it is not a competitor of Gaussian, Inc. and that
 it will not use this program in any manner prohibited above.
 ---------------------------------------------------------------
  

 Cite this work as:
 Gaussian 09, Revision A.02,
 M. J. Frisch, G. W. Trucks, H. B. Schlegel, G. E. Scuseria, 
 M. A. Robb, J. R. Cheeseman, G. Scalmani, V. Barone, B. Mennucci, 
 G. A. Petersson, H. Nakatsuji, M. Caricato, X. Li, H. P. Hratchian, 
 A. F. Izmaylov, J. Bloino, G. Zheng, J. L. Sonnenberg, M. Hada, 
 M. Ehara, K. Toyota, R. Fukuda, J. Hasegawa, M. Ishida, T. Nakajima, 
 Y. Honda, O. Kitao, H. Nakai, T. Vreven, J. A. Montgomery, Jr., 
 J. E. Peralta, F. Ogliaro, M. Bearpark, J. J. Heyd, E. Brothers, 
 K. N. Kudin, V. N. Staroverov, R. Kobayashi, J. Normand, 
 K. Raghavachari, A. Rendell, J. C. Burant, S. S. Iyengar, J. Tomasi, 
 M. Cossi, N. Rega, J. M. Millam, M. Klene, J. E. Knox, J. B. Cross, 
 V. Bakken, C. Adamo, J. Jaramillo, R. Gomperts, R. E. Stratmann, 
 O. Yazyev, A. J. Austin, R. Cammi, C. Pomelli, J. W. Ochterski, 
 R. L. Martin, K. Morokuma, V. G. Zakrzewski, G. A. Voth, 
 P. Salvador, J. J. Dannenberg, S. Dapprich, A. D. Daniels, 
 O. Farkas, J. B. Foresman, J. V. Ortiz, J. Cioslowski, 
 and D. J. Fox, Gaussian, Inc., Wallingford CT, 2009.
 
 ******************************************
 Gaussian 09:  EM64L-G09RevA.02 11-Jun-2009
                10-Feb-2017 
 ******************************************
 %chk=structure_345.chk
 %NProcShared=8
 Will use up to    8 processors via shared memory.
 ----------------------------------------------------------------------
 # b3lyp/6-31G* Opt=(ModRedundant, maxcycles=1000, calcfc) geom=nocrowd
 ----------------------------------------------------------------------
 1/6=1000,10=4,14=-1,18=120,19=15,26=3,38=1/1,3;
 2/9=110,12=1,17=6,18=5,40=1/2;
 3/5=1,6=6,7=1,11=2,16=1,25=1,30=1,71=2,74=-5/1,2,3;
 4//1;
 5/5=2,38=5/2;
 8/6=4,10=90,11=11/1;
 11/6=1,8=1,9=11,15=111,16=1/1,2,10;
 10/6=1,7=6,13=1/2;
 6/7=2,8=2,9=2,10=2,28=1/1;
 7/10=1,18=20,25=1/1,2,3,16;
 1/6=1000,10=4,14=-1,18=20,19=15/3(2);
 2/9=110,12=1/2;
 99//99;
 2/9=110,12=1/2;
 3/5=1,6=6,7=1,11=2,16=1,25=1,30=1,71=1,74=-5/1,2,3;
 4/5=5,16=3/1;
 5/5=2,38=5/2;
 7//1,2,3,16;
 1/6=1000,14=-1,18=20,19=15/3(-5);
 2/9=110,12=1/2;
 6/7=2,8=2,9=2,10=2,19=2,28=1/1;
 99/9=1/99;
 ------------------
 Phi Psi fixed scan
 ------------------
 Symbolic Z-matrix:
 Charge =  0 Multiplicity = 1
 H                     1.8827    1.2362   -0.9842 
 C                     1.9409    2.209    -0.496 
 H                     1.658     2.1079    0.5517 
 H                     1.2624    2.9049   -0.9895 
 C                     3.3599    2.7768   -0.5667 
 O                     4.2568    2.1469   -1.1227 
 N                     3.5554    3.9697    0. 
 H                     2.7862    4.4492    0.4455 
 C                     4.8533    4.6139    0. 
 H                     5.4076    4.3155    0.8898 
 C                     5.6613    4.2208   -1.2322 
 H                     5.1233    4.5214   -2.1312 
 H                     6.6305    4.7189   -1.2058 
 H                     5.8085    3.1409   -1.2414 
 C                     4.7127    6.1294    0. 
 O                     5.6735    6.845     0.2741 
 N                     3.5094    6.6181   -0.3089 
 H                     2.7497    5.9893   -0.5272 
 C                     3.2474    8.0428   -0.3436 
 H                     4.1568    8.5863   -0.0875 
 H                     2.9233    8.329    -1.3442 
 H                     2.4646    8.2864    0.3748 
 
 The following ModRedundant input section has been read:
 D    5    7    9   15 F                                                       
 D    7    9   15   17 F                                                       

 GradGradGradGradGradGradGradGradGradGradGradGradGradGradGradGradGradGrad
 Berny optimization.
 Initialization pass.
                           ----------------------------
                           !    Initial Parameters    !
                           ! (Angstroms and Degrees)  !
 --------------------------                            --------------------------
 ! Name  Definition              Value          Derivative Info.                !
 --------------------------------------------------------------------------------
 ! R1    R(1,2)                  1.09           calculate D2E/DX2 analytically  !
 ! R2    R(2,3)                  1.0899         calculate D2E/DX2 analytically  !
 ! R3    R(2,4)                  1.09           calculate D2E/DX2 analytically  !
 ! R4    R(2,5)                  1.53           calculate D2E/DX2 analytically  !
 ! R5    R(5,6)                  1.229          calculate D2E/DX2 analytically  !
 ! R6    R(5,7)                  1.3351         calculate D2E/DX2 analytically  !
 ! R7    R(7,8)                  1.01           calculate D2E/DX2 analytically  !
 ! R8    R(7,9)                  1.449          calculate D2E/DX2 analytically  !
 ! R9    R(9,10)                 1.09           calculate D2E/DX2 analytically  !
 ! R10   R(9,11)                 1.525          calculate D2E/DX2 analytically  !
 ! R11   R(9,15)                 1.522          calculate D2E/DX2 analytically  !
 ! R12   R(11,12)                1.09           calculate D2E/DX2 analytically  !
 ! R13   R(11,13)                1.09           calculate D2E/DX2 analytically  !
 ! R14   R(11,14)                1.0899         calculate D2E/DX2 analytically  !
 ! R15   R(15,16)                1.229          calculate D2E/DX2 analytically  !
 ! R16   R(15,17)                1.335          calculate D2E/DX2 analytically  !
 ! R17   R(17,18)                1.01           calculate D2E/DX2 analytically  !
 ! R18   R(17,19)                1.449          calculate D2E/DX2 analytically  !
 ! R19   R(19,20)                1.0899         calculate D2E/DX2 analytically  !
 ! R20   R(19,21)                1.09           calculate D2E/DX2 analytically  !
 ! R21   R(19,22)                1.0901         calculate D2E/DX2 analytically  !
 ! A1    A(1,2,3)              109.5057         calculate D2E/DX2 analytically  !
 ! A2    A(1,2,4)              109.4976         calculate D2E/DX2 analytically  !
 ! A3    A(1,2,5)              111.1022         calculate D2E/DX2 analytically  !
 ! A4    A(3,2,4)              109.442          calculate D2E/DX2 analytically  !
 ! A5    A(3,2,5)              108.6368         calculate D2E/DX2 analytically  !
 ! A6    A(4,2,5)              108.6296         calculate D2E/DX2 analytically  !
 ! A7    A(2,5,6)              120.5005         calculate D2E/DX2 analytically  !
 ! A8    A(2,5,7)              116.6018         calculate D2E/DX2 analytically  !
 ! A9    A(6,5,7)              122.8977         calculate D2E/DX2 analytically  !
 ! A10   A(5,7,8)              119.9947         calculate D2E/DX2 analytically  !
 ! A11   A(5,7,9)              121.8985         calculate D2E/DX2 analytically  !
 ! A12   A(8,7,9)              118.1068         calculate D2E/DX2 analytically  !
 ! A13   A(7,9,10)             109.5            calculate D2E/DX2 analytically  !
 ! A14   A(7,9,11)             111.0992         calculate D2E/DX2 analytically  !
 ! A15   A(7,9,15)             111.0966         calculate D2E/DX2 analytically  !
 ! A16   A(10,9,11)            108.6382         calculate D2E/DX2 analytically  !
 ! A17   A(10,9,15)            108.6373         calculate D2E/DX2 analytically  !
 ! A18   A(11,9,15)            107.7947         calculate D2E/DX2 analytically  !
 ! A19   A(9,11,12)            109.5007         calculate D2E/DX2 analytically  !
 ! A20   A(9,11,13)            109.4959         calculate D2E/DX2 analytically  !
 ! A21   A(9,11,14)            109.4978         calculate D2E/DX2 analytically  !
 ! A22   A(12,11,13)           109.441          calculate D2E/DX2 analytically  !
 ! A23   A(12,11,14)           109.4482         calculate D2E/DX2 analytically  !
 ! A24   A(13,11,14)           109.4436         calculate D2E/DX2 analytically  !
 ! A25   A(9,15,16)            120.502          calculate D2E/DX2 analytically  !
 ! A26   A(9,15,17)            116.6009         calculate D2E/DX2 analytically  !
 ! A27   A(16,15,17)           122.8971         calculate D2E/DX2 analytically  !
 ! A28   A(15,17,18)           120.0044         calculate D2E/DX2 analytically  !
 ! A29   A(15,17,19)           121.9009         calculate D2E/DX2 analytically  !
 ! A30   A(18,17,19)           118.0947         calculate D2E/DX2 analytically  !
 ! A31   A(17,19,20)           109.4992         calculate D2E/DX2 analytically  !
 ! A32   A(17,19,21)           109.5059         calculate D2E/DX2 analytically  !
 ! A33   A(17,19,22)           109.4991         calculate D2E/DX2 analytically  !
 ! A34   A(20,19,21)           109.4414         calculate D2E/DX2 analytically  !
 ! A35   A(20,19,22)           109.4439         calculate D2E/DX2 analytically  !
 ! A36   A(21,19,22)           109.4378         calculate D2E/DX2 analytically  !
 ! D1    D(1,2,5,6)             -0.0047         calculate D2E/DX2 analytically  !
 ! D2    D(1,2,5,7)            179.9966         calculate D2E/DX2 analytically  !
 ! D3    D(3,2,5,6)            120.5165         calculate D2E/DX2 analytically  !
 ! D4    D(3,2,5,7)            -59.4823         calculate D2E/DX2 analytically  !
 ! D5    D(4,2,5,6)           -120.5112         calculate D2E/DX2 analytically  !
 ! D6    D(4,2,5,7)             59.4901         calculate D2E/DX2 analytically  !
 ! D7    D(2,5,7,8)              0.0022         calculate D2E/DX2 analytically  !
 ! D8    D(2,5,7,9)            179.9961         calculate D2E/DX2 analytically  !
 ! D9    D(6,5,7,8)           -179.9965         calculate D2E/DX2 analytically  !
 ! D10   D(6,5,7,9)             -0.0027         calculate D2E/DX2 analytically  !
 ! D11   D(5,7,9,10)           -89.9989         calculate D2E/DX2 analytically  !
 ! D12   D(5,7,9,11)            30.0037         calculate D2E/DX2 analytically  !
 ! D13   D(5,7,9,15)           150.0013         frozen, calculate D2E/DX2 analyt!
 ! D14   D(8,7,9,10)            89.9951         calculate D2E/DX2 analytically  !
 ! D15   D(8,7,9,11)          -150.0023         calculate D2E/DX2 analytically  !
 ! D16   D(8,7,9,15)           -30.0047         calculate D2E/DX2 analytically  !
 ! D17   D(7,9,11,12)           60.0024         calculate D2E/DX2 analytically  !
 ! D18   D(7,9,11,13)          179.9986         calculate D2E/DX2 analytically  !
 ! D19   D(7,9,11,14)          -60.0038         calculate D2E/DX2 analytically  !
 ! D20   D(10,9,11,12)        -179.4843         calculate D2E/DX2 analytically  !
 ! D21   D(10,9,11,13)         -59.4881         calculate D2E/DX2 analytically  !
 ! D22   D(10,9,11,14)          60.5095         calculate D2E/DX2 analytically  !
 ! D23   D(15,9,11,12)         -61.938          calculate D2E/DX2 analytically  !
 ! D24   D(15,9,11,13)          58.0582         calculate D2E/DX2 analytically  !
 ! D25   D(15,9,11,14)         178.0558         calculate D2E/DX2 analytically  !
 ! D26   D(7,9,15,16)          164.9978         calculate D2E/DX2 analytically  !
 ! D27   D(7,9,15,17)          -14.9978         frozen, calculate D2E/DX2 analyt!
 ! D28   D(10,9,15,16)          44.4867         calculate D2E/DX2 analytically  !
 ! D29   D(10,9,15,17)        -135.5089         calculate D2E/DX2 analytically  !
 ! D30   D(11,9,15,16)         -73.0602         calculate D2E/DX2 analytically  !
 ! D31   D(11,9,15,17)         106.9442         calculate D2E/DX2 analytically  !
 ! D32   D(9,15,17,18)          -0.005          calculate D2E/DX2 analytically  !
 ! D33   D(9,15,17,19)        -179.9969         calculate D2E/DX2 analytically  !
 ! D34   D(16,15,17,18)        179.9996         calculate D2E/DX2 analytically  !
 ! D35   D(16,15,17,19)          0.0076         calculate D2E/DX2 analytically  !
 ! D36   D(15,17,19,20)         -0.0055         calculate D2E/DX2 analytically  !
 ! D37   D(15,17,19,21)        119.9964         calculate D2E/DX2 analytically  !
 ! D38   D(15,17,19,22)       -120.0063         calculate D2E/DX2 analytically  !
 ! D39   D(18,17,19,20)       -179.9976         calculate D2E/DX2 analytically  !
 ! D40   D(18,17,19,21)        -59.9957         calculate D2E/DX2 analytically  !
 ! D41   D(18,17,19,22)         60.0016         calculate D2E/DX2 analytically  !
 --------------------------------------------------------------------------------
 Trust Radius=3.00D-01 FncErr=1.00D-07 GrdErr=1.00D-06
 Number of steps in this run= 132 maximum allowed number of steps= 132.
 GradGradGradGradGradGradGradGradGradGradGradGradGradGradGradGradGradGrad

                          Input orientation:                          
 ---------------------------------------------------------------------
 Center     Atomic      Atomic             Coordinates (Angstroms)
 Number     Number       Type             X           Y           Z
 ---------------------------------------------------------------------
      1          1           0        1.882700    1.236200   -0.984200
      2          6           0        1.940900    2.209000   -0.496000
      3          1           0        1.658000    2.107900    0.551700
      4          1           0        1.262400    2.904900   -0.989500
      5          6           0        3.359900    2.776800   -0.566700
      6          8           0        4.256800    2.146900   -1.122700
      7          7           0        3.555400    3.969700    0.000000
      8          1           0        2.786200    4.449200    0.445500
      9          6           0        4.853300    4.613900    0.000000
     10          1           0        5.407600    4.315500    0.889800
     11          6           0        5.661300    4.220800   -1.232200
     12          1           0        5.123300    4.521400   -2.131200
     13          1           0        6.630500    4.718900   -1.205800
     14          1           0        5.808500    3.140900   -1.241400
     15          6           0        4.712700    6.129400    0.000000
     16          8           0        5.673500    6.845000    0.274100
     17          7           0        3.509400    6.618100   -0.308900
     18          1           0        2.749700    5.989300   -0.527200
     19          6           0        3.247400    8.042800   -0.343600
     20          1           0        4.156800    8.586300   -0.087500
     21          1           0        2.923300    8.329000   -1.344200
     22          1           0        2.464600    8.286400    0.374800
 ---------------------------------------------------------------------
                    Distance matrix (angstroms):
                    1          2          3          4          5
     1  H    0.000000
     2  C    1.089985   0.000000
     3  H    1.780264   1.089922   0.000000
     4  H    1.780270   1.090037   1.779608   0.000000
     5  C    2.174827   1.530018   2.143527   2.143519   0.000000
     6  O    2.546548   2.400000   3.091747   3.091721   1.228959
     7  N    3.352402   2.439814   2.714922   2.714914   1.335058
     8  H    3.630940   2.572829   2.601115   2.601164   2.037303
     9  C    4.604560   3.809414   4.098091   4.098092   2.434405
    10  H    5.041714   4.286700   4.364322   4.764897   2.946534
    11  C    4.821531   4.293100   4.865497   4.597914   2.797225
    12  H    4.754959   4.260134   5.003123   4.338560   2.932724
    13  H    5.892360   5.366168   5.884886   5.670439   3.857075
    14  H    4.371034   4.047516   4.637774   4.559186   2.565820
    15  C    5.737679   4.826844   5.080160   4.825047   3.659391
    16  O    6.885646   6.001488   6.216222   6.048047   4.754991
    17  N    5.662776   4.683520   4.950780   4.393186   3.852843
    18  H    4.853092   3.865980   4.173859   3.455330   3.270177
    19  C    6.971555   5.980250   6.208928   5.545758   5.271924
    20  H    7.745939   6.763656   6.972965   6.439679   5.883449
    21  H    7.177762   6.256113   6.625519   5.683772   5.623349
    22  H    7.203528   6.161765   6.233439   5.680417   5.660713
                    6          7          8          9         10
     6  O    0.000000
     7  N    2.252780   0.000000
     8  H    3.150000   1.009980   0.000000
     9  C    2.775312   1.448978   2.120966   0.000000
    10  H    3.174480   2.083739   2.662145   1.089970   0.000000
    11  C    2.507124   2.452791   3.336622   1.525027   2.139209
    12  H    2.721423   2.702720   3.479459   2.150225   3.041326
    13  H    3.500934   3.386959   4.192633   2.150214   2.459625
    14  H    1.846591   2.702673   3.700213   2.150165   2.466256
    15  C    4.162764   2.450234   2.594792   1.522008   2.136554
    16  O    5.101983   3.581735   3.755760   2.392836   2.616899
    17  N    4.605704   2.666750   2.407543   2.432756   3.215900
    18  H    4.170133   2.237382   1.821918   2.568034   3.445857
    19  C    6.032207   4.099155   3.708011   3.801885   4.481128
    20  H    6.522845   4.656429   4.390698   4.033947   4.556243
    21  H    6.328163   4.605423   4.274888   4.397015   5.222134
    22  H    6.568710   4.468134   3.851302   4.397001   4.969358
                   11         12         13         14         15
    11  C    0.000000
    12  H    1.089957   0.000000
    13  H    1.090023   1.779613   0.000000
    14  H    1.089925   1.779613   1.779617   0.000000
    15  C    2.461892   2.701161   2.668599   3.416575   0.000000
    16  O    3.025808   3.389293   2.761567   4.004413   1.228963
    17  N    3.351150   3.212725   3.762002   4.271573   1.334982
    18  H    3.478797   3.218932   4.139447   4.240250   2.037385
    19  C    4.606974   4.372044   4.820484   5.603026   2.434392
    20  H    4.757252   4.651263   4.725100   5.806202   2.520523
    21  H    4.938268   4.467347   5.176418   5.937283   3.138004
    22  H    5.415759   5.246327   5.707896   6.345860   3.138005
                   16         17         18         19         20
    16  O    0.000000
    17  N    2.252710   0.000000
    18  H    3.150065   1.010044   0.000000
    19  C    2.775291   1.449006   2.120914   0.000000
    20  H    2.337362   2.083736   2.986248   1.089949   0.000000
    21  H    3.519197   2.083876   2.484315   1.090024   1.779612
    22  H    3.519206   2.083813   2.484261   1.090053   1.779663
                   21         22
    21  H    0.000000
    22  H    1.779658   0.000000
 Stoichiometry    C6H12N2O2
 Framework group  C1[X(C6H12N2O2)]
 Deg. of freedom    60
 Full point group                 C1      NOp   1
 Largest Abelian subgroup         C1      NOp   1
 Largest concise Abelian subgroup C1      NOp   1
                         Standard orientation:                         
 ---------------------------------------------------------------------
 Center     Atomic      Atomic             Coordinates (Angstroms)
 Number     Number       Type             X           Y           Z
 ---------------------------------------------------------------------
      1          1           0        3.953747    1.337495    0.270448
      2          6           0        2.940631    1.521896   -0.086846
      3          1           0        2.977312    1.883882   -1.114245
      4          1           0        2.462736    2.270745    0.544837
      5          6           0        2.101741    0.242926   -0.048719
      6          8           0        2.590687   -0.812112    0.348982
      7          7           0        0.837226    0.344768   -0.464662
      8          1           0        0.480470    1.234452   -0.782857
      9          6           0       -0.058779   -0.793898   -0.477065
     10          1           0        0.013337   -1.303173   -1.438040
     11          6           0        0.296408   -1.784014    0.627118
     12          1           0        0.219818   -1.291131    1.596245
     13          1           0       -0.392271   -2.628274    0.594039
     14          1           0        1.315713   -2.141337    0.481262
     15          6           0       -1.501497   -0.358083   -0.264606
     16          8           0       -2.428157   -1.126212   -0.512863
     17          7           0       -1.690067    0.880366    0.196765
     18          1           0       -0.896010    1.475149    0.386225
     19          6           0       -3.015320    1.413153    0.440606
     20          1           0       -3.762046    0.659404    0.191107
     21          1           0       -3.110790    1.684331    1.492034
     22          1           0       -3.171485    2.297224   -0.177655
 ---------------------------------------------------------------------
 Rotational constants (GHZ):      2.3937490      0.7849756      0.6362423
 Standard basis: 6-31G(d) (6D, 7F)
 There are   174 symmetry adapted basis functions of A   symmetry.
 Integral buffers will be    131072 words long.
 Raffenetti 2 integral format.
 Two-electron integral symmetry is turned on.
   174 basis functions,   328 primitive gaussians,   174 cartesian basis functions
    39 alpha electrons       39 beta electrons
       nuclear repulsion energy       561.5713934847 Hartrees.
 NAtoms=   22 NActive=   22 NUniq=   22 SFac= 7.50D-01 NAtFMM=   80 NAOKFM=F Big=F
 One-electron integrals computed using PRISM.
 NBasis=   174 RedAO= T  NBF=   174
 NBsUse=   174 1.00D-06 NBFU=   174
 Harris functional with IExCor=  402 diagonalized for initial guess.
 ExpMin= 1.61D-01 ExpMax= 5.48D+03 ExpMxC= 8.25D+02 IAcc=1 IRadAn=         1 AccDes= 0.00D+00
 HarFok:  IExCor=  402 AccDes= 0.00D+00 IRadAn=         1 IDoV= 1
 ScaDFX=  1.000000  1.000000  1.000000  1.000000
 FoFCou: FMM=F IPFlag=           0 FMFlag=      100000 FMFlg1=           0
         NFxFlg=           0 DoJE=T BraDBF=F KetDBF=T FulRan=T
         Omega=  0.000000  0.000000  1.000000  0.000000  0.000000 ICntrl=     500 IOpCl=  0
         NMat0=    1 NMatS0=    1 NMatT0=    0 NMatD0=    1 NMtDS0=    0 NMtDT0=    0
         I1Cent=           4 NGrid=           0.
 Petite list used in FoFCou.
 Initial guess orbital symmetries:
       Occupied  (A) (A) (A) (A) (A) (A) (A) (A) (A) (A) (A) (A)
                 (A) (A) (A) (A) (A) (A) (A) (A) (A) (A) (A) (A)
                 (A) (A) (A) (A) (A) (A) (A) (A) (A) (A) (A) (A)
                 (A) (A) (A)
       Virtual   (A) (A) (A) (A) (A) (A) (A) (A) (A) (A) (A) (A)
                 (A) (A) (A) (A) (A) (A) (A) (A) (A) (A) (A) (A)
                 (A) (A) (A) (A) (A) (A) (A) (A) (A) (A) (A) (A)
                 (A) (A) (A) (A) (A) (A) (A) (A) (A) (A) (A) (A)
                 (A) (A) (A) (A) (A) (A) (A) (A) (A) (A) (A) (A)
                 (A) (A) (A) (A) (A) (A) (A) (A) (A) (A) (A) (A)
                 (A) (A) (A) (A) (A) (A) (A) (A) (A) (A) (A) (A)
                 (A) (A) (A) (A) (A) (A) (A) (A) (A) (A) (A) (A)
                 (A) (A) (A) (A) (A) (A) (A) (A) (A) (A) (A) (A)
                 (A) (A) (A) (A) (A) (A) (A) (A) (A) (A) (A) (A)
                 (A) (A) (A) (A) (A) (A) (A) (A) (A) (A) (A) (A)
                 (A) (A) (A)
 The electronic state of the initial guess is 1-A.
 Requested convergence on RMS density matrix=1.00D-08 within 128 cycles.
 Requested convergence on MAX density matrix=1.00D-06.
 Requested convergence on             energy=1.00D-06.
 No special actions if energy rises.
 Integral accuracy reduced to 1.0D-05 until final iterations.
 Initial convergence to 1.0D-05 achieved.  Increase integral accuracy.
 SCF Done:  E(RB3LYP) =  -495.821300889     A.U. after   15 cycles
             Convg  =    0.9324D-08             -V/T =  2.0085
 Range of M.O.s used for correlation:     1   174
 NBasis=   174 NAE=    39 NBE=    39 NFC=     0 NFV=     0
 NROrb=    174 NOA=    39 NOB=    39 NVA=   135 NVB=   135
 Symmetrizing basis deriv contribution to polar:
 IMax=3 JMax=2 DiffMx= 0.00D+00
 G2DrvN: will do    23 centers at a time, making    1 passes doing MaxLOS=2.
 Calling FoFCou, ICntrl=  3107 FMM=F I1Cent=   0 AccDes= 0.00D+00.
 FoFDir/FoFCou used for L=0 through L=2.
 End of G2Drv Frequency-dependent properties file   721 does not exist.
 End of G2Drv Frequency-dependent properties file   722 does not exist.
          IDoAtm=1111111111111111111111
          Differentiating once with respect to nuclear coordinates.
          There are    69 degrees of freedom in the 1st order CPHF.  IDoFFX=5.
     63 vectors produced by pass  0 Test12= 7.63D-11 1.45D-07 XBig12= 1.66D-01 1.05D-01.
 AX will form    63 AO Fock derivatives at one time.
     63 vectors produced by pass  1 Test12= 7.63D-11 1.45D-07 XBig12= 3.90D-02 6.32D-02.
     63 vectors produced by pass  2 Test12= 7.63D-11 1.45D-07 XBig12= 9.02D-05 2.48D-03.
     63 vectors produced by pass  3 Test12= 7.63D-11 1.45D-07 XBig12= 2.07D-07 6.89D-05.
     30 vectors produced by pass  4 Test12= 7.63D-11 1.45D-07 XBig12= 1.59D-10 1.59D-06.
 Inverted reduced A of dimension   282 with in-core refinement.
 End of Minotr Frequency-dependent properties file   721 does not exist.
 End of Minotr Frequency-dependent properties file   722 does not exist.

 **********************************************************************

            Population analysis using the SCF density.

 **********************************************************************

 Orbital symmetries:
       Occupied  (A) (A) (A) (A) (A) (A) (A) (A) (A) (A) (A) (A)
                 (A) (A) (A) (A) (A) (A) (A) (A) (A) (A) (A) (A)
                 (A) (A) (A) (A) (A) (A) (A) (A) (A) (A) (A) (A)
                 (A) (A) (A)
       Virtual   (A) (A) (A) (A) (A) (A) (A) (A) (A) (A) (A) (A)
                 (A) (A) (A) (A) (A) (A) (A) (A) (A) (A) (A) (A)
                 (A) (A) (A) (A) (A) (A) (A) (A) (A) (A) (A) (A)
                 (A) (A) (A) (A) (A) (A) (A) (A) (A) (A) (A) (A)
                 (A) (A) (A) (A) (A) (A) (A) (A) (A) (A) (A) (A)
                 (A) (A) (A) (A) (A) (A) (A) (A) (A) (A) (A) (A)
                 (A) (A) (A) (A) (A) (A) (A) (A) (A) (A) (A) (A)
                 (A) (A) (A) (A) (A) (A) (A) (A) (A) (A) (A) (A)
                 (A) (A) (A) (A) (A) (A) (A) (A) (A) (A) (A) (A)
                 (A) (A) (A) (A) (A) (A) (A) (A) (A) (A) (A) (A)
                 (A) (A) (A) (A) (A) (A) (A) (A) (A) (A) (A) (A)
                 (A) (A) (A)
 The electronic state is 1-A.
 Alpha  occ. eigenvalues --  -19.10825 -19.10532 -14.37463 -14.37280 -10.29300
 Alpha  occ. eigenvalues --  -10.28425 -10.23357 -10.22371 -10.19769 -10.15804
 Alpha  occ. eigenvalues --   -1.04222  -1.03116  -0.94744  -0.92522  -0.78783
 Alpha  occ. eigenvalues --   -0.73252  -0.71871  -0.64739  -0.60935  -0.58216
 Alpha  occ. eigenvalues --   -0.54904  -0.50976  -0.47537  -0.46626  -0.45993
 Alpha  occ. eigenvalues --   -0.44776  -0.42411  -0.41392  -0.40579  -0.39733
 Alpha  occ. eigenvalues --   -0.39371  -0.38179  -0.36668  -0.35423  -0.34925
 Alpha  occ. eigenvalues --   -0.26877  -0.25836  -0.24799  -0.23277
 Alpha virt. eigenvalues --    0.02125   0.03142   0.04273   0.10375   0.11997
 Alpha virt. eigenvalues --    0.13039   0.13342   0.14795   0.15779   0.16214
 Alpha virt. eigenvalues --    0.16317   0.17112   0.18164   0.19221   0.20271
 Alpha virt. eigenvalues --    0.22568   0.23227   0.25052   0.28157   0.31162
 Alpha virt. eigenvalues --    0.36016   0.40440   0.41747   0.50371   0.51119
 Alpha virt. eigenvalues --    0.51740   0.53151   0.53840   0.55517   0.56597
 Alpha virt. eigenvalues --    0.57247   0.59110   0.60388   0.64151   0.65720
 Alpha virt. eigenvalues --    0.67438   0.69527   0.70656   0.72974   0.73424
 Alpha virt. eigenvalues --    0.73927   0.74532   0.78407   0.80818   0.83156
 Alpha virt. eigenvalues --    0.84351   0.86265   0.87465   0.87811   0.87911
 Alpha virt. eigenvalues --    0.88935   0.90169   0.90758   0.94011   0.94355
 Alpha virt. eigenvalues --    0.95099   0.95847   0.97757   1.00222   1.03947
 Alpha virt. eigenvalues --    1.06008   1.08829   1.10432   1.13500   1.16423
 Alpha virt. eigenvalues --    1.21051   1.25841   1.30498   1.32100   1.35317
 Alpha virt. eigenvalues --    1.37736   1.39641   1.43279   1.45328   1.47879
 Alpha virt. eigenvalues --    1.52110   1.54434   1.59978   1.65187   1.69834
 Alpha virt. eigenvalues --    1.73163   1.74622   1.77822   1.81837   1.82535
 Alpha virt. eigenvalues --    1.83586   1.84548   1.86529   1.91194   1.91865
 Alpha virt. eigenvalues --    1.93904   1.95565   1.98856   2.00249   2.04051
 Alpha virt. eigenvalues --    2.05026   2.07277   2.12057   2.13260   2.17480
 Alpha virt. eigenvalues --    2.18892   2.23695   2.27221   2.28225   2.29724
 Alpha virt. eigenvalues --    2.30845   2.34243   2.35243   2.37498   2.42503
 Alpha virt. eigenvalues --    2.42780   2.47825   2.50478   2.56147   2.65449
 Alpha virt. eigenvalues --    2.67664   2.68804   2.72338   2.76779   2.85820
 Alpha virt. eigenvalues --    2.94125   2.96817   3.02831   3.15206   3.21660
 Alpha virt. eigenvalues --    3.95191   4.00433   4.06518   4.18245   4.19389
 Alpha virt. eigenvalues --    4.21352   4.26538   4.38622   4.48151   4.71883
          Condensed to atoms (all electrons):
              1          2          3          4          5          6
     1  H    0.493089   0.360728  -0.020481  -0.020552  -0.017096   0.005103
     2  C    0.360728   5.336724   0.351069   0.348712   0.353767  -0.074414
     3  H   -0.020481   0.351069   0.548552  -0.027521  -0.025771   0.001185
     4  H   -0.020552   0.348712  -0.027521   0.563162  -0.028564   0.001199
     5  C   -0.017096   0.353767  -0.025771  -0.028564   4.347567   0.585760
     6  O    0.005103  -0.074414   0.001185   0.001199   0.585760   8.117120
     7  N    0.004657  -0.139051   0.004828   0.005718   0.229456  -0.101992
     8  H   -0.000154   0.000007   0.001181   0.000266  -0.016328   0.003741
     9  C   -0.000096   0.003963  -0.000172   0.000213  -0.026608  -0.000441
    10  H    0.000004  -0.000128   0.000013   0.000003  -0.001258   0.000665
    11  C    0.000018  -0.000622   0.000030  -0.000037  -0.003822  -0.048644
    12  H    0.000003  -0.000145   0.000001   0.000020   0.001672  -0.002881
    13  H   -0.000001   0.000024   0.000000  -0.000002   0.000898   0.002460
    14  H    0.000008   0.000673  -0.000031  -0.000008  -0.002393   0.017866
    15  C    0.000000  -0.000063  -0.000018   0.000015   0.002345   0.000455
    16  O    0.000000   0.000001   0.000000   0.000000  -0.000056  -0.000001
    17  N    0.000000  -0.000043   0.000005  -0.000033   0.000487   0.000002
    18  H   -0.000001   0.000018  -0.000037   0.000338   0.000296  -0.000074
    19  C    0.000000  -0.000001   0.000000   0.000000   0.000008   0.000000
    20  H    0.000000   0.000000   0.000000   0.000000   0.000001   0.000000
    21  H    0.000000   0.000000   0.000000   0.000000   0.000002   0.000000
    22  H    0.000000   0.000000   0.000000   0.000000  -0.000001   0.000000
              7          8          9         10         11         12
     1  H    0.004657  -0.000154  -0.000096   0.000004   0.000018   0.000003
     2  C   -0.139051   0.000007   0.003963  -0.000128  -0.000622  -0.000145
     3  H    0.004828   0.001181  -0.000172   0.000013   0.000030   0.000001
     4  H    0.005718   0.000266   0.000213   0.000003  -0.000037   0.000020
     5  C    0.229456  -0.016328  -0.026608  -0.001258  -0.003822   0.001672
     6  O   -0.101992   0.003741  -0.000441   0.000665  -0.048644  -0.002881
     7  N    7.281217   0.291862   0.160022  -0.056323  -0.042646  -0.002135
     8  H    0.291862   0.432505  -0.045522  -0.000361   0.006637  -0.000210
     9  C    0.160022  -0.045522   5.117910   0.378143   0.368732  -0.035327
    10  H   -0.056323  -0.000361   0.378143   0.570724  -0.039750   0.006267
    11  C   -0.042646   0.006637   0.368732  -0.039750   5.179997   0.371497
    12  H   -0.002135  -0.000210  -0.035327   0.006267   0.371497   0.585067
    13  H    0.004611  -0.000101  -0.035289  -0.001911   0.346287  -0.028035
    14  H   -0.005338  -0.000314  -0.023275  -0.003860   0.363003  -0.024885
    15  C   -0.024209  -0.000937   0.335732  -0.034652  -0.032469  -0.008758
    16  O    0.002615  -0.000053  -0.075629   0.002140  -0.004079  -0.000245
    17  N   -0.009839   0.011628  -0.123091   0.003940  -0.003688   0.003327
    18  H    0.019761   0.000945  -0.004649   0.000849  -0.000581   0.000637
    19  C    0.000265  -0.000511   0.006739  -0.000123  -0.000187  -0.000108
    20  H   -0.000068  -0.000013   0.001108  -0.000027  -0.000016  -0.000010
    21  H   -0.000011   0.000089  -0.000255  -0.000003   0.000048  -0.000015
    22  H    0.000011  -0.000192  -0.000060   0.000017  -0.000008   0.000003
             13         14         15         16         17         18
     1  H   -0.000001   0.000008   0.000000   0.000000   0.000000  -0.000001
     2  C    0.000024   0.000673  -0.000063   0.000001  -0.000043   0.000018
     3  H    0.000000  -0.000031  -0.000018   0.000000   0.000005  -0.000037
     4  H   -0.000002  -0.000008   0.000015   0.000000  -0.000033   0.000338
     5  C    0.000898  -0.002393   0.002345  -0.000056   0.000487   0.000296
     6  O    0.002460   0.017866   0.000455  -0.000001   0.000002  -0.000074
     7  N    0.004611  -0.005338  -0.024209   0.002615  -0.009839   0.019761
     8  H   -0.000101  -0.000314  -0.000937  -0.000053   0.011628   0.000945
     9  C   -0.035289  -0.023275   0.335732  -0.075629  -0.123091  -0.004649
    10  H   -0.001911  -0.003860  -0.034652   0.002140   0.003940   0.000849
    11  C    0.346287   0.363003  -0.032469  -0.004079  -0.003688  -0.000581
    12  H   -0.028035  -0.024885  -0.008758  -0.000245   0.003327   0.000637
    13  H    0.568590  -0.020315  -0.002090   0.006954   0.000517  -0.000054
    14  H   -0.020315   0.466518   0.003980   0.000071  -0.000080  -0.000015
    15  C   -0.002090   0.003980   4.362449   0.579072   0.273617  -0.024349
    16  O    0.006954   0.000071   0.579072   8.103309  -0.098290   0.003898
    17  N    0.000517  -0.000080   0.273617  -0.098290   7.107387   0.287035
    18  H   -0.000054  -0.000015  -0.024349   0.003898   0.287035   0.430288
    19  C   -0.000003   0.000005  -0.026675  -0.009199   0.261277  -0.030503
    20  H   -0.000015   0.000000  -0.000019   0.022325  -0.037562   0.003572
    21  H    0.000001   0.000000   0.002460   0.000582  -0.042988  -0.001848
    22  H    0.000000   0.000000   0.000500   0.000590  -0.044396   0.000521
             19         20         21         22
     1  H    0.000000   0.000000   0.000000   0.000000
     2  C   -0.000001   0.000000   0.000000   0.000000
     3  H    0.000000   0.000000   0.000000   0.000000
     4  H    0.000000   0.000000   0.000000   0.000000
     5  C    0.000008   0.000001   0.000002  -0.000001
     6  O    0.000000   0.000000   0.000000   0.000000
     7  N    0.000265  -0.000068  -0.000011   0.000011
     8  H   -0.000511  -0.000013   0.000089  -0.000192
     9  C    0.006739   0.001108  -0.000255  -0.000060
    10  H   -0.000123  -0.000027  -0.000003   0.000017
    11  C   -0.000187  -0.000016   0.000048  -0.000008
    12  H   -0.000108  -0.000010  -0.000015   0.000003
    13  H   -0.000003  -0.000015   0.000001   0.000000
    14  H    0.000005   0.000000   0.000000   0.000000
    15  C   -0.026675  -0.000019   0.002460   0.000500
    16  O   -0.009199   0.022325   0.000582   0.000590
    17  N    0.261277  -0.037562  -0.042988  -0.044396
    18  H   -0.030503   0.003572  -0.001848   0.000521
    19  C    4.971182   0.375780   0.382257   0.383402
    20  H    0.375780   0.468413  -0.023708  -0.023767
    21  H    0.382257  -0.023708   0.559892  -0.038401
    22  H    0.383402  -0.023767  -0.038401   0.565092
 Mulliken atomic charges:
              1
     1  H    0.194771
     2  C   -0.541218
     3  H    0.167168
     4  H    0.157071
     5  C    0.599639
     6  O   -0.507109
     7  N   -0.623409
     8  H    0.315833
     9  C   -0.002146
    10  H    0.175630
    11  C   -0.459699
    12  H    0.134259
    13  H    0.157475
    14  H    0.228393
    15  C    0.593615
    16  O   -0.534003
    17  N   -0.589211
    18  H    0.313953
    19  C   -0.313606
    20  H    0.214006
    21  H    0.161901
    22  H    0.156687
 Sum of Mulliken atomic charges =   0.00000
 Mulliken charges with hydrogens summed into heavy atoms:
              1
     2  C   -0.022208
     5  C    0.599639
     6  O   -0.507109
     7  N   -0.307576
     9  C    0.173484
    11  C    0.060429
    15  C    0.593615
    16  O   -0.534003
    17  N   -0.275258
    19  C    0.218988
 Sum of Mulliken charges with hydrogens summed into heavy atoms =   0.00000
 APT atomic charges:
              1
     1  H    0.723295
     2  C   -1.217118
     3  H    0.417917
     4  H    0.277955
     5  C   -0.110282
     6  O   -0.078254
     7  N   -0.600379
     8  H    0.464615
     9  C   -0.425046
    10  H    0.463941
    11  C   -1.158768
    12  H    0.277099
    13  H    0.497176
    14  H    0.476067
    15  C   -0.336480
    16  O    0.107133
    17  N   -0.295366
    18  H    0.358479
    19  C   -1.407753
    20  H    0.568178
    21  H    0.480585
    22  H    0.517008
 Sum of APT charges=   0.00000
 APT Atomic charges with hydrogens summed into heavy atoms:
              1
     1  H    0.000000
     2  C    0.202048
     3  H    0.000000
     4  H    0.000000
     5  C   -0.110282
     6  O   -0.078254
     7  N   -0.135764
     8  H    0.000000
     9  C    0.038895
    10  H    0.000000
    11  C    0.091574
    12  H    0.000000
    13  H    0.000000
    14  H    0.000000
    15  C   -0.336480
    16  O    0.107133
    17  N    0.063113
    18  H    0.000000
    19  C    0.158018
    20  H    0.000000
    21  H    0.000000
    22  H    0.000000
 Sum of APT charges=   0.00000
 Electronic spatial extent (au):  <R**2>=           1814.9036
 Charge=              0.0000 electrons
 Dipole moment (field-independent basis, Debye):
    X=              0.1080    Y=              5.4426    Z=             -0.1632  Tot=              5.4461
 Quadrupole moment (field-independent basis, Debye-Ang):
   XX=            -68.8534   YY=            -57.8375   ZZ=            -59.5261
   XY=             -1.7287   XZ=             -5.1231   YZ=             -0.0085
 Traceless Quadrupole moment (field-independent basis, Debye-Ang):
   XX=             -6.7811   YY=              4.2349   ZZ=              2.5462
   XY=             -1.7287   XZ=             -5.1231   YZ=             -0.0085
 Octapole moment (field-independent basis, Debye-Ang**2):
  XXX=             -7.1174  YYY=              6.1900  ZZZ=             -1.6595  XYY=              1.5718
  XXY=             36.8006  XXZ=              3.1193  XZZ=              0.4069  YZZ=              1.3666
  YYZ=              0.1417  XYZ=              3.1459
 Hexadecapole moment (field-independent basis, Debye-Ang**3):
 XXXX=          -1617.6245 YYYY=           -553.6609 ZZZZ=           -142.3153 XXXY=             -8.3995
 XXXZ=            -29.2931 YYYX=            -16.9979 YYYZ=              0.6745 ZZZX=              0.8061
 ZZZY=              3.2759 XXYY=           -374.0102 XXZZ=           -294.3601 YYZZ=           -115.5010
 XXYZ=              0.2338 YYXZ=             -5.6196 ZZXY=             -1.6530
 N-N= 5.615713934847D+02 E-N=-2.279254841240D+03  KE= 4.916546077063D+02
  Exact polarizability:   0.000   0.000   0.000   0.000   0.000   0.000
 Approx polarizability: 120.261  -1.115 128.956   8.297   2.750  87.963
 Calling FoFJK, ICntrl=    100147 FMM=F ISym2X=0 I1Cent= 0 IOpClX= 0 NMat=1 NMatS=1 NMatT=0.
 ***** Axes restored to original set *****
 -------------------------------------------------------------------
 Center     Atomic                   Forces (Hartrees/Bohr)
 Number     Number              X              Y              Z
 -------------------------------------------------------------------
      1        1           0.003543754    0.001058191   -0.000479015
      2        6           0.005575497    0.008370010    0.002036491
      3        1          -0.005469097   -0.000744367    0.003182565
      4        1          -0.006941970    0.000818452   -0.000074565
      5        6          -0.007304074   -0.042122155   -0.017827311
      6        8          -0.019363971   -0.018836042    0.005476160
      7        7          -0.003707761    0.017689417    0.006618798
      8        1           0.000356376   -0.006409199    0.006387007
      9        6           0.003981409    0.003256471   -0.004084127
     10        1           0.002660300    0.002948957    0.005254407
     11        6           0.019965568    0.001871870   -0.002094115
     12        1           0.000298320   -0.000682959   -0.004656506
     13        1           0.000243709    0.007027860    0.000816355
     14        1           0.005105505    0.011239321   -0.003754585
     15        6           0.025885438   -0.001303222    0.015995368
     16        8           0.000765847   -0.002725331   -0.001182500
     17        7          -0.021447113    0.010544185   -0.004119561
     18        1           0.002941758    0.003246883   -0.005054736
     19        6          -0.003479645    0.000108632   -0.001695078
     20        1           0.001058448   -0.003160787    0.000219291
     21        1          -0.001618143    0.003955007   -0.002765982
     22        1          -0.003050155    0.003848807    0.001801637
 -------------------------------------------------------------------
 Cartesian Forces:  Max     0.042122155 RMS     0.009492826

 GradGradGradGradGradGradGradGradGradGradGradGradGradGradGradGradGradGrad
 Berny optimization.
 Internal  Forces:  Max     0.090323898 RMS     0.017129349
 Search for a local minimum.
 Step number   1 out of a maximum of  132
 All quantities printed in internal units (Hartrees-Bohrs-Radians)
 Mixed Optimization -- RFO/linear search
 Second derivative matrix not updated -- analytic derivatives used.
     Eigenvalues ---   -0.01448  -0.00067  -0.00021   0.00240   0.00335
     Eigenvalues ---    0.01248   0.01846   0.02309   0.03445   0.04211
     Eigenvalues ---    0.04645   0.04779   0.05162   0.05578   0.05830
     Eigenvalues ---    0.05976   0.06397   0.06604   0.11372   0.12199
     Eigenvalues ---    0.12442   0.13104   0.13262   0.13344   0.13567
     Eigenvalues ---    0.14260   0.15164   0.17215   0.17804   0.18567
     Eigenvalues ---    0.19732   0.21432   0.22673   0.23539   0.23599
     Eigenvalues ---    0.26398   0.29406   0.30969   0.33821   0.34584
     Eigenvalues ---    0.34679   0.34863   0.35054   0.35110   0.35401
     Eigenvalues ---    0.35610   0.35835   0.35912   0.36262   0.39391
     Eigenvalues ---    0.44926   0.46451   0.50456   0.51530   0.55295
     Eigenvalues ---    0.80876   0.82836   1.486311000.000001000.00000
     Eigenvalues --- 1000.000001000.000001000.000001000.000001000.00000
     Eigenvalues --- 1000.000001000.000001000.000001000.000001000.00000
     Eigenvalues --- 1000.000001000.000001000.000001000.000001000.00000
     Eigenvalues --- 1000.000001000.000001000.000001000.000001000.00000
     Eigenvalues --- 1000.000001000.000001000.000001000.000001000.00000
     Eigenvalues --- 1000.000001000.000001000.000001000.000001000.00000
     Eigenvalues --- 1000.000001000.000001000.000001000.000001000.00000
     Eigenvalues --- 1000.000001000.000001000.00000
 RFO step:  Lambda=-2.59671925D-02 EMin=-1.44804953D-02
 Linear search not attempted -- first point.
 Maximum step size (   0.300) exceeded in Quadratic search.
    -- Step size scaled by   0.308
 Iteration  1 RMS(Cart)=  0.06847787 RMS(Int)=  0.00203295
 Iteration  2 RMS(Cart)=  0.00291952 RMS(Int)=  0.00011982
 Iteration  3 RMS(Cart)=  0.00000479 RMS(Int)=  0.00011979
 Iteration  4 RMS(Cart)=  0.00000000 RMS(Int)=  0.00011979
 Iteration  1 RMS(Cart)=  0.00001163 RMS(Int)=  0.00000513
 Iteration  2 RMS(Cart)=  0.00000701 RMS(Int)=  0.00000570
 Iteration  3 RMS(Cart)=  0.00000437 RMS(Int)=  0.00000649
 Iteration  4 RMS(Cart)=  0.00000279 RMS(Int)=  0.00000709
 Iteration  5 RMS(Cart)=  0.00000182 RMS(Int)=  0.00000750
 Iteration  6 RMS(Cart)=  0.00000121 RMS(Int)=  0.00000778
 Iteration  7 RMS(Cart)=  0.00000081 RMS(Int)=  0.00000796
 Variable       Old X    -DE/DX   Delta X   Delta X   Delta X     New X
                                 (Linear)    (Quad)   (Total)
    R1        2.05977  -0.00092   0.00000  -0.00002  -0.00002   2.05975
    R2        2.05965   0.00455   0.00000   0.00331   0.00331   2.06296
    R3        2.05987   0.00488   0.00000   0.00395   0.00395   2.06382
    R4        2.89132  -0.00025   0.00000   0.00009   0.00009   2.89140
    R5        2.32240  -0.00696   0.00000  -0.00471  -0.00471   2.31769
    R6        2.52289   0.05362   0.00000   0.02143   0.02143   2.54432
    R7        1.90859  -0.00050   0.00000   0.00121   0.00121   1.90979
    R8        2.73817   0.04771   0.00000   0.01106   0.01106   2.74923
    R9        2.05975   0.00484   0.00000   0.00525   0.00525   2.06499
   R10        2.88188   0.01638   0.00000   0.00385   0.00385   2.88573
   R11        2.87618   0.01436   0.00000   0.00934   0.00934   2.88552
   R12        2.05972   0.00350   0.00000   0.00127   0.00127   2.06098
   R13        2.05984   0.00345   0.00000   0.00263   0.00263   2.06248
   R14        2.05966  -0.01041   0.00000  -0.00049  -0.00049   2.05917
   R15        2.32240  -0.00125   0.00000  -0.00217  -0.00217   2.32024
   R16        2.52275   0.03254   0.00000   0.01496   0.01496   2.53771
   R17        1.90871  -0.00314   0.00000  -0.00020  -0.00020   1.90850
   R18        2.73822   0.00601   0.00000   0.00196   0.00196   2.74019
   R19        2.05970  -0.00064   0.00000   0.00040   0.00040   2.06010
   R20        2.05985   0.00406   0.00000   0.00354   0.00354   2.06338
   R21        2.05990   0.00423   0.00000   0.00311   0.00311   2.06301
    A1        1.91123  -0.00011   0.00000   0.00121   0.00126   1.91249
    A2        1.91109  -0.00044   0.00000  -0.00454  -0.00454   1.90655
    A3        1.93910  -0.00771   0.00000  -0.01236  -0.01234   1.92676
    A4        1.91012  -0.00518   0.00000  -0.00753  -0.00760   1.90252
    A5        1.89607   0.00626   0.00000   0.01792   0.01790   1.91397
    A6        1.89594   0.00724   0.00000   0.00541   0.00537   1.90131
    A7        2.10313  -0.01397   0.00000   0.00666   0.00649   2.10962
    A8        2.03508  -0.03048   0.00000  -0.01936  -0.01953   2.01556
    A9        2.14497   0.04445   0.00000   0.01270   0.01253   2.15750
   A10        2.09430  -0.04815   0.00000  -0.02058  -0.02108   2.07322
   A11        2.12753   0.09032   0.00000   0.03304   0.03253   2.16006
   A12        2.06135  -0.04217   0.00000  -0.01246  -0.01298   2.04837
   A13        1.91114  -0.01337   0.00000  -0.00453  -0.00448   1.90666
   A14        1.93905   0.04762   0.00000   0.01693   0.01673   1.95578
   A15        1.93900  -0.00881   0.00000   0.00207   0.00165   1.94066
   A16        1.89609  -0.00357   0.00000  -0.01585  -0.01571   1.88038
   A17        1.89608   0.00480   0.00000  -0.01842  -0.01832   1.87776
   A18        1.88137  -0.02738   0.00000   0.01887   0.01865   1.90002
   A19        1.91115   0.00383   0.00000   0.01360   0.01360   1.92475
   A20        1.91106  -0.00861   0.00000  -0.01320  -0.01317   1.89789
   A21        1.91110   0.01105   0.00000   0.00381   0.00380   1.91490
   A22        1.91011  -0.00079   0.00000  -0.00067  -0.00062   1.90949
   A23        1.91023  -0.00434   0.00000  -0.00873  -0.00876   1.90147
   A24        1.91015  -0.00115   0.00000   0.00518   0.00519   1.91534
   A25        2.10316  -0.00902   0.00000  -0.00372  -0.00373   2.09943
   A26        2.03507   0.01225   0.00000   0.00005   0.00004   2.03511
   A27        2.14496  -0.00323   0.00000   0.00367   0.00365   2.14861
   A28        2.09447   0.00021   0.00000  -0.00919  -0.00928   2.08519
   A29        2.12757   0.00239   0.00000   0.00324   0.00314   2.13072
   A30        2.06114  -0.00260   0.00000   0.00594   0.00584   2.06699
   A31        1.91112  -0.00668   0.00000  -0.01022  -0.01020   1.90092
   A32        1.91124   0.00480   0.00000   0.00911   0.00910   1.92034
   A33        1.91112   0.00481   0.00000   0.00587   0.00585   1.91697
   A34        1.91011   0.00005   0.00000  -0.00216  -0.00214   1.90797
   A35        1.91016   0.00009   0.00000   0.00056   0.00057   1.91073
   A36        1.91005  -0.00307   0.00000  -0.00317  -0.00321   1.90684
    D1       -0.00008  -0.00153   0.00000   0.07213   0.07212   0.07204
    D2        3.14153   0.00160   0.00000   0.03910   0.03915  -3.10250
    D3        2.10341  -0.00240   0.00000   0.07758   0.07750   2.18091
    D4       -1.03816   0.00073   0.00000   0.04455   0.04453  -0.99363
    D5       -2.10332  -0.00089   0.00000   0.08189   0.08189  -2.02143
    D6        1.03830   0.00224   0.00000   0.04886   0.04892   1.08722
    D7        0.00004   0.00656   0.00000  -0.02706  -0.02713  -0.02709
    D8        3.14152  -0.00037   0.00000  -0.08824  -0.08808   3.05344
    D9       -3.14153   0.00978   0.00000  -0.06096  -0.06111   3.08054
   D10       -0.00005   0.00284   0.00000  -0.12214  -0.12207  -0.12211
   D11       -1.57078  -0.00081   0.00000  -0.02455  -0.02453  -1.59531
   D12        0.52366   0.01613   0.00000  -0.03653  -0.03651   0.48716
   D13        2.61802   0.00747   0.00000   0.00000   0.00000   2.61802
   D14        1.57071  -0.00762   0.00000  -0.08462  -0.08468   1.48603
   D15       -2.61803   0.00932   0.00000  -0.09659  -0.09666  -2.71469
   D16       -0.52368   0.00066   0.00000  -0.06007  -0.06015  -0.58383
   D17        1.04724  -0.00273   0.00000   0.00385   0.00400   1.05124
   D18        3.14157  -0.00663   0.00000   0.00328   0.00339  -3.13823
   D19       -1.04726  -0.00654   0.00000   0.00387   0.00398  -1.04329
   D20       -3.13259   0.00788   0.00000  -0.00153  -0.00152  -3.13411
   D21       -1.03826   0.00398   0.00000  -0.00211  -0.00213  -1.04039
   D22        1.05609   0.00407   0.00000  -0.00152  -0.00154   1.05455
   D23       -1.08102  -0.00336   0.00000  -0.02154  -0.02163  -1.10265
   D24        1.01331  -0.00726   0.00000  -0.02212  -0.02224   0.99106
   D25        3.10766  -0.00717   0.00000  -0.02153  -0.02165   3.08601
   D26        2.87975  -0.01973   0.00000  -0.00994  -0.00991   2.86984
   D27       -0.26176  -0.02274   0.00000   0.00000   0.00000  -0.26176
   D28        0.77644  -0.00083   0.00000   0.00630   0.00625   0.78269
   D29       -2.36508  -0.00384   0.00000   0.01623   0.01617  -2.34891
   D30       -1.27514   0.01582   0.00000   0.02465   0.02469  -1.25045
   D31        1.86653   0.01281   0.00000   0.03459   0.03461   1.90114
   D32       -0.00009  -0.00161   0.00000  -0.03385  -0.03380  -0.03388
   D33       -3.14154   0.00067   0.00000  -0.00727  -0.00735   3.13430
   D34        3.14158  -0.00469   0.00000  -0.02365  -0.02358   3.11801
   D35        0.00013  -0.00241   0.00000   0.00293   0.00287   0.00301
   D36       -0.00010  -0.00115   0.00000  -0.04001  -0.04005  -0.04015
   D37        2.09433  -0.00224   0.00000  -0.04333  -0.04340   2.05093
   D38       -2.09450  -0.00011   0.00000  -0.03803  -0.03805  -2.13256
   D39       -3.14155   0.00109   0.00000  -0.01391  -0.01387   3.12777
   D40       -1.04712  -0.00001   0.00000  -0.01724  -0.01722  -1.06434
   D41        1.04723   0.00213   0.00000  -0.01193  -0.01187   1.03536
         Item               Value     Threshold  Converged?
 Maximum Force            0.090324     0.000450     NO 
 RMS     Force            0.016907     0.000300     NO 
 Maximum Displacement     0.337540     0.001800     NO 
 RMS     Displacement     0.068300     0.001200     NO 
 Predicted change in Energy=-7.748100D-03
 GradGradGradGradGradGradGradGradGradGradGradGradGradGradGradGradGradGrad

                          Input orientation:                          
 ---------------------------------------------------------------------
 Center     Atomic      Atomic             Coordinates (Angstroms)
 Number     Number       Type             X           Y           Z
 ---------------------------------------------------------------------
      1          1           0        1.839619    1.220985   -0.910311
      2          6           0        1.919929    2.202859   -0.443929
      3          1           0        1.695950    2.121230    0.621395
      4          1           0        1.200681    2.881390   -0.907628
      5          6           0        3.328998    2.768808   -0.631884
      6          8           0        4.163796    2.169481   -1.301318
      7          7           0        3.555725    3.962834   -0.052499
      8          1           0        2.798354    4.416948    0.438948
      9          6           0        4.855884    4.615102   -0.026631
     10          1           0        5.387550    4.322583    0.882136
     11          6           0        5.721043    4.217037   -1.220351
     12          1           0        5.230676    4.498153   -2.153077
     13          1           0        6.680348    4.732120   -1.145434
     14          1           0        5.880680    3.139138   -1.215461
     15          6           0        4.710622    6.135004   -0.007209
     16          8           0        5.664643    6.844383    0.299637
     17          7           0        3.502942    6.627809   -0.326628
     18          1           0        2.761836    5.994545   -0.590654
     19          6           0        3.230561    8.052000   -0.337358
     20          1           0        4.125282    8.585342   -0.015694
     21          1           0        2.961139    8.373602   -1.345434
     22          1           0        2.407943    8.276949    0.344185
 ---------------------------------------------------------------------
                    Distance matrix (angstroms):
                    1          2          3          4          5
     1  H    0.000000
     2  C    1.089972   0.000000
     3  H    1.782472   1.091671   0.000000
     4  H    1.779098   1.092126   1.777933   0.000000
     5  C    2.165993   1.530066   2.157988   2.149056   0.000000
     6  O    2.540538   2.402326   3.128805   3.072761   1.226468
     7  N    3.346430   2.434452   2.702665   2.728919   1.346398
     8  H    3.599146   2.540333   2.553214   2.593022   2.035836
     9  C    4.625881   3.822681   4.077317   4.140341   2.471136
    10  H    5.041884   4.275053   4.306025   4.775999   2.990671
    11  C    4.913034   4.371294   4.897531   4.723921   2.857541
    12  H    4.876840   4.376141   5.083478   4.517292   2.986812
    13  H    5.984648   5.436070   5.897683   5.788653   3.917892
    14  H    4.483593   4.142394   4.682109   4.697189   2.643632
    15  C    5.762450   4.841534   5.059029   4.869953   3.691934
    16  O    6.907778   6.009952   6.177559   6.090137   4.788871
    17  N    5.686921   4.701050   4.947041   4.435496   3.874961
    18  H    4.872324   3.886801   4.196159   3.497058   3.275478
    19  C    6.994695   5.995128   6.200667   5.583980   5.292310
    20  H    7.762625   6.766318   6.934860   6.471779   5.903036
    21  H    7.253073   6.322571   6.675423   5.784054   5.661995
    22  H    7.189115   6.144416   6.202955   5.668913   5.669274
                    6          7          8          9         10
     6  O    0.000000
     7  N    2.268351   0.000000
     8  H    3.153421   1.010619   0.000000
     9  C    2.843392   1.454832   2.118834   0.000000
    10  H    3.301651   2.087714   2.628546   1.092746   0.000000
    11  C    2.573725   2.473277   3.366801   1.527064   2.131387
    12  H    2.699341   2.739426   3.555471   2.162388   3.044332
    13  H    3.595059   3.398467   4.204697   2.143382   2.439280
    14  H    1.973650   2.726971   3.724325   2.154528   2.458380
    15  C    4.207031   2.460521   2.609126   1.526951   2.129328
    16  O    5.164331   3.588156   3.758652   2.393791   2.602991
    17  N    4.611230   2.679557   2.443452   2.443653   3.213553
    18  H    4.135415   2.246714   1.884205   2.570218   3.443682
    19  C    6.033587   4.111953   3.742066   3.814510   4.477535
    20  H    6.543515   4.657611   4.398062   4.036918   4.535476
    21  H    6.319766   4.634662   4.343458   4.410852   5.221139
    22  H    6.564440   4.481780   3.880852   4.420299   4.980408
                   11         12         13         14         15
    11  C    0.000000
    12  H    1.090626   0.000000
    13  H    1.091416   1.780908   0.000000
    14  H    1.089666   1.774416   1.783806   0.000000
    15  C    2.484203   2.748542   2.672726   3.435712   0.000000
    16  O    3.035868   3.421831   2.753461   4.008869   1.227816
    17  N    3.395664   3.294907   3.789458   4.314450   1.342898
    18  H    3.508983   3.282609   4.154062   4.274449   2.039093
    19  C    4.657158   4.463980   4.855473   5.650699   2.444269
    20  H    4.804138   4.742933   4.759412   5.846537   2.519296
    21  H    4.990967   4.563133   5.208925   5.995016   3.140518
    22  H    5.468756   5.336987   5.747889   6.394489   3.164449
                   16         17         18         19         20
    16  O    0.000000
    17  N    2.260988   0.000000
    18  H    3.152956   1.009936   0.000000
    19  C    2.790852   1.450044   2.125319   0.000000
    20  H    2.345209   2.077481   2.983587   1.090159   0.000000
    21  H    3.514784   2.092680   2.503862   1.091895   1.779964
    22  H    3.558135   2.090138   2.491692   1.091697   1.781537
                   21         22
    21  H    0.000000
    22  H    1.780500   0.000000
 Stoichiometry    C6H12N2O2
 Framework group  C1[X(C6H12N2O2)]
 Deg. of freedom    60
 Full point group                 C1      NOp   1
 Largest Abelian subgroup         C1      NOp   1
 Largest concise Abelian subgroup C1      NOp   1
                         Standard orientation:                         
 ---------------------------------------------------------------------
 Center     Atomic      Atomic             Coordinates (Angstroms)
 Number     Number       Type             X           Y           Z
 ---------------------------------------------------------------------
      1          1           0       -3.977797   -1.345783    0.152016
      2          6           0       -2.951256   -1.520089   -0.170270
      3          1           0       -2.945241   -1.845312   -1.212354
      4          1           0       -2.507602   -2.302580    0.449098
      5          6           0       -2.122482   -0.242150   -0.024982
      6          8           0       -2.606406    0.768493    0.473658
      7          7           0       -0.844735   -0.330026   -0.440226
      8          1           0       -0.506999   -1.215365   -0.791593
      9          6           0        0.070886    0.799713   -0.483425
     10          1           0        0.016258    1.270119   -1.468223
     11          6           0       -0.277255    1.860227    0.558704
     12          1           0       -0.227751    1.435071    1.561828
     13          1           0        0.438061    2.680472    0.476790
     14          1           0       -1.285941    2.232458    0.381592
     15          6           0        1.513731    0.349423   -0.266586
     16          8           0        2.445099    1.098345   -0.548012
     17          7           0        1.690134   -0.887357    0.225991
     18          1           0        0.883813   -1.449562    0.457816
     19          6           0        3.009071   -1.438445    0.469577
     20          1           0        3.759026   -0.713386    0.152869
     21          1           0        3.136054   -1.648142    1.533596
     22          1           0        3.134616   -2.363090   -0.097057
 ---------------------------------------------------------------------
 Rotational constants (GHZ):      2.3379574      0.7772774      0.6299867
 Standard basis: 6-31G(d) (6D, 7F)
 There are   174 symmetry adapted basis functions of A   symmetry.
 Integral buffers will be    131072 words long.
 Raffenetti 2 integral format.
 Two-electron integral symmetry is turned on.
   174 basis functions,   328 primitive gaussians,   174 cartesian basis functions
    39 alpha electrons       39 beta electrons
       nuclear repulsion energy       558.6460147013 Hartrees.
 NAtoms=   22 NActive=   22 NUniq=   22 SFac= 7.50D-01 NAtFMM=   80 NAOKFM=F Big=F
 One-electron integrals computed using PRISM.
 NBasis=   174 RedAO= T  NBF=   174
 NBsUse=   174 1.00D-06 NBFU=   174
 Initial guess read from the read-write file.
 B after Tr=     0.000000    0.000000    0.000000
         Rot=    1.000000    0.000000    0.000000    0.000000 Ang=   0.00 deg.
 Initial guess orbital symmetries:
       Occupied  (A) (A) (A) (A) (A) (A) (A) (A) (A) (A) (A) (A)
                 (A) (A) (A) (A) (A) (A) (A) (A) (A) (A) (A) (A)
                 (A) (A) (A) (A) (A) (A) (A) (A) (A) (A) (A) (A)
                 (A) (A) (A)
       Virtual   (A) (A) (A) (A) (A) (A) (A) (A) (A) (A) (A) (A)
                 (A) (A) (A) (A) (A) (A) (A) (A) (A) (A) (A) (A)
                 (A) (A) (A) (A) (A) (A) (A) (A) (A) (A) (A) (A)
                 (A) (A) (A) (A) (A) (A) (A) (A) (A) (A) (A) (A)
                 (A) (A) (A) (A) (A) (A) (A) (A) (A) (A) (A) (A)
                 (A) (A) (A) (A) (A) (A) (A) (A) (A) (A) (A) (A)
                 (A) (A) (A) (A) (A) (A) (A) (A) (A) (A) (A) (A)
                 (A) (A) (A) (A) (A) (A) (A) (A) (A) (A) (A) (A)
                 (A) (A) (A) (A) (A) (A) (A) (A) (A) (A) (A) (A)
                 (A) (A) (A) (A) (A) (A) (A) (A) (A) (A) (A) (A)
                 (A) (A) (A) (A) (A) (A) (A) (A) (A) (A) (A) (A)
                 (A) (A) (A)
 Harris functional with IExCor=  402 diagonalized for initial guess.
 ExpMin= 1.61D-01 ExpMax= 5.48D+03 ExpMxC= 8.25D+02 IAcc=1 IRadAn=         1 AccDes= 0.00D+00
 HarFok:  IExCor=  402 AccDes= 0.00D+00 IRadAn=         1 IDoV= 1
 ScaDFX=  1.000000  1.000000  1.000000  1.000000
 FoFCou: FMM=F IPFlag=           0 FMFlag=      100000 FMFlg1=           0
         NFxFlg=           0 DoJE=T BraDBF=F KetDBF=T FulRan=T
         Omega=  0.000000  0.000000  1.000000  0.000000  0.000000 ICntrl=     500 IOpCl=  0
         NMat0=    1 NMatS0=    1 NMatT0=    0 NMatD0=    1 NMtDS0=    0 NMtDT0=    0
         I1Cent=           4 NGrid=           0.
 Petite list used in FoFCou.
 Requested convergence on RMS density matrix=1.00D-08 within 128 cycles.
 Requested convergence on MAX density matrix=1.00D-06.
 Requested convergence on             energy=1.00D-06.
 No special actions if energy rises.
 Integral accuracy reduced to 1.0D-05 until final iterations.
 Initial convergence to 1.0D-05 achieved.  Increase integral accuracy.
 SCF Done:  E(RB3LYP) =  -495.828864035     A.U. after   16 cycles
             Convg  =    0.2191D-08             -V/T =  2.0087
 Calling FoFJK, ICntrl=      2127 FMM=F ISym2X=0 I1Cent= 0 IOpClX= 0 NMat=1 NMatS=1 NMatT=0.
 ***** Axes restored to original set *****
 -------------------------------------------------------------------
 Center     Atomic                   Forces (Hartrees/Bohr)
 Number     Number              X              Y              Z
 -------------------------------------------------------------------
      1        1           0.002490318    0.000752825   -0.000589338
      2        6           0.004438117    0.006030298    0.001679530
      3        1          -0.003852881   -0.000571478    0.002436474
      4        1          -0.005052612    0.000435125    0.000251667
      5        6          -0.008660367   -0.028177439   -0.016751731
      6        8          -0.012216067   -0.012705310    0.004581870
      7        7          -0.001864749    0.012808853    0.004019889
      8        1           0.001348910   -0.005993093    0.006837814
      9        6           0.002255791    0.001136280   -0.002782179
     10        1           0.001284563    0.003017818    0.004367065
     11        6           0.014313719    0.000882494   -0.000508056
     12        1           0.000441790   -0.000624409   -0.003298568
     13        1           0.000003564    0.004890543    0.000539259
     14        1           0.003633843    0.007614472   -0.002728671
     15        6           0.018616021   -0.000862646    0.012350151
     16        8           0.000676346   -0.001902678   -0.001216282
     17        7          -0.015447704    0.007497400   -0.002616427
     18        1           0.002536496    0.002411172   -0.004394853
     19        6          -0.002501303   -0.000103580   -0.001622030
     20        1           0.000772981   -0.002281394    0.000145053
     21        1          -0.000987065    0.002974198   -0.001934396
     22        1          -0.002229710    0.002770550    0.001233758
 -------------------------------------------------------------------
 Cartesian Forces:  Max     0.028177439 RMS     0.006861823

 GradGradGradGradGradGradGradGradGradGradGradGradGradGradGradGradGradGrad
 Berny optimization.
 Using GEDIIS/GDIIS optimizer.
 Internal  Forces:  Max     0.061963390 RMS     0.011854431
 Search for a local minimum.
 Step number   2 out of a maximum of  132
 All quantities printed in internal units (Hartrees-Bohrs-Radians)
 Mixed Optimization -- RFO/linear search
 Update second derivatives using D2CorX and points    1    2
 DE= -7.56D-03 DEPred=-7.75D-03 R= 9.76D-01
 SS=  1.41D+00  RLast= 3.00D-01 DXNew= 5.0454D-01 8.9998D-01
 Trust test= 9.76D-01 RLast= 3.00D-01 DXMaxT set to 5.05D-01
 Use linear search instead of GDIIS.
 Linear search step of   0.530 exceeds DXMaxT=   0.505 but not scaled.
 Quartic linear search produced a step of  1.78403.
 Iteration  1 RMS(Cart)=  0.11766412 RMS(Int)=  0.00635769
 Iteration  2 RMS(Cart)=  0.01000582 RMS(Int)=  0.00057241
 Iteration  3 RMS(Cart)=  0.00007128 RMS(Int)=  0.00057053
 Iteration  4 RMS(Cart)=  0.00000001 RMS(Int)=  0.00057053
 Iteration  1 RMS(Cart)=  0.00003868 RMS(Int)=  0.00001764
 Iteration  2 RMS(Cart)=  0.00002472 RMS(Int)=  0.00001953
 Iteration  3 RMS(Cart)=  0.00001614 RMS(Int)=  0.00002235
 Iteration  4 RMS(Cart)=  0.00001069 RMS(Int)=  0.00002463
 Iteration  5 RMS(Cart)=  0.00000715 RMS(Int)=  0.00002626
 Iteration  6 RMS(Cart)=  0.00000482 RMS(Int)=  0.00002740
 Iteration  7 RMS(Cart)=  0.00000325 RMS(Int)=  0.00002818
 Iteration  8 RMS(Cart)=  0.00000221 RMS(Int)=  0.00002870
 Iteration  9 RMS(Cart)=  0.00000150 RMS(Int)=  0.00002906
 Iteration 10 RMS(Cart)=  0.00000102 RMS(Int)=  0.00002931
 Iteration 11 RMS(Cart)=  0.00000069 RMS(Int)=  0.00002947
 Variable       Old X    -DE/DX   Delta X   Delta X   Delta X     New X
                                 (Linear)    (Quad)   (Total)
    R1        2.05975  -0.00061  -0.00004   0.00000  -0.00004   2.05970
    R2        2.06296   0.00321   0.00590   0.00000   0.00590   2.06886
    R3        2.06382   0.00349   0.00704   0.00000   0.00704   2.07086
    R4        2.89140  -0.00017   0.00016   0.00000   0.00016   2.89156
    R5        2.31769  -0.00461  -0.00840   0.00000  -0.00840   2.30929
    R6        2.54432   0.03782   0.03823   0.00000   0.03823   2.58256
    R7        1.90979  -0.00038   0.00215   0.00000   0.00215   1.91195
    R8        2.74923   0.03314   0.01974   0.00000   0.01974   2.76897
    R9        2.06499   0.00345   0.00936   0.00000   0.00936   2.07435
   R10        2.88573   0.01178   0.00687   0.00000   0.00687   2.89260
   R11        2.88552   0.01034   0.01667   0.00000   0.01667   2.90219
   R12        2.06098   0.00246   0.00226   0.00000   0.00226   2.06324
   R13        2.06248   0.00235   0.00470   0.00000   0.00470   2.06717
   R14        2.05917  -0.00701  -0.00087   0.00000  -0.00087   2.05830
   R15        2.32024  -0.00088  -0.00387   0.00000  -0.00387   2.31637
   R16        2.53771   0.02311   0.02669   0.00000   0.02669   2.56440
   R17        1.90850  -0.00222  -0.00036   0.00000  -0.00036   1.90814
   R18        2.74019   0.00424   0.00350   0.00000   0.00350   2.74368
   R19        2.06010  -0.00044   0.00071   0.00000   0.00071   2.06081
   R20        2.06338   0.00290   0.00631   0.00000   0.00631   2.06969
   R21        2.06301   0.00302   0.00554   0.00000   0.00554   2.06855
    A1        1.91249  -0.00009   0.00224   0.00000   0.00244   1.91493
    A2        1.90655  -0.00039  -0.00811   0.00000  -0.00815   1.89840
    A3        1.92676  -0.00558  -0.02201   0.00000  -0.02192   1.90484
    A4        1.90252  -0.00384  -0.01357   0.00000  -0.01395   1.88857
    A5        1.91397   0.00461   0.03194   0.00000   0.03185   1.94582
    A6        1.90131   0.00530   0.00958   0.00000   0.00936   1.91068
    A7        2.10962  -0.00897   0.01158   0.00000   0.01075   2.12037
    A8        2.01556  -0.02054  -0.03484   0.00000  -0.03569   1.97986
    A9        2.15750   0.02957   0.02236   0.00000   0.02147   2.17897
   A10        2.07322  -0.03309  -0.03761   0.00000  -0.03990   2.03332
   A11        2.16006   0.06196   0.05804   0.00000   0.05569   2.21575
   A12        2.04837  -0.02906  -0.02315   0.00000  -0.02559   2.02278
   A13        1.90666  -0.00976  -0.00799   0.00000  -0.00777   1.89888
   A14        1.95578   0.03336   0.02985   0.00000   0.02892   1.98470
   A15        1.94066  -0.00541   0.00295   0.00000   0.00088   1.94154
   A16        1.88038  -0.00218  -0.02803   0.00000  -0.02729   1.85309
   A17        1.87776   0.00315  -0.03268   0.00000  -0.03222   1.84553
   A18        1.90002  -0.02015   0.03327   0.00000   0.03224   1.93226
   A19        1.92475   0.00275   0.02427   0.00000   0.02430   1.94905
   A20        1.89789  -0.00602  -0.02350   0.00000  -0.02335   1.87454
   A21        1.91490   0.00792   0.00678   0.00000   0.00671   1.92161
   A22        1.90949  -0.00056  -0.00110   0.00000  -0.00086   1.90863
   A23        1.90147  -0.00329  -0.01563   0.00000  -0.01580   1.88567
   A24        1.91534  -0.00081   0.00926   0.00000   0.00930   1.92464
   A25        2.09943  -0.00646  -0.00666   0.00000  -0.00673   2.09269
   A26        2.03511   0.00875   0.00006   0.00000  -0.00001   2.03509
   A27        2.14861  -0.00226   0.00651   0.00000   0.00644   2.15504
   A28        2.08519   0.00000  -0.01656   0.00000  -0.01702   2.06817
   A29        2.13072   0.00167   0.00561   0.00000   0.00513   2.13584
   A30        2.06699  -0.00172   0.01043   0.00000   0.00992   2.07690
   A31        1.90092  -0.00486  -0.01820   0.00000  -0.01812   1.88280
   A32        1.92034   0.00353   0.01623   0.00000   0.01617   1.93651
   A33        1.91697   0.00350   0.01044   0.00000   0.01036   1.92733
   A34        1.90797   0.00001  -0.00381   0.00000  -0.00371   1.90426
   A35        1.91073   0.00006   0.00102   0.00000   0.00107   1.91180
   A36        1.90684  -0.00225  -0.00573   0.00000  -0.00594   1.90090
    D1        0.07204  -0.00127   0.12867   0.00000   0.12860   0.20064
    D2       -3.10250   0.00130   0.06985   0.00000   0.07011  -3.03239
    D3        2.18091  -0.00196   0.13826   0.00000   0.13786   2.31877
    D4       -0.99363   0.00060   0.07944   0.00000   0.07938  -0.91426
    D5       -2.02143  -0.00071   0.14610   0.00000   0.14606  -1.87536
    D6        1.08722   0.00185   0.08727   0.00000   0.08758   1.17480
    D7       -0.02709   0.00432  -0.04840   0.00000  -0.04872  -0.07581
    D8        3.05344  -0.00059  -0.15714   0.00000  -0.15640   2.89704
    D9        3.08054   0.00611  -0.10903   0.00000  -0.10977   2.97077
   D10       -0.12211   0.00120  -0.21777   0.00000  -0.21745  -0.33957
   D11       -1.59531  -0.00178  -0.04377   0.00000  -0.04370  -1.63901
   D12        0.48716   0.01000  -0.06513   0.00000  -0.06503   0.42213
   D13        2.61802   0.00380   0.00000   0.00000   0.00000   2.61802
   D14        1.48603  -0.00681  -0.15108   0.00000  -0.15131   1.33472
   D15       -2.71469   0.00497  -0.17244   0.00000  -0.17264  -2.88733
   D16       -0.58383  -0.00123  -0.10730   0.00000  -0.10761  -0.69144
   D17        1.05124  -0.00135   0.00714   0.00000   0.00786   1.05910
   D18       -3.13823  -0.00411   0.00605   0.00000   0.00660  -3.13162
   D19       -1.04329  -0.00402   0.00710   0.00000   0.00765  -1.03563
   D20       -3.13411   0.00537  -0.00271   0.00000  -0.00265  -3.13676
   D21       -1.04039   0.00260  -0.00380   0.00000  -0.00390  -1.04429
   D22        1.05455   0.00270  -0.00275   0.00000  -0.00285   1.05170
   D23       -1.10265  -0.00270  -0.03859   0.00000  -0.03904  -1.14170
   D24        0.99106  -0.00547  -0.03968   0.00000  -0.04030   0.95077
   D25        3.08601  -0.00537  -0.03863   0.00000  -0.03925   3.04676
   D26        2.86984  -0.01385  -0.01768   0.00000  -0.01755   2.85229
   D27       -0.26176  -0.01666   0.00000   0.00000   0.00000  -0.26176
   D28        0.78269  -0.00075   0.01115   0.00000   0.01092   0.79361
   D29       -2.34891  -0.00355   0.02884   0.00000   0.02847  -2.32044
   D30       -1.25045   0.01069   0.04405   0.00000   0.04425  -1.20620
   D31        1.90114   0.00788   0.06174   0.00000   0.06179   1.96293
   D32       -0.03388  -0.00133  -0.06029   0.00000  -0.06000  -0.09389
   D33        3.13430   0.00077  -0.01311   0.00000  -0.01349   3.12081
   D34        3.11801  -0.00420  -0.04206   0.00000  -0.04168   3.07633
   D35        0.00301  -0.00211   0.00512   0.00000   0.00484   0.00784
   D36       -0.04015  -0.00106  -0.07145   0.00000  -0.07164  -0.11179
   D37        2.05093  -0.00192  -0.07744   0.00000  -0.07777   1.97315
   D38       -2.13256  -0.00026  -0.06788   0.00000  -0.06799  -2.20055
   D39        3.12777   0.00099  -0.02474   0.00000  -0.02451   3.10326
   D40       -1.06434   0.00013  -0.03072   0.00000  -0.03064  -1.09498
   D41        1.03536   0.00179  -0.02117   0.00000  -0.02085   1.01451
         Item               Value     Threshold  Converged?
 Maximum Force            0.061968     0.000450     NO 
 RMS     Force            0.011670     0.000300     NO 
 Maximum Displacement     0.562396     0.001800     NO 
 RMS     Displacement     0.118939     0.001200     NO 
 Predicted change in Energy=-8.422451D-03
 GradGradGradGradGradGradGradGradGradGradGradGradGradGradGradGradGradGrad

                          Input orientation:                          
 ---------------------------------------------------------------------
 Center     Atomic      Atomic             Coordinates (Angstroms)
 Number     Number       Type             X           Y           Z
 ---------------------------------------------------------------------
      1          1           0        1.793159    1.196943   -0.785460
      2          6           0        1.901533    2.193364   -0.357222
      3          1           0        1.785168    2.142709    0.730189
      4          1           0        1.109607    2.836907   -0.756717
      5          6           0        3.267055    2.761951   -0.748905
      6          8           0        3.961925    2.225326   -1.598925
      7          7           0        3.552282    3.954924   -0.146295
      8          1           0        2.821078    4.358431    0.424825
      9          6           0        4.858052    4.615950   -0.075269
     10          1           0        5.347450    4.332197    0.865431
     11          6           0        5.817294    4.206105   -1.195500
     12          1           0        5.416686    4.454440   -2.180342
     13          1           0        6.754537    4.747817   -1.038195
     14          1           0        5.992539    3.131559   -1.163776
     15          6           0        4.706352    6.143274   -0.021827
     16          8           0        5.648245    6.838576    0.341352
     17          7           0        3.491699    6.645467   -0.359351
     18          1           0        2.786243    6.010020   -0.703037
     19          6           0        3.202545    8.067931   -0.327970
     20          1           0        4.064250    8.575179    0.107267
     21          1           0        3.031090    8.455135   -1.338025
     22          1           0        2.315413    8.264095    0.282551
 ---------------------------------------------------------------------
                    Distance matrix (angstroms):
                    1          2          3          4          5
     1  H    0.000000
     2  C    1.089949   0.000000
     3  H    1.786541   1.094792   0.000000
     4  H    1.776951   1.095852   1.774594   0.000000
     5  C    2.150106   1.530150   2.183385   2.158764   0.000000
     6  O    2.534333   2.405840   3.189023   3.036291   1.222025
     7  N    3.333093   2.423336   2.678627   2.754858   1.366630
     8  H    3.537855   2.478846   2.464910   2.576861   2.031079
     9  C    4.646240   3.832679   4.025953   4.204784   2.534239
    10  H    5.018789   4.236017   4.183540   4.777716   3.065909
    11  C    5.041513   4.481855   4.921780   4.922352   2.964582
    12  H    5.068228   4.559884   5.196462   4.816021   3.087790
    13  H    6.106378   5.526356   5.882890   5.966242   4.023665
    14  H    4.639036   4.274000   4.718781   4.908721   2.781545
    15  C    5.791030   4.856057   5.010326   4.940516   3.746140
    16  O    6.925274   6.008649   6.093088   6.149663   4.845369
    17  N    5.723026   4.727564   4.937021   4.509700   3.909465
    18  H    4.915152   3.933085   4.244099   3.589239   3.283783
    19  C    7.028950   6.016978   6.183600   5.650471   5.323041
    20  H    7.771305   6.754306   6.852657   6.511846   5.929769
    21  H    7.383709   6.437985   6.758443   5.966112   5.728445
    22  H    7.166452   6.118364   6.160592   5.655830   5.678301
                    6          7          8          9         10
     6  O    0.000000
     7  N    2.295528   0.000000
     8  H    3.153923   1.011758   0.000000
     9  C    2.973155   1.465276   2.113213   0.000000
    10  H    3.525853   2.094887   2.564640   1.097698   0.000000
    11  C    2.743835   2.508824   3.409687   1.530698   2.117566
[...]
    14  H    4.912351   4.447836   4.797362   5.081757   2.940734
    15  C    5.628272   4.869484   5.470805   4.736403   3.780801
    16  O    6.811983   6.027778   6.551098   5.913803   4.882667
    17  N    5.377323   4.709701   5.470760   4.329075   3.926224
    18  H    4.497229   3.930903   4.798219   3.534408   3.283306
    19  C    6.615784   6.011086   6.806954   5.499625   5.335688
    20  H    7.419984   6.721281   7.419639   6.243143   5.954907
    21  H    6.956245   6.490306   7.377571   6.053957   5.740350
    22  H    6.688355   6.099421   6.890568   5.415411   5.688576
                    6          7          8          9         10
     6  O    0.000000
     7  N    2.309088   0.000000
     8  H    3.146898   1.012839   0.000000
     9  C    3.009799   1.471379   2.089811   0.000000
    10  H    3.537912   2.108438   2.455761   1.098398   0.000000
    11  C    2.860218   2.533975   3.425027   1.537145   2.150100
    12  H    2.855972   2.793984   3.720237   2.184228   3.071060
    13  H    3.928162   3.434848   4.207419   2.135046   2.454398
    14  H    2.415414   2.853730   3.793768   2.185718   2.490866
    15  C    4.354833   2.488627   2.693021   1.544836   2.114630
    16  O    5.343146   3.609156   3.788812   2.402901   2.575223
    17  N    4.686952   2.706047   2.656397   2.473524   3.213370
    18  H    4.095012   2.277113   2.269788   2.562056   3.452615
    19  C    6.080225   4.150746   4.003433   3.841719   4.492879
    20  H    6.672845   4.664537   4.497084   4.078876   4.518089
    21  H    6.335354   4.689206   4.720444   4.338229   5.122522
    22  H    6.567098   4.562157   4.208532   4.543841   5.157445
                   11         12         13         14         15
    11  C    0.000000
    12  H    1.094290   0.000000
    13  H    1.093391   1.779938   0.000000
    14  H    1.088583   1.765448   1.787474   0.000000
    15  C    2.490893   2.803828   2.602437   3.455799   0.000000
    16  O    3.014142   3.458828   2.649458   3.973033   1.224338
    17  N    3.438677   3.387562   3.749823   4.389884   1.365288
    18  H    3.463894   3.237532   4.034563   4.294283   2.030976
    19  C    4.648828   4.490072   4.747501   5.674548   2.459967
    20  H    4.893936   4.915616   4.775128   5.935214   2.553094
    21  H    4.823815   4.448619   4.874992   5.876756   3.027388
    22  H    5.509426   5.337713   5.720449   6.480730   3.294166
                   16         17         18         19         20
    16  O    0.000000
    17  N    2.284910   0.000000
    18  H    3.145947   1.011427   0.000000
    19  C    2.817771   1.453574   2.134928   0.000000
    20  H    2.426163   2.067063   2.978654   1.090808   0.000000
    21  H    3.319662   2.124710   2.579928   1.097823   1.775498
    22  H    3.753785   2.097977   2.480699   1.094420   1.785268
                   21         22
    21  H    0.000000
    22  H    1.783890   0.000000
 Stoichiometry    C6H12N2O2
 Framework group  C1[X(C6H12N2O2)]
 Deg. of freedom    60
 Full point group                 C1      NOp   1
 Largest Abelian subgroup         C1      NOp   1
 Largest concise Abelian subgroup C1      NOp   1
                         Standard orientation:                         
 ---------------------------------------------------------------------
 Center     Atomic      Atomic             Coordinates (Angstroms)
 Number     Number       Type             X           Y           Z
 ---------------------------------------------------------------------
      1          1           0       -3.638651   -1.707501    0.559249
      2          6           0       -2.978762   -1.493163   -0.284326
      3          1           0       -3.611506   -1.306530   -1.159855
      4          1           0       -2.355142   -2.369992   -0.487830
      5          6           0       -2.183567   -0.228940    0.034068
      6          8           0       -2.693293    0.707035    0.627798
      7          7           0       -0.874156   -0.269278   -0.406339
      8          1           0       -0.669615   -1.032061   -1.040507
      9          6           0        0.099099    0.831171   -0.488460
     10          1           0        0.079190    1.261393   -1.498901
     11          6           0       -0.128081    1.967666    0.521284
     12          1           0       -0.136571    1.587049    1.547212
     13          1           0        0.701658    2.671194    0.411351
     14          1           0       -1.073938    2.476670    0.344414
     15          6           0        1.542882    0.314124   -0.302261
     16          8           0        2.490683    1.016910   -0.629015
     17          7           0        1.672823   -0.945042    0.209235
     18          1           0        0.844376   -1.355475    0.619363
     19          6           0        2.973714   -1.494915    0.553040
     20          1           0        3.720684   -0.997399   -0.066941
     21          1           0        3.227454   -1.323266    1.607254
     22          1           0        2.990563   -2.571061    0.354595
 ---------------------------------------------------------------------
 Rotational constants (GHZ):      2.2304877      0.7534893      0.6158386

 **********************************************************************

            Population analysis using the SCF density.

 **********************************************************************

 Orbital symmetries:
       Occupied  (A) (A) (A) (A) (A) (A) (A) (A) (A) (A) (A) (A)
                 (A) (A) (A) (A) (A) (A) (A) (A) (A) (A) (A) (A)
                 (A) (A) (A) (A) (A) (A) (A) (A) (A) (A) (A) (A)
                 (A) (A) (A)
       Virtual   (A) (A) (A) (A) (A) (A) (A) (A) (A) (A) (A) (A)
                 (A) (A) (A) (A) (A) (A) (A) (A) (A) (A) (A) (A)
                 (A) (A) (A) (A) (A) (A) (A) (A) (A) (A) (A) (A)
                 (A) (A) (A) (A) (A) (A) (A) (A) (A) (A) (A) (A)
                 (A) (A) (A) (A) (A) (A) (A) (A) (A) (A) (A) (A)
                 (A) (A) (A) (A) (A) (A) (A) (A) (A) (A) (A) (A)
                 (A) (A) (A) (A) (A) (A) (A) (A) (A) (A) (A) (A)
                 (A) (A) (A) (A) (A) (A) (A) (A) (A) (A) (A) (A)
                 (A) (A) (A) (A) (A) (A) (A) (A) (A) (A) (A) (A)
                 (A) (A) (A) (A) (A) (A) (A) (A) (A) (A) (A) (A)
                 (A) (A) (A) (A) (A) (A) (A) (A) (A) (A) (A) (A)
                 (A) (A) (A)
 The electronic state is 1-A.
 Alpha  occ. eigenvalues --  -19.11663 -19.11215 -14.37154 -14.36636 -10.29772
 Alpha  occ. eigenvalues --  -10.28668 -10.24133 -10.22218 -10.19937 -10.17573
 Alpha  occ. eigenvalues --   -1.03778  -1.03190  -0.93738  -0.91664  -0.78297
 Alpha  occ. eigenvalues --   -0.73145  -0.71306  -0.64777  -0.58852  -0.56709
 Alpha  occ. eigenvalues --   -0.53999  -0.51015  -0.47457  -0.45807  -0.45449
 Alpha  occ. eigenvalues --   -0.44508  -0.42561  -0.41323  -0.40713  -0.39739
 Alpha  occ. eigenvalues --   -0.39321  -0.37515  -0.37310  -0.36170  -0.35018
 Alpha  occ. eigenvalues --   -0.27348  -0.25906  -0.25631  -0.24037
 Alpha virt. eigenvalues --    0.01766   0.02427   0.05841   0.09805   0.12099
 Alpha virt. eigenvalues --    0.12617   0.13363   0.14273   0.15396   0.15717
 Alpha virt. eigenvalues --    0.16926   0.17666   0.17701   0.18589   0.19582
 Alpha virt. eigenvalues --    0.20369   0.21990   0.23904   0.26935   0.30299
 Alpha virt. eigenvalues --    0.34848   0.39647   0.40662   0.50246   0.51698
 Alpha virt. eigenvalues --    0.52021   0.53305   0.53776   0.54618   0.55936
 Alpha virt. eigenvalues --    0.56591   0.58610   0.60873   0.63660   0.66082
 Alpha virt. eigenvalues --    0.66993   0.68108   0.70902   0.71507   0.73854
 Alpha virt. eigenvalues --    0.75512   0.77015   0.78419   0.79368   0.82977
 Alpha virt. eigenvalues --    0.84214   0.85182   0.86758   0.87418   0.87679
 Alpha virt. eigenvalues --    0.88800   0.90100   0.91202   0.92815   0.93445
 Alpha virt. eigenvalues --    0.94259   0.95090   0.95700   0.98572   0.98982
 Alpha virt. eigenvalues --    1.05851   1.07256   1.07410   1.12999   1.16272
 Alpha virt. eigenvalues --    1.17645   1.19628   1.26566   1.31973   1.33737
 Alpha virt. eigenvalues --    1.36727   1.38061   1.42613   1.45072   1.47642
 Alpha virt. eigenvalues --    1.51147   1.56361   1.60156   1.64328   1.68552
 Alpha virt. eigenvalues --    1.71448   1.73875   1.77798   1.79819   1.81013
 Alpha virt. eigenvalues --    1.81417   1.84115   1.84650   1.88409   1.89656
 Alpha virt. eigenvalues --    1.92966   1.94245   1.97099   2.00680   2.01360
 Alpha virt. eigenvalues --    2.02512   2.05823   2.08585   2.12268   2.15953
 Alpha virt. eigenvalues --    2.19006   2.21407   2.23825   2.27994   2.30068
 Alpha virt. eigenvalues --    2.31602   2.33643   2.36230   2.36709   2.40093
 Alpha virt. eigenvalues --    2.40171   2.46022   2.50791   2.52716   2.62940
 Alpha virt. eigenvalues --    2.66836   2.68763   2.70449   2.74700   2.82859
 Alpha virt. eigenvalues --    2.92872   2.96985   3.01228   3.10718   3.17668
 Alpha virt. eigenvalues --    3.93045   3.96972   4.05761   4.15795   4.17450
 Alpha virt. eigenvalues --    4.20090   4.25414   4.36885   4.48254   4.69125
          Condensed to atoms (all electrons):
              1          2          3          4          5          6
     1  H    0.508288   0.361226  -0.021503  -0.025238  -0.019643   0.002649
     2  C    0.361226   5.331464   0.361487   0.340214   0.344961  -0.079133
     3  H   -0.021503   0.361487   0.520219  -0.026559  -0.019659  -0.000117
     4  H   -0.025238   0.340214  -0.026559   0.582487  -0.027442   0.002921
     5  C   -0.019643   0.344961  -0.019659  -0.027442   4.320116   0.594853
     6  O    0.002649  -0.079133  -0.000117   0.002921   0.594853   8.047485
     7  N    0.003400  -0.123779   0.000379   0.007573   0.249636  -0.086054
     8  H    0.000038   0.002439  -0.000063   0.001015  -0.016375   0.003268
     9  C   -0.000079   0.003973  -0.000226   0.000342  -0.021183  -0.002966
    10  H   -0.000005  -0.000233   0.000052   0.000017  -0.000300   0.000239
    11  C    0.000007   0.000185   0.000004  -0.000029  -0.001324  -0.002091
    12  H   -0.000004  -0.000032   0.000002   0.000000   0.000775  -0.000557
    13  H    0.000000   0.000012   0.000000   0.000000   0.000416   0.000706
    14  H    0.000002   0.000142  -0.000008  -0.000004   0.002074   0.008115
    15  C    0.000004  -0.000127  -0.000003  -0.000021   0.000870   0.000061
    16  O    0.000000   0.000000   0.000000   0.000000  -0.000035   0.000000
    17  N    0.000002  -0.000033   0.000000  -0.000020   0.000341   0.000004
    18  H   -0.000024   0.000015   0.000006   0.000234   0.000429  -0.000089
    19  C    0.000000  -0.000001   0.000000   0.000000   0.000005   0.000000
    20  H    0.000000   0.000000   0.000000   0.000000   0.000000   0.000000
    21  H    0.000000   0.000000   0.000000   0.000000   0.000001   0.000000
    22  H    0.000000   0.000000   0.000000   0.000000   0.000000   0.000000
              7          8          9         10         11         12
     1  H    0.003400   0.000038  -0.000079  -0.000005   0.000007  -0.000004
     2  C   -0.123779   0.002439   0.003973  -0.000233   0.000185  -0.000032
     3  H    0.000379  -0.000063  -0.000226   0.000052   0.000004   0.000002
     4  H    0.007573   0.001015   0.000342   0.000017  -0.000029   0.000000
     5  C    0.249636  -0.016375  -0.021183  -0.000300  -0.001324   0.000775
     6  O   -0.086054   0.003268  -0.002966   0.000239  -0.002091  -0.000557
     7  N    7.231218   0.291203   0.174000  -0.050343  -0.037998  -0.002541
     8  H    0.291203   0.425748  -0.039023  -0.002560   0.005188  -0.000075
     9  C    0.174000  -0.039023   5.093917   0.372560   0.371165  -0.032938
    10  H   -0.050343  -0.002560   0.372560   0.581438  -0.037338   0.005513
    11  C   -0.037998   0.005188   0.371165  -0.037338   5.090580   0.374298
    12  H   -0.002541  -0.000075  -0.032938   0.005513   0.374298   0.562459
    13  H    0.004199  -0.000098  -0.036688  -0.001243   0.352973  -0.027324
    14  H   -0.003922  -0.000146  -0.022773  -0.004600   0.370864  -0.027570
    15  C   -0.032367  -0.000472   0.338761  -0.043611  -0.032615  -0.006291
    16  O    0.002342  -0.000049  -0.074402   0.003883  -0.006412  -0.000002
    17  N   -0.009554   0.007715  -0.115589   0.004021  -0.001972   0.001984
    18  H    0.023684  -0.002338  -0.003672   0.000871  -0.000277   0.000563
    19  C    0.000131  -0.000194   0.006357  -0.000143  -0.000158  -0.000086
    20  H   -0.000072  -0.000019   0.000863  -0.000017  -0.000011  -0.000003
    21  H    0.000004   0.000026  -0.000310  -0.000008   0.000061  -0.000016
    22  H    0.000006  -0.000046  -0.000053   0.000009  -0.000003   0.000002
             13         14         15         16         17         18
     1  H    0.000000   0.000002   0.000004   0.000000   0.000002  -0.000024
     2  C    0.000012   0.000142  -0.000127   0.000000  -0.000033   0.000015
     3  H    0.000000  -0.000008  -0.000003   0.000000   0.000000   0.000006
     4  H    0.000000  -0.000004  -0.000021   0.000000  -0.000020   0.000234
     5  C    0.000416   0.002074   0.000870  -0.000035   0.000341   0.000429
     6  O    0.000706   0.008115   0.000061   0.000000   0.000004  -0.000089
     7  N    0.004199  -0.003922  -0.032367   0.002342  -0.009554   0.023684
     8  H   -0.000098  -0.000146  -0.000472  -0.000049   0.007715  -0.002338
     9  C   -0.036688  -0.022773   0.338761  -0.074402  -0.115589  -0.003672
    10  H   -0.001243  -0.004600  -0.043611   0.003883   0.004021   0.000871
    11  C    0.352973   0.370864  -0.032615  -0.006412  -0.001972  -0.000277
    12  H   -0.027324  -0.027570  -0.006291  -0.000002   0.001984   0.000563
    13  H    0.553264  -0.023874  -0.003078   0.009776   0.000712  -0.000077
    14  H   -0.023874   0.509556   0.003801   0.000061  -0.000089  -0.000027
    15  C   -0.003078   0.003801   4.392499   0.568492   0.285256  -0.026072
    16  O    0.009776   0.000061   0.568492   8.092536  -0.093927   0.003293
    17  N    0.000712  -0.000089   0.285256  -0.093927   7.074538   0.292666
    18  H   -0.000077  -0.000027  -0.026072   0.003293   0.292666   0.408302
    19  C   -0.000017   0.000004  -0.025768  -0.003731   0.266343  -0.031247
    20  H   -0.000015   0.000000  -0.001478   0.017166  -0.039366   0.003824
    21  H    0.000005   0.000000  -0.000179   0.000789  -0.043099  -0.001358
    22  H    0.000000   0.000000   0.002942   0.000450  -0.038854  -0.000520
             19         20         21         22
     1  H    0.000000   0.000000   0.000000   0.000000
     2  C   -0.000001   0.000000   0.000000   0.000000
     3  H    0.000000   0.000000   0.000000   0.000000
     4  H    0.000000   0.000000   0.000000   0.000000
     5  C    0.000005   0.000000   0.000001   0.000000
     6  O    0.000000   0.000000   0.000000   0.000000
     7  N    0.000131  -0.000072   0.000004   0.000006
     8  H   -0.000194  -0.000019   0.000026  -0.000046
     9  C    0.006357   0.000863  -0.000310  -0.000053
    10  H   -0.000143  -0.000017  -0.000008   0.000009
    11  C   -0.000158  -0.000011   0.000061  -0.000003
    12  H   -0.000086  -0.000003  -0.000016   0.000002
    13  H   -0.000017  -0.000015   0.000005   0.000000
    14  H    0.000004   0.000000   0.000000   0.000000
    15  C   -0.025768  -0.001478  -0.000179   0.002942
    16  O   -0.003731   0.017166   0.000789   0.000450
    17  N    0.266343  -0.039366  -0.043099  -0.038854
    18  H   -0.031247   0.003824  -0.001358  -0.000520
    19  C    4.956378   0.378008   0.384466   0.377283
    20  H    0.378008   0.491583  -0.029297  -0.022815
    21  H    0.384466  -0.029297   0.565419  -0.038951
    22  H    0.377283  -0.022815  -0.038951   0.566646
 Mulliken atomic charges:
              1
     1  H    0.190879
     2  C   -0.542780
     3  H    0.185989
     4  H    0.144509
     5  C    0.591484
     6  O   -0.489294
     7  N   -0.641144
     8  H    0.324820
     9  C   -0.012034
    10  H    0.171798
    11  C   -0.445096
    12  H    0.151844
    13  H    0.170354
    14  H    0.188393
    15  C    0.579397
    16  O   -0.520230
    17  N   -0.591078
    18  H    0.331815
    19  C   -0.307628
    20  H    0.201651
    21  H    0.162448
    22  H    0.153905
 Sum of Mulliken atomic charges =   0.00000
 Mulliken charges with hydrogens summed into heavy atoms:
              1
     2  C   -0.021404
     5  C    0.591484
     6  O   -0.489294
     7  N   -0.316323
     9  C    0.159763
    11  C    0.065495
    15  C    0.579397
    16  O   -0.520230
    17  N   -0.259263
    19  C    0.210376
 Sum of Mulliken charges with hydrogens summed into heavy atoms =   0.00000
 Electronic spatial extent (au):  <R**2>=           1882.7622
 Charge=              0.0000 electrons
 Dipole moment (field-independent basis, Debye):
    X=             -0.3369    Y=             -4.3910    Z=             -0.4899  Tot=              4.4311
 Quadrupole moment (field-independent basis, Debye-Ang):
   XX=            -69.4895   YY=            -57.5375   ZZ=            -58.9726
   XY=             -0.8373   XZ=              8.0809   YZ=             -0.2870
 Traceless Quadrupole moment (field-independent basis, Debye-Ang):
   XX=             -7.4896   YY=              4.4624   ZZ=              3.0272
   XY=             -0.8373   XZ=              8.0809   YZ=             -0.2870
 Octapole moment (field-independent basis, Debye-Ang**2):
  XXX=              3.1967  YYY=             -2.9602  ZZZ=             -1.2910  XYY=             -1.3106
  XXY=            -37.0443  XXZ=             -0.9647  XZZ=             -0.4768  YZZ=             -2.2045
  YYZ=              1.4083  XYZ=              3.9102
 Hexadecapole moment (field-independent basis, Debye-Ang**3):
 XXXX=          -1687.2430 YYYY=           -572.9470 ZZZZ=           -158.3641 XXXY=             -6.0606
 XXXZ=             49.2975 YYYX=            -14.2467 YYYZ=             -1.8380 ZZZX=             -1.8428
 ZZZY=             -1.6897 XXYY=           -376.7231 XXZZ=           -303.5920 YYZZ=           -125.3074
 XXYZ=             -4.7196 YYXZ=              5.9441 ZZXY=              0.7238
 N-N= 5.512533499026D+02 E-N=-2.258339522803D+03  KE= 4.912270656830D+02
 1\1\GINC-NODE002\FOpt\RB3LYP\6-31G(d)\C6H12N2O2\STEBOSS\10-Feb-2017\0\
 \# b3lyp/6-31G* Opt=(ModRedundant, maxcycles=1000, calcfc) geom=nocrow
 d\\Phi Psi fixed scan\\0,1\H,1.4159361441,1.741137963,-1.2264211463\C,
 1.8546947702,2.2045034576,-0.3399701002\H,1.9575565983,1.4249567453,0.
 4238850484\H,1.1750071331,2.9745177418,0.03982975\C,3.2413069446,2.729
 2390316,-0.7059363507\O,3.9721719366,2.1124489039,-1.4634258892\N,3.55
 59978249,3.9347610167,-0.107747625\H,2.9223917329,4.2124406884,0.63203
 63803\C,4.8616104514,4.6096464464,-0.0380151663\H,5.3593636176,4.34504
 99097,0.9046983296\C,5.8187907648,4.280086508,-1.1947389518\H,5.360807
 9057,4.5083270958,-2.162018122\H,6.7084756988,4.9029636957,-1.06829386
 73\H,6.0978026319,3.2278673318,-1.1955457342\C,4.6941513992,6.14445843
 78,0.015158257\O,5.630202195,6.8494960868,0.3697486767\N,3.4644355614,
 6.6305388112,-0.3247471111\H,2.8326343456,5.9861367607,-0.7814285672\C
 ,3.2172522312,8.0582630504,-0.4404283768\H,3.9315775119,8.5737641065,0
 .2028917104\H,3.3539624102,8.4175654975,-1.4687410803\H,2.1980701909,8
 .2901307134,-0.1159900638\\Version=EM64L-G09RevA.02\State=1-A\HF=-495.
 8415818\RMSD=8.647e-09\RMSF=7.033e-04\Dipole=-1.6854004,0.23693,0.3773
 979\Quadrupole=2.2889391,-2.9653192,0.6763801,-2.9146538,-1.6968501,-6
 .4380511\PG=C01 [X(C6H12N2O2)]\\@


 ARTHROPOD AXIOM: A COMPUTER SYSTEM IS LIKE A SPIDER'S WEB.
 YOU CANNOT PULL ON ONE END WITHOUT MAKING THE OTHER END MOVE.
     -- GREG WETTSTEIN
 Job cpu time:  0 days  2 hours 32 minutes 51.7 seconds.
 File lengths (MBytes):  RWF=    186 Int=      0 D2E=      0 Chk=      4 Scr=      2
 Normal termination of Gaussian 09 at Fri Feb 10 20:45:11 2017.
