 Entering Gaussian System, Link 0=g09
 Initial command:
 /home/steboss/Software/g09/l1.exe /home/steboss/projects/phi_psi_scan/alanine/345/4585/Gau-16776.inp -scrdir=/home/steboss/projects/phi_psi_scan/alanine/345/4585/
 Entering Link 1 = /home/steboss/Software/g09/l1.exe PID=     16778.
  
 Copyright (c) 1988,1990,1992,1993,1995,1998,2003,2009, Gaussian, Inc.
                  All Rights Reserved.
  
 This is part of the Gaussian(R) 09 program.  It is based on
 the Gaussian(R) 03 system (copyright 2003, Gaussian, Inc.),
 the Gaussian(R) 98 system (copyright 1998, Gaussian, Inc.),
 the Gaussian(R) 94 system (copyright 1995, Gaussian, Inc.),
 the Gaussian 92(TM) system (copyright 1992, Gaussian, Inc.),
 the Gaussian 90(TM) system (copyright 1990, Gaussian, Inc.),
 the Gaussian 88(TM) system (copyright 1988, Gaussian, Inc.),
 the Gaussian 86(TM) system (copyright 1986, Carnegie Mellon
 University), and the Gaussian 82(TM) system (copyright 1983,
 Carnegie Mellon University). Gaussian is a federally registered
 trademark of Gaussian, Inc.
  
 This software contains proprietary and confidential information,
 including trade secrets, belonging to Gaussian, Inc.
  
 This software is provided under written license and may be
 used, copied, transmitted, or stored only in accord with that
 written license.
  
 The following legend is applicable only to US Government
 contracts under FAR:
  
                    RESTRICTED RIGHTS LEGEND
  
 Use, reproduction and disclosure by the US Government is
 subject to restrictions as set forth in subparagraphs (a)
 and (c) of the Commercial Computer Software - Restricted
 Rights clause in FAR 52.227-19.
  
 Gaussian, Inc.
 340 Quinnipiac St., Bldg. 40, Wallingford CT 06492
  
  
 ---------------------------------------------------------------
 Warning -- This program may not be used in any manner that
 competes with the business of Gaussian, Inc. or will provide
 assistance to any competitor of Gaussian, Inc.  The licensee
 of this program is prohibited from giving any competitor of
 Gaussian, Inc. access to this program.  By using this program,
 the user acknowledges that Gaussian, Inc. is engaged in the
 business of creating and licensing software in the field of
 computational chemistry and represents and warrants to the
 licensee that it is not a competitor of Gaussian, Inc. and that
 it will not use this program in any manner prohibited above.
 ---------------------------------------------------------------
  

 Cite this work as:
 Gaussian 09, Revision A.02,
 M. J. Frisch, G. W. Trucks, H. B. Schlegel, G. E. Scuseria, 
 M. A. Robb, J. R. Cheeseman, G. Scalmani, V. Barone, B. Mennucci, 
 G. A. Petersson, H. Nakatsuji, M. Caricato, X. Li, H. P. Hratchian, 
 A. F. Izmaylov, J. Bloino, G. Zheng, J. L. Sonnenberg, M. Hada, 
 M. Ehara, K. Toyota, R. Fukuda, J. Hasegawa, M. Ishida, T. Nakajima, 
 Y. Honda, O. Kitao, H. Nakai, T. Vreven, J. A. Montgomery, Jr., 
 J. E. Peralta, F. Ogliaro, M. Bearpark, J. J. Heyd, E. Brothers, 
 K. N. Kudin, V. N. Staroverov, R. Kobayashi, J. Normand, 
 K. Raghavachari, A. Rendell, J. C. Burant, S. S. Iyengar, J. Tomasi, 
 M. Cossi, N. Rega, J. M. Millam, M. Klene, J. E. Knox, J. B. Cross, 
 V. Bakken, C. Adamo, J. Jaramillo, R. Gomperts, R. E. Stratmann, 
 O. Yazyev, A. J. Austin, R. Cammi, C. Pomelli, J. W. Ochterski, 
 R. L. Martin, K. Morokuma, V. G. Zakrzewski, G. A. Voth, 
 P. Salvador, J. J. Dannenberg, S. Dapprich, A. D. Daniels, 
 O. Farkas, J. B. Foresman, J. V. Ortiz, J. Cioslowski, 
 and D. J. Fox, Gaussian, Inc., Wallingford CT, 2009.
 
 ******************************************
 Gaussian 09:  EM64L-G09RevA.02 11-Jun-2009
                11-Feb-2017 
 ******************************************
 %chk=structure_120.chk
 %NProcShared=8
 Will use up to    8 processors via shared memory.
 ----------------------------------------------------------------------
 # b3lyp/6-31G* Opt=(ModRedundant, maxcycles=1000, calcfc) geom=nocrowd
 ----------------------------------------------------------------------
 1/6=1000,10=4,14=-1,18=120,19=15,26=3,38=1/1,3;
 2/9=110,12=1,17=6,18=5,40=1/2;
 3/5=1,6=6,7=1,11=2,16=1,25=1,30=1,71=2,74=-5/1,2,3;
 4//1;
 5/5=2,38=5/2;
 8/6=4,10=90,11=11/1;
 11/6=1,8=1,9=11,15=111,16=1/1,2,10;
 10/6=1,7=6,13=1/2;
 6/7=2,8=2,9=2,10=2,28=1/1;
 7/10=1,18=20,25=1/1,2,3,16;
 1/6=1000,10=4,14=-1,18=20,19=15/3(2);
 2/9=110,12=1/2;
 99//99;
 2/9=110,12=1/2;
 3/5=1,6=6,7=1,11=2,16=1,25=1,30=1,71=1,74=-5/1,2,3;
 4/5=5,16=3/1;
 5/5=2,38=5/2;
 7//1,2,3,16;
 1/6=1000,14=-1,18=20,19=15/3(-5);
 2/9=110,12=1/2;
 6/7=2,8=2,9=2,10=2,19=2,28=1/1;
 99/9=1/99;
 ------------------
 Phi Psi fixed scan
 ------------------
 Symbolic Z-matrix:
 Charge =  0 Multiplicity = 1
 H                     0.2794    4.4661    0.5095 
 C                     1.1328    3.8369    0.2568 
 H                     1.0012    3.4309   -0.7462 
 H                     1.2061    3.0183    0.9728 
 C                     2.4367    4.6366    0.2933 
 O                     2.4278    5.8313    0.5812 
 N                     3.5554    3.9697    0. 
 H                     3.5119    2.9873   -0.2306 
 C                     4.8533    4.6139    0. 
 H                     5.4076    4.3155    0.8898 
 C                     5.6613    4.2208   -1.2322 
 H                     5.1233    4.5214   -2.1312 
 H                     6.6305    4.7189   -1.2058 
 H                     5.8085    3.1409   -1.2414 
 C                     4.7127    6.1294    0. 
 O                     4.1278    6.7016   -0.9171 
 N                     5.2518    6.7797    1.0338 
 H                     5.7229    6.2651    1.764 
 C                     5.1851    8.2226    1.1497 
 H                     4.6503    8.6321    0.2928 
 H                     4.6601    8.4901    2.0667 
 H                     6.1948    8.6324    1.1769 
 
 The following ModRedundant input section has been read:
 D    5    7    9   15 F                                                       
 D    7    9   15   17 F                                                       

 GradGradGradGradGradGradGradGradGradGradGradGradGradGradGradGradGradGrad
 Berny optimization.
 Initialization pass.
                           ----------------------------
                           !    Initial Parameters    !
                           ! (Angstroms and Degrees)  !
 --------------------------                            --------------------------
 ! Name  Definition              Value          Derivative Info.                !
 --------------------------------------------------------------------------------
 ! R1    R(1,2)                  1.09           calculate D2E/DX2 analytically  !
 ! R2    R(2,3)                  1.09           calculate D2E/DX2 analytically  !
 ! R3    R(2,4)                  1.09           calculate D2E/DX2 analytically  !
 ! R4    R(2,5)                  1.53           calculate D2E/DX2 analytically  !
 ! R5    R(5,6)                  1.2289         calculate D2E/DX2 analytically  !
 ! R6    R(5,7)                  1.335          calculate D2E/DX2 analytically  !
 ! R7    R(7,8)                  1.01           calculate D2E/DX2 analytically  !
 ! R8    R(7,9)                  1.449          calculate D2E/DX2 analytically  !
 ! R9    R(9,10)                 1.09           calculate D2E/DX2 analytically  !
 ! R10   R(9,11)                 1.525          calculate D2E/DX2 analytically  !
 ! R11   R(9,15)                 1.522          calculate D2E/DX2 analytically  !
 ! R12   R(11,12)                1.09           calculate D2E/DX2 analytically  !
 ! R13   R(11,13)                1.09           calculate D2E/DX2 analytically  !
 ! R14   R(11,14)                1.0899         calculate D2E/DX2 analytically  !
 ! R15   R(15,16)                1.2291         calculate D2E/DX2 analytically  !
 ! R16   R(15,17)                1.335          calculate D2E/DX2 analytically  !
 ! R17   R(17,18)                1.0099         calculate D2E/DX2 analytically  !
 ! R18   R(17,19)                1.4491         calculate D2E/DX2 analytically  !
 ! R19   R(19,20)                1.0899         calculate D2E/DX2 analytically  !
 ! R20   R(19,21)                1.09           calculate D2E/DX2 analytically  !
 ! R21   R(19,22)                1.09           calculate D2E/DX2 analytically  !
 ! A1    A(1,2,3)              109.5005         calculate D2E/DX2 analytically  !
 ! A2    A(1,2,4)              109.5047         calculate D2E/DX2 analytically  !
 ! A3    A(1,2,5)              111.0996         calculate D2E/DX2 analytically  !
 ! A4    A(3,2,4)              109.4402         calculate D2E/DX2 analytically  !
 ! A5    A(3,2,5)              108.6336         calculate D2E/DX2 analytically  !
 ! A6    A(4,2,5)              108.6354         calculate D2E/DX2 analytically  !
 ! A7    A(2,5,6)              120.4992         calculate D2E/DX2 analytically  !
 ! A8    A(2,5,7)              116.6014         calculate D2E/DX2 analytically  !
 ! A9    A(6,5,7)              122.8994         calculate D2E/DX2 analytically  !
 ! A10   A(5,7,8)              119.9963         calculate D2E/DX2 analytically  !
 ! A11   A(5,7,9)              121.9044         calculate D2E/DX2 analytically  !
 ! A12   A(8,7,9)              118.0993         calculate D2E/DX2 analytically  !
 ! A13   A(7,9,10)             109.5            calculate D2E/DX2 analytically  !
 ! A14   A(7,9,11)             111.0992         calculate D2E/DX2 analytically  !
 ! A15   A(7,9,15)             111.0966         calculate D2E/DX2 analytically  !
 ! A16   A(10,9,11)            108.6382         calculate D2E/DX2 analytically  !
 ! A17   A(10,9,15)            108.6373         calculate D2E/DX2 analytically  !
 ! A18   A(11,9,15)            107.7947         calculate D2E/DX2 analytically  !
 ! A19   A(9,11,12)            109.5007         calculate D2E/DX2 analytically  !
 ! A20   A(9,11,13)            109.4959         calculate D2E/DX2 analytically  !
 ! A21   A(9,11,14)            109.4978         calculate D2E/DX2 analytically  !
 ! A22   A(12,11,13)           109.441          calculate D2E/DX2 analytically  !
 ! A23   A(12,11,14)           109.4482         calculate D2E/DX2 analytically  !
 ! A24   A(13,11,14)           109.4436         calculate D2E/DX2 analytically  !
 ! A25   A(9,15,16)            120.4994         calculate D2E/DX2 analytically  !
 ! A26   A(9,15,17)            116.5978         calculate D2E/DX2 analytically  !
 ! A27   A(16,15,17)           122.9028         calculate D2E/DX2 analytically  !
 ! A28   A(15,17,18)           120.0038         calculate D2E/DX2 analytically  !
 ! A29   A(15,17,19)           121.8961         calculate D2E/DX2 analytically  !
 ! A30   A(18,17,19)           118.1001         calculate D2E/DX2 analytically  !
 ! A31   A(17,19,20)           109.5001         calculate D2E/DX2 analytically  !
 ! A32   A(17,19,21)           109.5012         calculate D2E/DX2 analytically  !
 ! A33   A(17,19,22)           109.4939         calculate D2E/DX2 analytically  !
 ! A34   A(20,19,21)           109.4435         calculate D2E/DX2 analytically  !
 ! A35   A(20,19,22)           109.4435         calculate D2E/DX2 analytically  !
 ! A36   A(21,19,22)           109.4451         calculate D2E/DX2 analytically  !
 ! D1    D(1,2,5,6)              0.0077         calculate D2E/DX2 analytically  !
 ! D2    D(1,2,5,7)            179.9969         calculate D2E/DX2 analytically  !
 ! D3    D(3,2,5,6)            120.5187         calculate D2E/DX2 analytically  !
 ! D4    D(3,2,5,7)            -59.4921         calculate D2E/DX2 analytically  !
 ! D5    D(4,2,5,6)           -120.5097         calculate D2E/DX2 analytically  !
 ! D6    D(4,2,5,7)             59.4795         calculate D2E/DX2 analytically  !
 ! D7    D(2,5,7,8)              0.0054         calculate D2E/DX2 analytically  !
 ! D8    D(2,5,7,9)           -179.9958         calculate D2E/DX2 analytically  !
 ! D9    D(6,5,7,8)            179.9943         calculate D2E/DX2 analytically  !
 ! D10   D(6,5,7,9)             -0.0069         calculate D2E/DX2 analytically  !
 ! D11   D(5,7,9,10)           105.0014         calculate D2E/DX2 analytically  !
 ! D12   D(5,7,9,11)          -134.996          calculate D2E/DX2 analytically  !
 ! D13   D(5,7,9,15)           -14.9985         frozen, calculate D2E/DX2 analyt!
 ! D14   D(8,7,9,10)           -74.9998         calculate D2E/DX2 analytically  !
 ! D15   D(8,7,9,11)            45.0027         calculate D2E/DX2 analytically  !
 ! D16   D(8,7,9,15)           165.0003         calculate D2E/DX2 analytically  !
 ! D17   D(7,9,11,12)           60.0024         calculate D2E/DX2 analytically  !
 ! D18   D(7,9,11,13)          179.9986         calculate D2E/DX2 analytically  !
 ! D19   D(7,9,11,14)          -60.0038         calculate D2E/DX2 analytically  !
 ! D20   D(10,9,11,12)        -179.4843         calculate D2E/DX2 analytically  !
 ! D21   D(10,9,11,13)         -59.4881         calculate D2E/DX2 analytically  !
 ! D22   D(10,9,11,14)          60.5095         calculate D2E/DX2 analytically  !
 ! D23   D(15,9,11,12)         -61.938          calculate D2E/DX2 analytically  !
 ! D24   D(15,9,11,13)          58.0582         calculate D2E/DX2 analytically  !
 ! D25   D(15,9,11,14)         178.0558         calculate D2E/DX2 analytically  !
 ! D26   D(7,9,15,16)          -59.9975         calculate D2E/DX2 analytically  !
 ! D27   D(7,9,15,17)          120.0001         frozen, calculate D2E/DX2 analyt!
 ! D28   D(10,9,15,16)         179.4914         calculate D2E/DX2 analytically  !
 ! D29   D(10,9,15,17)          -0.5109         calculate D2E/DX2 analytically  !
 ! D30   D(11,9,15,16)          61.9445         calculate D2E/DX2 analytically  !
 ! D31   D(11,9,15,17)        -118.0578         calculate D2E/DX2 analytically  !
 ! D32   D(9,15,17,18)          -0.002          calculate D2E/DX2 analytically  !
 ! D33   D(9,15,17,19)        -179.9985         calculate D2E/DX2 analytically  !
 ! D34   D(16,15,17,18)        179.9956         calculate D2E/DX2 analytically  !
 ! D35   D(16,15,17,19)         -0.0008         calculate D2E/DX2 analytically  !
 ! D36   D(15,17,19,20)         -0.0037         calculate D2E/DX2 analytically  !
 ! D37   D(15,17,19,21)        119.9984         calculate D2E/DX2 analytically  !
 ! D38   D(15,17,19,22)       -120.0013         calculate D2E/DX2 analytically  !
 ! D39   D(18,17,19,20)        179.9998         calculate D2E/DX2 analytically  !
 ! D40   D(18,17,19,21)        -59.9981         calculate D2E/DX2 analytically  !
 ! D41   D(18,17,19,22)         60.0022         calculate D2E/DX2 analytically  !
 --------------------------------------------------------------------------------
 Trust Radius=3.00D-01 FncErr=1.00D-07 GrdErr=1.00D-06
 Number of steps in this run= 132 maximum allowed number of steps= 132.
 GradGradGradGradGradGradGradGradGradGradGradGradGradGradGradGradGradGrad

                          Input orientation:                          
 ---------------------------------------------------------------------
 Center     Atomic      Atomic             Coordinates (Angstroms)
 Number     Number       Type             X           Y           Z
 ---------------------------------------------------------------------
      1          1           0        0.279400    4.466100    0.509500
      2          6           0        1.132800    3.836900    0.256800
      3          1           0        1.001200    3.430900   -0.746200
      4          1           0        1.206100    3.018300    0.972800
      5          6           0        2.436700    4.636600    0.293300
      6          8           0        2.427800    5.831300    0.581200
      7          7           0        3.555400    3.969700    0.000000
      8          1           0        3.511900    2.987300   -0.230600
      9          6           0        4.853300    4.613900    0.000000
     10          1           0        5.407600    4.315500    0.889800
     11          6           0        5.661300    4.220800   -1.232200
     12          1           0        5.123300    4.521400   -2.131200
     13          1           0        6.630500    4.718900   -1.205800
     14          1           0        5.808500    3.140900   -1.241400
     15          6           0        4.712700    6.129400    0.000000
     16          8           0        4.127800    6.701600   -0.917100
     17          7           0        5.251800    6.779700    1.033800
     18          1           0        5.722900    6.265100    1.764000
     19          6           0        5.185100    8.222600    1.149700
     20          1           0        4.650300    8.632100    0.292800
     21          1           0        4.660100    8.490100    2.066700
     22          1           0        6.194800    8.632400    1.176900
 ---------------------------------------------------------------------
                    Distance matrix (angstroms):
                    1          2          3          4          5
     1  H    0.000000
     2  C    1.089973   0.000000
     3  H    1.780286   1.090029   0.000000
     4  H    1.780321   1.090016   1.779658   0.000000
     5  C    2.174800   1.530035   2.143579   2.143593   0.000000
     6  O    2.546475   2.399977   3.091779   3.091742   1.228932
     7  N    3.352339   2.439790   2.714969   2.714906   1.335017
     8  H    3.630930   2.572838   2.601199   2.601124   2.037331
     9  C    4.604563   3.809435   4.098168   4.098091   2.434440
    10  H    5.144487   4.347834   4.782821   4.397979   3.047157
    11  C    5.662026   4.782448   4.751491   5.114376   3.591390
    12  H    5.517220   4.700550   4.483205   5.219059   3.620675
    13  H    6.583512   5.756894   5.793030   6.087894   4.454440
    14  H    5.949181   4.958950   4.841431   5.108796   3.995179
    15  C    4.762384   4.258778   4.649080   4.787643   2.737636
    16  O    4.673631   4.307502   4.527948   5.067026   2.930719
    17  N    5.509301   5.121519   5.696531   5.524449   3.614693
    18  H    5.868719   5.407109   6.052127   5.618647   3.951466
    19  C    6.211847   6.037613   6.637759   6.553508   4.598534
    20  H    6.042126   5.947104   6.438007   6.621153   4.567718
    21  H    6.148819   6.113089   6.848026   6.562570   4.789355
    22  H    7.266047   7.033296   7.597855   7.513115   5.556121
                    6          7          8          9         10
     6  O    0.000000
     7  N    2.252738   0.000000
     8  H    3.150020   1.010039   0.000000
     9  C    2.775411   1.448978   2.120933   0.000000
    10  H    3.357394   2.083739   2.571593   1.089970   0.000000
    11  C    4.041986   2.452791   2.672947   1.525027   2.139209
    12  H    4.042112   2.702720   2.926150   2.150225   3.041326
    13  H    4.700371   3.386959   3.697989   2.150214   2.459625
    14  H    4.689270   2.702673   2.513898   2.150165   2.466256
    15  C    2.376431   2.450234   3.371630   1.522008   2.136554
    16  O    2.427411   2.938025   3.827093   2.392888   3.255188
    17  N    3.013185   3.441310   4.359846   2.432742   2.473316
    18  H    3.527730   3.616437   4.428422   2.567949   2.159764
    19  C    3.693807   4.697328   5.666850   3.801923   3.922051
    20  H    3.587083   4.798178   5.782186   4.033965   4.423002
    21  H    3.776121   5.091721   6.072624   4.396988   4.401265
    22  H    4.731946   5.485645   6.406728   4.396937   4.397469
                   11         12         13         14         15
    11  C    0.000000
    12  H    1.089957   0.000000
    13  H    1.090023   1.779613   0.000000
    14  H    1.089925   1.779613   1.779617   0.000000
    15  C    2.461892   2.701161   2.668599   3.416575   0.000000
    16  O    2.933476   2.686695   3.205925   3.950760   1.229062
    17  N    3.442443   3.890200   3.341185   4.327507   1.335014
    18  H    3.627695   4.309593   3.469032   4.335941   2.037306
    19  C    4.681305   4.946413   4.462452   5.650634   2.434432
    20  H    4.775700   4.795556   4.634666   5.817944   2.520542
    21  H    5.487446   5.795472   5.367838   6.393457   3.137980
    22  H    5.054760   5.384418   4.602453   6.012818   3.137949
                   16         17         18         19         20
    16  O    0.000000
    17  N    2.252884   0.000000
    18  H    3.150107   1.009921   0.000000
    19  C    2.775425   1.449083   2.120943   0.000000
    20  H    2.337455   2.083811   2.986233   1.089944   0.000000
    21  H    3.519252   2.083857   2.484310   1.089986   1.779601
    22  H    3.519277   2.083800   2.484247   1.090032   1.779638
                   21         22
    21  H    0.000000
    22  H    1.779690   0.000000
 Stoichiometry    C6H12N2O2
 Framework group  C1[X(C6H12N2O2)]
 Deg. of freedom    60
 Full point group                 C1      NOp   1
 Largest Abelian subgroup         C1      NOp   1
 Largest concise Abelian subgroup C1      NOp   1
                         Standard orientation:                         
 ---------------------------------------------------------------------
 Center     Atomic      Atomic             Coordinates (Angstroms)
 Number     Number       Type             X           Y           Z
 ---------------------------------------------------------------------
      1          1           0       -3.225486   -2.054561    0.227355
      2          6           0       -3.112893   -0.998836   -0.019243
      3          1           0       -3.602954   -0.392883    0.742876
      4          1           0       -3.569449   -0.800928   -0.989048
      5          6           0       -1.636432   -0.602755   -0.083972
      6          8           0       -0.757520   -1.434879    0.128998
      7          7           0       -1.371870    0.672021   -0.379310
      8          1           0       -2.129047    1.319262   -0.546463
      9          6           0       -0.014648    1.171147   -0.470731
     10          1           0        0.251808    1.310957   -1.518343
     11          6           0        0.128872    2.506828    0.251120
     12          1           0       -0.125748    2.380916    1.303413
     13          1           0        1.157421    2.857569    0.166179
     14          1           0       -0.542152    3.237900   -0.199654
     15          6           0        0.971234    0.195493    0.155882
     16          8           0        0.876336   -0.111604    1.342170
     17          7           0        1.920812   -0.292270   -0.645773
     18          1           0        1.957930   -0.009818   -1.614681
     19          6           0        2.918469   -1.228960   -0.169185
     20          1           0        2.748459   -1.435271    0.887466
     21          1           0        2.846497   -2.157045   -0.736237
     22          1           0        3.911989   -0.799991   -0.299856
 ---------------------------------------------------------------------
 Rotational constants (GHZ):      1.9525848      1.0302673      0.7808249
 Standard basis: 6-31G(d) (6D, 7F)
 There are   174 symmetry adapted basis functions of A   symmetry.
 Integral buffers will be    131072 words long.
 Raffenetti 2 integral format.
 Two-electron integral symmetry is turned on.
   174 basis functions,   328 primitive gaussians,   174 cartesian basis functions
    39 alpha electrons       39 beta electrons
       nuclear repulsion energy       576.5989842786 Hartrees.
 NAtoms=   22 NActive=   22 NUniq=   22 SFac= 7.50D-01 NAtFMM=   80 NAOKFM=F Big=F
 One-electron integrals computed using PRISM.
 NBasis=   174 RedAO= T  NBF=   174
 NBsUse=   174 1.00D-06 NBFU=   174
 Harris functional with IExCor=  402 diagonalized for initial guess.
 ExpMin= 1.61D-01 ExpMax= 5.48D+03 ExpMxC= 8.25D+02 IAcc=1 IRadAn=         1 AccDes= 0.00D+00
 HarFok:  IExCor=  402 AccDes= 0.00D+00 IRadAn=         1 IDoV= 1
 ScaDFX=  1.000000  1.000000  1.000000  1.000000
 FoFCou: FMM=F IPFlag=           0 FMFlag=      100000 FMFlg1=           0
         NFxFlg=           0 DoJE=T BraDBF=F KetDBF=T FulRan=T
         Omega=  0.000000  0.000000  1.000000  0.000000  0.000000 ICntrl=     500 IOpCl=  0
         NMat0=    1 NMatS0=    1 NMatT0=    0 NMatD0=    1 NMtDS0=    0 NMtDT0=    0
         I1Cent=           4 NGrid=           0.
 Petite list used in FoFCou.
 Initial guess orbital symmetries:
       Occupied  (A) (A) (A) (A) (A) (A) (A) (A) (A) (A) (A) (A)
                 (A) (A) (A) (A) (A) (A) (A) (A) (A) (A) (A) (A)
                 (A) (A) (A) (A) (A) (A) (A) (A) (A) (A) (A) (A)
                 (A) (A) (A)
       Virtual   (A) (A) (A) (A) (A) (A) (A) (A) (A) (A) (A) (A)
                 (A) (A) (A) (A) (A) (A) (A) (A) (A) (A) (A) (A)
                 (A) (A) (A) (A) (A) (A) (A) (A) (A) (A) (A) (A)
                 (A) (A) (A) (A) (A) (A) (A) (A) (A) (A) (A) (A)
                 (A) (A) (A) (A) (A) (A) (A) (A) (A) (A) (A) (A)
                 (A) (A) (A) (A) (A) (A) (A) (A) (A) (A) (A) (A)
                 (A) (A) (A) (A) (A) (A) (A) (A) (A) (A) (A) (A)
                 (A) (A) (A) (A) (A) (A) (A) (A) (A) (A) (A) (A)
                 (A) (A) (A) (A) (A) (A) (A) (A) (A) (A) (A) (A)
                 (A) (A) (A) (A) (A) (A) (A) (A) (A) (A) (A) (A)
                 (A) (A) (A) (A) (A) (A) (A) (A) (A) (A) (A) (A)
                 (A) (A) (A)
 The electronic state of the initial guess is 1-A.
 Requested convergence on RMS density matrix=1.00D-08 within 128 cycles.
 Requested convergence on MAX density matrix=1.00D-06.
 Requested convergence on             energy=1.00D-06.
 No special actions if energy rises.
 Integral accuracy reduced to 1.0D-05 until final iterations.
 Initial convergence to 1.0D-05 achieved.  Increase integral accuracy.
 SCF Done:  E(RB3LYP) =  -495.821755393     A.U. after   15 cycles
             Convg  =    0.5957D-08             -V/T =  2.0086
 Range of M.O.s used for correlation:     1   174
 NBasis=   174 NAE=    39 NBE=    39 NFC=     0 NFV=     0
 NROrb=    174 NOA=    39 NOB=    39 NVA=   135 NVB=   135
 Symmetrizing basis deriv contribution to polar:
 IMax=3 JMax=2 DiffMx= 0.00D+00
 G2DrvN: will do    23 centers at a time, making    1 passes doing MaxLOS=2.
 Calling FoFCou, ICntrl=  3107 FMM=F I1Cent=   0 AccDes= 0.00D+00.
 FoFDir/FoFCou used for L=0 through L=2.
 End of G2Drv Frequency-dependent properties file   721 does not exist.
 End of G2Drv Frequency-dependent properties file   722 does not exist.
          IDoAtm=1111111111111111111111
          Differentiating once with respect to nuclear coordinates.
          There are    69 degrees of freedom in the 1st order CPHF.  IDoFFX=5.
     63 vectors produced by pass  0 Test12= 7.63D-11 1.45D-07 XBig12= 1.87D-01 8.03D-02.
 AX will form    63 AO Fock derivatives at one time.
     63 vectors produced by pass  1 Test12= 7.63D-11 1.45D-07 XBig12= 4.76D-02 5.85D-02.
     63 vectors produced by pass  2 Test12= 7.63D-11 1.45D-07 XBig12= 5.80D-05 1.28D-03.
     63 vectors produced by pass  3 Test12= 7.63D-11 1.45D-07 XBig12= 2.22D-07 6.41D-05.
     29 vectors produced by pass  4 Test12= 7.63D-11 1.45D-07 XBig12= 2.54D-10 1.58D-06.
 Inverted reduced A of dimension   281 with in-core refinement.
 End of Minotr Frequency-dependent properties file   721 does not exist.
 End of Minotr Frequency-dependent properties file   722 does not exist.

 **********************************************************************

            Population analysis using the SCF density.

 **********************************************************************

 Orbital symmetries:
       Occupied  (A) (A) (A) (A) (A) (A) (A) (A) (A) (A) (A) (A)
                 (A) (A) (A) (A) (A) (A) (A) (A) (A) (A) (A) (A)
                 (A) (A) (A) (A) (A) (A) (A) (A) (A) (A) (A) (A)
                 (A) (A) (A)
       Virtual   (A) (A) (A) (A) (A) (A) (A) (A) (A) (A) (A) (A)
                 (A) (A) (A) (A) (A) (A) (A) (A) (A) (A) (A) (A)
                 (A) (A) (A) (A) (A) (A) (A) (A) (A) (A) (A) (A)
                 (A) (A) (A) (A) (A) (A) (A) (A) (A) (A) (A) (A)
                 (A) (A) (A) (A) (A) (A) (A) (A) (A) (A) (A) (A)
                 (A) (A) (A) (A) (A) (A) (A) (A) (A) (A) (A) (A)
                 (A) (A) (A) (A) (A) (A) (A) (A) (A) (A) (A) (A)
                 (A) (A) (A) (A) (A) (A) (A) (A) (A) (A) (A) (A)
                 (A) (A) (A) (A) (A) (A) (A) (A) (A) (A) (A) (A)
                 (A) (A) (A) (A) (A) (A) (A) (A) (A) (A) (A) (A)
                 (A) (A) (A) (A) (A) (A) (A) (A) (A) (A) (A) (A)
                 (A) (A) (A)
 The electronic state is 1-A.
 Alpha  occ. eigenvalues --  -19.09063 -19.07734 -14.36022 -14.35073 -10.27351
 Alpha  occ. eigenvalues --  -10.26544 -10.23329 -10.20427 -10.18481 -10.18310
 Alpha  occ. eigenvalues --   -1.02918  -1.00019  -0.92520  -0.90899  -0.78316
 Alpha  occ. eigenvalues --   -0.72357  -0.70583  -0.63898  -0.59901  -0.57483
 Alpha  occ. eigenvalues --   -0.51792  -0.49871  -0.47147  -0.44958  -0.44183
 Alpha  occ. eigenvalues --   -0.43796  -0.41436  -0.40912  -0.39297  -0.38712
 Alpha  occ. eigenvalues --   -0.37861  -0.37624  -0.36778  -0.35071  -0.33518
 Alpha  occ. eigenvalues --   -0.25350  -0.23617  -0.22587  -0.21494
 Alpha virt. eigenvalues --    0.04011   0.04868   0.06808   0.08386   0.12545
 Alpha virt. eigenvalues --    0.13403   0.14198   0.15313   0.15999   0.16904
 Alpha virt. eigenvalues --    0.17591   0.18095   0.18305   0.18782   0.20260
 Alpha virt. eigenvalues --    0.21314   0.23626   0.26489   0.27404   0.33696
 Alpha virt. eigenvalues --    0.35990   0.42083   0.43635   0.50966   0.52081
 Alpha virt. eigenvalues --    0.53361   0.55141   0.55634   0.56026   0.56714
 Alpha virt. eigenvalues --    0.58725   0.59841   0.61345   0.62441   0.64690
 Alpha virt. eigenvalues --    0.68397   0.71300   0.72287   0.72724   0.77182
 Alpha virt. eigenvalues --    0.77864   0.79387   0.80684   0.82233   0.83131
 Alpha virt. eigenvalues --    0.85144   0.87169   0.87840   0.88355   0.88608
 Alpha virt. eigenvalues --    0.89533   0.90659   0.93607   0.94002   0.95333
 Alpha virt. eigenvalues --    0.95593   0.95958   0.96256   0.98010   1.01185
 Alpha virt. eigenvalues --    1.02018   1.04542   1.10876   1.16085   1.18713
 Alpha virt. eigenvalues --    1.20731   1.30364   1.31349   1.33613   1.39879
 Alpha virt. eigenvalues --    1.40398   1.41515   1.46527   1.47071   1.50340
 Alpha virt. eigenvalues --    1.53258   1.57358   1.60024   1.65687   1.70844
 Alpha virt. eigenvalues --    1.74453   1.76687   1.80032   1.83354   1.85004
 Alpha virt. eigenvalues --    1.87624   1.91166   1.92615   1.95034   1.96153
 Alpha virt. eigenvalues --    1.97379   1.98699   1.99634   2.02078   2.06524
 Alpha virt. eigenvalues --    2.10043   2.11949   2.14443   2.17812   2.18634
 Alpha virt. eigenvalues --    2.20908   2.24747   2.27645   2.29666   2.31488
 Alpha virt. eigenvalues --    2.32337   2.34589   2.40119   2.40463   2.43154
 Alpha virt. eigenvalues --    2.46465   2.52512   2.55032   2.59165   2.66778
 Alpha virt. eigenvalues --    2.70382   2.71607   2.73024   2.78837   2.91178
 Alpha virt. eigenvalues --    2.93292   2.99457   3.02972   3.18171   3.22860
 Alpha virt. eigenvalues --    3.98226   3.98774   4.09870   4.21790   4.24066
 Alpha virt. eigenvalues --    4.27185   4.40871   4.44887   4.48484   4.72315
          Condensed to atoms (all electrons):
              1          2          3          4          5          6
     1  H    0.499480   0.360272  -0.020183  -0.021923  -0.016574   0.005079
     2  C    0.360272   5.351714   0.348186   0.348144   0.341471  -0.075734
     3  H   -0.020183   0.348186   0.556685  -0.028253  -0.027424   0.001032
     4  H   -0.021923   0.348144  -0.028253   0.564432  -0.025539   0.001331
     5  C   -0.016574   0.341471  -0.027424  -0.025539   4.349508   0.587954
     6  O    0.005079  -0.075734   0.001032   0.001331   0.587954   8.086862
     7  N    0.004486  -0.139920   0.005885   0.004627   0.234216  -0.099925
     8  H   -0.000164   0.000627   0.000626   0.000914  -0.017756   0.003882
     9  C   -0.000144   0.006533  -0.000046  -0.000122  -0.037286  -0.009920
    10  H    0.000004  -0.000186   0.000003   0.000007   0.001029   0.000452
    11  C    0.000002  -0.000206   0.000010  -0.000007   0.003130   0.000766
    12  H    0.000000  -0.000037   0.000008   0.000000   0.000967  -0.000046
    13  H    0.000000   0.000004   0.000000   0.000000   0.000007   0.000003
    14  H    0.000000   0.000012  -0.000005  -0.000001   0.000058   0.000003
    15  C    0.000002   0.000323  -0.000019  -0.000020   0.004239   0.039192
    16  O    0.000013  -0.000448   0.000051  -0.000001   0.005168  -0.039774
    17  N    0.000001  -0.000072   0.000000   0.000003   0.001494  -0.010761
    18  H    0.000000  -0.000002   0.000000   0.000000  -0.000222   0.000231
    19  C    0.000000   0.000001   0.000000   0.000000  -0.000020   0.000499
    20  H    0.000000   0.000000   0.000000   0.000000  -0.000028   0.000079
    21  H    0.000000   0.000001   0.000000   0.000000  -0.000009   0.000279
    22  H    0.000000   0.000000   0.000000   0.000000   0.000000   0.000004
              7          8          9         10         11         12
     1  H    0.004486  -0.000164  -0.000144   0.000004   0.000002   0.000000
     2  C   -0.139920   0.000627   0.006533  -0.000186  -0.000206  -0.000037
     3  H    0.005885   0.000626  -0.000046   0.000003   0.000010   0.000008
     4  H    0.004627   0.000914  -0.000122   0.000007  -0.000007   0.000000
     5  C    0.234216  -0.017756  -0.037286   0.001029   0.003130   0.000967
     6  O   -0.099925   0.003882  -0.009920   0.000452   0.000766  -0.000046
     7  N    7.170074   0.301274   0.251098  -0.052857  -0.052589  -0.000101
     8  H    0.301274   0.418838  -0.033535  -0.000809  -0.000853  -0.000371
     9  C    0.251098  -0.033535   5.072103   0.352132   0.354098  -0.034642
    10  H   -0.052857  -0.000809   0.352132   0.661481  -0.053644   0.006479
    11  C   -0.052589  -0.000853   0.354098  -0.053644   5.144947   0.368102
    12  H   -0.000101  -0.000371  -0.034642   0.006479   0.368102   0.516144
    13  H    0.004763  -0.000116  -0.027156   0.001391   0.361849  -0.020226
    14  H   -0.004674   0.004090  -0.033405  -0.005201   0.363091  -0.029779
    15  C   -0.032704   0.003564   0.299944  -0.048000  -0.021938  -0.007496
    16  O   -0.000315  -0.000259  -0.079216   0.004294  -0.004638   0.011120
    17  N   -0.000114  -0.000197  -0.101161   0.007361  -0.002063   0.000765
    18  H    0.000042   0.000007   0.001810   0.004509  -0.000222  -0.000033
    19  C   -0.000101   0.000004   0.007015  -0.000158  -0.000203   0.000001
    20  H   -0.000001   0.000000   0.001270  -0.000074  -0.000006  -0.000019
    21  H    0.000012   0.000000  -0.000166  -0.000009  -0.000008   0.000000
    22  H   -0.000003   0.000000  -0.000199  -0.000032   0.000044   0.000000
             13         14         15         16         17         18
     1  H    0.000000   0.000000   0.000002   0.000013   0.000001   0.000000
     2  C    0.000004   0.000012   0.000323  -0.000448  -0.000072  -0.000002
     3  H    0.000000  -0.000005  -0.000019   0.000051   0.000000   0.000000
     4  H    0.000000  -0.000001  -0.000020  -0.000001   0.000003   0.000000
     5  C    0.000007   0.000058   0.004239   0.005168   0.001494  -0.000222
     6  O    0.000003   0.000003   0.039192  -0.039774  -0.010761   0.000231
     7  N    0.004763  -0.004674  -0.032704  -0.000315  -0.000114   0.000042
     8  H   -0.000116   0.004090   0.003564  -0.000259  -0.000197   0.000007
     9  C   -0.027156  -0.033405   0.299944  -0.079216  -0.101161   0.001810
    10  H    0.001391  -0.005201  -0.048000   0.004294   0.007361   0.004509
    11  C    0.361849   0.363091  -0.021938  -0.004638  -0.002063  -0.000222
    12  H   -0.020226  -0.029779  -0.007496   0.011120   0.000765  -0.000033
    13  H    0.554537  -0.028520  -0.005015  -0.000212   0.001796   0.000050
    14  H   -0.028520   0.594559   0.005453   0.000185  -0.000120  -0.000030
    15  C   -0.005015   0.005453   4.387519   0.524428   0.249076  -0.016939
    16  O   -0.000212   0.000185   0.524428   8.184714  -0.088361   0.003871
    17  N    0.001796  -0.000120   0.249076  -0.088361   7.090905   0.298470
    18  H    0.000050  -0.000030  -0.016939   0.003871   0.298470   0.423042
    19  C   -0.000063   0.000005  -0.027391  -0.010312   0.269580  -0.032741
    20  H   -0.000006   0.000000  -0.001150   0.023260  -0.035999   0.004060
    21  H    0.000002   0.000000   0.002311   0.000555  -0.043886  -0.000710
    22  H   -0.000012   0.000000   0.001505   0.000584  -0.045116  -0.000887
             19         20         21         22
     1  H    0.000000   0.000000   0.000000   0.000000
     2  C    0.000001   0.000000   0.000001   0.000000
     3  H    0.000000   0.000000   0.000000   0.000000
     4  H    0.000000   0.000000   0.000000   0.000000
     5  C   -0.000020  -0.000028  -0.000009   0.000000
     6  O    0.000499   0.000079   0.000279   0.000004
     7  N   -0.000101  -0.000001   0.000012  -0.000003
     8  H    0.000004   0.000000   0.000000   0.000000
     9  C    0.007015   0.001270  -0.000166  -0.000199
    10  H   -0.000158  -0.000074  -0.000009  -0.000032
    11  C   -0.000203  -0.000006  -0.000008   0.000044
    12  H    0.000001  -0.000019   0.000000   0.000000
    13  H   -0.000063  -0.000006   0.000002  -0.000012
    14  H    0.000005   0.000000   0.000000   0.000000
    15  C   -0.027391  -0.001150   0.002311   0.001505
    16  O   -0.010312   0.023260   0.000555   0.000584
    17  N    0.269580  -0.035999  -0.043886  -0.045116
    18  H   -0.032741   0.004060  -0.000710  -0.000887
    19  C    4.962252   0.374869   0.382211   0.380159
    20  H    0.374869   0.469025  -0.022429  -0.025209
    21  H    0.382211  -0.022429   0.562042  -0.040389
    22  H    0.380159  -0.025209  -0.040389   0.582527
 Mulliken atomic charges:
              1
     1  H    0.189649
     2  C   -0.540683
     3  H    0.163444
     4  H    0.156409
     5  C    0.595618
     6  O   -0.491488
     7  N   -0.593172
     8  H    0.320233
     9  C    0.010993
    10  H    0.121829
    11  C   -0.459664
    12  H    0.189165
    13  H    0.156924
    14  H    0.134279
    15  C    0.643117
    16  O   -0.534708
    17  N   -0.591601
    18  H    0.315692
    19  C   -0.305609
    20  H    0.212356
    21  H    0.160193
    22  H    0.147025
 Sum of Mulliken atomic charges =   0.00000
 Mulliken charges with hydrogens summed into heavy atoms:
              1
     2  C   -0.031181
     5  C    0.595618
     6  O   -0.491488
     7  N   -0.272940
     9  C    0.132822
    11  C    0.020705
    15  C    0.643117
    16  O   -0.534708
    17  N   -0.275909
    19  C    0.213965
 Sum of Mulliken charges with hydrogens summed into heavy atoms =   0.00000
 APT atomic charges:
              1
     1  H    0.544176
     2  C   -1.264428
     3  H    0.414569
     4  H    0.457436
     5  C    0.274727
     6  O   -0.463847
     7  N   -0.781928
     8  H    0.716461
     9  C   -0.326799
    10  H    0.369190
    11  C   -1.215698
    12  H    0.334772
    13  H    0.443523
    14  H    0.493733
    15  C    0.009254
    16  O   -0.287148
    17  N   -0.454639
    18  H    0.582493
    19  C   -1.282018
    20  H    0.358381
    21  H    0.466577
    22  H    0.611214
 Sum of APT charges=   0.00000
 APT Atomic charges with hydrogens summed into heavy atoms:
              1
     1  H    0.000000
     2  C    0.151752
     3  H    0.000000
     4  H    0.000000
     5  C    0.274727
     6  O   -0.463847
     7  N   -0.065468
     8  H    0.000000
     9  C    0.042391
    10  H    0.000000
    11  C    0.056331
    12  H    0.000000
    13  H    0.000000
    14  H    0.000000
    15  C    0.009254
    16  O   -0.287148
    17  N    0.127854
    18  H    0.000000
    19  C    0.154154
    20  H    0.000000
    21  H    0.000000
    22  H    0.000000
 Sum of APT charges=   0.00000
 Electronic spatial extent (au):  <R**2>=           1597.2353
 Charge=              0.0000 electrons
 Dipole moment (field-independent basis, Debye):
    X=             -0.7728    Y=              2.9458    Z=             -3.8964  Tot=              4.9454
 Quadrupole moment (field-independent basis, Debye-Ang):
   XX=            -47.3530   YY=            -59.2468   ZZ=            -61.0723
   XY=             -3.4127   XZ=             -3.3290   YZ=             -0.2233
 Traceless Quadrupole moment (field-independent basis, Debye-Ang):
   XX=              8.5377   YY=             -3.3561   ZZ=             -5.1816
   XY=             -3.4127   XZ=             -3.3290   YZ=             -0.2233
 Octapole moment (field-independent basis, Debye-Ang**2):
  XXX=             -1.3917  YYY=              1.5335  ZZZ=             -7.6749  XYY=              0.4872
  XXY=             -6.0750  XXZ=             -6.3962  XZZ=              1.2328  YZZ=             -0.9504
  YYZ=             -0.1692  XYZ=              1.0102
 Hexadecapole moment (field-independent basis, Debye-Ang**3):
 XXXX=          -1190.8208 YYYY=           -639.2219 ZZZZ=           -181.5981 XXXY=            -18.4811
 XXXZ=             -4.0059 YYYX=            -10.1459 YYYZ=             -3.4274 ZZZX=            -13.1089
 ZZZY=             -0.6839 XXYY=           -291.7601 XXZZ=           -230.2856 YYZZ=           -135.4406
 XXYZ=             -5.5854 YYXZ=              3.1153 ZZXY=             -2.2508
 N-N= 5.765989842786D+02 E-N=-2.310270219898D+03  KE= 4.915924395191D+02
  Exact polarizability:   0.000   0.000   0.000   0.000   0.000   0.000
 Approx polarizability: 115.878 -12.654 114.871  -6.920  -8.567 109.133
 Calling FoFJK, ICntrl=    100147 FMM=F ISym2X=0 I1Cent= 0 IOpClX= 0 NMat=1 NMatS=1 NMatT=0.
 ***** Axes restored to original set *****
 -------------------------------------------------------------------
 Center     Atomic                   Forces (Hartrees/Bohr)
 Number     Number              X              Y              Z
 -------------------------------------------------------------------
      1        1           0.003062998    0.002474719    0.000146398
      2        6           0.010643359   -0.000912181   -0.003530790
      3        1          -0.004063698   -0.004931721   -0.002686174
      4        1          -0.003150369   -0.005631727    0.001101477
      5        6          -0.041912840    0.027551719    0.012070282
      6        8          -0.012399686   -0.014578829    0.015960389
      7        7           0.019591627   -0.011423264   -0.004418396
      8        1           0.000467430   -0.000185074   -0.001286476
      9        6           0.009170238   -0.001474799   -0.001150224
     10        1           0.003451480   -0.004154417    0.006680896
     11        6          -0.003085419   -0.002734778    0.000887360
     12        1          -0.000051024    0.001716854   -0.001593607
     13        1           0.003710495   -0.000664677   -0.001670541
     14        1           0.003406925   -0.004430723   -0.002501152
     15        6          -0.027507198    0.008755010   -0.026841553
     16        8           0.022742434    0.000310155   -0.011409323
     17        7           0.014380536    0.007018301    0.014026347
     18        1          -0.001638975    0.000060085    0.000387452
     19        6           0.002231807   -0.001205781    0.002860549
     20        1          -0.000411113   -0.003797406   -0.000504024
     21        1          -0.001841315    0.003477894    0.002773497
     22        1           0.003202308    0.004760639    0.000697615
 -------------------------------------------------------------------
 Cartesian Forces:  Max     0.041912840 RMS     0.010323090

 GradGradGradGradGradGradGradGradGradGradGradGradGradGradGradGradGradGrad
 Berny optimization.
 Internal  Forces:  Max     0.067493933 RMS     0.013730090
 Search for a local minimum.
 Step number   1 out of a maximum of  132
 All quantities printed in internal units (Hartrees-Bohrs-Radians)
 Mixed Optimization -- RFO/linear search
 Second derivative matrix not updated -- analytic derivatives used.
     Eigenvalues ---   -0.00076  -0.00064   0.00203   0.00332   0.00341
     Eigenvalues ---    0.01087   0.01739   0.02718   0.03981   0.04640
     Eigenvalues ---    0.04797   0.04913   0.05012   0.05826   0.05975
     Eigenvalues ---    0.06100   0.06376   0.06565   0.11546   0.12041
     Eigenvalues ---    0.12199   0.12439   0.13192   0.13231   0.13266
     Eigenvalues ---    0.14242   0.14886   0.16804   0.17372   0.17776
     Eigenvalues ---    0.18534   0.20957   0.22030   0.22621   0.23583
     Eigenvalues ---    0.25081   0.29505   0.30836   0.33641   0.34277
     Eigenvalues ---    0.34530   0.34934   0.35026   0.35071   0.35265
     Eigenvalues ---    0.35428   0.35843   0.35902   0.36141   0.37007
     Eigenvalues ---    0.39261   0.46655   0.46891   0.50081   0.53917
     Eigenvalues ---    0.80343   0.81838   1.016971000.000001000.00000
     Eigenvalues --- 1000.000001000.000001000.000001000.000001000.00000
     Eigenvalues --- 1000.000001000.000001000.000001000.000001000.00000
     Eigenvalues --- 1000.000001000.000001000.000001000.000001000.00000
     Eigenvalues --- 1000.000001000.000001000.000001000.000001000.00000
     Eigenvalues --- 1000.000001000.000001000.000001000.000001000.00000
     Eigenvalues --- 1000.000001000.000001000.000001000.000001000.00000
     Eigenvalues --- 1000.000001000.000001000.000001000.000001000.00000
     Eigenvalues --- 1000.000001000.000001000.00000
 RFO step:  Lambda=-2.29907212D-02 EMin=-7.61192754D-04
 Linear search not attempted -- first point.
 Maximum step size (   0.300) exceeded in Quadratic search.
    -- Step size scaled by   0.259
 Iteration  1 RMS(Cart)=  0.05349055 RMS(Int)=  0.00253722
 Iteration  2 RMS(Cart)=  0.00275910 RMS(Int)=  0.00005033
 Iteration  3 RMS(Cart)=  0.00000642 RMS(Int)=  0.00005011
 Iteration  4 RMS(Cart)=  0.00000000 RMS(Int)=  0.00005011
 Iteration  1 RMS(Cart)=  0.00000512 RMS(Int)=  0.00000239
 Iteration  2 RMS(Cart)=  0.00000349 RMS(Int)=  0.00000264
 Iteration  3 RMS(Cart)=  0.00000239 RMS(Int)=  0.00000304
 Iteration  4 RMS(Cart)=  0.00000163 RMS(Int)=  0.00000337
 Iteration  5 RMS(Cart)=  0.00000112 RMS(Int)=  0.00000362
 Iteration  6 RMS(Cart)=  0.00000076 RMS(Int)=  0.00000380
 Variable       Old X    -DE/DX   Delta X   Delta X   Delta X     New X
                                 (Linear)    (Quad)   (Total)
    R1        2.05975  -0.00094   0.00000   0.00002   0.00002   2.05977
    R2        2.05986   0.00480   0.00000   0.00280   0.00280   2.06266
    R3        2.05983   0.00474   0.00000   0.00300   0.00300   2.06283
    R4        2.89135  -0.00071   0.00000  -0.00370  -0.00370   2.88765
    R5        2.32234  -0.01035   0.00000  -0.00214  -0.00214   2.32021
    R6        2.52282   0.04711   0.00000   0.01471   0.01471   2.53753
    R7        1.90870   0.00045   0.00000   0.00042   0.00042   1.90912
    R8        2.73817   0.02826   0.00000   0.00460   0.00460   2.74277
    R9        2.05975   0.00835   0.00000   0.00539   0.00539   2.06513
   R10        2.88188   0.00763   0.00000   0.00371   0.00371   2.88560
   R11        2.87618   0.01827   0.00000   0.01054   0.01054   2.88672
   R12        2.05972   0.00181   0.00000   0.00143   0.00143   2.06115
   R13        2.05984   0.00296   0.00000   0.00218   0.00218   2.06202
   R14        2.05966   0.00487   0.00000   0.00322   0.00322   2.06288
   R15        2.32259  -0.00216   0.00000  -0.00270  -0.00270   2.31989
   R16        2.52281   0.02713   0.00000   0.01123   0.01123   2.53404
   R17        1.90847  -0.00051   0.00000  -0.00060  -0.00060   1.90788
   R18        2.73837   0.00354   0.00000   0.00070   0.00070   2.73907
   R19        2.05970  -0.00083   0.00000   0.00025   0.00025   2.05995
   R20        2.05978   0.00408   0.00000   0.00334   0.00334   2.06312
   R21        2.05986   0.00477   0.00000   0.00252   0.00252   2.06238
    A1        1.91114  -0.00033   0.00000  -0.00295  -0.00297   1.90817
    A2        1.91122  -0.00003   0.00000   0.00079   0.00082   1.91204
    A3        1.93905  -0.00806   0.00000  -0.01035  -0.01034   1.92871
    A4        1.91009  -0.00520   0.00000  -0.00612  -0.00616   1.90393
    A5        1.89601   0.00728   0.00000   0.00209   0.00206   1.89807
    A6        1.89605   0.00639   0.00000   0.01663   0.01663   1.91267
    A7        2.10311  -0.00503   0.00000   0.01107   0.01107   2.11418
    A8        2.03508  -0.02378   0.00000  -0.00654  -0.00654   2.02853
    A9        2.14500   0.02881   0.00000  -0.00453  -0.00453   2.14047
   A10        2.09433  -0.03315   0.00000  -0.00182  -0.00196   2.09237
   A11        2.12763   0.06749   0.00000   0.01123   0.01109   2.13872
   A12        2.06122  -0.03434   0.00000  -0.00941  -0.00955   2.05167
   A13        1.91114  -0.01203   0.00000  -0.00274  -0.00274   1.90840
   A14        1.93905  -0.00765   0.00000  -0.00380  -0.00381   1.93524
   A15        1.93900   0.03450   0.00000  -0.00076  -0.00075   1.93825
   A16        1.89609   0.00678   0.00000   0.00064   0.00063   1.89672
   A17        1.89608   0.00257   0.00000   0.00298   0.00296   1.89904
   A18        1.88137  -0.02446   0.00000   0.00395   0.00395   1.88533
   A19        1.91115  -0.00093   0.00000  -0.00043  -0.00044   1.91071
   A20        1.91106   0.00276   0.00000   0.00345   0.00344   1.91451
   A21        1.91110   0.00477   0.00000   0.00624   0.00623   1.91733
   A22        1.91011  -0.00155   0.00000  -0.00319  -0.00319   1.90692
   A23        1.91023  -0.00123   0.00000  -0.00024  -0.00025   1.90998
   A24        1.91015  -0.00384   0.00000  -0.00583  -0.00584   1.90432
   A25        2.10311   0.00335   0.00000  -0.00015  -0.00019   2.10292
   A26        2.03502  -0.00856   0.00000  -0.00609  -0.00613   2.02888
   A27        2.14506   0.00521   0.00000   0.00624   0.00619   2.15125
   A28        2.09446  -0.00150   0.00000  -0.00386  -0.00408   2.09039
   A29        2.12749   0.00283   0.00000   0.00141   0.00119   2.12868
   A30        2.06124  -0.00133   0.00000   0.00244   0.00222   2.06345
   A31        1.91114  -0.00737   0.00000  -0.00913  -0.00912   1.90202
   A32        1.91116   0.00399   0.00000   0.00841   0.00840   1.91955
   A33        1.91103   0.00550   0.00000   0.00404   0.00403   1.91506
   A34        1.91015   0.00024   0.00000  -0.00358  -0.00356   1.90659
   A35        1.91015   0.00041   0.00000   0.00163   0.00163   1.91178
   A36        1.91018  -0.00278   0.00000  -0.00137  -0.00141   1.90877
    D1        0.00013   0.00291   0.00000  -0.08785  -0.08787  -0.08773
    D2        3.14154  -0.00301   0.00000  -0.08819  -0.08821   3.05333
    D3        2.10345   0.00222   0.00000  -0.09655  -0.09656   2.00689
    D4       -1.03833  -0.00370   0.00000  -0.09689  -0.09690  -1.13523
    D5       -2.10329   0.00381   0.00000  -0.09318  -0.09315  -2.19644
    D6        1.03811  -0.00211   0.00000  -0.09352  -0.09349   0.94462
    D7        0.00009  -0.00951   0.00000  -0.02262  -0.02258  -0.02249
    D8       -3.14152  -0.00349   0.00000  -0.05441  -0.05445   3.08722
    D9        3.14149  -0.01559   0.00000  -0.02296  -0.02292   3.11857
   D10       -0.00012  -0.00957   0.00000  -0.05475  -0.05479  -0.05491
   D11        1.83262  -0.00794   0.00000   0.00144   0.00143   1.83405
   D12       -2.35613  -0.01217   0.00000  -0.00194  -0.00195  -2.35807
   D13       -0.26177  -0.02512   0.00000   0.00000   0.00000  -0.26177
   D14       -1.30899  -0.00203   0.00000  -0.02976  -0.02974  -1.33873
   D15        0.78545  -0.00626   0.00000  -0.03314  -0.03312   0.75233
   D16        2.87980  -0.01920   0.00000  -0.03121  -0.03117   2.84863
   D17        1.04724   0.01326   0.00000   0.00663   0.00663   1.05387
   D18        3.14157   0.01249   0.00000   0.00457   0.00456  -3.13706
   D19       -1.04726   0.01240   0.00000   0.00337   0.00337  -1.04390
   D20       -3.13259  -0.00198   0.00000   0.00129   0.00130  -3.13129
   D21       -1.03826  -0.00276   0.00000  -0.00077  -0.00077  -1.03903
   D22        1.05609  -0.00284   0.00000  -0.00197  -0.00196   1.05413
   D23       -1.08102  -0.00869   0.00000   0.00733   0.00733  -1.07369
   D24        1.01331  -0.00946   0.00000   0.00527   0.00527   1.01858
   D25        3.10766  -0.00955   0.00000   0.00407   0.00407   3.11173
   D26       -1.04715  -0.00900   0.00000  -0.01685  -0.01683  -1.06399
   D27        2.09440   0.00260   0.00000   0.00000   0.00000   2.09440
   D28        3.13272  -0.01712   0.00000  -0.01491  -0.01489   3.11783
   D29       -0.00892  -0.00552   0.00000   0.00194   0.00194  -0.00698
   D30        1.08113  -0.01314   0.00000  -0.01944  -0.01943   1.06171
   D31       -2.06050  -0.00153   0.00000  -0.00259  -0.00260  -2.06310
   D32       -0.00004  -0.00675   0.00000  -0.03645  -0.03643  -0.03646
   D33       -3.14157  -0.00592   0.00000   0.00352   0.00345  -3.13811
   D34        3.14152   0.00516   0.00000  -0.01916  -0.01909   3.12243
   D35       -0.00001   0.00599   0.00000   0.02081   0.02080   0.02078
   D36       -0.00006  -0.00008   0.00000  -0.07751  -0.07753  -0.07760
   D37        2.09437  -0.00185   0.00000  -0.08234  -0.08239   2.01198
   D38       -2.09442   0.00057   0.00000  -0.07639  -0.07640  -2.17082
   D39        3.14159   0.00074   0.00000  -0.03827  -0.03824   3.10335
   D40       -1.04716  -0.00104   0.00000  -0.04310  -0.04309  -1.09026
   D41        1.04724   0.00138   0.00000  -0.03715  -0.03711   1.01013
         Item               Value     Threshold  Converged?
 Maximum Force            0.067494     0.000450     NO 
 RMS     Force            0.013265     0.000300     NO 
 Maximum Displacement     0.232199     0.001800     NO 
 RMS     Displacement     0.053596     0.001200     NO 
 Predicted change in Energy=-5.605541D-03
 GradGradGradGradGradGradGradGradGradGradGradGradGradGradGradGradGradGrad

                          Input orientation:                          
 ---------------------------------------------------------------------
 Center     Atomic      Atomic             Coordinates (Angstroms)
 Number     Number       Type             X           Y           Z
 ---------------------------------------------------------------------
      1          1           0        0.286939    4.419917    0.586760
      2          6           0        1.131818    3.824594    0.240594
      3          1           0        0.969644    3.538044   -0.800073
      4          1           0        1.217443    2.922940    0.849926
      5          6           0        2.427320    4.629764    0.332227
      6          8           0        2.417855    5.812110    0.663077
      7          7           0        3.558184    3.970494    0.032841
      8          1           0        3.519719    2.991918   -0.215230
      9          6           0        4.856920    4.618103    0.010892
     10          1           0        5.421928    4.326376    0.899667
     11          6           0        5.648888    4.207647   -1.228471
     12          1           0        5.100949    4.502463   -2.124294
     13          1           0        6.622058    4.701183   -1.223101
     14          1           0        5.796717    3.126082   -1.232613
     15          6           0        4.711724    6.138708   -0.003219
     16          8           0        4.130557    6.700361   -0.927275
     17          7           0        5.266147    6.796925    1.025141
     18          1           0        5.717401    6.280502    1.766071
     19          6           0        5.198740    8.240392    1.138144
     20          1           0        4.719905    8.643850    0.245839
     21          1           0        4.614272    8.518915    2.017207
     22          1           0        6.206174    8.650212    1.228691
 ---------------------------------------------------------------------
                    Distance matrix (angstroms):
                    1          2          3          4          5
     1  H    0.000000
     2  C    1.089982   0.000000
     3  H    1.779632   1.091512   0.000000
     4  H    1.782143   1.091603   1.778272   0.000000
     5  C    2.165654   1.528078   2.144476   2.155241   0.000000
     6  O    2.546532   2.404704   3.067491   3.134199   1.227800
     7  N    3.348111   2.439611   2.753416   2.691480   1.342803
     8  H    3.623980   2.569668   2.672672   2.537674   2.043424
     9  C    4.610383   3.815601   4.115229   4.101627   2.450785
    10  H    5.145364   4.369349   4.830468   4.432810   3.062958
    11  C    5.664858   4.765375   4.746285   5.060425   3.604505
    12  H    5.525515   4.669711   4.444249   5.140281   3.633041
    13  H    6.594576   5.749221   5.786331   6.055530   4.474368
    14  H    5.944895   4.941613   4.863891   5.034678   4.007819
    15  C    4.783413   4.269695   4.626186   4.824833   2.758248
    16  O    4.718699   4.315830   4.473008   5.090538   2.962217
    17  N    5.534876   5.151985   5.693123   5.606288   3.638084
    18  H    5.860244   5.420898   6.053707   5.688775   3.950376
    19  C    6.247067   6.069986   6.614683   6.648992   4.622435
    20  H    6.132619   6.008296   6.420876   6.735055   4.623450
    21  H    6.129745   6.109050   6.784502   6.649506   4.769425
    22  H    7.303754   7.071918   7.594169   7.604771   5.589936
                    6          7          8          9         10
     6  O    0.000000
     7  N    2.255902   0.000000
     8  H    3.152619   1.010262   0.000000
     9  C    2.792854   1.451411   2.117479   0.000000
    10  H    3.359737   2.086045   2.577242   1.092822   0.000000
    11  C    4.073306   2.453200   2.652926   1.526993   2.143497
    12  H    4.084557   2.704874   2.902854   2.152195   3.046043
    13  H    4.739952   3.390961   3.682648   2.155308   2.467172
    14  H    4.714350   2.706554   2.497556   2.157695   2.475438
    15  C    2.410902   2.456238   3.371663   1.527587   2.145727
    16  O    2.500312   2.949848   3.825269   2.396572   3.262080
    17  N    3.035411   3.448262   4.366533   2.437916   2.478634
    18  H    3.510411   3.605889   4.423816   2.566057   2.157908
    19  C    3.722307   4.705864   5.674260   3.809005   3.927621
    20  H    3.673183   4.820292   5.796323   4.034924   4.422772
    21  H    3.739614   5.073575   6.060488   4.393235   4.413455
    22  H    4.767191   5.508328   6.427927   4.422830   4.406684
                   11         12         13         14         15
    11  C    0.000000
    12  H    1.090713   0.000000
    13  H    1.091177   1.779161   0.000000
    14  H    1.091630   1.781464   1.778264   0.000000
    15  C    2.471540   2.706982   2.684020   3.429947   0.000000
    16  O    2.934223   2.684263   3.208083   3.955349   1.227635
    17  N    3.453927   3.900101   3.359348   4.342125   1.340955
    18  H    3.642622   4.321618   3.499686   4.353018   2.040069
    19  C    4.697502   4.962377   4.486347   5.668707   2.440691
    20  H    4.766182   4.786837   4.617423   5.813012   2.517505
    21  H    5.494714   5.789713   5.394986   6.406415   3.123621
    22  H    5.107308   5.446821   4.666806   6.061493   3.171536
                   16         17         18         19         20
    16  O    0.000000
    17  N    2.260712   0.000000
    18  H    3.154120   1.009604   0.000000
    19  C    2.789027   1.449452   2.122374   0.000000
    20  H    2.345352   2.077696   2.981865   1.090078   0.000000
    21  H    3.494438   2.091503   2.508078   1.091756   1.778908
    22  H    3.571876   2.088003   2.478549   1.091363   1.781863
                   21         22
    21  H    0.000000
    22  H    1.781333   0.000000
 Stoichiometry    C6H12N2O2
 Framework group  C1[X(C6H12N2O2)]
 Deg. of freedom    60
 Full point group                 C1      NOp   1
 Largest Abelian subgroup         C1      NOp   1
 Largest concise Abelian subgroup C1      NOp   1
                         Standard orientation:                         
 ---------------------------------------------------------------------
 Center     Atomic      Atomic             Coordinates (Angstroms)
 Number     Number       Type             X           Y           Z
 ---------------------------------------------------------------------
      1          1           0       -3.243846   -2.054908    0.174582
      2          6           0       -3.124416   -0.982604    0.019787
      3          1           0       -3.550460   -0.445299    0.869014
      4          1           0       -3.648027   -0.684342   -0.890415
      5          6           0       -1.644612   -0.620339   -0.098395
      6          8           0       -0.768957   -1.463939    0.072075
      7          7           0       -1.368993    0.659602   -0.396567
      8          1           0       -2.122957    1.314804   -0.547830
      9          6           0       -0.011789    1.167693   -0.476785
     10          1           0        0.261509    1.306039   -1.525798
     11          6           0        0.110279    2.509739    0.241351
     12          1           0       -0.149777    2.384330    1.293158
     13          1           0        1.135470    2.875603    0.165237
     14          1           0       -0.563585    3.237168   -0.215168
     15          6           0        0.976711    0.196282    0.165672
     16          8           0        0.882083   -0.092908    1.355001
     17          7           0        1.938290   -0.286883   -0.634376
     18          1           0        1.956636   -0.026655   -1.609694
     19          6           0        2.938409   -1.220033   -0.154894
     20          1           0        2.804237   -1.363518    0.917337
     21          1           0        2.827117   -2.179910   -0.663009
     22          1           0        3.936114   -0.821995   -0.347828
 ---------------------------------------------------------------------
 Rotational constants (GHZ):      1.9455829      1.0199601      0.7746112
 Standard basis: 6-31G(d) (6D, 7F)
 There are   174 symmetry adapted basis functions of A   symmetry.
 Integral buffers will be    131072 words long.
 Raffenetti 2 integral format.
 Two-electron integral symmetry is turned on.
   174 basis functions,   328 primitive gaussians,   174 cartesian basis functions
    39 alpha electrons       39 beta electrons
       nuclear repulsion energy       574.6660816499 Hartrees.
 NAtoms=   22 NActive=   22 NUniq=   22 SFac= 7.50D-01 NAtFMM=   80 NAOKFM=F Big=F
 One-electron integrals computed using PRISM.
 NBasis=   174 RedAO= T  NBF=   174
 NBsUse=   174 1.00D-06 NBFU=   174
 Initial guess read from the read-write file.
 B after Tr=     0.000000    0.000000    0.000000
         Rot=    1.000000    0.000000    0.000000    0.000000 Ang=   0.00 deg.
 Initial guess orbital symmetries:
       Occupied  (A) (A) (A) (A) (A) (A) (A) (A) (A) (A) (A) (A)
                 (A) (A) (A) (A) (A) (A) (A) (A) (A) (A) (A) (A)
                 (A) (A) (A) (A) (A) (A) (A) (A) (A) (A) (A) (A)
                 (A) (A) (A)
       Virtual   (A) (A) (A) (A) (A) (A) (A) (A) (A) (A) (A) (A)
                 (A) (A) (A) (A) (A) (A) (A) (A) (A) (A) (A) (A)
                 (A) (A) (A) (A) (A) (A) (A) (A) (A) (A) (A) (A)
                 (A) (A) (A) (A) (A) (A) (A) (A) (A) (A) (A) (A)
                 (A) (A) (A) (A) (A) (A) (A) (A) (A) (A) (A) (A)
                 (A) (A) (A) (A) (A) (A) (A) (A) (A) (A) (A) (A)
                 (A) (A) (A) (A) (A) (A) (A) (A) (A) (A) (A) (A)
                 (A) (A) (A) (A) (A) (A) (A) (A) (A) (A) (A) (A)
                 (A) (A) (A) (A) (A) (A) (A) (A) (A) (A) (A) (A)
                 (A) (A) (A) (A) (A) (A) (A) (A) (A) (A) (A) (A)
                 (A) (A) (A) (A) (A) (A) (A) (A) (A) (A) (A) (A)
                 (A) (A) (A)
 Harris functional with IExCor=  402 diagonalized for initial guess.
 ExpMin= 1.61D-01 ExpMax= 5.48D+03 ExpMxC= 8.25D+02 IAcc=1 IRadAn=         1 AccDes= 0.00D+00
 HarFok:  IExCor=  402 AccDes= 0.00D+00 IRadAn=         1 IDoV= 1
 ScaDFX=  1.000000  1.000000  1.000000  1.000000
 FoFCou: FMM=F IPFlag=           0 FMFlag=      100000 FMFlg1=           0
         NFxFlg=           0 DoJE=T BraDBF=F KetDBF=T FulRan=T
         Omega=  0.000000  0.000000  1.000000  0.000000  0.000000 ICntrl=     500 IOpCl=  0
         NMat0=    1 NMatS0=    1 NMatT0=    0 NMatD0=    1 NMtDS0=    0 NMtDT0=    0
         I1Cent=           4 NGrid=           0.
 Petite list used in FoFCou.
 Requested convergence on RMS density matrix=1.00D-08 within 128 cycles.
 Requested convergence on MAX density matrix=1.00D-06.
 Requested convergence on             energy=1.00D-06.
 No special actions if energy rises.
 Integral accuracy reduced to 1.0D-05 until final iterations.
 Initial convergence to 1.0D-05 achieved.  Increase integral accuracy.
 SCF Done:  E(RB3LYP) =  -495.827378097     A.U. after   12 cycles
             Convg  =    0.4110D-08             -V/T =  2.0088
 Calling FoFJK, ICntrl=      2127 FMM=F ISym2X=0 I1Cent= 0 IOpClX= 0 NMat=1 NMatS=1 NMatT=0.
 ***** Axes restored to original set *****
 -------------------------------------------------------------------
 Center     Atomic                   Forces (Hartrees/Bohr)
 Number     Number              X              Y              Z
 -------------------------------------------------------------------
      1        1           0.002298353    0.001858194    0.000327491
      2        6           0.008473937   -0.000588707   -0.002750981
      3        1          -0.003282115   -0.003439864   -0.002359028
      4        1          -0.002438141   -0.004328372    0.000300595
      5        6          -0.031229563    0.020733899    0.011922848
      6        8          -0.009880713   -0.011673200    0.011815887
      7        7           0.015254289   -0.008585042   -0.004425132
      8        1          -0.000180961    0.000084061   -0.001686761
      9        6           0.007636310   -0.000875169    0.000524575
     10        1           0.002725113   -0.002980213    0.005062969
     11        6          -0.002589137   -0.002255924    0.000817254
     12        1           0.000039370    0.001425242   -0.001226403
     13        1           0.002843473   -0.000633513   -0.001299986
     14        1           0.002557244   -0.003368101   -0.001958424
     15        6          -0.023116506    0.006473508   -0.020892616
     16        8           0.017989232    0.000270988   -0.008891894
     17        7           0.012488404    0.005483543    0.009606025
     18        1          -0.001612061   -0.000024833    0.000457010
     19        6           0.001536456   -0.001054312    0.002504576
     20        1          -0.000274169   -0.002866409   -0.000420209
     21        1          -0.001596854    0.002711023    0.001915495
     22        1           0.002358039    0.003633200    0.000656708
 -------------------------------------------------------------------
 Cartesian Forces:  Max     0.031229563 RMS     0.008060395

 GradGradGradGradGradGradGradGradGradGradGradGradGradGradGradGradGradGrad
 Berny optimization.
 Using GEDIIS/GDIIS optimizer.
 Internal  Forces:  Max     0.051870997 RMS     0.010592711
 Search for a local minimum.
 Step number   2 out of a maximum of  132
 All quantities printed in internal units (Hartrees-Bohrs-Radians)
 Mixed Optimization -- RFO/linear search
 Update second derivatives using D2CorX and points    1    2
 DE= -5.62D-03 DEPred=-5.61D-03 R= 1.00D+00
 SS=  1.41D+00  RLast= 3.00D-01 DXNew= 5.0454D-01 9.0000D-01
 Trust test= 1.00D+00 RLast= 3.00D-01 DXMaxT set to 5.05D-01
 Use linear search instead of GDIIS.
 Linear search step of   0.594 exceeds DXMaxT=   0.505 but not scaled.
 Quartic linear search produced a step of  2.00000.
 Iteration  1 RMS(Cart)=  0.10600388 RMS(Int)=  0.01004044
 Iteration  2 RMS(Cart)=  0.01109081 RMS(Int)=  0.00031138
 Iteration  3 RMS(Cart)=  0.00011955 RMS(Int)=  0.00029823
 Iteration  4 RMS(Cart)=  0.00000002 RMS(Int)=  0.00029823
 Iteration  1 RMS(Cart)=  0.00003342 RMS(Int)=  0.00001539
 Iteration  2 RMS(Cart)=  0.00002288 RMS(Int)=  0.00001700
 Iteration  3 RMS(Cart)=  0.00001567 RMS(Int)=  0.00001955
 Iteration  4 RMS(Cart)=  0.00001072 RMS(Int)=  0.00002172
 Iteration  5 RMS(Cart)=  0.00000733 RMS(Int)=  0.00002332
 Iteration  6 RMS(Cart)=  0.00000500 RMS(Int)=  0.00002446
 Iteration  7 RMS(Cart)=  0.00000341 RMS(Int)=  0.00002525
 Iteration  8 RMS(Cart)=  0.00000232 RMS(Int)=  0.00002579
 Iteration  9 RMS(Cart)=  0.00000158 RMS(Int)=  0.00002616
 Iteration 10 RMS(Cart)=  0.00000107 RMS(Int)=  0.00002641
 Iteration 11 RMS(Cart)=  0.00000073 RMS(Int)=  0.00002658
 Variable       Old X    -DE/DX   Delta X   Delta X   Delta X     New X
                                 (Linear)    (Quad)   (Total)
    R1        2.05977  -0.00066   0.00003   0.00000   0.00003   2.05980
    R2        2.06266   0.00364   0.00560   0.00000   0.00560   2.06826
    R3        2.06283   0.00355   0.00600   0.00000   0.00600   2.06883
    R4        2.88765  -0.00059  -0.00740   0.00000  -0.00740   2.88025
    R5        2.32021  -0.00798  -0.00428   0.00000  -0.00428   2.31593
    R6        2.53753   0.03591   0.02943   0.00000   0.02943   2.56696
    R7        1.90912   0.00034   0.00085   0.00000   0.00085   1.90996
    R8        2.74277   0.02162   0.00920   0.00000   0.00920   2.75196
    R9        2.06513   0.00632   0.01078   0.00000   0.01078   2.07591
   R10        2.88560   0.00576   0.00743   0.00000   0.00743   2.89303
   R11        2.88672   0.01396   0.02108   0.00000   0.02108   2.90780
   R12        2.06115   0.00138   0.00286   0.00000   0.00286   2.06401
   R13        2.06202   0.00224   0.00436   0.00000   0.00436   2.06639
   R14        2.06288   0.00369   0.00644   0.00000   0.00644   2.06932
   R15        2.31989  -0.00170  -0.00539   0.00000  -0.00539   2.31450
   R16        2.53404   0.02050   0.02245   0.00000   0.02245   2.55649
   R17        1.90788  -0.00037  -0.00120   0.00000  -0.00120   1.90668
   R18        2.73907   0.00268   0.00139   0.00000   0.00139   2.74046
   R19        2.05995  -0.00060   0.00050   0.00000   0.00050   2.06045
   R20        2.06312   0.00309   0.00669   0.00000   0.00669   2.06981
   R21        2.06238   0.00359   0.00503   0.00000   0.00503   2.06741
    A1        1.90817  -0.00031  -0.00594   0.00000  -0.00605   1.90212
    A2        1.91204  -0.00003   0.00165   0.00000   0.00182   1.91386
    A3        1.92871  -0.00613  -0.02069   0.00000  -0.02065   1.90806
    A4        1.90393  -0.00403  -0.01232   0.00000  -0.01258   1.89136
    A5        1.89807   0.00563   0.00412   0.00000   0.00393   1.90200
    A6        1.91267   0.00490   0.03325   0.00000   0.03321   1.94588
    A7        2.11418  -0.00401   0.02214   0.00000   0.02214   2.13632
    A8        2.02853  -0.01823  -0.01309   0.00000  -0.01309   2.01544
    A9        2.14047   0.02225  -0.00905   0.00000  -0.00905   2.13142
   A10        2.09237  -0.02546  -0.00391   0.00000  -0.00477   2.08761
   A11        2.13872   0.05187   0.02218   0.00000   0.02136   2.16008
   A12        2.05167  -0.02627  -0.01910   0.00000  -0.01990   2.03177
   A13        1.90840  -0.00916  -0.00548   0.00000  -0.00545   1.90294
   A14        1.93524  -0.00612  -0.00762   0.00000  -0.00768   1.92755
   A15        1.93825   0.02663  -0.00150   0.00000  -0.00147   1.93678
   A16        1.89672   0.00521   0.00126   0.00000   0.00116   1.89788
   A17        1.89904   0.00235   0.00593   0.00000   0.00583   1.90488
   A18        1.88533  -0.01911   0.00791   0.00000   0.00796   1.89329
   A19        1.91071  -0.00070  -0.00087   0.00000  -0.00089   1.90982
   A20        1.91451   0.00213   0.00689   0.00000   0.00686   1.92137
   A21        1.91733   0.00367   0.01246   0.00000   0.01241   1.92974
   A22        1.90692  -0.00122  -0.00638   0.00000  -0.00637   1.90055
   A23        1.90998  -0.00092  -0.00050   0.00000  -0.00054   1.90944
   A24        1.90432  -0.00300  -0.01167   0.00000  -0.01173   1.89259
   A25        2.10292   0.00268  -0.00038   0.00000  -0.00063   2.10229
   A26        2.02888  -0.00664  -0.01227   0.00000  -0.01253   2.01635
   A27        2.15125   0.00382   0.01239   0.00000   0.01211   2.16336
   A28        2.09039  -0.00119  -0.00815   0.00000  -0.00945   2.08094
   A29        2.12868   0.00208   0.00238   0.00000   0.00106   2.12974
   A30        2.06345  -0.00092   0.00444   0.00000   0.00308   2.06653
   A31        1.90202  -0.00561  -0.01824   0.00000  -0.01817   1.88385
   A32        1.91955   0.00308   0.01680   0.00000   0.01674   1.93629
   A33        1.91506   0.00420   0.00806   0.00000   0.00797   1.92302
   A34        1.90659   0.00015  -0.00712   0.00000  -0.00703   1.89956
   A35        1.91178   0.00029   0.00327   0.00000   0.00330   1.91509
   A36        1.90877  -0.00213  -0.00282   0.00000  -0.00302   1.90575
    D1       -0.08773   0.00216  -0.17574   0.00000  -0.17585  -0.26358
    D2        3.05333  -0.00241  -0.17641   0.00000  -0.17653   2.87680
    D3        2.00689   0.00159  -0.19313   0.00000  -0.19318   1.81371
    D4       -1.13523  -0.00299  -0.19380   0.00000  -0.19386  -1.32910
    D5       -2.19644   0.00294  -0.18631   0.00000  -0.18613  -2.38258
    D6        0.94462  -0.00164  -0.18698   0.00000  -0.18682   0.75781
    D7       -0.02249  -0.00762  -0.04516   0.00000  -0.04492  -0.06741
    D8        3.08722  -0.00282  -0.10890   0.00000  -0.10915   2.97807
    D9        3.11857  -0.01228  -0.04584   0.00000  -0.04559   3.07298
   D10       -0.05491  -0.00748  -0.10958   0.00000  -0.10982  -0.16473
   D11        1.83405  -0.00651   0.00286   0.00000   0.00279   1.83684
   D12       -2.35807  -0.00975  -0.00390   0.00000  -0.00395  -2.36202
   D13       -0.26177  -0.02023   0.00000   0.00000   0.00000  -0.26177
   D14       -1.33873  -0.00184  -0.05947   0.00000  -0.05931  -1.39804
   D15        0.75233  -0.00508  -0.06623   0.00000  -0.06605   0.68628
   D16        2.84863  -0.01556  -0.06234   0.00000  -0.06211   2.78652
   D17        1.05387   0.01022   0.01326   0.00000   0.01326   1.06712
   D18       -3.13706   0.00960   0.00912   0.00000   0.00909  -3.12796
   D19       -1.04390   0.00952   0.00673   0.00000   0.00673  -1.03717
   D20       -3.13129  -0.00152   0.00260   0.00000   0.00261  -3.12868
   D21       -1.03903  -0.00214  -0.00154   0.00000  -0.00155  -1.04058
   D22        1.05413  -0.00222  -0.00393   0.00000  -0.00392   1.05021
   D23       -1.07369  -0.00647   0.01467   0.00000   0.01469  -1.05900
   D24        1.01858  -0.00709   0.01054   0.00000   0.01053   1.02910
   D25        3.11173  -0.00717   0.00815   0.00000   0.00816   3.11989
   D26       -1.06399  -0.00687  -0.03366   0.00000  -0.03354  -1.09753
   D27        2.09440   0.00244   0.00000   0.00000   0.00000   2.09440
   D28        3.11783  -0.01357  -0.02978   0.00000  -0.02964   3.08819
   D29       -0.00698  -0.00426   0.00388   0.00000   0.00390  -0.00307
   D30        1.06171  -0.01042  -0.03885   0.00000  -0.03877   1.02294
   D31       -2.06310  -0.00111  -0.00519   0.00000  -0.00523  -2.06833
   D32       -0.03646  -0.00560  -0.07286   0.00000  -0.07274  -0.10921
   D33       -3.13811  -0.00473   0.00691   0.00000   0.00647  -3.13164
   D34        3.12243   0.00401  -0.03817   0.00000  -0.03774   3.08469
   D35        0.02078   0.00488   0.04159   0.00000   0.04148   0.06226
   D36       -0.07760  -0.00022  -0.15507   0.00000  -0.15518  -0.23278
   D37        2.01198  -0.00163  -0.16477   0.00000  -0.16503   1.84695
   D38       -2.17082   0.00032  -0.15280   0.00000  -0.15285  -2.32366
   D39        3.10335   0.00065  -0.07649   0.00000  -0.07632   3.02703
   D40       -1.09026  -0.00076  -0.08619   0.00000  -0.08617  -1.17643
   D41        1.01013   0.00119  -0.07422   0.00000  -0.07398   0.93614
         Item               Value     Threshold  Converged?
 Maximum Force            0.051787     0.000450     NO 
 RMS     Force            0.010191     0.000300     NO 
 Maximum Displacement     0.516397     0.001800     NO 
 RMS     Displacement     0.107054     0.001200     NO 
 Predicted change in Energy=-7.372903D-03
 GradGradGradGradGradGradGradGradGradGradGradGradGradGradGradGradGradGrad

                          Input orientation:                          
 ---------------------------------------------------------------------
 Center     Atomic      Atomic             Coordinates (Angstroms)
 Number     Number       Type             X           Y           Z
 ---------------------------------------------------------------------
      1          1           0        0.310700    4.295016    0.728562
      2          6           0        1.133779    3.805617    0.207863
      3          1           0        0.904158    3.764186   -0.861454
      4          1           0        1.245470    2.780899    0.576660
      5          6           0        2.410062    4.613955    0.409778
      6          8           0        2.398524    5.766198    0.827082
      7          7           0        3.564811    3.970538    0.097120
      8          1           0        3.535145    3.001058   -0.187068
      9          6           0        4.864029    4.625173    0.032101
     10          1           0        5.450142    4.346830    0.918529
     11          6           0        5.624635    4.180658   -1.219942
     12          1           0        5.057394    4.463992   -2.109276
     13          1           0        6.604446    4.664800   -1.255794
     14          1           0        5.774331    3.095914   -1.214235
     15          6           0        4.708135    6.155432   -0.009591
     16          8           0        4.134337    6.695621   -0.947162
     17          7           0        5.292427    6.828919    1.007850
     18          1           0        5.703046    6.310828    1.770081
     19          6           0        5.222618    8.273516    1.114225
     20          1           0        4.863013    8.663378    0.161574
     21          1           0        4.526963    8.574671    1.904820
     22          1           0        6.213134    8.684303    1.331075
 ---------------------------------------------------------------------
                    Distance matrix (angstroms):
                    1          2          3          4          5
     1  H    0.000000
     2  C    1.089999   0.000000
     3  H    1.778236   1.094477   0.000000
     4  H    1.785895   1.094776   1.775252   0.000000
     5  C    2.147246   1.524164   2.146132   2.178122   0.000000
     6  O    2.555991   2.413894   3.015349   3.210024   1.225536
     7  N    3.330653   2.439135   2.835581   2.650385   1.358377
     8  H    3.593015   2.563171   2.821215   2.423709   2.055110
     9  C    4.618103   3.823262   4.149737   4.097788   2.482886
    10  H    5.143213   4.407828   4.916684   4.499809   3.093908
    11  C    5.661065   4.727269   4.752354   4.936010   3.630044
    12  H    5.532900   4.604057   4.392739   4.957602   3.657388
    13  H    6.609512   5.727886   5.784452   5.968718   4.513266
    14  H    5.921450   4.905177   4.928451   4.880279   4.032391
    15  C    4.831506   4.283099   4.573179   4.870443   2.798779
    16  O    4.815720   4.323141   4.362879   5.098297   3.024524
    17  N    5.596095   5.203334   5.669550   5.740231   3.683991
    18  H    5.850270   5.440111   6.036529   5.809874   3.946334
    19  C    6.332783   6.123905   6.548775   6.802612   4.668951
    20  H    6.334636   6.124309   6.381316   6.918271   4.740928
    21  H    6.121757   6.094032   6.627046   6.789698   4.733254
    22  H    7.380217   7.131832   7.563065   7.752226   5.646227
                    6          7          8          9         10
     6  O    0.000000
     7  N    2.262182   0.000000
     8  H    3.156962   1.010710   0.000000
     9  C    2.830663   1.456277   2.109909   0.000000
    10  H    3.366800   2.090641   2.588563   1.098526   0.000000
    11  C    4.136670   2.453911   2.612327   1.530923   2.152004
[...]
    14  H    5.804181   4.806309   5.033225   4.600790   4.009374
    15  C    4.909839   4.261357   4.442387   4.838911   2.847915
    16  O    5.017050   4.337033   4.212057   5.020762   3.170193
    17  N    5.710872   5.239287   5.556090   5.847297   3.740048
    18  H    5.688031   5.296905   5.799624   5.816195   3.780390
    19  C    6.409917   6.079475   6.273408   6.847712   4.664663
    20  H    6.827305   6.405138   6.421671   7.190121   5.069566
    21  H    5.926751   5.763320   5.955459   6.636988   4.456795
    22  H    7.307200   7.017000   7.289135   7.743718   5.564051
                    6          7          8          9         10
     6  O    0.000000
     7  N    2.280212   0.000000
     8  H    3.140870   1.012550   0.000000
     9  C    2.887766   1.468484   2.097087   0.000000
    10  H    3.348056   2.095941   2.725000   1.099890   0.000000
    11  C    4.236988   2.452882   2.469599   1.530792   2.154545
    12  H    4.332554   2.751747   2.643974   2.158796   3.058622
    13  H    4.955810   3.402462   3.534110   2.169023   2.461582
    14  H    4.799870   2.676517   2.345876   2.178559   2.528424
    15  C    2.643332   2.502936   3.294713   1.548059   2.168100
    16  O    2.996245   3.063909   3.679983   2.416123   3.277596
    17  N    3.193740   3.497893   4.390781   2.458507   2.484140
    18  H    3.237481   3.495586   4.422579   2.569611   2.190088
    19  C    3.846821   4.723385   5.634428   3.821904   3.938201
    20  H    4.365994   5.082030   5.895851   4.120124   4.437405
    21  H    3.441784   4.831805   5.784330   4.236294   4.422694
    22  H    4.725655   5.541748   6.463673   4.543177   4.432010
                   11         12         13         14         15
    11  C    0.000000
    12  H    1.093612   0.000000
    13  H    1.094491   1.774532   0.000000
    14  H    1.096822   1.791092   1.771487   0.000000
    15  C    2.503481   2.696553   2.764500   3.472883   0.000000
    16  O    2.910650   2.615225   3.211180   3.938986   1.222694
    17  N    3.492179   3.899770   3.436927   4.403757   1.366981
    18  H    3.782732   4.396462   3.765301   4.518324   2.027639
    19  C    4.756205   4.965708   4.622832   5.745205   2.439045
    20  H    4.765239   4.778745   4.555821   5.830198   2.626915
    21  H    5.346970   5.477312   5.399816   6.305044   2.862698
    22  H    5.444407   5.782031   5.154561   6.387087   3.324786
                   16         17         18         19         20
    16  O    0.000000
    17  N    2.282395   0.000000
    18  H    3.132957   1.011614   0.000000
    19  C    2.784142   1.456500   2.110455   0.000000
    20  H    2.533289   2.078729   2.964424   1.091096   0.000000
    21  H    3.071725   2.123947   2.590083   1.097502   1.773945
    22  H    3.806007   2.089727   2.398091   1.093355   1.783195
                   21         22
    21  H    0.000000
    22  H    1.789656   0.000000
 Stoichiometry    C6H12N2O2
 Framework group  C1[X(C6H12N2O2)]
 Deg. of freedom    60
 Full point group                 C1      NOp   1
 Largest Abelian subgroup         C1      NOp   1
 Largest concise Abelian subgroup C1      NOp   1
                         Standard orientation:                         
 ---------------------------------------------------------------------
 Center     Atomic      Atomic             Coordinates (Angstroms)
 Number     Number       Type             X           Y           Z
 ---------------------------------------------------------------------
      1          1           0       -3.417723   -1.917757    0.003771
      2          6           0       -3.107273   -0.912636    0.295458
      3          1           0       -3.143095   -0.850903    1.389720
      4          1           0       -3.811364   -0.180400   -0.114030
      5          6           0       -1.676018   -0.686740   -0.167217
      6          8           0       -0.866950   -1.598952   -0.265821
      7          7           0       -1.369099    0.612904   -0.500141
      8          1           0       -2.074003    1.300718   -0.265022
      9          6           0        0.000112    1.142754   -0.531233
     10          1           0        0.311465    1.245482   -1.581120
     11          6           0        0.035542    2.521567    0.132805
     12          1           0       -0.178831    2.419495    1.200331
     13          1           0        1.026932    2.971698    0.021276
     14          1           0       -0.695010    3.197432   -0.328193
     15          6           0        1.001568    0.212840    0.195976
     16          8           0        0.965369    0.077274    1.410591
     17          7           0        2.016210   -0.263137   -0.586702
     18          1           0        1.815959   -0.346040   -1.574826
     19          6           0        2.955027   -1.229496   -0.033382
     20          1           0        3.263755   -0.885782    0.955070
     21          1           0        2.500759   -2.222829    0.073581
     22          1           0        3.830281   -1.295798   -0.685271
 ---------------------------------------------------------------------
 Rotational constants (GHZ):      1.8692240      0.9891576      0.7565489

 **********************************************************************

            Population analysis using the SCF density.

 **********************************************************************

 Orbital symmetries:
       Occupied  (A) (A) (A) (A) (A) (A) (A) (A) (A) (A) (A) (A)
                 (A) (A) (A) (A) (A) (A) (A) (A) (A) (A) (A) (A)
                 (A) (A) (A) (A) (A) (A) (A) (A) (A) (A) (A) (A)
                 (A) (A) (A)
       Virtual   (A) (A) (A) (A) (A) (A) (A) (A) (A) (A) (A) (A)
                 (A) (A) (A) (A) (A) (A) (A) (A) (A) (A) (A) (A)
                 (A) (A) (A) (A) (A) (A) (A) (A) (A) (A) (A) (A)
                 (A) (A) (A) (A) (A) (A) (A) (A) (A) (A) (A) (A)
                 (A) (A) (A) (A) (A) (A) (A) (A) (A) (A) (A) (A)
                 (A) (A) (A) (A) (A) (A) (A) (A) (A) (A) (A) (A)
                 (A) (A) (A) (A) (A) (A) (A) (A) (A) (A) (A) (A)
                 (A) (A) (A) (A) (A) (A) (A) (A) (A) (A) (A) (A)
                 (A) (A) (A) (A) (A) (A) (A) (A) (A) (A) (A) (A)
                 (A) (A) (A) (A) (A) (A) (A) (A) (A) (A) (A) (A)
                 (A) (A) (A) (A) (A) (A) (A) (A) (A) (A) (A) (A)
                 (A) (A) (A)
 The electronic state is 1-A.
 Alpha  occ. eigenvalues --  -19.10925 -19.10237 -14.36005 -14.35290 -10.28612
 Alpha  occ. eigenvalues --  -10.27765 -10.23815 -10.20790 -10.19080 -10.19066
 Alpha  occ. eigenvalues --   -1.03313  -1.01854  -0.92179  -0.91104  -0.78005
 Alpha  occ. eigenvalues --   -0.72766  -0.70339  -0.63861  -0.58997  -0.56710
 Alpha  occ. eigenvalues --   -0.50897  -0.50048  -0.47746  -0.45721  -0.44068
 Alpha  occ. eigenvalues --   -0.43406  -0.41871  -0.41358  -0.39861  -0.38852
 Alpha  occ. eigenvalues --   -0.38512  -0.37932  -0.37662  -0.35717  -0.34089
 Alpha  occ. eigenvalues --   -0.26293  -0.25028  -0.24610  -0.23483
 Alpha virt. eigenvalues --    0.02196   0.03665   0.07012   0.08632   0.11965
 Alpha virt. eigenvalues --    0.13043   0.13623   0.15071   0.15492   0.16130
 Alpha virt. eigenvalues --    0.16837   0.17904   0.18396   0.19050   0.19928
 Alpha virt. eigenvalues --    0.21282   0.23946   0.25267   0.26287   0.32972
 Alpha virt. eigenvalues --    0.34330   0.40208   0.41638   0.51090   0.52137
 Alpha virt. eigenvalues --    0.53005   0.54519   0.55229   0.56128   0.57199
 Alpha virt. eigenvalues --    0.57869   0.59821   0.61353   0.62844   0.64068
 Alpha virt. eigenvalues --    0.67269   0.69860   0.70698   0.72628   0.75006
 Alpha virt. eigenvalues --    0.77342   0.78365   0.79967   0.82564   0.84358
 Alpha virt. eigenvalues --    0.85057   0.85754   0.86832   0.87816   0.88464
 Alpha virt. eigenvalues --    0.89618   0.90332   0.91422   0.92890   0.93281
 Alpha virt. eigenvalues --    0.94954   0.95677   0.96000   0.98163   1.00026
 Alpha virt. eigenvalues --    1.03470   1.07305   1.08884   1.12383   1.14557
 Alpha virt. eigenvalues --    1.18525   1.23030   1.25974   1.28711   1.31498
 Alpha virt. eigenvalues --    1.36190   1.39769   1.45304   1.45823   1.48023
 Alpha virt. eigenvalues --    1.51520   1.60340   1.62243   1.63722   1.68698
 Alpha virt. eigenvalues --    1.72310   1.73742   1.80361   1.80547   1.83366
 Alpha virt. eigenvalues --    1.84290   1.86619   1.88189   1.91842   1.92962
 Alpha virt. eigenvalues --    1.94280   1.95837   1.98753   2.02869   2.04344
 Alpha virt. eigenvalues --    2.06737   2.09175   2.12078   2.12759   2.18349
 Alpha virt. eigenvalues --    2.21146   2.22067   2.24264   2.27825   2.29061
 Alpha virt. eigenvalues --    2.30421   2.33421   2.38047   2.39761   2.40645
 Alpha virt. eigenvalues --    2.48470   2.48954   2.52983   2.55921   2.61938
 Alpha virt. eigenvalues --    2.66661   2.69497   2.71814   2.75268   2.87511
 Alpha virt. eigenvalues --    2.90703   2.98375   3.01220   3.12185   3.15344
 Alpha virt. eigenvalues --    3.92431   3.95056   4.07209   4.18114   4.22899
 Alpha virt. eigenvalues --    4.25125   4.33686   4.41643   4.50664   4.66202
          Condensed to atoms (all electrons):
              1          2          3          4          5          6
     1  H    0.514299   0.356130  -0.021275  -0.024883  -0.018384   0.003684
     2  C    0.356130   5.349642   0.360369   0.341402   0.335145  -0.080470
     3  H   -0.021275   0.360369   0.519300  -0.026637  -0.020100  -0.000293
     4  H   -0.024883   0.341402  -0.026637   0.573925  -0.023721   0.002628
     5  C   -0.018384   0.335145  -0.020100  -0.023721   4.300108   0.585126
     6  O    0.003684  -0.080470  -0.000293   0.002628   0.585126   8.069596
     7  N    0.003914  -0.124773   0.000121   0.005753   0.271521  -0.090876
     8  H   -0.000028   0.002723  -0.000042   0.001326  -0.018977   0.003733
     9  C   -0.000197   0.007880  -0.000164   0.000135  -0.032139  -0.001869
    10  H    0.000012  -0.000213  -0.000005  -0.000014  -0.000612   0.000402
    11  C    0.000001  -0.000276   0.000024  -0.000036   0.003899   0.000505
    12  H    0.000001  -0.000043  -0.000001  -0.000004   0.000445  -0.000018
    13  H    0.000000   0.000005   0.000000   0.000000  -0.000046   0.000001
    14  H    0.000000  -0.000001   0.000001  -0.000003   0.000051  -0.000001
    15  C    0.000000  -0.000149   0.000018   0.000007   0.007925   0.020985
    16  O    0.000001  -0.000250   0.000093  -0.000001   0.005181  -0.005463
    17  N    0.000001  -0.000054   0.000000   0.000001  -0.000423  -0.005499
    18  H    0.000000   0.000007   0.000000   0.000000  -0.000076   0.001199
    19  C    0.000000  -0.000001   0.000000   0.000000  -0.000044  -0.000549
    20  H    0.000000   0.000000   0.000000   0.000000  -0.000005   0.000011
    21  H    0.000000   0.000003   0.000000   0.000000   0.000024   0.001314
    22  H    0.000000   0.000000   0.000000   0.000000  -0.000001  -0.000003
              7          8          9         10         11         12
     1  H    0.003914  -0.000028  -0.000197   0.000012   0.000001   0.000001
     2  C   -0.124773   0.002723   0.007880  -0.000213  -0.000276  -0.000043
     3  H    0.000121  -0.000042  -0.000164  -0.000005   0.000024  -0.000001
     4  H    0.005753   0.001326   0.000135  -0.000014  -0.000036  -0.000004
     5  C    0.271521  -0.018977  -0.032139  -0.000612   0.003899   0.000445
     6  O   -0.090876   0.003733  -0.001869   0.000402   0.000505  -0.000018
     7  N    7.135370   0.294956   0.239978  -0.047803  -0.044567  -0.000296
     8  H    0.294956   0.426067  -0.039463   0.002832  -0.001764   0.000858
     9  C    0.239978  -0.039463   5.052809   0.354857   0.354509  -0.036403
    10  H   -0.047803   0.002832   0.354857   0.639017  -0.048845   0.005985
    11  C   -0.044567  -0.001764   0.354509  -0.048845   5.148146   0.367105
    12  H   -0.000296   0.000858  -0.036403   0.005985   0.367105   0.523524
    13  H    0.004253   0.000018  -0.026265   0.000082   0.366558  -0.021431
    14  H   -0.005578   0.004590  -0.030830  -0.004429   0.363291  -0.030685
    15  C   -0.041217   0.002443   0.322596  -0.050971  -0.022468  -0.008470
    16  O   -0.001255  -0.000274  -0.078041   0.003598  -0.004569   0.012767
    17  N    0.001823  -0.000173  -0.097729   0.008516  -0.000948   0.000806
    18  H   -0.000300   0.000011   0.000886   0.003556   0.000173  -0.000019
    19  C   -0.000088   0.000005   0.007070  -0.000112  -0.000192  -0.000010
    20  H   -0.000007   0.000000   0.000372  -0.000050   0.000049  -0.000012
    21  H    0.000012   0.000000  -0.000072   0.000009  -0.000012   0.000000
    22  H    0.000000   0.000000  -0.000098  -0.000044   0.000007   0.000000
             13         14         15         16         17         18
     1  H    0.000000   0.000000   0.000000   0.000001   0.000001   0.000000
     2  C    0.000005  -0.000001  -0.000149  -0.000250  -0.000054   0.000007
     3  H    0.000000   0.000001   0.000018   0.000093   0.000000   0.000000
     4  H    0.000000  -0.000003   0.000007  -0.000001   0.000001   0.000000
     5  C   -0.000046   0.000051   0.007925   0.005181  -0.000423  -0.000076
     6  O    0.000001  -0.000001   0.020985  -0.005463  -0.005499   0.001199
     7  N    0.004253  -0.005578  -0.041217  -0.001255   0.001823  -0.000300
     8  H    0.000018   0.004590   0.002443  -0.000274  -0.000173   0.000011
     9  C   -0.026265  -0.030830   0.322596  -0.078041  -0.097729   0.000886
    10  H    0.000082  -0.004429  -0.050971   0.003598   0.008516   0.003556
    11  C    0.366558   0.363291  -0.022468  -0.004569  -0.000948   0.000173
    12  H   -0.021431  -0.030685  -0.008470   0.012767   0.000806  -0.000019
    13  H    0.542179  -0.029149  -0.003699  -0.000148   0.001478  -0.000024
    14  H   -0.029149   0.585701   0.004913   0.000229  -0.000121  -0.000008
    15  C   -0.003699   0.004913   4.375997   0.551605   0.252010  -0.016624
    16  O   -0.000148   0.000229   0.551605   8.118915  -0.092848   0.003479
    17  N    0.001478  -0.000121   0.252010  -0.092848   7.066970   0.295858
    18  H   -0.000024  -0.000008  -0.016624   0.003479   0.295858   0.417143
    19  C   -0.000040   0.000003  -0.028223   0.002465   0.275636  -0.033485
    20  H   -0.000012   0.000000  -0.003274   0.011297  -0.038548   0.004524
    21  H    0.000002   0.000000  -0.001135   0.001124  -0.045260  -0.000421
    22  H   -0.000002   0.000000   0.004641   0.000548  -0.035410  -0.002502
             19         20         21         22
     1  H    0.000000   0.000000   0.000000   0.000000
     2  C   -0.000001   0.000000   0.000003   0.000000
     3  H    0.000000   0.000000   0.000000   0.000000
     4  H    0.000000   0.000000   0.000000   0.000000
     5  C   -0.000044  -0.000005   0.000024  -0.000001
     6  O   -0.000549   0.000011   0.001314  -0.000003
     7  N   -0.000088  -0.000007   0.000012   0.000000
     8  H    0.000005   0.000000   0.000000   0.000000
     9  C    0.007070   0.000372  -0.000072  -0.000098
    10  H   -0.000112  -0.000050   0.000009  -0.000044
    11  C   -0.000192   0.000049  -0.000012   0.000007
    12  H   -0.000010  -0.000012   0.000000   0.000000
    13  H   -0.000040  -0.000012   0.000002  -0.000002
    14  H    0.000003   0.000000   0.000000   0.000000
    15  C   -0.028223  -0.003274  -0.001135   0.004641
    16  O    0.002465   0.011297   0.001124   0.000548
    17  N    0.275636  -0.038548  -0.045260  -0.035410
    18  H   -0.033485   0.004524  -0.000421  -0.002502
    19  C    4.946263   0.381475   0.384609   0.371165
    20  H    0.381475   0.511902  -0.032540  -0.024475
    21  H    0.384609  -0.032540   0.553735  -0.036641
    22  H    0.371165  -0.024475  -0.036641   0.576106
 Mulliken atomic charges:
              1
     1  H    0.186723
     2  C   -0.547078
     3  H    0.188590
     4  H    0.150124
     5  C    0.605104
     6  O   -0.504144
     7  N   -0.600940
     8  H    0.321158
     9  C    0.002178
    10  H    0.134230
    11  C   -0.480591
    12  H    0.185901
    13  H    0.166240
    14  H    0.142027
    15  C    0.633090
    16  O   -0.528454
    17  N   -0.586086
    18  H    0.326624
    19  C   -0.305947
    20  H    0.189291
    21  H    0.175251
    22  H    0.146708
 Sum of Mulliken atomic charges =   0.00000
 Mulliken charges with hydrogens summed into heavy atoms:
              1
     2  C   -0.021640
     5  C    0.605104
     6  O   -0.504144
     7  N   -0.279782
     9  C    0.136408
    11  C    0.013577
    15  C    0.633090
    16  O   -0.528454
    17  N   -0.259461
    19  C    0.205303
 Sum of Mulliken charges with hydrogens summed into heavy atoms =   0.00000
 Electronic spatial extent (au):  <R**2>=           1645.6262
 Charge=              0.0000 electrons
 Dipole moment (field-independent basis, Debye):
    X=             -1.0349    Y=              2.3845    Z=             -2.4088  Tot=              3.5439
 Quadrupole moment (field-independent basis, Debye-Ang):
   XX=            -48.6326   YY=            -59.6815   ZZ=            -62.0146
   XY=             -4.3736   XZ=             -5.0484   YZ=             -0.4078
 Traceless Quadrupole moment (field-independent basis, Debye-Ang):
   XX=              8.1436   YY=             -2.9052   ZZ=             -5.2384
   XY=             -4.3736   XZ=             -5.0484   YZ=             -0.4078
 Octapole moment (field-independent basis, Debye-Ang**2):
  XXX=             -5.9355  YYY=              6.4306  ZZZ=             -7.1713  XYY=              1.5800
  XXY=            -10.4332  XXZ=             -0.6045  XZZ=              1.7084  YZZ=             -3.4412
  YYZ=              1.6134  XYZ=              2.1569
 Hexadecapole moment (field-independent basis, Debye-Ang**3):
 XXXX=          -1210.2646 YYYY=           -649.8845 ZZZZ=           -194.8821 XXXY=            -21.2220
 XXXZ=             -1.8747 YYYX=             -7.6838 YYYZ=             -1.8755 ZZZX=            -17.3375
 ZZZY=              4.0439 XXYY=           -300.3884 XXZZ=           -242.5322 YYZZ=           -141.6220
 XXYZ=              2.2953 YYXZ=              1.9493 ZZXY=             -1.0763
 N-N= 5.666064476686D+02 E-N=-2.289606755736D+03  KE= 4.912395500481D+02
 1\1\GINC-NODE007\FOpt\RB3LYP\6-31G(d)\C6H12N2O2\MANAGER\11-Feb-2017\0\
 \# b3lyp/6-31G* Opt=(ModRedundant, maxcycles=1000, calcfc) geom=nocrow
 d\\Phi Psi fixed scan\\0,1\H,0.4038735082,4.0521570196,0.9623192235\C,
 1.1674321696,3.8279953169,0.2150177778\H,0.8106944186,4.1949584257,-0.
 7548169613\H,1.3013542435,2.7432293379,0.1447155891\C,2.4466092966,4.5
 638899278,0.5834601443\O,2.4404974174,5.6276739647,1.1874229237\N,3.61
 11119635,3.9275576465,0.2185919075\H,3.4963711016,3.1191339937,-0.3801
 932467\C,4.8980987216,4.6161951186,0.0576884847\H,5.5340671326,4.37511
 57585,0.9220853415\C,5.5896609804,4.1271538695,-1.2174216306\H,5.01420
 75677,4.4454760971,-2.0912125857\H,6.5948823738,4.5536250925,-1.292003
 7703\H,5.6865527403,3.0346204166,-1.2163128647\C,4.7306449844,6.153025
 5355,-0.0235410018\O,4.2048676136,6.677580868,-0.9948186476\N,5.380029
 5129,6.8542729382,0.9537964306\H,5.5260545153,6.3685519725,1.829076540
 2\C,5.2054402246,8.2979243069,1.0361386673\H,5.3022136373,8.7163791651
 ,0.0331332191\H,4.2158684899,8.5664320997,1.4274972504\H,5.9807673866,
 8.7185511285,1.6821772087\\Version=EM64L-G09RevA.02\State=1-A\HF=-495.
 8411688\RMSD=8.807e-09\RMSF=2.193e-03\Dipole=0.6528063,-1.1942968,0.30
 24962\Quadrupole=0.4570472,2.5996081,-3.0566552,3.8178066,3.2342978,4.
 4505169\PG=C01 [X(C6H12N2O2)]\\@


    THE DOUGHNUT CREED
 AS YOU RAMBLE ON THROUGH LIFE, BROTHER
 WHATEVER BE YOUR GOAL
 KEEP YOUR EYE UPON THE DOUGHNUT
 AND NOT UPON THE HOLE.
 Job cpu time:  0 days  1 hours 19 minutes 59.8 seconds.
 File lengths (MBytes):  RWF=    186 Int=      0 D2E=      0 Chk=      4 Scr=      2
 Normal termination of Gaussian 09 at Sat Feb 11 01:26:49 2017.
