 Entering Gaussian System, Link 0=g09
 Initial command:
 /home/steboss/Software/g09/l1.exe /home/steboss/projects/phi_psi_scan/alanine/MP2/225/5405/Gau-9778.inp -scrdir=/home/steboss/projects/phi_psi_scan/alanine/MP2/225/5405/
 Entering Link 1 = /home/steboss/Software/g09/l1.exe PID=      9780.
  
 Copyright (c) 1988,1990,1992,1993,1995,1998,2003,2009, Gaussian, Inc.
                  All Rights Reserved.
  
 This is part of the Gaussian(R) 09 program.  It is based on
 the Gaussian(R) 03 system (copyright 2003, Gaussian, Inc.),
 the Gaussian(R) 98 system (copyright 1998, Gaussian, Inc.),
 the Gaussian(R) 94 system (copyright 1995, Gaussian, Inc.),
 the Gaussian 92(TM) system (copyright 1992, Gaussian, Inc.),
 the Gaussian 90(TM) system (copyright 1990, Gaussian, Inc.),
 the Gaussian 88(TM) system (copyright 1988, Gaussian, Inc.),
 the Gaussian 86(TM) system (copyright 1986, Carnegie Mellon
 University), and the Gaussian 82(TM) system (copyright 1983,
 Carnegie Mellon University). Gaussian is a federally registered
 trademark of Gaussian, Inc.
  
 This software contains proprietary and confidential information,
 including trade secrets, belonging to Gaussian, Inc.
  
 This software is provided under written license and may be
 used, copied, transmitted, or stored only in accord with that
 written license.
  
 The following legend is applicable only to US Government
 contracts under FAR:
  
                    RESTRICTED RIGHTS LEGEND
  
 Use, reproduction and disclosure by the US Government is
 subject to restrictions as set forth in subparagraphs (a)
 and (c) of the Commercial Computer Software - Restricted
 Rights clause in FAR 52.227-19.
  
 Gaussian, Inc.
 340 Quinnipiac St., Bldg. 40, Wallingford CT 06492
  
  
 ---------------------------------------------------------------
 Warning -- This program may not be used in any manner that
 competes with the business of Gaussian, Inc. or will provide
 assistance to any competitor of Gaussian, Inc.  The licensee
 of this program is prohibited from giving any competitor of
 Gaussian, Inc. access to this program.  By using this program,
 the user acknowledges that Gaussian, Inc. is engaged in the
 business of creating and licensing software in the field of
 computational chemistry and represents and warrants to the
 licensee that it is not a competitor of Gaussian, Inc. and that
 it will not use this program in any manner prohibited above.
 ---------------------------------------------------------------
  

 Cite this work as:
 Gaussian 09, Revision A.02,
 M. J. Frisch, G. W. Trucks, H. B. Schlegel, G. E. Scuseria, 
 M. A. Robb, J. R. Cheeseman, G. Scalmani, V. Barone, B. Mennucci, 
 G. A. Petersson, H. Nakatsuji, M. Caricato, X. Li, H. P. Hratchian, 
 A. F. Izmaylov, J. Bloino, G. Zheng, J. L. Sonnenberg, M. Hada, 
 M. Ehara, K. Toyota, R. Fukuda, J. Hasegawa, M. Ishida, T. Nakajima, 
 Y. Honda, O. Kitao, H. Nakai, T. Vreven, J. A. Montgomery, Jr., 
 J. E. Peralta, F. Ogliaro, M. Bearpark, J. J. Heyd, E. Brothers, 
 K. N. Kudin, V. N. Staroverov, R. Kobayashi, J. Normand, 
 K. Raghavachari, A. Rendell, J. C. Burant, S. S. Iyengar, J. Tomasi, 
 M. Cossi, N. Rega, J. M. Millam, M. Klene, J. E. Knox, J. B. Cross, 
 V. Bakken, C. Adamo, J. Jaramillo, R. Gomperts, R. E. Stratmann, 
 O. Yazyev, A. J. Austin, R. Cammi, C. Pomelli, J. W. Ochterski, 
 R. L. Martin, K. Morokuma, V. G. Zakrzewski, G. A. Voth, 
 P. Salvador, J. J. Dannenberg, S. Dapprich, A. D. Daniels, 
 O. Farkas, J. B. Foresman, J. V. Ortiz, J. Cioslowski, 
 and D. J. Fox, Gaussian, Inc., Wallingford CT, 2009.
 
 ******************************************
 Gaussian 09:  EM64L-G09RevA.02 11-Jun-2009
                13-Feb-2017 
 ******************************************
 %chk=structure_210.chk
 %NProcShared=8
 Will use up to    8 processors via shared memory.
 -------------------
 #SP MP2/aug-cc-pVDZ
 -------------------
 1/38=1/1;
 2/12=2,17=6,18=5,40=1/2;
 3/5=16,7=10,11=9,16=1,25=1,30=1/1,2,3;
 4//1;
 5/5=2,38=5/2;
 8/10=1/1;
 9/16=-3/6;
 6/7=2,8=2,9=2,10=2/1;
 99/5=1,9=1/99;
 -------------------------------
 Single Point calculation at MP2
 -------------------------------
 Symbolic Z-matrix:
 Charge =  0 Multiplicity = 1
 H                     4.2882   -0.702    -0.3938 
 C                     3.2839   -1.1306   -0.3712 
 H                     3.2894   -1.9599    0.3461 
 H                     3.0329   -1.5289   -1.3591 
 C                     2.3044   -0.069     0.1036 
 O                     2.5994    0.7703    0.9452 
 N                     1.0638   -0.1084   -0.494 
 H                     0.7909   -1.0047   -0.8847 
 C                    -0.0439    0.6113    0.1294 
 H                     0.2246    0.7725    1.1834 
 C                    -0.2383    1.9894   -0.5194 
 H                    -0.5606    1.9035   -1.5626 
 H                    -0.9607    2.6068    0.03 
 H                     0.7173    2.5193   -0.4933 
 C                    -1.2643   -0.3322    0.1151 
 O                    -1.1128   -1.5516    0.1373 
 N                    -2.4867    0.2597    0.0397 
 H                    -2.5394    1.2669    0.0422 
 C                    -3.7258   -0.4982    0.093 
 H                    -3.4721   -1.5522   -0.0244 
 H                    -4.2423   -0.361     1.0511 
 H                    -4.396    -0.1927   -0.7175 
 
                          Input orientation:                          
 ---------------------------------------------------------------------
 Center     Atomic      Atomic             Coordinates (Angstroms)
 Number     Number       Type             X           Y           Z
 ---------------------------------------------------------------------
      1          1           0        4.288200   -0.702000   -0.393800
      2          6           0        3.283900   -1.130600   -0.371200
      3          1           0        3.289400   -1.959900    0.346100
      4          1           0        3.032900   -1.528900   -1.359100
      5          6           0        2.304400   -0.069000    0.103600
      6          8           0        2.599400    0.770300    0.945200
      7          7           0        1.063800   -0.108400   -0.494000
      8          1           0        0.790900   -1.004700   -0.884700
      9          6           0       -0.043900    0.611300    0.129400
     10          1           0        0.224600    0.772500    1.183400
     11          6           0       -0.238300    1.989400   -0.519400
     12          1           0       -0.560600    1.903500   -1.562600
     13          1           0       -0.960700    2.606800    0.030000
     14          1           0        0.717300    2.519300   -0.493300
     15          6           0       -1.264300   -0.332200    0.115100
     16          8           0       -1.112800   -1.551600    0.137300
     17          7           0       -2.486700    0.259700    0.039700
     18          1           0       -2.539400    1.266900    0.042200
     19          6           0       -3.725800   -0.498200    0.093000
     20          1           0       -3.472100   -1.552200   -0.024400
     21          1           0       -4.242300   -0.361000    1.051100
     22          1           0       -4.396000   -0.192700   -0.717500
 ---------------------------------------------------------------------
                    Distance matrix (angstroms):
                    1          2          3          4          5
     1  H    0.000000
     2  C    1.092166   0.000000
     3  H    1.768436   1.096489   0.000000
     4  H    1.786434   1.094345   1.777431   0.000000
     5  C    2.140925   1.520477   2.145818   2.191235   0.000000
     6  O    2.610102   2.411404   2.879065   3.283906   1.224639
     7  N    3.280115   2.447206   3.014484   2.577513   1.377594
     8  H    3.544533   2.548447   2.944449   2.350831   2.035425
     9  C    4.556927   3.789336   4.215319   4.032715   2.444992
    10  H    4.601582   3.924014   4.190475   4.432527   2.489911
    11  C    5.267695   4.707681   5.365699   4.876913   3.330235
    12  H    5.627218   5.040375   5.778537   4.973532   3.856839
    13  H    6.219221   5.669722   6.246440   5.914597   4.222109
    14  H    4.810198   4.463644   5.232927   4.743368   3.094265
    15  C    5.588022   4.643280   4.841379   4.698009   3.578411
    16  O    5.493149   4.445985   4.426022   4.407557   3.725117
    17  N    6.856534   5.949924   6.195469   5.968393   4.802787
    18  H    7.119184   6.311080   6.669296   6.389888   5.025017
    19  C    8.031358   7.053461   7.170332   6.989346   6.045464
    20  H    7.815469   6.778020   6.783905   6.640557   5.965251
    21  H    8.658721   7.697981   7.731753   7.752521   6.621352
    22  H    8.705142   7.744704   7.957362   7.575331   6.751657
                    6          7          8          9         10
     6  O    0.000000
     7  N    2.280675   0.000000
     8  H    3.125673   1.015123   0.000000
     9  C    2.770893   1.460683   2.082485   0.000000
    10  H    2.386717   2.072176   2.784991   1.099542   0.000000
    11  C    3.418157   2.469185   3.187057   1.535543   2.143513
    12  H    4.190323   2.797914   3.277763   2.190804   3.071842
    13  H    4.109092   3.427169   4.116760   2.198277   2.469802
    14  H    2.944585   2.650447   3.546433   2.146543   2.470908
    15  C    4.102773   2.416845   2.382373   1.542651   2.139731
    16  O    4.452454   2.686811   2.228824   2.412622   2.878264
    17  N    5.191248   3.609208   3.632614   2.469603   2.986999
    18  H    5.241115   3.893843   4.136449   2.581654   3.030918
    19  C    6.507188   4.841155   4.648980   3.845608   4.290607
    20  H    6.572461   4.783249   4.383268   4.056716   4.530850
    21  H    6.935410   5.532254   5.430909   4.406979   4.610371
    22  H    7.254486   5.465023   5.252736   4.506044   5.088711
                   11         12         13         14         15
    11  C    0.000000
    12  H    1.095227   0.000000
    13  H    1.097672   1.786361   0.000000
    14  H    1.092999   1.776412   1.759882   0.000000
    15  C    2.616313   2.882399   2.955865   3.525329   0.000000
    16  O    3.706034   3.890026   4.162564   4.507677   1.228976
    17  N    2.891325   2.996549   2.799580   3.956703   1.360255
    18  H    2.476381   2.626079   2.070694   3.530065   2.046537
    19  C    4.327337   4.304377   4.158217   5.402795   2.467190
    20  H    4.821350   4.773338   4.858742   5.860721   2.526310
    21  H    4.901313   5.051168   4.540857   5.939607   3.121764
    22  H    4.699710   4.451802   4.494134   5.792327   3.243490
                   16         17         18         19         20
    16  O    0.000000
    17  N    2.275508   0.000000
    18  H    3.160407   1.008581   0.000000
    19  C    2.817691   1.453486   2.127370   0.000000
    20  H    2.364835   2.063517   2.970133   1.090441   0.000000
    21  H    3.470782   2.119040   2.562773   1.097065   1.780131
    22  H    3.654681   2.103199   2.480834   1.095175   1.783878
                   21         22
    21  H    0.000000
    22  H    1.783226   0.000000
 Stoichiometry    C6H12N2O2
 Framework group  C1[X(C6H12N2O2)]
 Deg. of freedom    60
 Full point group                 C1      NOp   1
 Largest Abelian subgroup         C1      NOp   1
 Largest concise Abelian subgroup C1      NOp   1
                         Standard orientation:                         
 ---------------------------------------------------------------------
 Center     Atomic      Atomic             Coordinates (Angstroms)
 Number     Number       Type             X           Y           Z
 ---------------------------------------------------------------------
      1          1           0        4.288200   -0.701950   -0.393804
      2          6           0        3.283906   -1.130563   -0.371204
      3          1           0        3.289417   -1.959863    0.346096
      4          1           0        3.032911   -1.528866   -1.359104
      5          6           0        2.304392   -0.068976    0.103596
      6          8           0        2.599381    0.770328    0.945196
      7          7           0        1.063792   -0.108392   -0.494004
      8          1           0        0.790904   -1.004696   -0.884704
      9          6           0       -0.043917    0.611293    0.129396
     10          1           0        0.224581    0.772497    1.183396
     11          6           0       -0.238335    1.989390   -0.519404
     12          1           0       -0.560634    1.903486   -1.562604
     13          1           0       -0.960744    2.606781    0.029996
     14          1           0        0.717258    2.519303   -0.493304
     15          6           0       -1.264305   -0.332223    0.115096
     16          8           0       -1.112788   -1.551621    0.137296
     17          7           0       -2.486712    0.259661    0.039696
     18          1           0       -2.539426    1.266860    0.042196
     19          6           0       -3.725802   -0.498256    0.092996
     20          1           0       -3.472088   -1.552252   -0.024404
     21          1           0       -4.242304   -0.361063    1.051096
     22          1           0       -4.396006   -0.192765   -0.717504
 ---------------------------------------------------------------------
 Rotational constants (GHZ):      2.7759706      0.6832922      0.5893608
 Standard basis: Aug-CC-pVDZ (5D, 7F)
 There are   338 symmetry adapted basis functions of A   symmetry.
 Integral buffers will be    131072 words long.
 Raffenetti 1 integral format.
 Two-electron integral symmetry is turned on.
   338 basis functions,   562 primitive gaussians,   358 cartesian basis functions
    39 alpha electrons       39 beta electrons
       nuclear repulsion energy       549.7817046013 Hartrees.
 NAtoms=   22 NActive=   22 NUniq=   22 SFac= 7.50D-01 NAtFMM=   80 NAOKFM=F Big=F
 One-electron integrals computed using PRISM.
 NBasis=   338 RedAO= T  NBF=   338
 NBsUse=   338 1.00D-06 NBFU=   338
 Harris functional with IExCor=  205 diagonalized for initial guess.
 ExpMin= 2.97D-02 ExpMax= 1.17D+04 ExpMxC= 4.01D+02 IAcc=3 IRadAn=         0 AccDes= 0.00D+00
 HarFok:  IExCor=  205 AccDes= 0.00D+00 IRadAn=         0 IDoV= 1
 ScaDFX=  1.000000  1.000000  1.000000  1.000000
 FoFCou: FMM=F IPFlag=           0 FMFlag=      100000 FMFlg1=           0
         NFxFlg=           0 DoJE=T BraDBF=F KetDBF=T FulRan=T
         Omega=  0.000000  0.000000  1.000000  0.000000  0.000000 ICntrl=     500 IOpCl=  0
         NMat0=    1 NMatS0=    1 NMatT0=    0 NMatD0=    1 NMtDS0=    0 NMtDT0=    0
         I1Cent=           4 NGrid=           0.
 Petite list used in FoFCou.
 Initial guess orbital symmetries:
       Occupied  (A) (A) (A) (A) (A) (A) (A) (A) (A) (A) (A) (A)
                 (A) (A) (A) (A) (A) (A) (A) (A) (A) (A) (A) (A)
                 (A) (A) (A) (A) (A) (A) (A) (A) (A) (A) (A) (A)
                 (A) (A) (A)
       Virtual   (A) (A) (A) (A) (A) (A) (A) (A) (A) (A) (A) (A)
                 (A) (A) (A) (A) (A) (A) (A) (A) (A) (A) (A) (A)
                 (A) (A) (A) (A) (A) (A) (A) (A) (A) (A) (A) (A)
                 (A) (A) (A) (A) (A) (A) (A) (A) (A) (A) (A) (A)
                 (A) (A) (A) (A) (A) (A) (A) (A) (A) (A) (A) (A)
                 (A) (A) (A) (A) (A) (A) (A) (A) (A) (A) (A) (A)
                 (A) (A) (A) (A) (A) (A) (A) (A) (A) (A) (A) (A)
                 (A) (A) (A) (A) (A) (A) (A) (A) (A) (A) (A) (A)
                 (A) (A) (A) (A) (A) (A) (A) (A) (A) (A) (A) (A)
                 (A) (A) (A) (A) (A) (A) (A) (A) (A) (A) (A) (A)
                 (A) (A) (A) (A) (A) (A) (A) (A) (A) (A) (A) (A)
                 (A) (A) (A) (A) (A) (A) (A) (A) (A) (A) (A) (A)
                 (A) (A) (A) (A) (A) (A) (A) (A) (A) (A) (A) (A)
                 (A) (A) (A) (A) (A) (A) (A) (A) (A) (A) (A) (A)
                 (A) (A) (A) (A) (A) (A) (A) (A) (A) (A) (A) (A)
                 (A) (A) (A) (A) (A) (A) (A) (A) (A) (A) (A) (A)
                 (A) (A) (A) (A) (A) (A) (A) (A) (A) (A) (A) (A)
                 (A) (A) (A) (A) (A) (A) (A) (A) (A) (A) (A) (A)
                 (A) (A) (A) (A) (A) (A) (A) (A) (A) (A) (A) (A)
                 (A) (A) (A) (A) (A) (A) (A) (A) (A) (A) (A) (A)
                 (A) (A) (A) (A) (A) (A) (A) (A) (A) (A) (A) (A)
                 (A) (A) (A) (A) (A) (A) (A) (A) (A) (A) (A) (A)
                 (A) (A) (A) (A) (A) (A) (A) (A) (A) (A) (A) (A)
                 (A) (A) (A) (A) (A) (A) (A) (A) (A) (A) (A) (A)
                 (A) (A) (A) (A) (A) (A) (A) (A) (A) (A) (A)
 The electronic state of the initial guess is 1-A.
 Requested convergence on RMS density matrix=1.00D-08 within 128 cycles.
 Requested convergence on MAX density matrix=1.00D-06.
 Requested convergence on             energy=1.00D-06.
 No special actions if energy rises.
 Initial convergence to 1.0D-05 achieved.  Increase integral accuracy.
 SCF Done:  E(RHF) =  -492.923761862     A.U. after   14 cycles
             Convg  =    0.7268D-08             -V/T =  2.0017
 ExpMin= 2.97D-02 ExpMax= 1.17D+04 ExpMxC= 4.01D+02 IAcc=3 IRadAn=         5 AccDes= 0.00D+00
 HarFok:  IExCor=  205 AccDes= 0.00D+00 IRadAn=         5 IDoV=-2
 ScaDFX=  1.000000  1.000000  1.000000  1.000000
 Range of M.O.s used for correlation:    11   338
 NBasis=   338 NAE=    39 NBE=    39 NFC=    10 NFV=     0
 NROrb=    328 NOA=    29 NOB=    29 NVA=   299 NVB=   299

 **** Warning!!: The largest alpha MO coefficient is  0.76977536D+02

 Disk-based method using OVN memory for 29 occupieds at a time.
 Estimated scratch disk usage=  1373557567 words.
 Actual    scratch disk usage=  1360779752 words.
 JobTyp=1 Pass  1:  I=   1 to  29 NPSUse=  8 ParTrn=T ParDer=T DoDerP=F.
 Spin components of T(2) and E(2):
     alpha-alpha T2 =       0.6795407028D-01 E2=     -0.2058732218D+00
     alpha-beta  T2 =       0.3762638828D+00 E2=     -0.1189636349D+01
     beta-beta   T2 =       0.6795407028D-01 E2=     -0.2058732218D+00
 ANorm=    0.1229704039D+01
 E2 =    -0.1601382793D+01 EUMP2 =    -0.49452514465466D+03

 **********************************************************************

            Population analysis using the SCF density.

 **********************************************************************

 Orbital symmetries:
       Occupied  (A) (A) (A) (A) (A) (A) (A) (A) (A) (A) (A) (A)
                 (A) (A) (A) (A) (A) (A) (A) (A) (A) (A) (A) (A)
                 (A) (A) (A) (A) (A) (A) (A) (A) (A) (A) (A) (A)
                 (A) (A) (A)
       Virtual   (A) (A) (A) (A) (A) (A) (A) (A) (A) (A) (A) (A)
                 (A) (A) (A) (A) (A) (A) (A) (A) (A) (A) (A) (A)
                 (A) (A) (A) (A) (A) (A) (A) (A) (A) (A) (A) (A)
                 (A) (A) (A) (A) (A) (A) (A) (A) (A) (A) (A) (A)
                 (A) (A) (A) (A) (A) (A) (A) (A) (A) (A) (A) (A)
                 (A) (A) (A) (A) (A) (A) (A) (A) (A) (A) (A) (A)
                 (A) (A) (A) (A) (A) (A) (A) (A) (A) (A) (A) (A)
                 (A) (A) (A) (A) (A) (A) (A) (A) (A) (A) (A) (A)
                 (A) (A) (A) (A) (A) (A) (A) (A) (A) (A) (A) (A)
                 (A) (A) (A) (A) (A) (A) (A) (A) (A) (A) (A) (A)
                 (A) (A) (A) (A) (A) (A) (A) (A) (A) (A) (A) (A)
                 (A) (A) (A) (A) (A) (A) (A) (A) (A) (A) (A) (A)
                 (A) (A) (A) (A) (A) (A) (A) (A) (A) (A) (A) (A)
                 (A) (A) (A) (A) (A) (A) (A) (A) (A) (A) (A) (A)
                 (A) (A) (A) (A) (A) (A) (A) (A) (A) (A) (A) (A)
                 (A) (A) (A) (A) (A) (A) (A) (A) (A) (A) (A) (A)
                 (A) (A) (A) (A) (A) (A) (A) (A) (A) (A) (A) (A)
                 (A) (A) (A) (A) (A) (A) (A) (A) (A) (A) (A) (A)
                 (A) (A) (A) (A) (A) (A) (A) (A) (A) (A) (A) (A)
                 (A) (A) (A) (A) (A) (A) (A) (A) (A) (A) (A) (A)
                 (A) (A) (A) (A) (A) (A) (A) (A) (A) (A) (A) (A)
                 (A) (A) (A) (A) (A) (A) (A) (A) (A) (A) (A) (A)
                 (A) (A) (A) (A) (A) (A) (A) (A) (A) (A) (A) (A)
                 (A) (A) (A) (A) (A) (A) (A) (A) (A) (A) (A) (A)
                 (A) (A) (A) (A) (A) (A) (A) (A) (A) (A) (A)
 The electronic state is 1-A.
 Alpha  occ. eigenvalues --  -20.54025 -20.53090 -15.60652 -15.58776 -11.37070
 Alpha  occ. eigenvalues --  -11.35890 -11.29279 -11.27587 -11.24240 -11.24180
 Alpha  occ. eigenvalues --   -1.39665  -1.38193  -1.24383  -1.23306  -1.05523
 Alpha  occ. eigenvalues --   -0.99125  -0.96075  -0.88775  -0.80148  -0.77999
 Alpha  occ. eigenvalues --   -0.73157  -0.67309  -0.65677  -0.65464  -0.62731
 Alpha  occ. eigenvalues --   -0.61775  -0.59383  -0.58987  -0.56742  -0.56364
 Alpha  occ. eigenvalues --   -0.55364  -0.54394  -0.53658  -0.52506  -0.49064
 Alpha  occ. eigenvalues --   -0.43286  -0.42371  -0.40345  -0.39959
 Alpha virt. eigenvalues --    0.02788   0.03954   0.04395   0.04453   0.05839
 Alpha virt. eigenvalues --    0.06020   0.06239   0.06872   0.07341   0.07812
 Alpha virt. eigenvalues --    0.09078   0.09963   0.11332   0.12094   0.12661
 Alpha virt. eigenvalues --    0.13309   0.14211   0.14800   0.14988   0.15227
 Alpha virt. eigenvalues --    0.15420   0.15891   0.16389   0.16636   0.17025
 Alpha virt. eigenvalues --    0.17640   0.18380   0.18494   0.18904   0.19218
 Alpha virt. eigenvalues --    0.19786   0.20091   0.20901   0.21703   0.21918
 Alpha virt. eigenvalues --    0.23678   0.24161   0.24605   0.25541   0.25899
 Alpha virt. eigenvalues --    0.27220   0.27997   0.29080   0.29570   0.30064
 Alpha virt. eigenvalues --    0.31013   0.31618   0.32394   0.32530   0.33897
 Alpha virt. eigenvalues --    0.34375   0.34594   0.35344   0.35667   0.36573
 Alpha virt. eigenvalues --    0.37118   0.37421   0.38099   0.38714   0.39420
 Alpha virt. eigenvalues --    0.40659   0.41499   0.42064   0.42858   0.43445
 Alpha virt. eigenvalues --    0.43821   0.44290   0.44557   0.45474   0.45818
 Alpha virt. eigenvalues --    0.46017   0.47088   0.47791   0.48169   0.48919
 Alpha virt. eigenvalues --    0.49487   0.50211   0.50981   0.51486   0.52085
 Alpha virt. eigenvalues --    0.52592   0.53629   0.54149   0.55315   0.55945
 Alpha virt. eigenvalues --    0.56070   0.57116   0.57581   0.58274   0.59056
 Alpha virt. eigenvalues --    0.59717   0.59888   0.60194   0.60855   0.61997
 Alpha virt. eigenvalues --    0.62493   0.63180   0.64559   0.64737   0.65006
 Alpha virt. eigenvalues --    0.65478   0.66638   0.67116   0.67465   0.68467
 Alpha virt. eigenvalues --    0.69652   0.69938   0.70873   0.71258   0.71614
 Alpha virt. eigenvalues --    0.72524   0.73236   0.73619   0.73969   0.75110
 Alpha virt. eigenvalues --    0.76337   0.77341   0.77683   0.78273   0.79463
 Alpha virt. eigenvalues --    0.80383   0.81079   0.81967   0.82179   0.82970
 Alpha virt. eigenvalues --    0.83305   0.84866   0.85524   0.86317   0.88965
 Alpha virt. eigenvalues --    0.89827   0.90430   0.91446   0.93313   0.93979
 Alpha virt. eigenvalues --    0.94354   0.95989   0.97021   0.97779   0.98375
 Alpha virt. eigenvalues --    0.99254   1.00728   1.02481   1.03738   1.05276
 Alpha virt. eigenvalues --    1.06948   1.07274   1.07665   1.10073   1.10569
 Alpha virt. eigenvalues --    1.11447   1.12387   1.14151   1.15367   1.16269
 Alpha virt. eigenvalues --    1.16692   1.17735   1.19062   1.20884   1.21970
 Alpha virt. eigenvalues --    1.23110   1.24699   1.26734   1.27494   1.28371
 Alpha virt. eigenvalues --    1.31323   1.33211   1.33602   1.34608   1.36061
 Alpha virt. eigenvalues --    1.41014   1.44422   1.44861   1.46252   1.47296
 Alpha virt. eigenvalues --    1.49484   1.50220   1.51440   1.53829   1.55011
 Alpha virt. eigenvalues --    1.56547   1.58321   1.61155   1.63558   1.64548
 Alpha virt. eigenvalues --    1.65024   1.66198   1.69119   1.70430   1.72702
 Alpha virt. eigenvalues --    1.74057   1.75869   1.77869   1.78945   1.79733
 Alpha virt. eigenvalues --    1.81388   1.82662   1.84273   1.85470   1.86786
 Alpha virt. eigenvalues --    1.89275   1.89467   1.90977   1.91399   1.94167
 Alpha virt. eigenvalues --    1.94881   1.96916   1.97866   1.99251   2.00761
 Alpha virt. eigenvalues --    2.01957   2.02834   2.04092   2.04674   2.07159
 Alpha virt. eigenvalues --    2.07543   2.10560   2.12033   2.13646   2.15171
 Alpha virt. eigenvalues --    2.17190   2.19988   2.20055   2.20925   2.23117
 Alpha virt. eigenvalues --    2.24009   2.26560   2.27161   2.28013   2.29698
 Alpha virt. eigenvalues --    2.31086   2.33071   2.34813   2.36474   2.36845
 Alpha virt. eigenvalues --    2.37811   2.40115   2.41458   2.43138   2.44089
 Alpha virt. eigenvalues --    2.44960   2.46296   2.47412   2.49387   2.51227
 Alpha virt. eigenvalues --    2.52007   2.53856   2.57016   2.58436   2.58926
 Alpha virt. eigenvalues --    2.62747   2.63650   2.65906   2.67652   2.70102
 Alpha virt. eigenvalues --    2.71632   2.73253   2.74503   2.77352   2.79083
 Alpha virt. eigenvalues --    2.80445   2.83670   2.85531   2.85903   2.87495
 Alpha virt. eigenvalues --    2.90387   2.91464   2.93529   2.96403   2.98171
 Alpha virt. eigenvalues --    2.99903   3.01398   3.02536   3.04768   3.07247
 Alpha virt. eigenvalues --    3.09518   3.12094   3.19008   3.20845   3.21488
 Alpha virt. eigenvalues --    3.27420   3.30823   3.44078   3.47831   3.53542
 Alpha virt. eigenvalues --    3.57983   3.66167   3.74468   3.83844   3.84244
 Alpha virt. eigenvalues --    3.85859   3.86893   3.95911   3.97837   4.01699
 Alpha virt. eigenvalues --    4.04357   4.14711   4.21004   4.24024
          Condensed to atoms (all electrons):
              1          2          3          4          5          6
     1  H    0.786867   0.383374  -0.045701  -0.102183  -0.083984   0.031159
     2  C    0.383374   4.488742   0.350787   0.348991   0.205114  -0.051153
     3  H   -0.045701   0.350787   0.688622  -0.064379  -0.032761   0.013943
     4  H   -0.102183   0.348991  -0.064379   0.979528   0.037702  -0.004018
     5  C   -0.083984   0.205114  -0.032761   0.037702   5.166698   0.224558
     6  O    0.031159  -0.051153   0.013943  -0.004018   0.224558   8.701012
     7  N    0.048328  -0.035560   0.014080  -0.131355   0.132282  -0.114719
     8  H   -0.004146  -0.043654  -0.004893   0.019480  -0.066596   0.002263
     9  C    0.000100   0.000661  -0.004569   0.005965   0.025748  -0.020808
    10  H   -0.000444  -0.004770   0.000994   0.000741   0.055439  -0.027595
    11  C   -0.001139  -0.009811  -0.001982  -0.004960  -0.040249   0.038973
    12  H   -0.000015  -0.000172  -0.000006   0.000127   0.016350  -0.004687
    13  H   -0.000044  -0.001987  -0.000144  -0.001005  -0.035935   0.006703
    14  H   -0.000357   0.009731  -0.000045   0.001818   0.039786   0.015546
    15  C    0.001036   0.000297   0.011028  -0.016337  -0.132960   0.012465
    16  O   -0.000503   0.003761   0.000181   0.003007   0.006185  -0.001766
    17  N   -0.000418  -0.003442  -0.000437   0.000905  -0.006102   0.004530
    18  H    0.000069   0.000117   0.000023  -0.000337  -0.000201  -0.000869
    19  C   -0.000103  -0.000413   0.000078   0.000236  -0.010140   0.001530
    20  H   -0.000006   0.000163   0.000060  -0.000032  -0.001776   0.000201
    21  H    0.000004   0.000070   0.000003   0.000035   0.001574   0.000030
    22  H   -0.000006   0.000035   0.000005   0.000024  -0.001156   0.000085
              7          8          9         10         11         12
     1  H    0.048328  -0.004146   0.000100  -0.000444  -0.001139  -0.000015
     2  C   -0.035560  -0.043654   0.000661  -0.004770  -0.009811  -0.000172
     3  H    0.014080  -0.004893  -0.004569   0.000994  -0.001982  -0.000006
     4  H   -0.131355   0.019480   0.005965   0.000741  -0.004960   0.000127
     5  C    0.132282  -0.066596   0.025748   0.055439  -0.040249   0.016350
     6  O   -0.114719   0.002263  -0.020808  -0.027595   0.038973  -0.004687
     7  N    7.570120   0.323249  -0.428144  -0.106425   0.032201  -0.087731
     8  H    0.323249   0.861480  -0.107063   0.023811  -0.008914   0.011052
     9  C   -0.428144  -0.107063   6.969049   0.295013   0.266781   0.058722
    10  H   -0.106425   0.023811   0.295013   1.039400  -0.106885   0.064695
    11  C    0.032201  -0.008914   0.266781  -0.106885   4.246002   0.222871
    12  H   -0.087731   0.011052   0.058722   0.064695   0.222871   1.132222
    13  H    0.116208   0.005780  -0.233135  -0.098876   0.294324  -0.156415
    14  H   -0.047552  -0.012551   0.056295  -0.025896   0.372302  -0.213187
    15  C    0.167756  -0.029883  -0.678458  -0.139277  -0.093398  -0.005683
    16  O   -0.013035   0.026054   0.013507   0.008083   0.004448  -0.003766
    17  N    0.019148   0.013496  -0.033672   0.026351   0.008155   0.005821
    18  H    0.004314  -0.000799  -0.045175  -0.002024  -0.010549  -0.002627
    19  C   -0.007865  -0.003249  -0.047118   0.001023   0.011473  -0.002369
    20  H   -0.000370  -0.000282  -0.025478  -0.000481  -0.004336  -0.000474
    21  H    0.001513   0.000768   0.032718  -0.001575  -0.004423  -0.000779
    22  H   -0.000964  -0.001951  -0.027488   0.000071   0.017252  -0.000053
             13         14         15         16         17         18
     1  H   -0.000044  -0.000357   0.001036  -0.000503  -0.000418   0.000069
     2  C   -0.001987   0.009731   0.000297   0.003761  -0.003442   0.000117
     3  H   -0.000144  -0.000045   0.011028   0.000181  -0.000437   0.000023
     4  H   -0.001005   0.001818  -0.016337   0.003007   0.000905  -0.000337
     5  C   -0.035935   0.039786  -0.132960   0.006185  -0.006102  -0.000201
     6  O    0.006703   0.015546   0.012465  -0.001766   0.004530  -0.000869
     7  N    0.116208  -0.047552   0.167756  -0.013035   0.019148   0.004314
     8  H    0.005780  -0.012551  -0.029883   0.026054   0.013496  -0.000799
     9  C   -0.233135   0.056295  -0.678458   0.013507  -0.033672  -0.045175
    10  H   -0.098876  -0.025896  -0.139277   0.008083   0.026351  -0.002024
    11  C    0.294324   0.372302  -0.093398   0.004448   0.008155  -0.010549
    12  H   -0.156415  -0.213187  -0.005683  -0.003766   0.005821  -0.002627
    13  H    1.175594  -0.184967   0.118406  -0.003433  -0.029125   0.027901
    14  H   -0.184967   1.134033  -0.019498   0.002653  -0.001742  -0.000261
    15  C    0.118406  -0.019498   5.547391   0.232526   0.091772   0.011455
    16  O   -0.003433   0.002653   0.232526   8.766982  -0.156981   0.007189
    17  N   -0.029125  -0.001742   0.091772  -0.156981   7.199952   0.227959
    18  H    0.027901  -0.000261   0.011455   0.007189   0.227959   1.033994
    19  C   -0.005061   0.004740  -0.114938  -0.015835   0.273354  -0.135376
    20  H    0.002456  -0.000173   0.019526  -0.008272  -0.062111   0.005478
    21  H   -0.001217   0.000379  -0.038602   0.007533   0.041956  -0.002083
    22  H   -0.001207   0.001328  -0.000677   0.010303  -0.103146   0.006301
             19         20         21         22
     1  H   -0.000103  -0.000006   0.000004  -0.000006
     2  C   -0.000413   0.000163   0.000070   0.000035
     3  H    0.000078   0.000060   0.000003   0.000005
     4  H    0.000236  -0.000032   0.000035   0.000024
     5  C   -0.010140  -0.001776   0.001574  -0.001156
     6  O    0.001530   0.000201   0.000030   0.000085
     7  N   -0.007865  -0.000370   0.001513  -0.000964
     8  H   -0.003249  -0.000282   0.000768  -0.001951
     9  C   -0.047118  -0.025478   0.032718  -0.027488
    10  H    0.001023  -0.000481  -0.001575   0.000071
    11  C    0.011473  -0.004336  -0.004423   0.017252
    12  H   -0.002369  -0.000474  -0.000779  -0.000053
    13  H   -0.005061   0.002456  -0.001217  -0.001207
    14  H    0.004740  -0.000173   0.000379   0.001328
    15  C   -0.114938   0.019526  -0.038602  -0.000677
    16  O   -0.015835  -0.008272   0.007533   0.010303
    17  N    0.273354  -0.062111   0.041956  -0.103146
    18  H   -0.135376   0.005478  -0.002083   0.006301
    19  C    4.164912   0.499282   0.276632   0.383429
    20  H    0.499282   0.984652  -0.107429  -0.152549
    21  H    0.276632  -0.107429   1.021019  -0.152546
    22  H    0.383429  -0.152549  -0.152546   1.150010
 Mulliken atomic charges:
              1
     1  H   -0.011887
     2  C    0.359123
     3  H    0.075111
     4  H   -0.073952
     5  C    0.500424
     6  O   -0.827385
     7  N   -0.455481
     8  H   -0.003451
     9  C   -0.073450
    10  H   -0.001374
    11  C    0.771863
    12  H   -0.033895
    13  H    0.005179
    14  H   -0.132381
    15  C    1.056056
    16  O   -0.888821
    17  N   -0.516223
    18  H   -0.124500
    19  C    0.725776
    20  H   -0.148051
    21  H   -0.075580
    22  H   -0.127100
 Sum of Mulliken atomic charges =   0.00000
 Mulliken charges with hydrogens summed into heavy atoms:
              1
     2  C    0.348394
     5  C    0.500424
     6  O   -0.827385
     7  N   -0.458932
     9  C   -0.074824
    11  C    0.610766
    15  C    1.056056
    16  O   -0.888821
    17  N   -0.640723
    19  C    0.375045
 Sum of Mulliken charges with hydrogens summed into heavy atoms =   0.00000
 Electronic spatial extent (au):  <R**2>=           1962.2043
 Charge=              0.0000 electrons
 Dipole moment (field-independent basis, Debye):
    X=             -3.1188    Y=              0.9155    Z=             -2.0010  Tot=              3.8169
 Quadrupole moment (field-independent basis, Debye-Ang):
   XX=            -54.9384   YY=            -63.5160   ZZ=            -63.3423
   XY=            -11.6843   XZ=             -6.1452   YZ=             -0.2351
 Traceless Quadrupole moment (field-independent basis, Debye-Ang):
   XX=              5.6605   YY=             -2.9171   ZZ=             -2.7434
   XY=            -11.6843   XZ=             -6.1452   YZ=             -0.2351
 Octapole moment (field-independent basis, Debye-Ang**2):
  XXX=            -40.3029  YYY=              7.7594  ZZZ=              0.4380  XYY=              0.7095
  XXY=            -17.8034  XXZ=            -15.6494  XZZ=             -6.7802  YZZ=             -4.4804
  YYZ=             -2.5140  XYZ=             -5.4645
 Hexadecapole moment (field-independent basis, Debye-Ang**3):
 XXXX=          -1805.2642 YYYY=           -486.2138 ZZZZ=           -153.2874 XXXY=            -49.7588
 XXXZ=            -48.5411 YYYX=            -15.8114 YYYZ=              4.5018 ZZZX=             -2.7083
 ZZZY=              2.7861 XXYY=           -397.2170 XXZZ=           -368.0089 YYZZ=           -105.6640
 XXYZ=            -14.6610 YYXZ=             -2.4095 ZZXY=             -6.8479
 N-N= 5.497817046013D+02 E-N=-2.254759110757D+03  KE= 4.920785476361D+02
 1\1\GINC-NODE012\SP\RMP2-FC\Aug-CC-pVDZ\C6H12N2O2\MANAGER\13-Feb-2017\
 0\\#SP MP2/aug-cc-pVDZ\\Single Point calculation at MP2\\0,1\H,0,4.288
 2,-0.702,-0.3938\C,0,3.2839,-1.1306,-0.3712\H,0,3.2894,-1.9599,0.3461\
 H,0,3.0329,-1.5289,-1.3591\C,0,2.3044,-0.069,0.1036\O,0,2.5994,0.7703,
 0.9452\N,0,1.0638,-0.1084,-0.494\H,0,0.7909,-1.0047,-0.8847\C,0,-0.043
 9,0.6113,0.1294\H,0,0.2246,0.7725,1.1834\C,0,-0.2383,1.9894,-0.5194\H,
 0,-0.5606,1.9035,-1.5626\H,0,-0.9607,2.6068,0.03\H,0,0.7173,2.5193,-0.
 4933\C,0,-1.2643,-0.3322,0.1151\O,0,-1.1128,-1.5516,0.1373\N,0,-2.4867
 ,0.2597,0.0397\H,0,-2.5394,1.2669,0.0422\C,0,-3.7258,-0.4982,0.093\H,0
 ,-3.4721,-1.5522,-0.0244\H,0,-4.2423,-0.361,1.0511\H,0,-4.396,-0.1927,
 -0.7175\\Version=EM64L-G09RevA.02\State=1-A\HF=-492.9237619\MP2=-494.5
 251447\RMSD=7.268e-09\PG=C01 [X(C6H12N2O2)]\\@


  DISAPPOINTMENT IS THE NURSE OF WISDOM.               
                              SIR BOYLE ROCHE                 
 Job cpu time:  0 days  9 hours 26 minutes 56.8 seconds.
 File lengths (MBytes):  RWF=  10498 Int=      0 D2E=      0 Chk=      7 Scr=      2
 Normal termination of Gaussian 09 at Mon Feb 13 05:58:39 2017.
