 Entering Gaussian System, Link 0=g09
 Initial command:
 /home/steboss/Software/g09/l1.exe /home/steboss/projects/phi_psi_scan/alanine/MP2/225/5407/Gau-30481.inp -scrdir=/home/steboss/projects/phi_psi_scan/alanine/MP2/225/5407/
 Entering Link 1 = /home/steboss/Software/g09/l1.exe PID=     30484.
  
 Copyright (c) 1988,1990,1992,1993,1995,1998,2003,2009, Gaussian, Inc.
                  All Rights Reserved.
  
 This is part of the Gaussian(R) 09 program.  It is based on
 the Gaussian(R) 03 system (copyright 2003, Gaussian, Inc.),
 the Gaussian(R) 98 system (copyright 1998, Gaussian, Inc.),
 the Gaussian(R) 94 system (copyright 1995, Gaussian, Inc.),
 the Gaussian 92(TM) system (copyright 1992, Gaussian, Inc.),
 the Gaussian 90(TM) system (copyright 1990, Gaussian, Inc.),
 the Gaussian 88(TM) system (copyright 1988, Gaussian, Inc.),
 the Gaussian 86(TM) system (copyright 1986, Carnegie Mellon
 University), and the Gaussian 82(TM) system (copyright 1983,
 Carnegie Mellon University). Gaussian is a federally registered
 trademark of Gaussian, Inc.
  
 This software contains proprietary and confidential information,
 including trade secrets, belonging to Gaussian, Inc.
  
 This software is provided under written license and may be
 used, copied, transmitted, or stored only in accord with that
 written license.
  
 The following legend is applicable only to US Government
 contracts under FAR:
  
                    RESTRICTED RIGHTS LEGEND
  
 Use, reproduction and disclosure by the US Government is
 subject to restrictions as set forth in subparagraphs (a)
 and (c) of the Commercial Computer Software - Restricted
 Rights clause in FAR 52.227-19.
  
 Gaussian, Inc.
 340 Quinnipiac St., Bldg. 40, Wallingford CT 06492
  
  
 ---------------------------------------------------------------
 Warning -- This program may not be used in any manner that
 competes with the business of Gaussian, Inc. or will provide
 assistance to any competitor of Gaussian, Inc.  The licensee
 of this program is prohibited from giving any competitor of
 Gaussian, Inc. access to this program.  By using this program,
 the user acknowledges that Gaussian, Inc. is engaged in the
 business of creating and licensing software in the field of
 computational chemistry and represents and warrants to the
 licensee that it is not a competitor of Gaussian, Inc. and that
 it will not use this program in any manner prohibited above.
 ---------------------------------------------------------------
  

 Cite this work as:
 Gaussian 09, Revision A.02,
 M. J. Frisch, G. W. Trucks, H. B. Schlegel, G. E. Scuseria, 
 M. A. Robb, J. R. Cheeseman, G. Scalmani, V. Barone, B. Mennucci, 
 G. A. Petersson, H. Nakatsuji, M. Caricato, X. Li, H. P. Hratchian, 
 A. F. Izmaylov, J. Bloino, G. Zheng, J. L. Sonnenberg, M. Hada, 
 M. Ehara, K. Toyota, R. Fukuda, J. Hasegawa, M. Ishida, T. Nakajima, 
 Y. Honda, O. Kitao, H. Nakai, T. Vreven, J. A. Montgomery, Jr., 
 J. E. Peralta, F. Ogliaro, M. Bearpark, J. J. Heyd, E. Brothers, 
 K. N. Kudin, V. N. Staroverov, R. Kobayashi, J. Normand, 
 K. Raghavachari, A. Rendell, J. C. Burant, S. S. Iyengar, J. Tomasi, 
 M. Cossi, N. Rega, J. M. Millam, M. Klene, J. E. Knox, J. B. Cross, 
 V. Bakken, C. Adamo, J. Jaramillo, R. Gomperts, R. E. Stratmann, 
 O. Yazyev, A. J. Austin, R. Cammi, C. Pomelli, J. W. Ochterski, 
 R. L. Martin, K. Morokuma, V. G. Zakrzewski, G. A. Voth, 
 P. Salvador, J. J. Dannenberg, S. Dapprich, A. D. Daniels, 
 O. Farkas, J. B. Foresman, J. V. Ortiz, J. Cioslowski, 
 and D. J. Fox, Gaussian, Inc., Wallingford CT, 2009.
 
 ******************************************
 Gaussian 09:  EM64L-G09RevA.02 11-Jun-2009
                13-Feb-2017 
 ******************************************
 %chk=structure_240.chk
 %NProcShared=8
 Will use up to    8 processors via shared memory.
 -------------------
 #SP MP2/aug-cc-pVDZ
 -------------------
 1/38=1/1;
 2/12=2,17=6,18=5,40=1/2;
 3/5=16,7=10,11=9,16=1,25=1,30=1/1,2,3;
 4//1;
 5/5=2,38=5/2;
 8/10=1/1;
 9/16=-3/6;
 6/7=2,8=2,9=2,10=2/1;
 99/5=1,9=1/99;
 -------------------------------
 Single Point calculation at MP2
 -------------------------------
 Symbolic Z-matrix:
 Charge =  0 Multiplicity = 1
 H                    -4.2151   -0.7302    0.7131 
 C                    -3.2094   -1.1486    0.6324 
 H                    -3.263    -2.0265   -0.0221 
 H                    -2.8692   -1.4735    1.6208 
 C                    -2.2946   -0.1127   -0.0018 
 O                    -2.6748    0.6559   -0.8749 
 N                    -1.0065   -0.0905    0.4844 
 H                    -0.7041   -0.9126    0.9915 
 C                     0.0338    0.6232   -0.2633 
 H                    -0.319     0.6993   -1.2986 
 C                     0.2203    2.045     0.2797 
 H                     0.5235    2.0432    1.3335 
 H                     0.9559    2.6065   -0.3096 
 H                    -0.7342    2.5729    0.2077 
 C                     1.278    -0.2868   -0.3083 
 O                     1.1943   -1.4194   -0.7717 
 N                     2.4192    0.207     0.2509 
 H                     2.4245    1.1589    0.5845 
 C                     3.6715   -0.53      0.243 
 H                     3.4551   -1.5385   -0.1113 
 H                     4.4069   -0.0664   -0.4261 
 H                     4.0954   -0.582     1.252 
 
                          Input orientation:                          
 ---------------------------------------------------------------------
 Center     Atomic      Atomic             Coordinates (Angstroms)
 Number     Number       Type             X           Y           Z
 ---------------------------------------------------------------------
      1          1           0       -4.215100   -0.730200    0.713100
      2          6           0       -3.209400   -1.148600    0.632400
      3          1           0       -3.263000   -2.026500   -0.022100
      4          1           0       -2.869200   -1.473500    1.620800
      5          6           0       -2.294600   -0.112700   -0.001800
      6          8           0       -2.674800    0.655900   -0.874900
      7          7           0       -1.006500   -0.090500    0.484400
      8          1           0       -0.704100   -0.912600    0.991500
      9          6           0        0.033800    0.623200   -0.263300
     10          1           0       -0.319000    0.699300   -1.298600
     11          6           0        0.220300    2.045000    0.279700
     12          1           0        0.523500    2.043200    1.333500
     13          1           0        0.955900    2.606500   -0.309600
     14          1           0       -0.734200    2.572900    0.207700
     15          6           0        1.278000   -0.286800   -0.308300
     16          8           0        1.194300   -1.419400   -0.771700
     17          7           0        2.419200    0.207000    0.250900
     18          1           0        2.424500    1.158900    0.584500
     19          6           0        3.671500   -0.530000    0.243000
     20          1           0        3.455100   -1.538500   -0.111300
     21          1           0        4.406900   -0.066400   -0.426100
     22          1           0        4.095400   -0.582000    1.252000
 ---------------------------------------------------------------------
                    Distance matrix (angstroms):
                    1          2          3          4          5
     1  H    0.000000
     2  C    1.092247   0.000000
     3  H    1.768448   1.096336   0.000000
     4  H    1.785458   1.094637   1.777641   0.000000
     5  C    2.140259   1.520578   2.144957   2.194259   0.000000
     6  O    2.610659   2.411218   2.875503   3.286435   1.223765
     7  N    3.279731   2.448315   3.016029   2.583359   1.376984
     8  H    3.526740   2.541885   2.969196   2.323421   2.038670
     9  C    4.564888   3.802618   4.236505   4.046405   2.455886
    10  H    4.611941   3.936738   4.210294   4.443813   2.498806
    11  C    5.249985   4.699609   5.366710   4.870667   3.325603
    12  H    5.525484   4.961217   5.721686   4.894909   3.791124
    13  H    6.238487   5.686639   6.272676   5.916438   4.249063
    14  H    4.825201   4.489604   5.253772   4.788364   3.113067
    15  C    5.604820   4.665230   4.871257   4.725352   3.589948
    16  O    5.651658   4.630054   4.560482   4.715826   3.804292
    17  N    6.716093   5.802097   6.111501   5.715582   4.731382
    18  H    6.904312   6.088323   6.546938   6.002225   4.922461
    19  C    7.903134   6.919616   7.099090   6.750502   5.985684
    20  H    7.756607   6.717192   6.736391   6.557527   5.924858
    21  H    8.722230   7.765282   7.926700   7.688391   6.715078
    22  H    8.329273   7.352893   7.606311   7.031105   6.528733
                    6          7          8          9         10
     6  O    0.000000
     7  N    2.277726   0.000000
     8  H    3.134852   1.012148   0.000000
     9  C    2.776984   1.466508   2.116058   0.000000
    10  H    2.393992   2.067735   2.826850   1.096406   0.000000
    11  C    3.412375   2.471295   3.179398   1.533345   2.143078
    12  H    4.126834   2.759447   3.218807   2.192254   3.073081
    13  H    4.160095   3.428594   4.102746   2.187668   2.498180
    14  H    2.934764   2.691544   3.572668   2.147788   2.439612
    15  C    4.102968   2.426077   2.451495   1.542128   2.122144
    16  O    4.391749   2.861343   2.640008   2.403632   2.656424
    17  N    5.236198   3.446513   3.399558   2.475431   3.184501
    18  H    5.327825   3.652777   3.774242   2.592525   3.359180
    19  C    6.552220   4.704797   4.455616   3.849555   4.451045
    20  H    6.555467   4.728365   4.348202   4.049857   4.545466
    21  H    7.132574   5.489489   5.371030   4.430130   4.866383
    22  H    7.203590   5.182679   4.817920   4.499471   5.256826
                   11         12         13         14         15
    11  C    0.000000
    12  H    1.096553   0.000000
    13  H    1.097116   1.789987   0.000000
    14  H    1.093130   1.769129   1.767814   0.000000
    15  C    2.627121   2.948504   2.911174   3.534556   0.000000
    16  O    3.749158   4.107486   4.059340   4.540572   1.226592
    17  N    2.866049   2.852601   2.865835   3.942497   1.363408
    18  H    2.395115   2.226385   2.247609   3.481201   2.049781
    19  C    4.306130   4.209567   4.185389   5.388824   2.468182
    20  H    4.843375   4.848742   4.844208   5.878402   2.518993
    21  H    4.741707   4.756827   4.366620   5.813649   3.138864
    22  H    4.781516   4.433598   4.739366   5.862507   3.234103
                   16         17         18         19         20
    16  O    0.000000
    17  N    2.278435   0.000000
    18  H    3.162325   1.008678   0.000000
    19  C    2.820845   1.453096   2.126973   0.000000
    20  H    2.358290   2.061807   2.970226   1.090610   0.000000
    21  H    3.502977   2.117552   2.540193   1.097011   1.781039
    22  H    3.634967   2.105794   2.503637   1.095662   1.784226
                   21         22
    21  H    0.000000
    22  H    1.782946   0.000000
 Stoichiometry    C6H12N2O2
 Framework group  C1[X(C6H12N2O2)]
 Deg. of freedom    60
 Full point group                 C1      NOp   1
 Largest Abelian subgroup         C1      NOp   1
 Largest concise Abelian subgroup C1      NOp   1
                         Standard orientation:                         
 ---------------------------------------------------------------------
 Center     Atomic      Atomic             Coordinates (Angstroms)
 Number     Number       Type             X           Y           Z
 ---------------------------------------------------------------------
      1          1           0       -4.215086   -0.730212    0.713101
      2          6           0       -3.209384   -1.148606    0.632401
      3          1           0       -3.262979   -2.026507   -0.022099
      4          1           0       -2.869182   -1.473505    1.620801
      5          6           0       -2.294589   -0.112702   -0.001799
      6          8           0       -2.674793    0.655896   -0.874899
      7          7           0       -1.006489   -0.090495    0.484401
      8          1           0       -0.704085   -0.912593    0.991501
      9          6           0        0.033807    0.623210   -0.263299
     10          1           0       -0.318993    0.699309   -1.298599
     11          6           0        0.220300    2.045011    0.279701
     12          1           0        0.523500    2.043213    1.333501
     13          1           0        0.955897    2.606515   -0.309599
     14          1           0       -0.734203    2.572906    0.207701
     15          6           0        1.278012   -0.286783   -0.308299
     16          8           0        1.194318   -1.419384   -0.771699
     17          7           0        2.419209    0.207023    0.250901
     18          1           0        2.424504    1.158923    0.584501
     19          6           0        3.671513   -0.529971    0.243001
     20          1           0        3.455118   -1.538472   -0.111299
     21          1           0        4.406911   -0.066367   -0.426099
     22          1           0        4.095413   -0.581968    1.252001
 ---------------------------------------------------------------------
 Rotational constants (GHZ):      2.6755826      0.6829196      0.6010745
 Standard basis: Aug-CC-pVDZ (5D, 7F)
 There are   338 symmetry adapted basis functions of A   symmetry.
 Integral buffers will be    131072 words long.
 Raffenetti 1 integral format.
 Two-electron integral symmetry is turned on.
   338 basis functions,   562 primitive gaussians,   358 cartesian basis functions
    39 alpha electrons       39 beta electrons
       nuclear repulsion energy       549.3112370936 Hartrees.
 NAtoms=   22 NActive=   22 NUniq=   22 SFac= 7.50D-01 NAtFMM=   80 NAOKFM=F Big=F
 One-electron integrals computed using PRISM.
 NBasis=   338 RedAO= T  NBF=   338
 NBsUse=   338 1.00D-06 NBFU=   338
 Harris functional with IExCor=  205 diagonalized for initial guess.
 ExpMin= 2.97D-02 ExpMax= 1.17D+04 ExpMxC= 4.01D+02 IAcc=3 IRadAn=         0 AccDes= 0.00D+00
 HarFok:  IExCor=  205 AccDes= 0.00D+00 IRadAn=         0 IDoV= 1
 ScaDFX=  1.000000  1.000000  1.000000  1.000000
 FoFCou: FMM=F IPFlag=           0 FMFlag=      100000 FMFlg1=           0
         NFxFlg=           0 DoJE=T BraDBF=F KetDBF=T FulRan=T
         Omega=  0.000000  0.000000  1.000000  0.000000  0.000000 ICntrl=     500 IOpCl=  0
         NMat0=    1 NMatS0=    1 NMatT0=    0 NMatD0=    1 NMtDS0=    0 NMtDT0=    0
         I1Cent=           4 NGrid=           0.
 Petite list used in FoFCou.
 Initial guess orbital symmetries:
       Occupied  (A) (A) (A) (A) (A) (A) (A) (A) (A) (A) (A) (A)
                 (A) (A) (A) (A) (A) (A) (A) (A) (A) (A) (A) (A)
                 (A) (A) (A) (A) (A) (A) (A) (A) (A) (A) (A) (A)
                 (A) (A) (A)
       Virtual   (A) (A) (A) (A) (A) (A) (A) (A) (A) (A) (A) (A)
                 (A) (A) (A) (A) (A) (A) (A) (A) (A) (A) (A) (A)
                 (A) (A) (A) (A) (A) (A) (A) (A) (A) (A) (A) (A)
                 (A) (A) (A) (A) (A) (A) (A) (A) (A) (A) (A) (A)
                 (A) (A) (A) (A) (A) (A) (A) (A) (A) (A) (A) (A)
                 (A) (A) (A) (A) (A) (A) (A) (A) (A) (A) (A) (A)
                 (A) (A) (A) (A) (A) (A) (A) (A) (A) (A) (A) (A)
                 (A) (A) (A) (A) (A) (A) (A) (A) (A) (A) (A) (A)
                 (A) (A) (A) (A) (A) (A) (A) (A) (A) (A) (A) (A)
                 (A) (A) (A) (A) (A) (A) (A) (A) (A) (A) (A) (A)
                 (A) (A) (A) (A) (A) (A) (A) (A) (A) (A) (A) (A)
                 (A) (A) (A) (A) (A) (A) (A) (A) (A) (A) (A) (A)
                 (A) (A) (A) (A) (A) (A) (A) (A) (A) (A) (A) (A)
                 (A) (A) (A) (A) (A) (A) (A) (A) (A) (A) (A) (A)
                 (A) (A) (A) (A) (A) (A) (A) (A) (A) (A) (A) (A)
                 (A) (A) (A) (A) (A) (A) (A) (A) (A) (A) (A) (A)
                 (A) (A) (A) (A) (A) (A) (A) (A) (A) (A) (A) (A)
                 (A) (A) (A) (A) (A) (A) (A) (A) (A) (A) (A) (A)
                 (A) (A) (A) (A) (A) (A) (A) (A) (A) (A) (A) (A)
                 (A) (A) (A) (A) (A) (A) (A) (A) (A) (A) (A) (A)
                 (A) (A) (A) (A) (A) (A) (A) (A) (A) (A) (A) (A)
                 (A) (A) (A) (A) (A) (A) (A) (A) (A) (A) (A) (A)
                 (A) (A) (A) (A) (A) (A) (A) (A) (A) (A) (A) (A)
                 (A) (A) (A) (A) (A) (A) (A) (A) (A) (A) (A) (A)
                 (A) (A) (A) (A) (A) (A) (A) (A) (A) (A) (A)
 The electronic state of the initial guess is 1-A.
 Requested convergence on RMS density matrix=1.00D-08 within 128 cycles.
 Requested convergence on MAX density matrix=1.00D-06.
 Requested convergence on             energy=1.00D-06.
 No special actions if energy rises.
 Initial convergence to 1.0D-05 achieved.  Increase integral accuracy.
 SCF Done:  E(RHF) =  -492.919958203     A.U. after   14 cycles
             Convg  =    0.6842D-08             -V/T =  2.0017
 ExpMin= 2.97D-02 ExpMax= 1.17D+04 ExpMxC= 4.01D+02 IAcc=3 IRadAn=         5 AccDes= 0.00D+00
 HarFok:  IExCor=  205 AccDes= 0.00D+00 IRadAn=         5 IDoV=-2
 ScaDFX=  1.000000  1.000000  1.000000  1.000000
 Range of M.O.s used for correlation:    11   338
 NBasis=   338 NAE=    39 NBE=    39 NFC=    10 NFV=     0
 NROrb=    328 NOA=    29 NOB=    29 NVA=   299 NVB=   299

 **** Warning!!: The largest alpha MO coefficient is  0.78101816D+02

 Disk-based method using OVN memory for 29 occupieds at a time.
 Estimated scratch disk usage=  1372871912 words.
 Actual    scratch disk usage=  1359864262 words.
 JobTyp=1 Pass  1:  I=   1 to  29 NPSUse=  8 ParTrn=T ParDer=T DoDerP=F.
 Spin components of T(2) and E(2):
     alpha-alpha T2 =       0.6798569093D-01 E2=     -0.2058460637D+00
     alpha-beta  T2 =       0.3767918284D+00 E2=     -0.1190280714D+01
     beta-beta   T2 =       0.6798569093D-01 E2=     -0.2058460637D+00
 ANorm=    0.1229944393D+01
 E2 =    -0.1601972841D+01 EUMP2 =    -0.49452193104445D+03

 **********************************************************************

            Population analysis using the SCF density.

 **********************************************************************

 Orbital symmetries:
       Occupied  (A) (A) (A) (A) (A) (A) (A) (A) (A) (A) (A) (A)
                 (A) (A) (A) (A) (A) (A) (A) (A) (A) (A) (A) (A)
                 (A) (A) (A) (A) (A) (A) (A) (A) (A) (A) (A) (A)
                 (A) (A) (A)
       Virtual   (A) (A) (A) (A) (A) (A) (A) (A) (A) (A) (A) (A)
                 (A) (A) (A) (A) (A) (A) (A) (A) (A) (A) (A) (A)
                 (A) (A) (A) (A) (A) (A) (A) (A) (A) (A) (A) (A)
                 (A) (A) (A) (A) (A) (A) (A) (A) (A) (A) (A) (A)
                 (A) (A) (A) (A) (A) (A) (A) (A) (A) (A) (A) (A)
                 (A) (A) (A) (A) (A) (A) (A) (A) (A) (A) (A) (A)
                 (A) (A) (A) (A) (A) (A) (A) (A) (A) (A) (A) (A)
                 (A) (A) (A) (A) (A) (A) (A) (A) (A) (A) (A) (A)
                 (A) (A) (A) (A) (A) (A) (A) (A) (A) (A) (A) (A)
                 (A) (A) (A) (A) (A) (A) (A) (A) (A) (A) (A) (A)
                 (A) (A) (A) (A) (A) (A) (A) (A) (A) (A) (A) (A)
                 (A) (A) (A) (A) (A) (A) (A) (A) (A) (A) (A) (A)
                 (A) (A) (A) (A) (A) (A) (A) (A) (A) (A) (A) (A)
                 (A) (A) (A) (A) (A) (A) (A) (A) (A) (A) (A) (A)
                 (A) (A) (A) (A) (A) (A) (A) (A) (A) (A) (A) (A)
                 (A) (A) (A) (A) (A) (A) (A) (A) (A) (A) (A) (A)
                 (A) (A) (A) (A) (A) (A) (A) (A) (A) (A) (A) (A)
                 (A) (A) (A) (A) (A) (A) (A) (A) (A) (A) (A) (A)
                 (A) (A) (A) (A) (A) (A) (A) (A) (A) (A) (A) (A)
                 (A) (A) (A) (A) (A) (A) (A) (A) (A) (A) (A) (A)
                 (A) (A) (A) (A) (A) (A) (A) (A) (A) (A) (A) (A)
                 (A) (A) (A) (A) (A) (A) (A) (A) (A) (A) (A) (A)
                 (A) (A) (A) (A) (A) (A) (A) (A) (A) (A) (A) (A)
                 (A) (A) (A) (A) (A) (A) (A) (A) (A) (A) (A) (A)
                 (A) (A) (A) (A) (A) (A) (A) (A) (A) (A) (A)
 The electronic state is 1-A.
 Alpha  occ. eigenvalues --  -20.53595 -20.53176 -15.60632 -15.59511 -11.36803
 Alpha  occ. eigenvalues --  -11.36153 -11.29248 -11.27523 -11.24533 -11.24133
 Alpha  occ. eigenvalues --   -1.39312  -1.38334  -1.24333  -1.23469  -1.05647
 Alpha  occ. eigenvalues --   -0.99303  -0.96031  -0.88936  -0.79794  -0.78786
 Alpha  occ. eigenvalues --   -0.73156  -0.67360  -0.65973  -0.65206  -0.62628
 Alpha  occ. eigenvalues --   -0.61906  -0.59239  -0.58842  -0.57001  -0.56255
 Alpha  occ. eigenvalues --   -0.55525  -0.54584  -0.53790  -0.52523  -0.49268
 Alpha  occ. eigenvalues --   -0.43187  -0.42250  -0.40480  -0.39642
 Alpha virt. eigenvalues --    0.02676   0.03730   0.04302   0.04567   0.05815
 Alpha virt. eigenvalues --    0.05901   0.06147   0.06900   0.07462   0.07833
 Alpha virt. eigenvalues --    0.08668   0.09467   0.11244   0.11816   0.12444
 Alpha virt. eigenvalues --    0.13420   0.14283   0.14581   0.15015   0.15110
 Alpha virt. eigenvalues --    0.15796   0.16074   0.16308   0.16681   0.17009
 Alpha virt. eigenvalues --    0.17311   0.18109   0.18690   0.19025   0.19241
 Alpha virt. eigenvalues --    0.20011   0.20233   0.20785   0.21214   0.21671
 Alpha virt. eigenvalues --    0.23152   0.23879   0.24863   0.25273   0.25975
 Alpha virt. eigenvalues --    0.26610   0.27880   0.28868   0.29276   0.30379
 Alpha virt. eigenvalues --    0.31255   0.31717   0.32497   0.33013   0.33226
 Alpha virt. eigenvalues --    0.34581   0.34777   0.35373   0.36362   0.36584
 Alpha virt. eigenvalues --    0.37054   0.37501   0.38617   0.38954   0.39547
 Alpha virt. eigenvalues --    0.40176   0.40472   0.42394   0.42600   0.43058
 Alpha virt. eigenvalues --    0.43405   0.43707   0.44253   0.45065   0.45801
 Alpha virt. eigenvalues --    0.46529   0.46830   0.47825   0.48230   0.48811
 Alpha virt. eigenvalues --    0.49583   0.50151   0.50939   0.51322   0.52490
 Alpha virt. eigenvalues --    0.52589   0.53393   0.53768   0.55582   0.55817
 Alpha virt. eigenvalues --    0.56543   0.56969   0.57024   0.57363   0.58308
 Alpha virt. eigenvalues --    0.59164   0.60228   0.60989   0.61565   0.61828
 Alpha virt. eigenvalues --    0.62264   0.62601   0.62829   0.64120   0.64527
 Alpha virt. eigenvalues --    0.65499   0.66145   0.67093   0.67561   0.68246
 Alpha virt. eigenvalues --    0.69012   0.70002   0.70955   0.71098   0.72050
 Alpha virt. eigenvalues --    0.72616   0.73525   0.73807   0.73975   0.74552
 Alpha virt. eigenvalues --    0.75490   0.76271   0.78071   0.78338   0.78458
 Alpha virt. eigenvalues --    0.80458   0.80517   0.81198   0.83052   0.83891
 Alpha virt. eigenvalues --    0.84474   0.85345   0.86417   0.87081   0.87567
 Alpha virt. eigenvalues --    0.88847   0.89385   0.90335   0.91460   0.91768
 Alpha virt. eigenvalues --    0.94889   0.96012   0.96217   0.97160   0.99170
 Alpha virt. eigenvalues --    0.99611   1.00964   1.02862   1.04466   1.05410
 Alpha virt. eigenvalues --    1.06068   1.08017   1.09178   1.09547   1.10762
 Alpha virt. eigenvalues --    1.11755   1.13682   1.14385   1.14848   1.15498
 Alpha virt. eigenvalues --    1.17333   1.18048   1.18628   1.19349   1.21591
 Alpha virt. eigenvalues --    1.23475   1.25112   1.26159   1.27030   1.29143
 Alpha virt. eigenvalues --    1.32175   1.32947   1.34014   1.35581   1.36604
 Alpha virt. eigenvalues --    1.39593   1.41206   1.42407   1.46243   1.47501
 Alpha virt. eigenvalues --    1.49497   1.50498   1.52718   1.53976   1.55101
 Alpha virt. eigenvalues --    1.56414   1.57642   1.60228   1.61893   1.64513
 Alpha virt. eigenvalues --    1.65498   1.66998   1.68820   1.70622   1.73412
 Alpha virt. eigenvalues --    1.74528   1.75273   1.76662   1.78397   1.79954
 Alpha virt. eigenvalues --    1.80832   1.83055   1.83493   1.85805   1.87645
 Alpha virt. eigenvalues --    1.88910   1.89639   1.90662   1.92407   1.93177
 Alpha virt. eigenvalues --    1.94810   1.96757   1.98245   1.99573   2.00939
 Alpha virt. eigenvalues --    2.02825   2.03257   2.04562   2.05255   2.07329
 Alpha virt. eigenvalues --    2.09962   2.11149   2.13576   2.14338   2.16417
 Alpha virt. eigenvalues --    2.18841   2.20038   2.20514   2.21277   2.23476
 Alpha virt. eigenvalues --    2.24819   2.25347   2.26542   2.28309   2.29701
 Alpha virt. eigenvalues --    2.30743   2.32851   2.34560   2.35488   2.36377
 Alpha virt. eigenvalues --    2.37557   2.40403   2.41583   2.42611   2.43760
 Alpha virt. eigenvalues --    2.45006   2.45582   2.49807   2.50398   2.51694
 Alpha virt. eigenvalues --    2.51773   2.53931   2.56426   2.58377   2.60314
 Alpha virt. eigenvalues --    2.62444   2.65089   2.65551   2.68704   2.69153
 Alpha virt. eigenvalues --    2.70412   2.73170   2.74741   2.75414   2.78156
 Alpha virt. eigenvalues --    2.80682   2.83434   2.85252   2.86290   2.88132
 Alpha virt. eigenvalues --    2.90113   2.91690   2.94330   2.96130   2.99881
 Alpha virt. eigenvalues --    3.00314   3.03062   3.03704   3.06607   3.07625
 Alpha virt. eigenvalues --    3.11184   3.11445   3.16284   3.18299   3.21193
 Alpha virt. eigenvalues --    3.24604   3.34510   3.42054   3.48889   3.51498
 Alpha virt. eigenvalues --    3.60922   3.69451   3.77290   3.83022   3.84103
 Alpha virt. eigenvalues --    3.85419   3.86375   3.91987   3.96474   4.01475
 Alpha virt. eigenvalues --    4.03229   4.17638   4.22393   4.27451
          Condensed to atoms (all electrons):
              1          2          3          4          5          6
     1  H    0.773310   0.389962  -0.044715  -0.096632  -0.093179   0.031728
     2  C    0.389962   4.522674   0.331124   0.364343   0.213845  -0.052465
     3  H   -0.044715   0.331124   0.697062  -0.067175  -0.020970   0.011309
     4  H   -0.096632   0.364343  -0.067175   0.992989   0.035100  -0.004761
     5  C   -0.093179   0.213845  -0.020970   0.035100   5.177225   0.230354
     6  O    0.031728  -0.052465   0.011309  -0.004761   0.230354   8.686076
     7  N    0.049357  -0.063023   0.018296  -0.144180   0.130307  -0.123795
     8  H   -0.007063  -0.056760  -0.004502   0.023998  -0.072227   0.005452
     9  C    0.000241   0.036569   0.004373  -0.007332  -0.047541   0.019051
    10  H   -0.000482  -0.010652   0.000271  -0.000246   0.043951  -0.021129
    11  C    0.000243  -0.023331  -0.000384  -0.011322  -0.079330   0.030302
    12  H   -0.000318  -0.001401   0.000355  -0.000386   0.010791  -0.003473
    13  H    0.000114  -0.002070  -0.000071  -0.001209  -0.045258   0.005495
    14  H    0.000047   0.007816  -0.000266   0.000965   0.057410   0.010976
    15  C    0.000194  -0.006249  -0.001200   0.003730  -0.055980   0.000046
    16  O    0.000123   0.005551   0.000213   0.000245   0.007446   0.000400
    17  N   -0.000220  -0.006020   0.000403  -0.001386  -0.005801   0.002687
    18  H    0.000045   0.000772   0.000021   0.000026   0.002628  -0.000389
    19  C   -0.000088  -0.002203   0.000131  -0.000401  -0.004112   0.000622
    20  H   -0.000003  -0.000122   0.000056  -0.000157  -0.002294   0.000160
    21  H    0.000002  -0.000004  -0.000001   0.000021   0.001239  -0.000044
    22  H   -0.000013   0.000009  -0.000005   0.000098  -0.000492   0.000060
              7          8          9         10         11         12
     1  H    0.049357  -0.007063   0.000241  -0.000482   0.000243  -0.000318
     2  C   -0.063023  -0.056760   0.036569  -0.010652  -0.023331  -0.001401
     3  H    0.018296  -0.004502   0.004373   0.000271  -0.000384   0.000355
     4  H   -0.144180   0.023998  -0.007332  -0.000246  -0.011322  -0.000386
     5  C    0.130307  -0.072227  -0.047541   0.043951  -0.079330   0.010791
     6  O   -0.123795   0.005452   0.019051  -0.021129   0.030302  -0.003473
     7  N    7.638628   0.356523  -0.566428  -0.079192  -0.012153  -0.086696
     8  H    0.356523   0.890894  -0.156799   0.027816   0.000950   0.008361
     9  C   -0.566428  -0.156799   7.502160   0.169089   0.266917   0.067685
    10  H   -0.079192   0.027816   0.169089   1.126813  -0.069539   0.064315
    11  C   -0.012153   0.000950   0.266917  -0.069539   4.313522   0.272110
    12  H   -0.086696   0.008361   0.067685   0.064315   0.272110   1.119041
    13  H    0.140443   0.004798  -0.336340  -0.099345   0.317617  -0.200019
    14  H   -0.052002  -0.009901   0.124663  -0.031662   0.261165  -0.244620
    15  C    0.255084  -0.003298  -0.835110  -0.216055  -0.131021  -0.085198
    16  O   -0.022381   0.015028   0.024424   0.037161   0.004105   0.005296
    17  N    0.056487   0.016201  -0.099739   0.067071   0.020223   0.022085
    18  H   -0.008841  -0.003113   0.018307  -0.002794  -0.000063   0.019485
    19  C    0.019524   0.006536  -0.107524   0.000538  -0.011895  -0.003431
    20  H   -0.001109   0.000684  -0.042010  -0.000971  -0.001628  -0.000358
    21  H    0.003776   0.001327  -0.020076  -0.003504   0.005943  -0.002171
    22  H   -0.002489  -0.003085   0.027488   0.001702  -0.000524  -0.000637
             13         14         15         16         17         18
     1  H    0.000114   0.000047   0.000194   0.000123  -0.000220   0.000045
     2  C   -0.002070   0.007816  -0.006249   0.005551  -0.006020   0.000772
     3  H   -0.000071  -0.000266  -0.001200   0.000213   0.000403   0.000021
     4  H   -0.001209   0.000965   0.003730   0.000245  -0.001386   0.000026
     5  C   -0.045258   0.057410  -0.055980   0.007446  -0.005801   0.002628
     6  O    0.005495   0.010976   0.000046   0.000400   0.002687  -0.000389
     7  N    0.140443  -0.052002   0.255084  -0.022381   0.056487  -0.008841
     8  H    0.004798  -0.009901  -0.003298   0.015028   0.016201  -0.003113
     9  C   -0.336340   0.124663  -0.835110   0.024424  -0.099739   0.018307
    10  H   -0.099345  -0.031662  -0.216055   0.037161   0.067071  -0.002794
    11  C    0.317617   0.261165  -0.131021   0.004105   0.020223  -0.000063
    12  H   -0.200019  -0.244620  -0.085198   0.005296   0.022085   0.019485
    13  H    1.265489  -0.195997   0.146682  -0.005022  -0.004514   0.010330
    14  H   -0.195997   1.247360   0.024474  -0.001164  -0.019411  -0.000102
    15  C    0.146682   0.024474   5.664129   0.150062   0.131767  -0.060099
    16  O   -0.005022  -0.001164   0.150062   8.802175  -0.146400   0.015151
    17  N   -0.004514  -0.019411   0.131767  -0.146400   7.134194   0.257236
    18  H    0.010330  -0.000102  -0.060099   0.015151   0.257236   1.015842
    19  C    0.006755   0.002835  -0.044869  -0.003861   0.234352  -0.130424
    20  H    0.001320   0.000194   0.042272  -0.012111  -0.041657  -0.002748
    21  H    0.000990   0.001154  -0.006566   0.006658   0.012265  -0.003683
    22  H   -0.001821   0.000924  -0.025889   0.012007  -0.085691   0.010801
             19         20         21         22
     1  H   -0.000088  -0.000003   0.000002  -0.000013
     2  C   -0.002203  -0.000122  -0.000004   0.000009
     3  H    0.000131   0.000056  -0.000001  -0.000005
     4  H   -0.000401  -0.000157   0.000021   0.000098
     5  C   -0.004112  -0.002294   0.001239  -0.000492
     6  O    0.000622   0.000160  -0.000044   0.000060
     7  N    0.019524  -0.001109   0.003776  -0.002489
     8  H    0.006536   0.000684   0.001327  -0.003085
     9  C   -0.107524  -0.042010  -0.020076   0.027488
    10  H    0.000538  -0.000971  -0.003504   0.001702
    11  C   -0.011895  -0.001628   0.005943  -0.000524
    12  H   -0.003431  -0.000358  -0.002171  -0.000637
    13  H    0.006755   0.001320   0.000990  -0.001821
    14  H    0.002835   0.000194   0.001154   0.000924
    15  C   -0.044869   0.042272  -0.006566  -0.025889
    16  O   -0.003861  -0.012111   0.006658   0.012007
    17  N    0.234352  -0.041657   0.012265  -0.085691
    18  H   -0.130424  -0.002748  -0.003683   0.010801
    19  C    4.138723   0.493148   0.316948   0.344212
    20  H    0.493148   0.959792  -0.110602  -0.135660
    21  H    0.316948  -0.110602   1.024016  -0.146619
    22  H    0.344212  -0.135660  -0.146619   1.125733
 Mulliken atomic charges:
              1
     1  H   -0.002656
     2  C    0.351634
     3  H    0.075674
     4  H   -0.086328
     5  C    0.516888
     6  O   -0.828661
     7  N   -0.506135
     8  H   -0.041819
     9  C   -0.042068
    10  H   -0.003158
    11  C    0.848092
    12  H    0.039180
    13  H   -0.008366
    14  H   -0.184859
    15  C    1.053095
    16  O   -0.895107
    17  N   -0.544129
    18  H   -0.138386
    19  C    0.744483
    20  H   -0.146197
    21  H   -0.081069
    22  H   -0.120108
 Sum of Mulliken atomic charges =   0.00000
 Mulliken charges with hydrogens summed into heavy atoms:
              1
     2  C    0.338324
     5  C    0.516888
     6  O   -0.828661
     7  N   -0.547954
     9  C   -0.045227
    11  C    0.694047
    15  C    1.053095
    16  O   -0.895107
    17  N   -0.682515
    19  C    0.397109
 Sum of Mulliken charges with hydrogens summed into heavy atoms =   0.00000
 Electronic spatial extent (au):  <R**2>=           1951.3689
 Charge=              0.0000 electrons
 Dipole moment (field-independent basis, Debye):
    X=              2.9606    Y=              0.9088    Z=              3.7198  Tot=              4.8403
 Quadrupole moment (field-independent basis, Debye-Ang):
   XX=            -56.8514   YY=            -62.5413   ZZ=            -63.5737
   XY=             10.8796   XZ=             -3.8076   YZ=             -2.3187
 Traceless Quadrupole moment (field-independent basis, Debye-Ang):
   XX=              4.1374   YY=             -1.5525   ZZ=             -2.5849
   XY=             10.8796   XZ=             -3.8076   YZ=             -2.3187
 Octapole moment (field-independent basis, Debye-Ang**2):
  XXX=             41.1366  YYY=              5.1553  ZZZ=              0.5437  XYY=             -2.3268
  XXY=            -17.5376  XXZ=             23.5872  XZZ=              4.8545  YZZ=             -1.0205
  YYZ=              5.7311  XYZ=             -5.0591
 Hexadecapole moment (field-independent basis, Debye-Ang**3):
 XXXX=          -1799.9073 YYYY=           -474.9313 ZZZZ=           -181.7808 XXXY=             46.4867
 XXXZ=            -43.7547 YYYX=             10.5740 YYYZ=             -4.7954 ZZZX=              2.2946
 ZZZY=             -4.5286 XXYY=           -388.7939 XXZZ=           -362.9455 YYZZ=           -110.7091
 XXYZ=             11.0744 YYXZ=              5.3006 ZZXY=              8.9405
 N-N= 5.493112370936D+02 E-N=-2.253772150026D+03  KE= 4.920710841444D+02
 1\1\GINC-NODE007\SP\RMP2-FC\Aug-CC-pVDZ\C6H12N2O2\MANAGER\13-Feb-2017\
 0\\#SP MP2/aug-cc-pVDZ\\Single Point calculation at MP2\\0,1\H,0,-4.21
 51,-0.7302,0.7131\C,0,-3.2094,-1.1486,0.6324\H,0,-3.263,-2.0265,-0.022
 1\H,0,-2.8692,-1.4735,1.6208\C,0,-2.2946,-0.1127,-0.0018\O,0,-2.6748,0
 .6559,-0.8749\N,0,-1.0065,-0.0905,0.4844\H,0,-0.7041,-0.9126,0.9915\C,
 0,0.0338,0.6232,-0.2633\H,0,-0.319,0.6993,-1.2986\C,0,0.2203,2.045,0.2
 797\H,0,0.5235,2.0432,1.3335\H,0,0.9559,2.6065,-0.3096\H,0,-0.7342,2.5
 729,0.2077\C,0,1.278,-0.2868,-0.3083\O,0,1.1943,-1.4194,-0.7717\N,0,2.
 4192,0.207,0.2509\H,0,2.4245,1.1589,0.5845\C,0,3.6715,-0.53,0.243\H,0,
 3.4551,-1.5385,-0.1113\H,0,4.4069,-0.0664,-0.4261\H,0,4.0954,-0.582,1.
 252\\Version=EM64L-G09RevA.02\State=1-A\HF=-492.9199582\MP2=-494.52193
 1\RMSD=6.842e-09\PG=C01 [X(C6H12N2O2)]\\@


 What some people mistake for the high cost
 of living is really the cost of living high.
                              -- Doug Larson
 Job cpu time:  0 days 21 hours 18 minutes 42.1 seconds.
 File lengths (MBytes):  RWF=  10491 Int=      0 D2E=      0 Chk=      7 Scr=      2
 Normal termination of Gaussian 09 at Mon Feb 13 08:15:47 2017.
