 Entering Gaussian System, Link 0=g09
 Initial command:
 /home/steboss/Software/g09/l1.exe /home/steboss/projects/phi_psi_scan/alanine/MP2/120/5228/Gau-24865.inp -scrdir=/home/steboss/projects/phi_psi_scan/alanine/MP2/120/5228/
 Entering Link 1 = /home/steboss/Software/g09/l1.exe PID=     24867.
  
 Copyright (c) 1988,1990,1992,1993,1995,1998,2003,2009, Gaussian, Inc.
                  All Rights Reserved.
  
 This is part of the Gaussian(R) 09 program.  It is based on
 the Gaussian(R) 03 system (copyright 2003, Gaussian, Inc.),
 the Gaussian(R) 98 system (copyright 1998, Gaussian, Inc.),
 the Gaussian(R) 94 system (copyright 1995, Gaussian, Inc.),
 the Gaussian 92(TM) system (copyright 1992, Gaussian, Inc.),
 the Gaussian 90(TM) system (copyright 1990, Gaussian, Inc.),
 the Gaussian 88(TM) system (copyright 1988, Gaussian, Inc.),
 the Gaussian 86(TM) system (copyright 1986, Carnegie Mellon
 University), and the Gaussian 82(TM) system (copyright 1983,
 Carnegie Mellon University). Gaussian is a federally registered
 trademark of Gaussian, Inc.
  
 This software contains proprietary and confidential information,
 including trade secrets, belonging to Gaussian, Inc.
  
 This software is provided under written license and may be
 used, copied, transmitted, or stored only in accord with that
 written license.
  
 The following legend is applicable only to US Government
 contracts under FAR:
  
                    RESTRICTED RIGHTS LEGEND
  
 Use, reproduction and disclosure by the US Government is
 subject to restrictions as set forth in subparagraphs (a)
 and (c) of the Commercial Computer Software - Restricted
 Rights clause in FAR 52.227-19.
  
 Gaussian, Inc.
 340 Quinnipiac St., Bldg. 40, Wallingford CT 06492
  
  
 ---------------------------------------------------------------
 Warning -- This program may not be used in any manner that
 competes with the business of Gaussian, Inc. or will provide
 assistance to any competitor of Gaussian, Inc.  The licensee
 of this program is prohibited from giving any competitor of
 Gaussian, Inc. access to this program.  By using this program,
 the user acknowledges that Gaussian, Inc. is engaged in the
 business of creating and licensing software in the field of
 computational chemistry and represents and warrants to the
 licensee that it is not a competitor of Gaussian, Inc. and that
 it will not use this program in any manner prohibited above.
 ---------------------------------------------------------------
  

 Cite this work as:
 Gaussian 09, Revision A.02,
 M. J. Frisch, G. W. Trucks, H. B. Schlegel, G. E. Scuseria, 
 M. A. Robb, J. R. Cheeseman, G. Scalmani, V. Barone, B. Mennucci, 
 G. A. Petersson, H. Nakatsuji, M. Caricato, X. Li, H. P. Hratchian, 
 A. F. Izmaylov, J. Bloino, G. Zheng, J. L. Sonnenberg, M. Hada, 
 M. Ehara, K. Toyota, R. Fukuda, J. Hasegawa, M. Ishida, T. Nakajima, 
 Y. Honda, O. Kitao, H. Nakai, T. Vreven, J. A. Montgomery, Jr., 
 J. E. Peralta, F. Ogliaro, M. Bearpark, J. J. Heyd, E. Brothers, 
 K. N. Kudin, V. N. Staroverov, R. Kobayashi, J. Normand, 
 K. Raghavachari, A. Rendell, J. C. Burant, S. S. Iyengar, J. Tomasi, 
 M. Cossi, N. Rega, J. M. Millam, M. Klene, J. E. Knox, J. B. Cross, 
 V. Bakken, C. Adamo, J. Jaramillo, R. Gomperts, R. E. Stratmann, 
 O. Yazyev, A. J. Austin, R. Cammi, C. Pomelli, J. W. Ochterski, 
 R. L. Martin, K. Morokuma, V. G. Zakrzewski, G. A. Voth, 
 P. Salvador, J. J. Dannenberg, S. Dapprich, A. D. Daniels, 
 O. Farkas, J. B. Foresman, J. V. Ortiz, J. Cioslowski, 
 and D. J. Fox, Gaussian, Inc., Wallingford CT, 2009.
 
 ******************************************
 Gaussian 09:  EM64L-G09RevA.02 11-Jun-2009
                12-Feb-2017 
 ******************************************
 %chk=structure_90.chk
 %NProcShared=8
 Will use up to    8 processors via shared memory.
 -------------------
 #SP MP2/aug-cc-pVDZ
 -------------------
 1/38=1/1;
 2/12=2,17=6,18=5,40=1/2;
 3/5=16,7=10,11=9,16=1,25=1,30=1/1,2,3;
 4//1;
 5/5=2,38=5/2;
 8/10=1/1;
 9/16=-3/6;
 6/7=2,8=2,9=2,10=2/1;
 99/5=1,9=1/99;
 -------------------------------
 Single Point calculation at MP2
 -------------------------------
 Symbolic Z-matrix:
 Charge =  0 Multiplicity = 1
 H                    -3.8642   -1.6464   -0.0816 
 C                    -2.8068   -1.7184    0.1825 
 H                    -2.3398   -2.5123   -0.4102 
 H                    -2.7457   -1.9956    1.2411 
 C                    -2.1677   -0.3439   -0.0052 
 O                    -2.7682    0.6789    0.2862 
 N                    -0.892    -0.3932   -0.5172 
 H                    -0.5198   -1.3206   -0.6715 
 C                     0.1048    0.6801   -0.6571 
 H                     0.3868    0.7226   -1.7216 
 C                    -0.3538    2.0716   -0.2245 
 H                    -0.566     2.092     0.8442 
 H                     0.4613    2.7749   -0.4311 
 H                    -1.2457    2.3842   -0.7662 
 C                     1.3445    0.2538    0.1674 
 O                     1.4473    0.482     1.3634 
 N                     2.2664   -0.4717   -0.5423 
 H                     2.1847   -0.4921   -1.5493 
 C                     3.5037   -0.9486    0.0546 
 H                     3.3935   -0.8722    1.1371 
 H                     3.687    -1.9925   -0.2212 
 H                     4.3646   -0.343    -0.2555 
 
                          Input orientation:                          
 ---------------------------------------------------------------------
 Center     Atomic      Atomic             Coordinates (Angstroms)
 Number     Number       Type             X           Y           Z
 ---------------------------------------------------------------------
      1          1           0       -3.864200   -1.646400   -0.081600
      2          6           0       -2.806800   -1.718400    0.182500
      3          1           0       -2.339800   -2.512300   -0.410200
      4          1           0       -2.745700   -1.995600    1.241100
      5          6           0       -2.167700   -0.343900   -0.005200
      6          8           0       -2.768200    0.678900    0.286200
      7          7           0       -0.892000   -0.393200   -0.517200
      8          1           0       -0.519800   -1.320600   -0.671500
      9          6           0        0.104800    0.680100   -0.657100
     10          1           0        0.386800    0.722600   -1.721600
     11          6           0       -0.353800    2.071600   -0.224500
     12          1           0       -0.566000    2.092000    0.844200
     13          1           0        0.461300    2.774900   -0.431100
     14          1           0       -1.245700    2.384200   -0.766200
     15          6           0        1.344500    0.253800    0.167400
     16          8           0        1.447300    0.482000    1.363400
     17          7           0        2.266400   -0.471700   -0.542300
     18          1           0        2.184700   -0.492100   -1.549300
     19          6           0        3.503700   -0.948600    0.054600
     20          1           0        3.393500   -0.872200    1.137100
     21          1           0        3.687000   -1.992500   -0.221200
     22          1           0        4.364600   -0.343000   -0.255500
 ---------------------------------------------------------------------
                    Distance matrix (angstroms):
                    1          2          3          4          5
     1  H    0.000000
     2  C    1.092258   0.000000
     3  H    1.783692   1.095290   0.000000
     4  H    1.767065   1.095996   1.777224   0.000000
     5  C    2.140200   1.527393   2.212601   2.148362   0.000000
     6  O    2.596827   2.399852   3.294276   2.839946   1.221325
     7  N    3.254878   2.431500   2.568688   3.015876   1.375494
     8  H    3.411618   2.473445   2.191079   3.011361   2.028170
     9  C    4.636460   3.864602   4.028455   4.346019   2.576394
    10  H    5.135442   4.447826   4.429300   5.096936   3.257134
    11  C    5.115355   4.532875   4.999082   4.940778   3.028690
    12  H    5.070588   4.469696   5.091116   4.649419   3.036533
    13  H    6.195159   5.589877   5.983401   5.986549   4.101213
    14  H    4.854993   4.490923   5.029861   5.045979   2.978546
    15  C    5.550074   4.595987   4.643167   4.789819   3.566873
    16  O    5.901707   4.932915   5.143308   4.871828   3.952645
    17  N    6.259107   5.274178   5.039700   5.533890   4.468339
    18  H    6.330540   5.423838   5.084275   5.861373   4.620562
    19  C    7.402123   6.358566   6.066934   6.446626   5.703860
    20  H    7.399921   6.330169   6.160746   6.242005   5.701833
    21  H    7.560416   6.512107   6.052126   6.596814   6.086218
    22  H    8.333201   7.315227   7.048317   7.451662   6.537094
                    6          7          8          9         10
     6  O    0.000000
     7  N    2.305423   0.000000
     8  H    3.157609   1.011144   0.000000
     9  C    3.023896   1.471447   2.095980   0.000000
    10  H    3.739946   2.081086   2.469676   1.102039   0.000000
    11  C    2.833682   2.539798   3.425549   1.527655   2.146997
    12  H    2.675425   2.852351   3.734343   2.167334   3.060460
    13  H    3.916300   3.446113   4.218231   2.136903   2.425464
    14  H    2.516664   2.810882   3.776432   2.177087   2.517689
    15  C    4.136318   2.426771   2.580330   1.548673   2.169167
    16  O    4.355407   3.126493   3.355543   2.433921   3.271051
    17  N    5.230439   3.159475   2.915516   2.452007   2.519920
    18  H    5.410316   3.246705   2.961632   2.548736   2.176609
    19  C    6.483759   4.467393   4.105382   3.835584   3.957633
    20  H    6.410654   4.618621   4.334283   4.055162   4.444749
    21  H    7.004530   4.859282   4.283852   4.490541   4.529270
    22  H    7.225964   5.263350   4.998612   4.399308   4.371252
                   11         12         13         14         15
    11  C    0.000000
    12  H    1.089754   0.000000
    13  H    1.096222   1.774285   0.000000
    14  H    1.089332   1.772219   1.782915   0.000000
    15  C    2.518374   2.736247   2.737552   3.481286   0.000000
    16  O    2.879621   2.629647   3.074055   3.925024   1.221908
    17  N    3.665354   4.064164   3.716337   4.532234   1.371103
    18  H    3.843388   4.469090   3.859244   4.544666   2.051673
    19  C    4.907118   5.141126   4.832862   5.859869   2.473992
    20  H    4.956024   4.954787   4.935422   5.979036   2.531125
    21  H    5.731054   5.992180   5.759974   6.616952   3.268666
    22  H    5.300429   5.607975   4.998789   6.258906   3.107414
                   16         17         18         19         20
    16  O    0.000000
    17  N    2.283016   0.000000
    18  H    3.158552   1.010515   0.000000
    19  C    2.826368   1.454178   2.126182   0.000000
    20  H    2.381756   2.061829   2.970256   1.090774   0.000000
    21  H    3.694640   2.105717   2.504387   1.095167   1.784991
    22  H    3.436874   2.121618   2.539314   1.097298   1.778320
                   21         22
    21  H    0.000000
    22  H    1.783583   0.000000
 Stoichiometry    C6H12N2O2
 Framework group  C1[X(C6H12N2O2)]
 Deg. of freedom    60
 Full point group                 C1      NOp   1
 Largest Abelian subgroup         C1      NOp   1
 Largest concise Abelian subgroup C1      NOp   1
                         Standard orientation:                         
 ---------------------------------------------------------------------
 Center     Atomic      Atomic             Coordinates (Angstroms)
 Number     Number       Type             X           Y           Z
 ---------------------------------------------------------------------
      1          1           0       -3.864174   -1.646409   -0.081609
      2          6           0       -2.806774   -1.718405    0.182491
      3          1           0       -2.339771   -2.512303   -0.410209
      4          1           0       -2.745673   -1.995604    1.241091
      5          6           0       -2.167679   -0.343902   -0.005209
      6          8           0       -2.768183    0.678895    0.286191
      7          7           0       -0.891979   -0.393197   -0.517209
      8          1           0       -0.519776   -1.320596   -0.671509
      9          6           0        0.104817    0.680107   -0.657109
     10          1           0        0.386816    0.722608   -1.721609
     11          6           0       -0.353789    2.071605   -0.224509
     12          1           0       -0.565989    2.092004    0.844191
     13          1           0        0.461308    2.774908   -0.431109
     14          1           0       -1.245690    2.384201   -0.766209
     15          6           0        1.344518    0.253812    0.167391
     16          8           0        1.447317    0.482012    1.363391
     17          7           0        2.266421   -0.471685   -0.542309
     18          1           0        2.184721   -0.492085   -1.549309
     19          6           0        3.503723   -0.948580    0.054591
     20          1           0        3.393523   -0.872180    1.137091
     21          1           0        3.687027   -1.992479   -0.221209
     22          1           0        4.364621   -0.342976   -0.255509
 ---------------------------------------------------------------------
 Rotational constants (GHZ):      2.3389908      0.7255934      0.6310004
 Standard basis: Aug-CC-pVDZ (5D, 7F)
 There are   338 symmetry adapted basis functions of A   symmetry.
 Integral buffers will be    131072 words long.
 Raffenetti 1 integral format.
 Two-electron integral symmetry is turned on.
   338 basis functions,   562 primitive gaussians,   358 cartesian basis functions
    39 alpha electrons       39 beta electrons
       nuclear repulsion energy       550.8044995760 Hartrees.
 NAtoms=   22 NActive=   22 NUniq=   22 SFac= 7.50D-01 NAtFMM=   80 NAOKFM=F Big=F
 One-electron integrals computed using PRISM.
 NBasis=   338 RedAO= T  NBF=   338
 NBsUse=   338 1.00D-06 NBFU=   338
 Harris functional with IExCor=  205 diagonalized for initial guess.
 ExpMin= 2.97D-02 ExpMax= 1.17D+04 ExpMxC= 4.01D+02 IAcc=3 IRadAn=         0 AccDes= 0.00D+00
 HarFok:  IExCor=  205 AccDes= 0.00D+00 IRadAn=         0 IDoV= 1
 ScaDFX=  1.000000  1.000000  1.000000  1.000000
 FoFCou: FMM=F IPFlag=           0 FMFlag=      100000 FMFlg1=           0
         NFxFlg=           0 DoJE=T BraDBF=F KetDBF=T FulRan=T
         Omega=  0.000000  0.000000  1.000000  0.000000  0.000000 ICntrl=     500 IOpCl=  0
         NMat0=    1 NMatS0=    1 NMatT0=    0 NMatD0=    1 NMtDS0=    0 NMtDT0=    0
         I1Cent=           4 NGrid=           0.
 Petite list used in FoFCou.
 Initial guess orbital symmetries:
       Occupied  (A) (A) (A) (A) (A) (A) (A) (A) (A) (A) (A) (A)
                 (A) (A) (A) (A) (A) (A) (A) (A) (A) (A) (A) (A)
                 (A) (A) (A) (A) (A) (A) (A) (A) (A) (A) (A) (A)
                 (A) (A) (A)
       Virtual   (A) (A) (A) (A) (A) (A) (A) (A) (A) (A) (A) (A)
                 (A) (A) (A) (A) (A) (A) (A) (A) (A) (A) (A) (A)
                 (A) (A) (A) (A) (A) (A) (A) (A) (A) (A) (A) (A)
                 (A) (A) (A) (A) (A) (A) (A) (A) (A) (A) (A) (A)
                 (A) (A) (A) (A) (A) (A) (A) (A) (A) (A) (A) (A)
                 (A) (A) (A) (A) (A) (A) (A) (A) (A) (A) (A) (A)
                 (A) (A) (A) (A) (A) (A) (A) (A) (A) (A) (A) (A)
                 (A) (A) (A) (A) (A) (A) (A) (A) (A) (A) (A) (A)
                 (A) (A) (A) (A) (A) (A) (A) (A) (A) (A) (A) (A)
                 (A) (A) (A) (A) (A) (A) (A) (A) (A) (A) (A) (A)
                 (A) (A) (A) (A) (A) (A) (A) (A) (A) (A) (A) (A)
                 (A) (A) (A) (A) (A) (A) (A) (A) (A) (A) (A) (A)
                 (A) (A) (A) (A) (A) (A) (A) (A) (A) (A) (A) (A)
                 (A) (A) (A) (A) (A) (A) (A) (A) (A) (A) (A) (A)
                 (A) (A) (A) (A) (A) (A) (A) (A) (A) (A) (A) (A)
                 (A) (A) (A) (A) (A) (A) (A) (A) (A) (A) (A) (A)
                 (A) (A) (A) (A) (A) (A) (A) (A) (A) (A) (A) (A)
                 (A) (A) (A) (A) (A) (A) (A) (A) (A) (A) (A) (A)
                 (A) (A) (A) (A) (A) (A) (A) (A) (A) (A) (A) (A)
                 (A) (A) (A) (A) (A) (A) (A) (A) (A) (A) (A) (A)
                 (A) (A) (A) (A) (A) (A) (A) (A) (A) (A) (A) (A)
                 (A) (A) (A) (A) (A) (A) (A) (A) (A) (A) (A) (A)
                 (A) (A) (A) (A) (A) (A) (A) (A) (A) (A) (A) (A)
                 (A) (A) (A) (A) (A) (A) (A) (A) (A) (A) (A) (A)
                 (A) (A) (A) (A) (A) (A) (A) (A) (A) (A) (A)
 The electronic state of the initial guess is 1-A.
 Requested convergence on RMS density matrix=1.00D-08 within 128 cycles.
 Requested convergence on MAX density matrix=1.00D-06.
 Requested convergence on             energy=1.00D-06.
 No special actions if energy rises.
 Initial convergence to 1.0D-05 achieved.  Increase integral accuracy.
 SCF Done:  E(RHF) =  -492.911298558     A.U. after   14 cycles
             Convg  =    0.7678D-08             -V/T =  2.0017
 ExpMin= 2.97D-02 ExpMax= 1.17D+04 ExpMxC= 4.01D+02 IAcc=3 IRadAn=         5 AccDes= 0.00D+00
 HarFok:  IExCor=  205 AccDes= 0.00D+00 IRadAn=         5 IDoV=-2
 ScaDFX=  1.000000  1.000000  1.000000  1.000000
 Range of M.O.s used for correlation:    11   338
 NBasis=   338 NAE=    39 NBE=    39 NFC=    10 NFV=     0
 NROrb=    328 NOA=    29 NOB=    29 NVA=   299 NVB=   299

 **** Warning!!: The largest alpha MO coefficient is  0.64182186D+02

 Disk-based method using OVN memory for 29 occupieds at a time.
 Estimated scratch disk usage=  1375042971 words.
 Actual    scratch disk usage=  1362033411 words.
 JobTyp=1 Pass  1:  I=   1 to  29 NPSUse=  8 ParTrn=T ParDer=T DoDerP=F.
 Spin components of T(2) and E(2):
     alpha-alpha T2 =       0.6792275533D-01 E2=     -0.2055998718D+00
     alpha-beta  T2 =       0.3771517646D+00 E2=     -0.1190631167D+01
     beta-beta   T2 =       0.6792275533D-01 E2=     -0.2055998718D+00
 ANorm=    0.1230039542D+01
 E2 =    -0.1601830911D+01 EUMP2 =    -0.49451312946863D+03

 **********************************************************************

            Population analysis using the SCF density.

 **********************************************************************

 Orbital symmetries:
       Occupied  (A) (A) (A) (A) (A) (A) (A) (A) (A) (A) (A) (A)
                 (A) (A) (A) (A) (A) (A) (A) (A) (A) (A) (A) (A)
                 (A) (A) (A) (A) (A) (A) (A) (A) (A) (A) (A) (A)
                 (A) (A) (A)
       Virtual   (A) (A) (A) (A) (A) (A) (A) (A) (A) (A) (A) (A)
                 (A) (A) (A) (A) (A) (A) (A) (A) (A) (A) (A) (A)
                 (A) (A) (A) (A) (A) (A) (A) (A) (A) (A) (A) (A)
                 (A) (A) (A) (A) (A) (A) (A) (A) (A) (A) (A) (A)
                 (A) (A) (A) (A) (A) (A) (A) (A) (A) (A) (A) (A)
                 (A) (A) (A) (A) (A) (A) (A) (A) (A) (A) (A) (A)
                 (A) (A) (A) (A) (A) (A) (A) (A) (A) (A) (A) (A)
                 (A) (A) (A) (A) (A) (A) (A) (A) (A) (A) (A) (A)
                 (A) (A) (A) (A) (A) (A) (A) (A) (A) (A) (A) (A)
                 (A) (A) (A) (A) (A) (A) (A) (A) (A) (A) (A) (A)
                 (A) (A) (A) (A) (A) (A) (A) (A) (A) (A) (A) (A)
                 (A) (A) (A) (A) (A) (A) (A) (A) (A) (A) (A) (A)
                 (A) (A) (A) (A) (A) (A) (A) (A) (A) (A) (A) (A)
                 (A) (A) (A) (A) (A) (A) (A) (A) (A) (A) (A) (A)
                 (A) (A) (A) (A) (A) (A) (A) (A) (A) (A) (A) (A)
                 (A) (A) (A) (A) (A) (A) (A) (A) (A) (A) (A) (A)
                 (A) (A) (A) (A) (A) (A) (A) (A) (A) (A) (A) (A)
                 (A) (A) (A) (A) (A) (A) (A) (A) (A) (A) (A) (A)
                 (A) (A) (A) (A) (A) (A) (A) (A) (A) (A) (A) (A)
                 (A) (A) (A) (A) (A) (A) (A) (A) (A) (A) (A) (A)
                 (A) (A) (A) (A) (A) (A) (A) (A) (A) (A) (A) (A)
                 (A) (A) (A) (A) (A) (A) (A) (A) (A) (A) (A) (A)
                 (A) (A) (A) (A) (A) (A) (A) (A) (A) (A) (A) (A)
                 (A) (A) (A) (A) (A) (A) (A) (A) (A) (A) (A) (A)
                 (A) (A) (A) (A) (A) (A) (A) (A) (A) (A) (A)
 The electronic state is 1-A.
 Alpha  occ. eigenvalues --  -20.53778 -20.52618 -15.60780 -15.60168 -11.36525
 Alpha  occ. eigenvalues --  -11.36453 -11.30094 -11.27623 -11.24604 -11.22078
 Alpha  occ. eigenvalues --   -1.39283  -1.38046  -1.24739  -1.23373  -1.05567
 Alpha  occ. eigenvalues --   -0.98818  -0.96542  -0.87991  -0.80100  -0.77223
 Alpha  occ. eigenvalues --   -0.72651  -0.69395  -0.66355  -0.64610  -0.62658
 Alpha  occ. eigenvalues --   -0.61976  -0.60026  -0.58818  -0.56387  -0.55529
 Alpha  occ. eigenvalues --   -0.54297  -0.53043  -0.52611  -0.51263  -0.50879
 Alpha  occ. eigenvalues --   -0.44558  -0.41532  -0.40177  -0.38817
 Alpha virt. eigenvalues --    0.02087   0.03592   0.03939   0.04607   0.05579
 Alpha virt. eigenvalues --    0.06092   0.06270   0.06668   0.07607   0.07849
 Alpha virt. eigenvalues --    0.08643   0.09446   0.11027   0.12086   0.12431
 Alpha virt. eigenvalues --    0.13085   0.13431   0.14556   0.14677   0.14997
 Alpha virt. eigenvalues --    0.15599   0.15939   0.16149   0.16518   0.16901
 Alpha virt. eigenvalues --    0.17016   0.18344   0.18610   0.19069   0.19552
 Alpha virt. eigenvalues --    0.20264   0.20401   0.20774   0.21132   0.21619
 Alpha virt. eigenvalues --    0.22903   0.23948   0.25089   0.25408   0.26724
 Alpha virt. eigenvalues --    0.27052   0.28707   0.29322   0.29521   0.30623
 Alpha virt. eigenvalues --    0.31037   0.31884   0.32332   0.33006   0.33336
 Alpha virt. eigenvalues --    0.34177   0.34675   0.35268   0.36268   0.36558
 Alpha virt. eigenvalues --    0.37032   0.37235   0.38612   0.38831   0.39248
 Alpha virt. eigenvalues --    0.39901   0.40996   0.41384   0.42202   0.42408
 Alpha virt. eigenvalues --    0.43045   0.43953   0.44381   0.44815   0.45688
 Alpha virt. eigenvalues --    0.46477   0.47148   0.47370   0.47933   0.49092
 Alpha virt. eigenvalues --    0.49507   0.49822   0.51474   0.51771   0.52837
 Alpha virt. eigenvalues --    0.53424   0.54377   0.54723   0.55216   0.56111
 Alpha virt. eigenvalues --    0.56655   0.57004   0.57605   0.58183   0.59180
 Alpha virt. eigenvalues --    0.59455   0.60035   0.60430   0.61157   0.62181
 Alpha virt. eigenvalues --    0.62792   0.63323   0.64216   0.64423   0.65369
 Alpha virt. eigenvalues --    0.65750   0.65945   0.67372   0.67557   0.68375
 Alpha virt. eigenvalues --    0.69044   0.69556   0.70016   0.70282   0.70794
 Alpha virt. eigenvalues --    0.71400   0.71993   0.72397   0.74253   0.74896
 Alpha virt. eigenvalues --    0.75794   0.77094   0.77926   0.78713   0.79011
 Alpha virt. eigenvalues --    0.80059   0.80910   0.80951   0.82047   0.82559
 Alpha virt. eigenvalues --    0.83608   0.84460   0.85515   0.86561   0.87222
 Alpha virt. eigenvalues --    0.88594   0.90800   0.91413   0.91963   0.93490
 Alpha virt. eigenvalues --    0.94652   0.96233   0.96812   0.97753   0.98615
 Alpha virt. eigenvalues --    0.99182   1.00091   1.02091   1.02580   1.03768
 Alpha virt. eigenvalues --    1.04853   1.06554   1.07706   1.08763   1.10490
 Alpha virt. eigenvalues --    1.12035   1.12554   1.13442   1.13958   1.15360
 Alpha virt. eigenvalues --    1.16496   1.17412   1.18486   1.20429   1.21665
 Alpha virt. eigenvalues --    1.24806   1.24938   1.25237   1.27040   1.29763
 Alpha virt. eigenvalues --    1.30074   1.33019   1.35107   1.36523   1.37057
 Alpha virt. eigenvalues --    1.40194   1.40679   1.43065   1.45665   1.47641
 Alpha virt. eigenvalues --    1.48428   1.51565   1.52549   1.54073   1.55280
 Alpha virt. eigenvalues --    1.55727   1.56628   1.58567   1.61126   1.62154
 Alpha virt. eigenvalues --    1.64509   1.68831   1.69881   1.71216   1.72388
 Alpha virt. eigenvalues --    1.73485   1.75390   1.77333   1.78832   1.79648
 Alpha virt. eigenvalues --    1.81899   1.82869   1.85029   1.85809   1.88649
 Alpha virt. eigenvalues --    1.89308   1.89575   1.91574   1.92666   1.94370
 Alpha virt. eigenvalues --    1.94932   1.95508   1.98018   1.98193   2.01217
 Alpha virt. eigenvalues --    2.03059   2.04553   2.05789   2.06830   2.08532
 Alpha virt. eigenvalues --    2.09959   2.11577   2.13914   2.16148   2.17021
 Alpha virt. eigenvalues --    2.17808   2.19057   2.19980   2.20783   2.22928
 Alpha virt. eigenvalues --    2.23753   2.25839   2.27491   2.28397   2.29441
 Alpha virt. eigenvalues --    2.30620   2.31883   2.33564   2.35759   2.38647
 Alpha virt. eigenvalues --    2.39266   2.40006   2.41294   2.41927   2.44094
 Alpha virt. eigenvalues --    2.45272   2.47675   2.49158   2.50782   2.53291
 Alpha virt. eigenvalues --    2.54720   2.55819   2.57699   2.59103   2.61532
 Alpha virt. eigenvalues --    2.62805   2.63381   2.66129   2.67577   2.68913
 Alpha virt. eigenvalues --    2.72152   2.73033   2.75162   2.77460   2.79915
 Alpha virt. eigenvalues --    2.81060   2.83183   2.85270   2.85955   2.88206
 Alpha virt. eigenvalues --    2.89740   2.91940   2.93278   2.96699   2.97132
 Alpha virt. eigenvalues --    2.99522   3.01417   3.03497   3.06648   3.08597
 Alpha virt. eigenvalues --    3.11064   3.13512   3.19152   3.21122   3.25217
 Alpha virt. eigenvalues --    3.30055   3.31992   3.39873   3.44074   3.51407
 Alpha virt. eigenvalues --    3.60476   3.64431   3.73130   3.83073   3.84233
 Alpha virt. eigenvalues --    3.85859   3.86429   3.93209   3.97478   4.03526
 Alpha virt. eigenvalues --    4.08223   4.11186   4.21087   4.27608
          Condensed to atoms (all electrons):
              1          2          3          4          5          6
     1  H    0.776638   0.411004  -0.109048  -0.054233  -0.102959   0.029485
     2  C    0.411004   4.512414   0.283165   0.351105   0.151239  -0.012128
     3  H   -0.109048   0.283165   1.082785  -0.056800   0.173324  -0.010561
     4  H   -0.054233   0.351105  -0.056800   0.724612  -0.076657   0.013860
     5  C   -0.102959   0.151239   0.173324  -0.076657   5.629449   0.178355
     6  O    0.029485  -0.012128  -0.010561   0.013860   0.178355   8.664553
     7  N    0.052051  -0.021629  -0.179229   0.031425   0.095316  -0.093497
     8  H   -0.003060  -0.054634   0.005584  -0.007388  -0.185515  -0.000845
     9  C    0.003976  -0.007836  -0.051155   0.008857  -0.368710   0.042093
    10  H   -0.002104   0.007256   0.000251   0.001610  -0.034817   0.011104
    11  C    0.000139   0.008720   0.001835  -0.000186  -0.045107  -0.004374
    12  H   -0.002015   0.001435   0.001082   0.000830   0.007586   0.003426
    13  H   -0.000079  -0.003709  -0.000770   0.000324  -0.028502   0.003939
    14  H    0.001437   0.007625   0.000506  -0.000917   0.045846  -0.039470
    15  C   -0.003027   0.008942  -0.002393   0.002184  -0.034220   0.021010
    16  O   -0.000588  -0.007472  -0.000780   0.000094  -0.003306  -0.000759
    17  N    0.000541   0.001163   0.000702  -0.000433  -0.021138   0.002158
    18  H    0.000124  -0.001292   0.000441  -0.000287  -0.004378  -0.000417
    19  C   -0.000265  -0.001661  -0.001645  -0.000034  -0.019847   0.001094
    20  H   -0.000067   0.000023   0.000098   0.000025  -0.003130  -0.000009
    21  H    0.000000   0.000048  -0.000439   0.000022  -0.000320   0.000045
    22  H    0.000013   0.000275   0.000190  -0.000012   0.000425   0.000064
              7          8          9         10         11         12
     1  H    0.052051  -0.003060   0.003976  -0.002104   0.000139  -0.002015
     2  C   -0.021629  -0.054634  -0.007836   0.007256   0.008720   0.001435
     3  H   -0.179229   0.005584  -0.051155   0.000251   0.001835   0.001082
     4  H    0.031425  -0.007388   0.008857   0.001610  -0.000186   0.000830
     5  C    0.095316  -0.185515  -0.368710  -0.034817  -0.045107   0.007586
     6  O   -0.093497  -0.000845   0.042093   0.011104  -0.004374   0.003426
     7  N    7.608990   0.327477  -0.267883  -0.161919  -0.026873  -0.004238
     8  H    0.327477   1.042633  -0.032813   0.035097  -0.036288  -0.006530
     9  C   -0.267883  -0.032813   7.534933  -0.105099   0.030189  -0.087537
    10  H   -0.161919   0.035097  -0.105099   1.502491   0.003120   0.067118
    11  C   -0.026873  -0.036288   0.030189   0.003120   4.440766   0.357629
    12  H   -0.004238  -0.006530  -0.087537   0.067118   0.357629   0.937479
    13  H    0.116701  -0.000963  -0.226287  -0.088947   0.328086  -0.139196
    14  H   -0.063633  -0.001541   0.190632  -0.026370   0.183653  -0.189427
    15  C    0.001479  -0.067678  -0.518914   0.085808   0.095371   0.016239
    16  O    0.032034   0.004949  -0.093948  -0.012101  -0.010381  -0.009046
    17  N    0.045551   0.034272   0.034596  -0.048642  -0.037464  -0.007364
    18  H   -0.039540  -0.004662   0.003206   0.010763   0.013752  -0.001010
    19  C   -0.000810   0.009306   0.003446   0.015612  -0.004211  -0.001434
    20  H   -0.005037   0.000510   0.023088   0.006408  -0.002975   0.000968
    21  H    0.001303   0.001169  -0.017841  -0.002647   0.006211   0.000172
    22  H   -0.002863  -0.003413   0.018410   0.001326  -0.001263  -0.000167
             13         14         15         16         17         18
     1  H   -0.000079   0.001437  -0.003027  -0.000588   0.000541   0.000124
     2  C   -0.003709   0.007625   0.008942  -0.007472   0.001163  -0.001292
     3  H   -0.000770   0.000506  -0.002393  -0.000780   0.000702   0.000441
     4  H    0.000324  -0.000917   0.002184   0.000094  -0.000433  -0.000287
     5  C   -0.028502   0.045846  -0.034220  -0.003306  -0.021138  -0.004378
     6  O    0.003939  -0.039470   0.021010  -0.000759   0.002158  -0.000417
     7  N    0.116701  -0.063633   0.001479   0.032034   0.045551  -0.039540
     8  H   -0.000963  -0.001541  -0.067678   0.004949   0.034272  -0.004662
     9  C   -0.226287   0.190632  -0.518914  -0.093948   0.034596   0.003206
    10  H   -0.088947  -0.026370   0.085808  -0.012101  -0.048642   0.010763
    11  C    0.328086   0.183653   0.095371  -0.010381  -0.037464   0.013752
    12  H   -0.139196  -0.189427   0.016239  -0.009046  -0.007364  -0.001010
    13  H    1.305812  -0.218777   0.026618   0.015618  -0.006989   0.008100
    14  H   -0.218777   1.068021  -0.035159   0.004098   0.009355  -0.001518
    15  C    0.026618  -0.035159   5.117062   0.315980   0.126258  -0.042093
    16  O    0.015618   0.004098   0.315980   8.700679  -0.177304   0.008895
    17  N   -0.006989   0.009355   0.126258  -0.177304   7.203784   0.246393
    18  H    0.008100  -0.001518  -0.042093   0.008895   0.246393   1.032480
    19  C   -0.002328   0.001201  -0.144188   0.012789   0.268995  -0.132494
    20  H   -0.000920  -0.000322  -0.010290   0.010206  -0.030641   0.001249
    21  H    0.000517   0.000333  -0.009617   0.014849  -0.116543   0.014649
    22  H   -0.001240   0.000056  -0.025167   0.001314  -0.003428  -0.008328
             19         20         21         22
     1  H   -0.000265  -0.000067   0.000000   0.000013
     2  C   -0.001661   0.000023   0.000048   0.000275
     3  H   -0.001645   0.000098  -0.000439   0.000190
     4  H   -0.000034   0.000025   0.000022  -0.000012
     5  C   -0.019847  -0.003130  -0.000320   0.000425
     6  O    0.001094  -0.000009   0.000045   0.000064
     7  N   -0.000810  -0.005037   0.001303  -0.002863
     8  H    0.009306   0.000510   0.001169  -0.003413
     9  C    0.003446   0.023088  -0.017841   0.018410
    10  H    0.015612   0.006408  -0.002647   0.001326
    11  C   -0.004211  -0.002975   0.006211  -0.001263
    12  H   -0.001434   0.000968   0.000172  -0.000167
    13  H   -0.002328  -0.000920   0.000517  -0.001240
    14  H    0.001201  -0.000322   0.000333   0.000056
    15  C   -0.144188  -0.010290  -0.009617  -0.025167
    16  O    0.012789   0.010206   0.014849   0.001314
    17  N    0.268995  -0.030641  -0.116543  -0.003428
    18  H   -0.132494   0.001249   0.014649  -0.008328
    19  C    4.104848   0.452639   0.378376   0.329025
    20  H    0.452639   0.921160  -0.136817  -0.087983
    21  H    0.378376  -0.136817   1.150209  -0.152737
    22  H    0.329025  -0.087983  -0.152737   1.020309
 Mulliken atomic charges:
              1
     1  H    0.002034
     2  C    0.365947
     3  H   -0.137143
     4  H    0.062001
     5  C    0.647065
     6  O   -0.809128
     7  N   -0.445176
     8  H   -0.055668
     9  C   -0.115404
    10  H   -0.265319
    11  C    0.699652
    12  H    0.054001
    13  H   -0.087007
    14  H    0.064369
    15  C    1.075794
    16  O   -0.805819
    17  N   -0.523822
    18  H   -0.104033
    19  C    0.731586
    20  H   -0.138182
    21  H   -0.130943
    22  H   -0.084806
 Sum of Mulliken atomic charges =   0.00000
 Mulliken charges with hydrogens summed into heavy atoms:
              1
     2  C    0.292840
     5  C    0.647065
     6  O   -0.809128
     7  N   -0.500843
     9  C   -0.380723
    11  C    0.731015
    15  C    1.075794
    16  O   -0.805819
    17  N   -0.627855
    19  C    0.377654
 Sum of Mulliken charges with hydrogens summed into heavy atoms =   0.00000
 Electronic spatial extent (au):  <R**2>=           1893.4585
 Charge=              0.0000 electrons
 Dipole moment (field-independent basis, Debye):
    X=              3.0633    Y=             -3.7608    Z=             -4.3318  Tot=              6.5032
 Quadrupole moment (field-independent basis, Debye-Ang):
   XX=            -62.8421   YY=            -57.8731   ZZ=            -63.0933
   XY=              4.6256   XZ=             -4.5099   YZ=             -1.9902
 Traceless Quadrupole moment (field-independent basis, Debye-Ang):
   XX=             -1.5726   YY=              3.3964   ZZ=             -1.8238
   XY=              4.6256   XZ=             -4.5099   YZ=             -1.9902
 Octapole moment (field-independent basis, Debye-Ang**2):
  XXX=             48.8619  YYY=             -3.2405  ZZZ=             -7.5587  XYY=             -0.6040
  XXY=            -31.7354  XXZ=            -12.5306  XZZ=             -0.8237  YZZ=             -4.3623
  YYZ=             -1.5187  XYZ=              0.8962
 Hexadecapole moment (field-independent basis, Debye-Ang**3):
 XXXX=          -1719.0753 YYYY=           -525.8506 ZZZZ=           -203.1154 XXXY=             38.5641
 XXXZ=              7.0553 YYYX=             -2.5842 YYYZ=              6.2886 ZZZX=            -21.9816
 ZZZY=             -0.4210 XXYY=           -370.5949 XXZZ=           -323.9007 YYZZ=           -122.1272
 XXYZ=            -10.4884 YYXZ=             -2.2475 ZZXY=             -7.2195
 N-N= 5.508044995760D+02 E-N=-2.256847145070D+03  KE= 4.920552557333D+02
 1\1\GINC-NODE007\SP\RMP2-FC\Aug-CC-pVDZ\C6H12N2O2\MANAGER\12-Feb-2017\
 0\\#SP MP2/aug-cc-pVDZ\\Single Point calculation at MP2\\0,1\H,0,-3.86
 42,-1.6464,-0.0816\C,0,-2.8068,-1.7184,0.1825\H,0,-2.3398,-2.5123,-0.4
 102\H,0,-2.7457,-1.9956,1.2411\C,0,-2.1677,-0.3439,-0.0052\O,0,-2.7682
 ,0.6789,0.2862\N,0,-0.892,-0.3932,-0.5172\H,0,-0.5198,-1.3206,-0.6715\
 C,0,0.1048,0.6801,-0.6571\H,0,0.3868,0.7226,-1.7216\C,0,-0.3538,2.0716
 ,-0.2245\H,0,-0.566,2.092,0.8442\H,0,0.4613,2.7749,-0.4311\H,0,-1.2457
 ,2.3842,-0.7662\C,0,1.3445,0.2538,0.1674\O,0,1.4473,0.482,1.3634\N,0,2
 .2664,-0.4717,-0.5423\H,0,2.1847,-0.4921,-1.5493\C,0,3.5037,-0.9486,0.
 0546\H,0,3.3935,-0.8722,1.1371\H,0,3.687,-1.9925,-0.2212\H,0,4.3646,-0
 .343,-0.2555\\Version=EM64L-G09RevA.02\State=1-A\HF=-492.9112986\MP2=-
 494.5131295\RMSD=7.678e-09\PG=C01 [X(C6H12N2O2)]\\@


 THERE IS NO SUBJECT, HOWEVER COMPLEX,
 WHICH, IF STUDIED WITH PATIENCE AND INTELLIGIENCE
 WILL NOT BECOME
 MORE COMPLEX
                        QUOTED BY D. GORDON ROHMAN
 Job cpu time:  0 days 16 hours 34 minutes 58.0 seconds.
 File lengths (MBytes):  RWF=  10508 Int=      0 D2E=      0 Chk=      7 Scr=      2
 Normal termination of Gaussian 09 at Sun Feb 12 18:39:04 2017.
