 Entering Gaussian System, Link 0=g09
 Initial command:
 /home/steboss/Software/g09/l1.exe /home/steboss/projects/phi_psi_scan/alanine/MP2/120/5217/Gau-19984.inp -scrdir=/home/steboss/projects/phi_psi_scan/alanine/MP2/120/5217/
 Entering Link 1 = /home/steboss/Software/g09/l1.exe PID=     19986.
  
 Copyright (c) 1988,1990,1992,1993,1995,1998,2003,2009, Gaussian, Inc.
                  All Rights Reserved.
  
 This is part of the Gaussian(R) 09 program.  It is based on
 the Gaussian(R) 03 system (copyright 2003, Gaussian, Inc.),
 the Gaussian(R) 98 system (copyright 1998, Gaussian, Inc.),
 the Gaussian(R) 94 system (copyright 1995, Gaussian, Inc.),
 the Gaussian 92(TM) system (copyright 1992, Gaussian, Inc.),
 the Gaussian 90(TM) system (copyright 1990, Gaussian, Inc.),
 the Gaussian 88(TM) system (copyright 1988, Gaussian, Inc.),
 the Gaussian 86(TM) system (copyright 1986, Carnegie Mellon
 University), and the Gaussian 82(TM) system (copyright 1983,
 Carnegie Mellon University). Gaussian is a federally registered
 trademark of Gaussian, Inc.
  
 This software contains proprietary and confidential information,
 including trade secrets, belonging to Gaussian, Inc.
  
 This software is provided under written license and may be
 used, copied, transmitted, or stored only in accord with that
 written license.
  
 The following legend is applicable only to US Government
 contracts under FAR:
  
                    RESTRICTED RIGHTS LEGEND
  
 Use, reproduction and disclosure by the US Government is
 subject to restrictions as set forth in subparagraphs (a)
 and (c) of the Commercial Computer Software - Restricted
 Rights clause in FAR 52.227-19.
  
 Gaussian, Inc.
 340 Quinnipiac St., Bldg. 40, Wallingford CT 06492
  
  
 ---------------------------------------------------------------
 Warning -- This program may not be used in any manner that
 competes with the business of Gaussian, Inc. or will provide
 assistance to any competitor of Gaussian, Inc.  The licensee
 of this program is prohibited from giving any competitor of
 Gaussian, Inc. access to this program.  By using this program,
 the user acknowledges that Gaussian, Inc. is engaged in the
 business of creating and licensing software in the field of
 computational chemistry and represents and warrants to the
 licensee that it is not a competitor of Gaussian, Inc. and that
 it will not use this program in any manner prohibited above.
 ---------------------------------------------------------------
  

 Cite this work as:
 Gaussian 09, Revision A.02,
 M. J. Frisch, G. W. Trucks, H. B. Schlegel, G. E. Scuseria, 
 M. A. Robb, J. R. Cheeseman, G. Scalmani, V. Barone, B. Mennucci, 
 G. A. Petersson, H. Nakatsuji, M. Caricato, X. Li, H. P. Hratchian, 
 A. F. Izmaylov, J. Bloino, G. Zheng, J. L. Sonnenberg, M. Hada, 
 M. Ehara, K. Toyota, R. Fukuda, J. Hasegawa, M. Ishida, T. Nakajima, 
 Y. Honda, O. Kitao, H. Nakai, T. Vreven, J. A. Montgomery, Jr., 
 J. E. Peralta, F. Ogliaro, M. Bearpark, J. J. Heyd, E. Brothers, 
 K. N. Kudin, V. N. Staroverov, R. Kobayashi, J. Normand, 
 K. Raghavachari, A. Rendell, J. C. Burant, S. S. Iyengar, J. Tomasi, 
 M. Cossi, N. Rega, J. M. Millam, M. Klene, J. E. Knox, J. B. Cross, 
 V. Bakken, C. Adamo, J. Jaramillo, R. Gomperts, R. E. Stratmann, 
 O. Yazyev, A. J. Austin, R. Cammi, C. Pomelli, J. W. Ochterski, 
 R. L. Martin, K. Morokuma, V. G. Zakrzewski, G. A. Voth, 
 P. Salvador, J. J. Dannenberg, S. Dapprich, A. D. Daniels, 
 O. Farkas, J. B. Foresman, J. V. Ortiz, J. Cioslowski, 
 and D. J. Fox, Gaussian, Inc., Wallingford CT, 2009.
 
 ******************************************
 Gaussian 09:  EM64L-G09RevA.02 11-Jun-2009
                12-Feb-2017 
 ******************************************
 %chk=structure_255.chk
 %NProcShared=8
 Will use up to    8 processors via shared memory.
 -------------------
 #SP MP2/aug-cc-pVDZ
 -------------------
 1/38=1/1;
 2/12=2,17=6,18=5,40=1/2;
 3/5=16,7=10,11=9,16=1,25=1,30=1/1,2,3;
 4//1;
 5/5=2,38=5/2;
 8/10=1/1;
 9/16=-3/6;
 6/7=2,8=2,9=2,10=2/1;
 99/5=1,9=1/99;
 -------------------------------
 Single Point calculation at MP2
 -------------------------------
 Symbolic Z-matrix:
 Charge =  0 Multiplicity = 1
 H                    -4.0351   -0.9936    0.0364 
 C                    -3.0442   -1.3226    0.3652 
 H                    -2.7482   -2.1964   -0.2235 
 H                    -3.1305   -1.6134    1.4164 
 C                    -2.0841   -0.1401    0.2655 
 O                    -2.2832    0.8884    0.9008 
 N                    -1.0293   -0.3463   -0.5818 
 H                    -0.9393   -1.2641   -0.997 
 C                     0.0875    0.5452   -0.93 
 H                     0.1455    0.5577   -2.0256 
 C                    -0.0507    1.9914   -0.4519 
 H                    -0.1461    2.0798    0.6316 
 H                     0.8236    2.5559   -0.7959 
 H                    -0.9466    2.4495   -0.8758 
 C                     1.3722   -0.2063   -0.506 
 O                     1.7315   -1.1859   -1.1541 
 N                     1.9975    0.2245    0.621 
 H                     1.6139    1.0178    1.1131 
 C                     3.1582   -0.4475    1.1796 
 H                     3.4375   -1.2446    0.4895 
 H                     3.998     0.2478    1.2894 
 H                     2.9305   -0.885     2.1591 
 
                          Input orientation:                          
 ---------------------------------------------------------------------
 Center     Atomic      Atomic             Coordinates (Angstroms)
 Number     Number       Type             X           Y           Z
 ---------------------------------------------------------------------
      1          1           0       -4.035100   -0.993600    0.036400
      2          6           0       -3.044200   -1.322600    0.365200
      3          1           0       -2.748200   -2.196400   -0.223500
      4          1           0       -3.130500   -1.613400    1.416400
      5          6           0       -2.084100   -0.140100    0.265500
      6          8           0       -2.283200    0.888400    0.900800
      7          7           0       -1.029300   -0.346300   -0.581800
      8          1           0       -0.939300   -1.264100   -0.997000
      9          6           0        0.087500    0.545200   -0.930000
     10          1           0        0.145500    0.557700   -2.025600
     11          6           0       -0.050700    1.991400   -0.451900
     12          1           0       -0.146100    2.079800    0.631600
     13          1           0        0.823600    2.555900   -0.795900
     14          1           0       -0.946600    2.449500   -0.875800
     15          6           0        1.372200   -0.206300   -0.506000
     16          8           0        1.731500   -1.185900   -1.154100
     17          7           0        1.997500    0.224500    0.621000
     18          1           0        1.613900    1.017800    1.113100
     19          6           0        3.158200   -0.447500    1.179600
     20          1           0        3.437500   -1.244600    0.489500
     21          1           0        3.998000    0.247800    1.289400
     22          1           0        2.930500   -0.885000    2.159100
 ---------------------------------------------------------------------
                    Distance matrix (angstroms):
                    1          2          3          4          5
     1  H    0.000000
     2  C    1.094638   0.000000
     3  H    1.780558   1.094399   0.000000
     4  H    1.762627   1.094090   1.781941   0.000000
     5  C    2.141810   1.526446   2.215518   2.142460   0.000000
     6  O    2.712612   2.398856   3.316062   2.691238   1.225177
     7  N    3.136240   2.431007   2.550660   3.164394   1.368590
     8  H    3.274914   2.507911   2.177063   3.278394   2.041531
     9  C    4.505293   3.869595   4.007082   4.529975   2.571906
    10  H    4.912819   4.407453   4.382480   5.224291   3.272183
    11  C    5.002410   4.539966   4.986616   5.096106   3.031942
    12  H    4.992431   4.477307   5.078189   4.812721   2.969483
    13  H    6.074425   5.599178   5.972416   6.157292   4.104839
    14  H    4.714433   4.490963   5.025499   5.150802   3.050000
    15  C    5.491169   4.637856   4.584539   5.094100   3.541977
    16  O    5.891345   5.013409   4.685599   5.516273   4.203304
    17  N    6.182054   5.279933   5.394034   5.505172   4.113243
    18  H    6.092308   5.266377   5.580815   5.433648   3.966656
    19  C    7.304019   6.316551   6.317666   6.400246   5.330270
    20  H    7.490531   6.483361   6.298982   6.643326   5.635438
    21  H    8.224462   7.274124   7.333089   7.368562   6.179869
    22  H    7.282667   6.253528   6.296363   6.149625   5.411729
                    6          7          8          9         10
     6  O    0.000000
     7  N    2.301055   0.000000
     8  H    3.168749   1.011359   0.000000
     9  C    3.014935   1.470802   2.081435   0.000000
    10  H    3.817298   2.069282   2.356643   1.097205   0.000000
    11  C    2.833807   2.537592   3.418336   1.529436   2.137878
    12  H    2.461524   2.852778   3.803048   2.201854   3.076123
    13  H    3.912998   3.449905   4.211966   2.145400   2.442291
    14  H    2.716586   2.812432   3.715584   2.167639   2.468528
    15  C    4.066867   2.406771   2.589026   1.547573   2.097063
    16  O    4.964187   2.941848   2.676559   2.397846   2.512976
    17  N    4.340904   3.306669   3.668603   2.481240   3.247371
    18  H    3.905023   3.423443   4.022241   2.593743   3.495616
    19  C    5.609919   4.543999   4.711043   3.855524   4.512216
    20  H    6.119254   4.680484   4.622385   4.054734   4.517884
    21  H    6.325729   5.397045   5.647158   4.506239   5.091858
    22  H    5.648976   4.845900   5.007997   4.435162   5.229658
                   11         12         13         14         15
    11  C    0.000000
    12  H    1.091278   0.000000
    13  H    1.096082   1.790180   0.000000
    14  H    1.091872   1.746349   1.775194   0.000000
    15  C    2.618675   2.970795   2.831034   3.544977   0.000000
    16  O    3.710062   4.168801   3.866996   4.523915   1.228310
    17  N    2.910013   2.835008   2.970029   3.982306   1.358940
    18  H    2.483549   2.111229   2.575773   3.544242   2.044095
    19  C    4.348225   4.195944   4.286417   5.428320   2.467635
    20  H    4.850306   4.890196   4.788374   5.893280   2.516853
    21  H    4.739645   4.578481   4.444392   5.829635   3.213175
    22  H    4.896790   4.537484   5.001084   5.946546   3.160964
                   16         17         18         19         20
    16  O    0.000000
    17  N    2.282754   0.000000
    18  H    3.163909   1.009275   0.000000
    19  C    2.833172   1.452874   2.129880   0.000000
    20  H    2.369663   2.061346   2.972011   1.090695   0.000000
    21  H    3.628114   2.109337   2.511556   1.095793   1.783608
    22  H    3.536303   2.113582   2.539331   1.096665   1.781551
                   21         22
    21  H    0.000000
    22  H    1.783023   0.000000
 Stoichiometry    C6H12N2O2
 Framework group  C1[X(C6H12N2O2)]
 Deg. of freedom    60
 Full point group                 C1      NOp   1
 Largest Abelian subgroup         C1      NOp   1
 Largest concise Abelian subgroup C1      NOp   1
                         Standard orientation:                         
 ---------------------------------------------------------------------
 Center     Atomic      Atomic             Coordinates (Angstroms)
 Number     Number       Type             X           Y           Z
 ---------------------------------------------------------------------
      1          1           0       -4.035106   -0.993588    0.036399
      2          6           0       -3.044207   -1.322589    0.365199
      3          1           0       -2.748208   -2.196389   -0.223501
      4          1           0       -3.130507   -1.613389    1.416399
      5          6           0       -2.084105   -0.140090    0.265499
      6          8           0       -2.283204    0.888410    0.900799
      7          7           0       -1.029306   -0.346291   -0.581801
      8          1           0       -0.939307   -1.264091   -0.997001
      9          6           0        0.087495    0.545208   -0.930001
     10          1           0        0.145495    0.557708   -2.025601
     11          6           0       -0.050703    1.991408   -0.451901
     12          1           0       -0.146103    2.079808    0.631599
     13          1           0        0.823598    2.555907   -0.795901
     14          1           0       -0.946602    2.449509   -0.875801
     15          6           0        1.372195   -0.206294   -0.506001
     16          8           0        1.731494   -1.185894   -1.154101
     17          7           0        1.997495    0.224506    0.620999
     18          1           0        1.613896    1.017806    1.113099
     19          6           0        3.158194   -0.447496    1.179599
     20          1           0        3.437494   -1.244596    0.489499
     21          1           0        3.997995    0.247803    1.289399
     22          1           0        2.930494   -0.884996    2.159099
 ---------------------------------------------------------------------
 Rotational constants (GHZ):      2.1111473      0.7437149      0.6942055
 Standard basis: Aug-CC-pVDZ (5D, 7F)
 There are   338 symmetry adapted basis functions of A   symmetry.
 Integral buffers will be    131072 words long.
 Raffenetti 1 integral format.
 Two-electron integral symmetry is turned on.
   338 basis functions,   562 primitive gaussians,   358 cartesian basis functions
    39 alpha electrons       39 beta electrons
       nuclear repulsion energy       553.2740573010 Hartrees.
 NAtoms=   22 NActive=   22 NUniq=   22 SFac= 7.50D-01 NAtFMM=   80 NAOKFM=F Big=F
 One-electron integrals computed using PRISM.
 NBasis=   338 RedAO= T  NBF=   338
 NBsUse=   338 1.00D-06 NBFU=   338
 Harris functional with IExCor=  205 diagonalized for initial guess.
 ExpMin= 2.97D-02 ExpMax= 1.17D+04 ExpMxC= 4.01D+02 IAcc=3 IRadAn=         0 AccDes= 0.00D+00
 HarFok:  IExCor=  205 AccDes= 0.00D+00 IRadAn=         0 IDoV= 1
 ScaDFX=  1.000000  1.000000  1.000000  1.000000
 FoFCou: FMM=F IPFlag=           0 FMFlag=      100000 FMFlg1=           0
         NFxFlg=           0 DoJE=T BraDBF=F KetDBF=T FulRan=T
         Omega=  0.000000  0.000000  1.000000  0.000000  0.000000 ICntrl=     500 IOpCl=  0
         NMat0=    1 NMatS0=    1 NMatT0=    0 NMatD0=    1 NMtDS0=    0 NMtDT0=    0
         I1Cent=           4 NGrid=           0.
 Petite list used in FoFCou.
 Initial guess orbital symmetries:
       Occupied  (A) (A) (A) (A) (A) (A) (A) (A) (A) (A) (A) (A)
                 (A) (A) (A) (A) (A) (A) (A) (A) (A) (A) (A) (A)
                 (A) (A) (A) (A) (A) (A) (A) (A) (A) (A) (A) (A)
                 (A) (A) (A)
       Virtual   (A) (A) (A) (A) (A) (A) (A) (A) (A) (A) (A) (A)
                 (A) (A) (A) (A) (A) (A) (A) (A) (A) (A) (A) (A)
                 (A) (A) (A) (A) (A) (A) (A) (A) (A) (A) (A) (A)
                 (A) (A) (A) (A) (A) (A) (A) (A) (A) (A) (A) (A)
                 (A) (A) (A) (A) (A) (A) (A) (A) (A) (A) (A) (A)
                 (A) (A) (A) (A) (A) (A) (A) (A) (A) (A) (A) (A)
                 (A) (A) (A) (A) (A) (A) (A) (A) (A) (A) (A) (A)
                 (A) (A) (A) (A) (A) (A) (A) (A) (A) (A) (A) (A)
                 (A) (A) (A) (A) (A) (A) (A) (A) (A) (A) (A) (A)
                 (A) (A) (A) (A) (A) (A) (A) (A) (A) (A) (A) (A)
                 (A) (A) (A) (A) (A) (A) (A) (A) (A) (A) (A) (A)
                 (A) (A) (A) (A) (A) (A) (A) (A) (A) (A) (A) (A)
                 (A) (A) (A) (A) (A) (A) (A) (A) (A) (A) (A) (A)
                 (A) (A) (A) (A) (A) (A) (A) (A) (A) (A) (A) (A)
                 (A) (A) (A) (A) (A) (A) (A) (A) (A) (A) (A) (A)
                 (A) (A) (A) (A) (A) (A) (A) (A) (A) (A) (A) (A)
                 (A) (A) (A) (A) (A) (A) (A) (A) (A) (A) (A) (A)
                 (A) (A) (A) (A) (A) (A) (A) (A) (A) (A) (A) (A)
                 (A) (A) (A) (A) (A) (A) (A) (A) (A) (A) (A) (A)
                 (A) (A) (A) (A) (A) (A) (A) (A) (A) (A) (A) (A)
                 (A) (A) (A) (A) (A) (A) (A) (A) (A) (A) (A) (A)
                 (A) (A) (A) (A) (A) (A) (A) (A) (A) (A) (A) (A)
                 (A) (A) (A) (A) (A) (A) (A) (A) (A) (A) (A) (A)
                 (A) (A) (A) (A) (A) (A) (A) (A) (A) (A) (A) (A)
                 (A) (A) (A) (A) (A) (A) (A) (A) (A) (A) (A)
 The electronic state of the initial guess is 1-A.
 Requested convergence on RMS density matrix=1.00D-08 within 128 cycles.
 Requested convergence on MAX density matrix=1.00D-06.
 Requested convergence on             energy=1.00D-06.
 No special actions if energy rises.
 Initial convergence to 1.0D-05 achieved.  Increase integral accuracy.
 SCF Done:  E(RHF) =  -492.915894434     A.U. after   14 cycles
             Convg  =    0.7393D-08             -V/T =  2.0017
 ExpMin= 2.97D-02 ExpMax= 1.17D+04 ExpMxC= 4.01D+02 IAcc=3 IRadAn=         5 AccDes= 0.00D+00
 HarFok:  IExCor=  205 AccDes= 0.00D+00 IRadAn=         5 IDoV=-2
 ScaDFX=  1.000000  1.000000  1.000000  1.000000
 Range of M.O.s used for correlation:    11   338
 NBasis=   338 NAE=    39 NBE=    39 NFC=    10 NFV=     0
 NROrb=    328 NOA=    29 NOB=    29 NVA=   299 NVB=   299

 **** Warning!!: The largest alpha MO coefficient is  0.60631394D+02

 Disk-based method using OVN memory for 29 occupieds at a time.
 Estimated scratch disk usage=  1381814044 words.
 Actual    scratch disk usage=  1368670923 words.
 JobTyp=1 Pass  1:  I=   1 to  29 NPSUse=  8 ParTrn=T ParDer=T DoDerP=F.
 Spin components of T(2) and E(2):
     alpha-alpha T2 =       0.6785926104D-01 E2=     -0.2056582705D+00
     alpha-beta  T2 =       0.3764159890D+00 E2=     -0.1189978344D+01
     beta-beta   T2 =       0.6785926104D-01 E2=     -0.2056582705D+00
 ANorm=    0.1229688786D+01
 E2 =    -0.1601294885D+01 EUMP2 =    -0.49451718931877D+03

 **********************************************************************

            Population analysis using the SCF density.

 **********************************************************************

 Orbital symmetries:
       Occupied  (A) (A) (A) (A) (A) (A) (A) (A) (A) (A) (A) (A)
                 (A) (A) (A) (A) (A) (A) (A) (A) (A) (A) (A) (A)
                 (A) (A) (A) (A) (A) (A) (A) (A) (A) (A) (A) (A)
                 (A) (A) (A)
       Virtual   (A) (A) (A) (A) (A) (A) (A) (A) (A) (A) (A) (A)
                 (A) (A) (A) (A) (A) (A) (A) (A) (A) (A) (A) (A)
                 (A) (A) (A) (A) (A) (A) (A) (A) (A) (A) (A) (A)
                 (A) (A) (A) (A) (A) (A) (A) (A) (A) (A) (A) (A)
                 (A) (A) (A) (A) (A) (A) (A) (A) (A) (A) (A) (A)
                 (A) (A) (A) (A) (A) (A) (A) (A) (A) (A) (A) (A)
                 (A) (A) (A) (A) (A) (A) (A) (A) (A) (A) (A) (A)
                 (A) (A) (A) (A) (A) (A) (A) (A) (A) (A) (A) (A)
                 (A) (A) (A) (A) (A) (A) (A) (A) (A) (A) (A) (A)
                 (A) (A) (A) (A) (A) (A) (A) (A) (A) (A) (A) (A)
                 (A) (A) (A) (A) (A) (A) (A) (A) (A) (A) (A) (A)
                 (A) (A) (A) (A) (A) (A) (A) (A) (A) (A) (A) (A)
                 (A) (A) (A) (A) (A) (A) (A) (A) (A) (A) (A) (A)
                 (A) (A) (A) (A) (A) (A) (A) (A) (A) (A) (A) (A)
                 (A) (A) (A) (A) (A) (A) (A) (A) (A) (A) (A) (A)
                 (A) (A) (A) (A) (A) (A) (A) (A) (A) (A) (A) (A)
                 (A) (A) (A) (A) (A) (A) (A) (A) (A) (A) (A) (A)
                 (A) (A) (A) (A) (A) (A) (A) (A) (A) (A) (A) (A)
                 (A) (A) (A) (A) (A) (A) (A) (A) (A) (A) (A) (A)
                 (A) (A) (A) (A) (A) (A) (A) (A) (A) (A) (A) (A)
                 (A) (A) (A) (A) (A) (A) (A) (A) (A) (A) (A) (A)
                 (A) (A) (A) (A) (A) (A) (A) (A) (A) (A) (A) (A)
                 (A) (A) (A) (A) (A) (A) (A) (A) (A) (A) (A) (A)
                 (A) (A) (A) (A) (A) (A) (A) (A) (A) (A) (A) (A)
                 (A) (A) (A) (A) (A) (A) (A) (A) (A) (A) (A)
 The electronic state is 1-A.
 Alpha  occ. eigenvalues --  -20.53451 -20.52768 -15.60230 -15.60198 -11.36714
 Alpha  occ. eigenvalues --  -11.36379 -11.30009 -11.27220 -11.24704 -11.23821
 Alpha  occ. eigenvalues --   -1.39022  -1.38129  -1.24384  -1.23557  -1.05971
 Alpha  occ. eigenvalues --   -0.99185  -0.95851  -0.89716  -0.80212  -0.77155
 Alpha  occ. eigenvalues --   -0.72527  -0.69612  -0.66068  -0.64961  -0.62201
 Alpha  occ. eigenvalues --   -0.61779  -0.59390  -0.58978  -0.56695  -0.55777
 Alpha  occ. eigenvalues --   -0.55514  -0.54481  -0.53031  -0.51978  -0.50995
 Alpha  occ. eigenvalues --   -0.44014  -0.41892  -0.39742  -0.38858
 Alpha virt. eigenvalues --    0.03092   0.03767   0.04101   0.05066   0.05537
 Alpha virt. eigenvalues --    0.05922   0.06464   0.06787   0.07494   0.07718
 Alpha virt. eigenvalues --    0.09011   0.09849   0.11199   0.11544   0.12863
 Alpha virt. eigenvalues --    0.13213   0.14277   0.14377   0.14871   0.14994
 Alpha virt. eigenvalues --    0.15318   0.15828   0.16574   0.16940   0.17334
 Alpha virt. eigenvalues --    0.17452   0.17743   0.18225   0.18531   0.18991
 Alpha virt. eigenvalues --    0.19513   0.20141   0.20649   0.20839   0.22499
 Alpha virt. eigenvalues --    0.23011   0.23303   0.25267   0.25967   0.26420
 Alpha virt. eigenvalues --    0.27582   0.28735   0.29157   0.29553   0.30529
 Alpha virt. eigenvalues --    0.30838   0.31883   0.32183   0.33006   0.33303
 Alpha virt. eigenvalues --    0.33538   0.34604   0.35400   0.35868   0.36366
 Alpha virt. eigenvalues --    0.37158   0.37533   0.38303   0.39405   0.39540
 Alpha virt. eigenvalues --    0.40063   0.40865   0.41758   0.42258   0.42721
 Alpha virt. eigenvalues --    0.43100   0.43707   0.44103   0.44321   0.44777
 Alpha virt. eigenvalues --    0.46659   0.47310   0.47578   0.48192   0.48629
 Alpha virt. eigenvalues --    0.49618   0.50709   0.50783   0.51534   0.52503
 Alpha virt. eigenvalues --    0.52731   0.53637   0.54028   0.55557   0.55946
 Alpha virt. eigenvalues --    0.56348   0.57488   0.57637   0.58623   0.59015
 Alpha virt. eigenvalues --    0.59736   0.60219   0.60684   0.61243   0.61869
 Alpha virt. eigenvalues --    0.62988   0.63166   0.63418   0.64795   0.65242
 Alpha virt. eigenvalues --    0.65632   0.66491   0.67102   0.67726   0.68811
 Alpha virt. eigenvalues --    0.69648   0.70318   0.70571   0.71231   0.71981
 Alpha virt. eigenvalues --    0.72537   0.73050   0.73828   0.74206   0.75566
 Alpha virt. eigenvalues --    0.75758   0.77564   0.77807   0.78729   0.78967
 Alpha virt. eigenvalues --    0.80002   0.80925   0.81887   0.83452   0.83694
 Alpha virt. eigenvalues --    0.84268   0.84932   0.86426   0.87241   0.88740
 Alpha virt. eigenvalues --    0.89257   0.90176   0.90519   0.93081   0.93391
 Alpha virt. eigenvalues --    0.93678   0.95273   0.95640   0.97507   0.98950
 Alpha virt. eigenvalues --    1.00143   1.00735   1.02523   1.02985   1.05005
 Alpha virt. eigenvalues --    1.05733   1.07182   1.07578   1.08955   1.10607
 Alpha virt. eigenvalues --    1.11503   1.12648   1.13383   1.14652   1.15432
 Alpha virt. eigenvalues --    1.16339   1.17219   1.19015   1.20582   1.21526
 Alpha virt. eigenvalues --    1.23063   1.24005   1.25400   1.27511   1.31212
 Alpha virt. eigenvalues --    1.31337   1.33285   1.35144   1.36102   1.39826
 Alpha virt. eigenvalues --    1.40130   1.41456   1.44578   1.46021   1.47684
 Alpha virt. eigenvalues --    1.49233   1.50238   1.52253   1.52947   1.53721
 Alpha virt. eigenvalues --    1.55623   1.57162   1.57726   1.60353   1.63495
 Alpha virt. eigenvalues --    1.67738   1.68051   1.69460   1.71356   1.73529
 Alpha virt. eigenvalues --    1.73960   1.75024   1.77107   1.78314   1.80356
 Alpha virt. eigenvalues --    1.82191   1.82998   1.84442   1.86333   1.88254
 Alpha virt. eigenvalues --    1.89049   1.89269   1.90503   1.92613   1.93310
 Alpha virt. eigenvalues --    1.93787   1.97262   1.98537   2.00111   2.02800
 Alpha virt. eigenvalues --    2.04188   2.04611   2.05404   2.05657   2.09513
 Alpha virt. eigenvalues --    2.10358   2.12367   2.13362   2.15635   2.17145
 Alpha virt. eigenvalues --    2.18771   2.19356   2.19942   2.21344   2.22395
 Alpha virt. eigenvalues --    2.23997   2.26304   2.28217   2.29208   2.29392
 Alpha virt. eigenvalues --    2.30810   2.32217   2.34664   2.35375   2.35812
 Alpha virt. eigenvalues --    2.37438   2.39699   2.41199   2.42125   2.44581
 Alpha virt. eigenvalues --    2.45853   2.47881   2.49138   2.51350   2.52921
 Alpha virt. eigenvalues --    2.53321   2.55749   2.57223   2.58038   2.60617
 Alpha virt. eigenvalues --    2.63077   2.64437   2.65315   2.65567   2.68025
 Alpha virt. eigenvalues --    2.71538   2.73090   2.76961   2.78791   2.80404
 Alpha virt. eigenvalues --    2.82116   2.82597   2.85128   2.85318   2.88237
 Alpha virt. eigenvalues --    2.90281   2.91892   2.93809   2.94743   2.98567
 Alpha virt. eigenvalues --    2.99436   3.03837   3.04807   3.05806   3.08229
 Alpha virt. eigenvalues --    3.10018   3.13288   3.17659   3.21300   3.22617
 Alpha virt. eigenvalues --    3.28955   3.37064   3.42691   3.47828   3.53683
 Alpha virt. eigenvalues --    3.60848   3.69443   3.72020   3.82917   3.84524
 Alpha virt. eigenvalues --    3.85585   3.87456   3.89087   3.97800   4.02813
 Alpha virt. eigenvalues --    4.08413   4.14408   4.20258   4.24181
          Condensed to atoms (all electrons):
              1          2          3          4          5          6
     1  H    0.731819   0.386913  -0.080444  -0.051071  -0.096310   0.018239
     2  C    0.386913   4.504856   0.295215   0.342507   0.151870  -0.023814
     3  H   -0.080444   0.295215   1.124141  -0.072565   0.181605  -0.014111
     4  H   -0.051071   0.342507  -0.072565   0.742581  -0.081753   0.021530
     5  C   -0.096310   0.151870   0.181605  -0.081753   5.680412   0.142190
     6  O    0.018239  -0.023814  -0.014111   0.021530   0.142190   8.715104
     7  N    0.051369  -0.030632  -0.226157   0.051735  -0.012775  -0.088198
     8  H   -0.000603  -0.055825  -0.002263  -0.004205  -0.143410  -0.002254
     9  C    0.002416   0.013308  -0.032649   0.004824  -0.396052   0.075761
    10  H   -0.002162   0.008327   0.001035   0.001156  -0.004958   0.007684
    11  C    0.000071   0.003021  -0.000431   0.000273  -0.003971  -0.018032
    12  H   -0.002074   0.002277   0.002045   0.001178   0.046185  -0.032001
    13  H    0.000186  -0.003580  -0.000859   0.000071  -0.041869   0.005286
    14  H    0.001302   0.006200   0.000001  -0.000948   0.021893   0.004059
    15  C   -0.002437  -0.015702  -0.006857   0.001189  -0.050507   0.019886
    16  O    0.000517   0.006606   0.002699  -0.000229  -0.000995   0.000643
    17  N   -0.000451  -0.001932  -0.000641   0.001399   0.019823   0.003810
    18  H    0.000048  -0.001229  -0.000719  -0.000047  -0.004953  -0.001057
    19  C   -0.000338  -0.003809  -0.000135   0.000354  -0.002147   0.000835
    20  H   -0.000075  -0.000433  -0.000138   0.000029  -0.003683   0.000042
    21  H    0.000011  -0.000107  -0.000089  -0.000032   0.000359  -0.000099
    22  H   -0.000040   0.000419   0.000450   0.000135   0.002283   0.000147
              7          8          9         10         11         12
     1  H    0.051369  -0.000603   0.002416  -0.002162   0.000071  -0.002074
     2  C   -0.030632  -0.055825   0.013308   0.008327   0.003021   0.002277
     3  H   -0.226157  -0.002263  -0.032649   0.001035  -0.000431   0.002045
     4  H    0.051735  -0.004205   0.004824   0.001156   0.000273   0.001178
     5  C   -0.012775  -0.143410  -0.396052  -0.004958  -0.003971   0.046185
     6  O   -0.088198  -0.002254   0.075761   0.007684  -0.018032  -0.032001
     7  N    7.687963   0.343921  -0.465324  -0.049555   0.021959  -0.003509
     8  H    0.343921   0.970507  -0.066140   0.015590  -0.026222  -0.006288
     9  C   -0.465324  -0.066140   8.028861  -0.201292  -0.095013  -0.161705
    10  H   -0.049555   0.015590  -0.201292   1.277198  -0.014239   0.058692
    11  C    0.021959  -0.026222  -0.095013  -0.014239   4.428936   0.358428
    12  H   -0.003509  -0.006288  -0.161705   0.058692   0.358428   0.995052
    13  H    0.090025  -0.003445  -0.233903  -0.074720   0.376241  -0.181802
    14  H   -0.056821   0.004696   0.154330  -0.018283   0.200933  -0.213809
    15  C    0.110062   0.022981  -0.524705  -0.003948   0.006458  -0.039993
    16  O   -0.019417   0.022104   0.014257   0.038506   0.019298   0.003537
    17  N    0.050259   0.001114  -0.196746   0.083438   0.012072   0.027744
    18  H    0.000778   0.000372   0.023359  -0.007775   0.000184   0.022145
    19  C    0.030187   0.002191  -0.151220   0.012121   0.001511   0.009045
    20  H   -0.000162   0.000222  -0.024473   0.004081  -0.005653   0.003700
    21  H    0.003876   0.001359  -0.055535  -0.004522   0.017224  -0.001329
    22  H   -0.007119  -0.002616   0.066588   0.001996  -0.005494  -0.003552
             13         14         15         16         17         18
     1  H    0.000186   0.001302  -0.002437   0.000517  -0.000451   0.000048
     2  C   -0.003580   0.006200  -0.015702   0.006606  -0.001932  -0.001229
     3  H   -0.000859   0.000001  -0.006857   0.002699  -0.000641  -0.000719
     4  H    0.000071  -0.000948   0.001189  -0.000229   0.001399  -0.000047
     5  C   -0.041869   0.021893  -0.050507  -0.000995   0.019823  -0.004953
     6  O    0.005286   0.004059   0.019886   0.000643   0.003810  -0.001057
     7  N    0.090025  -0.056821   0.110062  -0.019417   0.050259   0.000778
     8  H   -0.003445   0.004696   0.022981   0.022104   0.001114   0.000372
     9  C   -0.233903   0.154330  -0.524705   0.014257  -0.196746   0.023359
    10  H   -0.074720  -0.018283  -0.003948   0.038506   0.083438  -0.007775
    11  C    0.376241   0.200933   0.006458   0.019298   0.012072   0.000184
    12  H   -0.181802  -0.213809  -0.039993   0.003537   0.027744   0.022145
    13  H    1.375806  -0.251497   0.048779  -0.005094   0.019513  -0.015196
    14  H   -0.251497   1.215065   0.038535  -0.001897  -0.028887   0.004549
    15  C    0.048779   0.038535   5.339248   0.142038   0.168256  -0.102620
    16  O   -0.005094  -0.001897   0.142038   8.819105  -0.134112   0.018443
    17  N    0.019513  -0.028887   0.168256  -0.134112   7.161771   0.279189
    18  H   -0.015196   0.004549  -0.102620   0.018443   0.279189   1.009504
    19  C    0.013515  -0.002881  -0.045053  -0.019786   0.209189  -0.123405
    20  H    0.000338  -0.000575   0.024529  -0.012496  -0.073017  -0.000235
    21  H    0.002029   0.001008   0.035605   0.005231  -0.071714  -0.000229
    22  H   -0.001367   0.000902  -0.086965   0.013979   0.040711   0.001537
             19         20         21         22
     1  H   -0.000338  -0.000075   0.000011  -0.000040
     2  C   -0.003809  -0.000433  -0.000107   0.000419
     3  H   -0.000135  -0.000138  -0.000089   0.000450
     4  H    0.000354   0.000029  -0.000032   0.000135
     5  C   -0.002147  -0.003683   0.000359   0.002283
     6  O    0.000835   0.000042  -0.000099   0.000147
     7  N    0.030187  -0.000162   0.003876  -0.007119
     8  H    0.002191   0.000222   0.001359  -0.002616
     9  C   -0.151220  -0.024473  -0.055535   0.066588
    10  H    0.012121   0.004081  -0.004522   0.001996
    11  C    0.001511  -0.005653   0.017224  -0.005494
    12  H    0.009045   0.003700  -0.001329  -0.003552
    13  H    0.013515   0.000338   0.002029  -0.001367
    14  H   -0.002881  -0.000575   0.001008   0.000902
    15  C   -0.045053   0.024529   0.035605  -0.086965
    16  O   -0.019786  -0.012496   0.005231   0.013979
    17  N    0.209189  -0.073017  -0.071714   0.040711
    18  H   -0.123405  -0.000235  -0.000229   0.001537
    19  C    4.186026   0.505528   0.354433   0.293279
    20  H    0.505528   0.987754  -0.143428  -0.115141
    21  H    0.354433  -0.143428   1.105817  -0.146867
    22  H    0.293279  -0.115141  -0.146867   1.035533
 Mulliken atomic charges:
              1
     1  H    0.043113
     2  C    0.415543
     3  H   -0.169135
     4  H    0.041888
     5  C    0.596763
     6  O   -0.835650
     7  N   -0.482464
     8  H   -0.071789
     9  C    0.221052
    10  H   -0.128369
    11  C    0.722442
    12  H    0.116035
    13  H   -0.118457
    14  H   -0.077876
    15  C    0.921222
    16  O   -0.912936
    17  N   -0.570786
    18  H   -0.102642
    19  C    0.730558
    20  H   -0.146714
    21  H   -0.103001
    22  H   -0.088798
 Sum of Mulliken atomic charges =   0.00000
 Mulliken charges with hydrogens summed into heavy atoms:
              1
     2  C    0.331409
     5  C    0.596763
     6  O   -0.835650
     7  N   -0.554253
     9  C    0.092683
    11  C    0.642144
    15  C    0.921222
    16  O   -0.912936
    17  N   -0.673428
    19  C    0.392046
 Sum of Mulliken charges with hydrogens summed into heavy atoms =   0.00000
 Electronic spatial extent (au):  <R**2>=           1825.5492
 Charge=              0.0000 electrons
 Dipole moment (field-independent basis, Debye):
    X=              0.6717    Y=              0.0261    Z=              0.5361  Tot=              0.8598
 Quadrupole moment (field-independent basis, Debye-Ang):
   XX=            -61.3953   YY=            -61.8278   ZZ=            -62.4887
   XY=             12.1577   XZ=             10.8269   YZ=             -5.0593
 Traceless Quadrupole moment (field-independent basis, Debye-Ang):
   XX=              0.5086   YY=              0.0761   ZZ=             -0.5848
   XY=             12.1577   XZ=             10.8269   YZ=             -5.0593
 Octapole moment (field-independent basis, Debye-Ang**2):
  XXX=             10.5403  YYY=              0.8322  ZZZ=              3.6349  XYY=             -3.4329
  XXY=            -14.3992  XXZ=              6.4327  XZZ=              2.7588  YZZ=              2.1306
  YYZ=              1.6304  XYZ=              0.4972
 Hexadecapole moment (field-independent basis, Debye-Ang**3):
 XXXX=          -1534.2070 YYYY=           -468.6812 ZZZZ=           -315.5525 XXXY=             45.4340
 XXXZ=             55.0619 YYYX=              8.6945 YYYZ=              3.2834 ZZZX=             10.2693
 ZZZY=             -4.0588 XXYY=           -354.6911 XXZZ=           -333.2971 YYZZ=           -131.1641
 XXYZ=            -26.7455 YYXZ=             15.1400 ZZXY=             15.8864
 N-N= 5.532740573010D+02 E-N=-2.261704506470D+03  KE= 4.920680006036D+02
 1\1\GINC-NODE003\SP\RMP2-FC\Aug-CC-pVDZ\C6H12N2O2\STEBOSS\12-Feb-2017\
 0\\#SP MP2/aug-cc-pVDZ\\Single Point calculation at MP2\\0,1\H,0,-4.03
 51,-0.9936,0.0364\C,0,-3.0442,-1.3226,0.3652\H,0,-2.7482,-2.1964,-0.22
 35\H,0,-3.1305,-1.6134,1.4164\C,0,-2.0841,-0.1401,0.2655\O,0,-2.2832,0
 .8884,0.9008\N,0,-1.0293,-0.3463,-0.5818\H,0,-0.9393,-1.2641,-0.997\C,
 0,0.0875,0.5452,-0.93\H,0,0.1455,0.5577,-2.0256\C,0,-0.0507,1.9914,-0.
 4519\H,0,-0.1461,2.0798,0.6316\H,0,0.8236,2.5559,-0.7959\H,0,-0.9466,2
 .4495,-0.8758\C,0,1.3722,-0.2063,-0.506\O,0,1.7315,-1.1859,-1.1541\N,0
 ,1.9975,0.2245,0.621\H,0,1.6139,1.0178,1.1131\C,0,3.1582,-0.4475,1.179
 6\H,0,3.4375,-1.2446,0.4895\H,0,3.998,0.2478,1.2894\H,0,2.9305,-0.885,
 2.1591\\Version=EM64L-G09RevA.02\State=1-A\HF=-492.9158944\MP2=-494.51
 71893\RMSD=7.393e-09\PG=C01 [X(C6H12N2O2)]\\@


 GARLIC THEN HAVE POWER TO SAVE FROM DEATH
 BEAR WITH IT THOUGH IT MAKETH UNSAVORY BREATH,
 AND SCORN NOT GARLIC LIKE SOME THAT THINK
 IT ONLY MAKETH MEN WINK AND DRINK AND STINK.
   --  SIR JOHN HARRINGTON,
       "THE ENGLISHMAN'S DOCTOR", 1609
 Job cpu time:  0 days 10 hours  0 minutes  7.7 seconds.
 File lengths (MBytes):  RWF=  10559 Int=      0 D2E=      0 Chk=      7 Scr=      2
 Normal termination of Gaussian 09 at Sun Feb 12 16:50:54 2017.
