 Entering Gaussian System, Link 0=g09
 Initial command:
 /home/steboss/Software/g09/l1.exe /home/steboss/projects/phi_psi_scan/alanine/MP2/120/5213/Gau-7101.inp -scrdir=/home/steboss/projects/phi_psi_scan/alanine/MP2/120/5213/
 Entering Link 1 = /home/steboss/Software/g09/l1.exe PID=      7103.
  
 Copyright (c) 1988,1990,1992,1993,1995,1998,2003,2009, Gaussian, Inc.
                  All Rights Reserved.
  
 This is part of the Gaussian(R) 09 program.  It is based on
 the Gaussian(R) 03 system (copyright 2003, Gaussian, Inc.),
 the Gaussian(R) 98 system (copyright 1998, Gaussian, Inc.),
 the Gaussian(R) 94 system (copyright 1995, Gaussian, Inc.),
 the Gaussian 92(TM) system (copyright 1992, Gaussian, Inc.),
 the Gaussian 90(TM) system (copyright 1990, Gaussian, Inc.),
 the Gaussian 88(TM) system (copyright 1988, Gaussian, Inc.),
 the Gaussian 86(TM) system (copyright 1986, Carnegie Mellon
 University), and the Gaussian 82(TM) system (copyright 1983,
 Carnegie Mellon University). Gaussian is a federally registered
 trademark of Gaussian, Inc.
  
 This software contains proprietary and confidential information,
 including trade secrets, belonging to Gaussian, Inc.
  
 This software is provided under written license and may be
 used, copied, transmitted, or stored only in accord with that
 written license.
  
 The following legend is applicable only to US Government
 contracts under FAR:
  
                    RESTRICTED RIGHTS LEGEND
  
 Use, reproduction and disclosure by the US Government is
 subject to restrictions as set forth in subparagraphs (a)
 and (c) of the Commercial Computer Software - Restricted
 Rights clause in FAR 52.227-19.
  
 Gaussian, Inc.
 340 Quinnipiac St., Bldg. 40, Wallingford CT 06492
  
  
 ---------------------------------------------------------------
 Warning -- This program may not be used in any manner that
 competes with the business of Gaussian, Inc. or will provide
 assistance to any competitor of Gaussian, Inc.  The licensee
 of this program is prohibited from giving any competitor of
 Gaussian, Inc. access to this program.  By using this program,
 the user acknowledges that Gaussian, Inc. is engaged in the
 business of creating and licensing software in the field of
 computational chemistry and represents and warrants to the
 licensee that it is not a competitor of Gaussian, Inc. and that
 it will not use this program in any manner prohibited above.
 ---------------------------------------------------------------
  

 Cite this work as:
 Gaussian 09, Revision A.02,
 M. J. Frisch, G. W. Trucks, H. B. Schlegel, G. E. Scuseria, 
 M. A. Robb, J. R. Cheeseman, G. Scalmani, V. Barone, B. Mennucci, 
 G. A. Petersson, H. Nakatsuji, M. Caricato, X. Li, H. P. Hratchian, 
 A. F. Izmaylov, J. Bloino, G. Zheng, J. L. Sonnenberg, M. Hada, 
 M. Ehara, K. Toyota, R. Fukuda, J. Hasegawa, M. Ishida, T. Nakajima, 
 Y. Honda, O. Kitao, H. Nakai, T. Vreven, J. A. Montgomery, Jr., 
 J. E. Peralta, F. Ogliaro, M. Bearpark, J. J. Heyd, E. Brothers, 
 K. N. Kudin, V. N. Staroverov, R. Kobayashi, J. Normand, 
 K. Raghavachari, A. Rendell, J. C. Burant, S. S. Iyengar, J. Tomasi, 
 M. Cossi, N. Rega, J. M. Millam, M. Klene, J. E. Knox, J. B. Cross, 
 V. Bakken, C. Adamo, J. Jaramillo, R. Gomperts, R. E. Stratmann, 
 O. Yazyev, A. J. Austin, R. Cammi, C. Pomelli, J. W. Ochterski, 
 R. L. Martin, K. Morokuma, V. G. Zakrzewski, G. A. Voth, 
 P. Salvador, J. J. Dannenberg, S. Dapprich, A. D. Daniels, 
 O. Farkas, J. B. Foresman, J. V. Ortiz, J. Cioslowski, 
 and D. J. Fox, Gaussian, Inc., Wallingford CT, 2009.
 
 ******************************************
 Gaussian 09:  EM64L-G09RevA.02 11-Jun-2009
                12-Feb-2017 
 ******************************************
 %chk=structure_195.chk
 %NProcShared=8
 Will use up to    8 processors via shared memory.
 -------------------
 #SP MP2/aug-cc-pVDZ
 -------------------
 1/38=1/1;
 2/12=2,17=6,18=5,40=1/2;
 3/5=16,7=10,11=9,16=1,25=1,30=1/1,2,3;
 4//1;
 5/5=2,38=5/2;
 8/10=1/1;
 9/16=-3/6;
 6/7=2,8=2,9=2,10=2/1;
 99/5=1,9=1/99;
 -------------------------------
 Single Point calculation at MP2
 -------------------------------
 Symbolic Z-matrix:
 Charge =  0 Multiplicity = 1
 H                     4.1564   -0.9886   -0.2712 
 C                     3.108    -1.2944   -0.2771 
 H                     2.9428   -2.0494    0.498 
 H                     2.8963   -1.7496   -1.252 
 C                     2.2391   -0.051    -0.1079 
 O                     2.5777    1.0281   -0.5771 
 N                     1.0961   -0.2759    0.6204 
 H                     0.8542   -1.2523    0.758 
 C                    -0.1057    0.5537    0.7111 
 H                    -0.3134    0.7127    1.7819 
 C                    -0.0074    1.9379    0.0563 
 H                     0.0602    1.8769   -1.0321 
 H                    -0.8849    2.5366    0.3316 
 H                     0.8785    2.4649    0.4074 
 C                    -1.2845   -0.3247    0.2057 
 O                    -1.1769   -1.5487    0.1761 
 N                    -2.4397    0.323    -0.097 
 H                    -2.4346    1.3308   -0.1389 
 C                    -3.6384   -0.3788   -0.5279 
 H                    -3.5059   -1.4358   -0.2952 
 H                    -4.5152    0.0053    0.0038 
 H                    -3.8027   -0.2727   -1.6074 
 
                          Input orientation:                          
 ---------------------------------------------------------------------
 Center     Atomic      Atomic             Coordinates (Angstroms)
 Number     Number       Type             X           Y           Z
 ---------------------------------------------------------------------
      1          1           0        4.156400   -0.988600   -0.271200
      2          6           0        3.108000   -1.294400   -0.277100
      3          1           0        2.942800   -2.049400    0.498000
      4          1           0        2.896300   -1.749600   -1.252000
      5          6           0        2.239100   -0.051000   -0.107900
      6          8           0        2.577700    1.028100   -0.577100
      7          7           0        1.096100   -0.275900    0.620400
      8          1           0        0.854200   -1.252300    0.758000
      9          6           0       -0.105700    0.553700    0.711100
     10          1           0       -0.313400    0.712700    1.781900
     11          6           0       -0.007400    1.937900    0.056300
     12          1           0        0.060200    1.876900   -1.032100
     13          1           0       -0.884900    2.536600    0.331600
     14          1           0        0.878500    2.464900    0.407400
     15          6           0       -1.284500   -0.324700    0.205700
     16          8           0       -1.176900   -1.548700    0.176100
     17          7           0       -2.439700    0.323000   -0.097000
     18          1           0       -2.434600    1.330800   -0.138900
     19          6           0       -3.638400   -0.378800   -0.527900
     20          1           0       -3.505900   -1.435800   -0.295200
     21          1           0       -4.515200    0.005300    0.003800
     22          1           0       -3.802700   -0.272700   -1.607400
 ---------------------------------------------------------------------
                    Distance matrix (angstroms):
                    1          2          3          4          5
     1  H    0.000000
     2  C    1.092104   0.000000
     3  H    1.785998   1.094576   0.000000
     4  H    1.768881   1.096565   1.776103   0.000000
     5  C    2.140514   1.526322   2.203613   2.150841   0.000000
     6  O    2.579331   2.401088   3.280266   2.876215   1.224441
     7  N    3.266241   2.427054   2.563315   2.986368   1.373845
     8  H    3.468907   2.480488   2.250604   2.908192   2.027524
     9  C    4.637790   3.836650   4.014336   4.262740   2.556269
    10  H    5.204686   4.469218   4.458748   5.056644   3.266472
    11  C    5.099891   4.501626   4.979693   4.872451   3.004904
    12  H    5.056571   4.462763   5.105528   4.609048   3.052630
    13  H    6.181028   5.566896   5.975816   5.931001   4.080222
    14  H    4.809552   4.423974   4.964720   4.958542   2.906290
    15  C    5.501962   4.524099   4.574942   4.651271   3.548100
    16  O    5.381252   4.316298   4.162481   4.320971   3.740697
    17  N    6.727494   5.781470   5.912158   5.839742   4.693737
    18  H    6.988448   6.134427   6.383402   6.256704   4.873787
    19  C    7.822829   6.812866   6.866991   6.716079   5.901598
    20  H    7.675377   6.615436   6.526209   6.480903   5.912510
    21  H    8.732703   7.738301   7.751631   7.719264   6.755458
    22  H    8.102174   7.111353   7.286367   6.869072   6.229045
                    6          7          8          9         10
     6  O    0.000000
     7  N    2.308584   0.000000
     8  H    3.154864   1.015286   0.000000
     9  C    3.014158   1.463142   2.045787   0.000000
    10  H    3.744705   2.076801   2.504573   1.102285   0.000000
    11  C    2.812770   2.537091   3.378182   1.534417   2.138328
    12  H    2.695421   2.904891   3.691448   2.194796   3.068148
    13  H    3.884702   3.452234   4.190710   2.164039   2.399290
    14  H    2.433293   2.757663   3.733776   2.171075   2.525882
    15  C    4.166465   2.416943   2.395728   1.554537   2.122178
    16  O    4.615651   2.642717   2.133501   2.419459   2.904850
    17  N    5.089397   3.657216   3.749983   2.480686   2.864137
    18  H    5.040516   3.952703   4.277036   2.598107   2.927629
    19  C    6.373515   4.872850   4.753945   3.858063   4.193110
    20  H    6.569662   4.833435   4.489251   4.065970   4.372923
    21  H    7.189770   5.652075   5.566043   4.499412   4.617053
    22  H    6.592655   5.381575   5.314269   4.441417   4.963223
                   11         12         13         14         15
    11  C    0.000000
    12  H    1.092202   0.000000
    13  H    1.097378   1.785524   0.000000
    14  H    1.088953   1.757134   1.766484   0.000000
    15  C    2.602434   2.861365   2.891811   3.535692   0.000000
    16  O    3.679465   3.837304   4.098673   4.515214   1.229077
    17  N    2.923608   3.088449   2.738818   3.981533   1.358540
    18  H    2.509576   2.705561   2.019132   3.544187   2.045033
    19  C    4.346556   4.361427   4.101227   5.418838   2.466159
    20  H    4.872875   4.922811   4.800258   5.910336   2.533784
    21  H    4.904891   5.050768   4.437793   5.941761   3.253780
    22  H    4.696696   4.457998   4.490595   5.785111   3.103444
                   16         17         18         19         20
    16  O    0.000000
    17  N    2.274315   0.000000
    18  H    3.157935   1.008684   0.000000
    19  C    2.814829   1.454331   2.126779   0.000000
    20  H    2.378889   2.066263   2.970890   1.090392   0.000000
    21  H    3.686306   2.102093   2.471075   1.094996   1.784617
    22  H    3.421092   2.119890   2.568930   1.097074   1.778415
                   21         22
    21  H    0.000000
    22  H    1.783509   0.000000
 Stoichiometry    C6H12N2O2
 Framework group  C1[X(C6H12N2O2)]
 Deg. of freedom    60
 Full point group                 C1      NOp   1
 Largest Abelian subgroup         C1      NOp   1
 Largest concise Abelian subgroup C1      NOp   1
                         Standard orientation:                         
 ---------------------------------------------------------------------
 Center     Atomic      Atomic             Coordinates (Angstroms)
 Number     Number       Type             X           Y           Z
 ---------------------------------------------------------------------
      1          1           0        4.156403   -0.988613   -0.271212
      2          6           0        3.108002   -1.294410   -0.277112
      3          1           0        2.942799   -2.049409    0.497988
      4          1           0        2.896300   -1.749609   -1.252012
      5          6           0        2.239106   -0.051007   -0.107912
      6          8           0        2.577710    1.028092   -0.577112
      7          7           0        1.096105   -0.275903    0.620388
      8          1           0        0.854202   -1.252302    0.757988
      9          6           0       -0.105692    0.553702    0.711088
     10          1           0       -0.313391    0.712702    1.781888
     11          6           0       -0.007387    1.937901    0.056288
     12          1           0        0.060213    1.876901   -1.032112
     13          1           0       -0.884885    2.536604    0.331588
     14          1           0        0.878515    2.464898    0.407388
     15          6           0       -1.284495   -0.324694    0.205688
     16          8           0       -1.176899   -1.548695    0.176088
     17          7           0       -2.439692    0.323010   -0.097012
     18          1           0       -2.434589    1.330810   -0.138912
     19          6           0       -3.638395   -0.378786   -0.527912
     20          1           0       -3.505899   -1.435786   -0.295212
     21          1           0       -4.515194    0.005317    0.003788
     22          1           0       -3.802695   -0.272685   -1.607412
 ---------------------------------------------------------------------
 Rotational constants (GHZ):      2.6340347      0.7155446      0.6059154
 Standard basis: Aug-CC-pVDZ (5D, 7F)
 There are   338 symmetry adapted basis functions of A   symmetry.
 Integral buffers will be    131072 words long.
 Raffenetti 1 integral format.
 Two-electron integral symmetry is turned on.
   338 basis functions,   562 primitive gaussians,   358 cartesian basis functions
    39 alpha electrons       39 beta electrons
       nuclear repulsion energy       551.9903053601 Hartrees.
 NAtoms=   22 NActive=   22 NUniq=   22 SFac= 7.50D-01 NAtFMM=   80 NAOKFM=F Big=F
 One-electron integrals computed using PRISM.
 NBasis=   338 RedAO= T  NBF=   338
 NBsUse=   338 1.00D-06 NBFU=   338
 Harris functional with IExCor=  205 diagonalized for initial guess.
 ExpMin= 2.97D-02 ExpMax= 1.17D+04 ExpMxC= 4.01D+02 IAcc=3 IRadAn=         0 AccDes= 0.00D+00
 HarFok:  IExCor=  205 AccDes= 0.00D+00 IRadAn=         0 IDoV= 1
 ScaDFX=  1.000000  1.000000  1.000000  1.000000
 FoFCou: FMM=F IPFlag=           0 FMFlag=      100000 FMFlg1=           0
         NFxFlg=           0 DoJE=T BraDBF=F KetDBF=T FulRan=T
         Omega=  0.000000  0.000000  1.000000  0.000000  0.000000 ICntrl=     500 IOpCl=  0
         NMat0=    1 NMatS0=    1 NMatT0=    0 NMatD0=    1 NMtDS0=    0 NMtDT0=    0
         I1Cent=           4 NGrid=           0.
 Petite list used in FoFCou.
 Initial guess orbital symmetries:
       Occupied  (A) (A) (A) (A) (A) (A) (A) (A) (A) (A) (A) (A)
                 (A) (A) (A) (A) (A) (A) (A) (A) (A) (A) (A) (A)
                 (A) (A) (A) (A) (A) (A) (A) (A) (A) (A) (A) (A)
                 (A) (A) (A)
       Virtual   (A) (A) (A) (A) (A) (A) (A) (A) (A) (A) (A) (A)
                 (A) (A) (A) (A) (A) (A) (A) (A) (A) (A) (A) (A)
                 (A) (A) (A) (A) (A) (A) (A) (A) (A) (A) (A) (A)
                 (A) (A) (A) (A) (A) (A) (A) (A) (A) (A) (A) (A)
                 (A) (A) (A) (A) (A) (A) (A) (A) (A) (A) (A) (A)
                 (A) (A) (A) (A) (A) (A) (A) (A) (A) (A) (A) (A)
                 (A) (A) (A) (A) (A) (A) (A) (A) (A) (A) (A) (A)
                 (A) (A) (A) (A) (A) (A) (A) (A) (A) (A) (A) (A)
                 (A) (A) (A) (A) (A) (A) (A) (A) (A) (A) (A) (A)
                 (A) (A) (A) (A) (A) (A) (A) (A) (A) (A) (A) (A)
                 (A) (A) (A) (A) (A) (A) (A) (A) (A) (A) (A) (A)
                 (A) (A) (A) (A) (A) (A) (A) (A) (A) (A) (A) (A)
                 (A) (A) (A) (A) (A) (A) (A) (A) (A) (A) (A) (A)
                 (A) (A) (A) (A) (A) (A) (A) (A) (A) (A) (A) (A)
                 (A) (A) (A) (A) (A) (A) (A) (A) (A) (A) (A) (A)
                 (A) (A) (A) (A) (A) (A) (A) (A) (A) (A) (A) (A)
                 (A) (A) (A) (A) (A) (A) (A) (A) (A) (A) (A) (A)
                 (A) (A) (A) (A) (A) (A) (A) (A) (A) (A) (A) (A)
                 (A) (A) (A) (A) (A) (A) (A) (A) (A) (A) (A) (A)
                 (A) (A) (A) (A) (A) (A) (A) (A) (A) (A) (A) (A)
                 (A) (A) (A) (A) (A) (A) (A) (A) (A) (A) (A) (A)
                 (A) (A) (A) (A) (A) (A) (A) (A) (A) (A) (A) (A)
                 (A) (A) (A) (A) (A) (A) (A) (A) (A) (A) (A) (A)
                 (A) (A) (A) (A) (A) (A) (A) (A) (A) (A) (A) (A)
                 (A) (A) (A) (A) (A) (A) (A) (A) (A) (A) (A)
 The electronic state of the initial guess is 1-A.
 Requested convergence on RMS density matrix=1.00D-08 within 128 cycles.
 Requested convergence on MAX density matrix=1.00D-06.
 Requested convergence on             energy=1.00D-06.
 No special actions if energy rises.
 Initial convergence to 1.0D-05 achieved.  Increase integral accuracy.
 SCF Done:  E(RHF) =  -492.916273022     A.U. after   14 cycles
             Convg  =    0.4852D-08             -V/T =  2.0017
 ExpMin= 2.97D-02 ExpMax= 1.17D+04 ExpMxC= 4.01D+02 IAcc=3 IRadAn=         5 AccDes= 0.00D+00
 HarFok:  IExCor=  205 AccDes= 0.00D+00 IRadAn=         5 IDoV=-2
 ScaDFX=  1.000000  1.000000  1.000000  1.000000
 Range of M.O.s used for correlation:    11   338
 NBasis=   338 NAE=    39 NBE=    39 NFC=    10 NFV=     0
 NROrb=    328 NOA=    29 NOB=    29 NVA=   299 NVB=   299

 **** Warning!!: The largest alpha MO coefficient is  0.95051985D+02

 Disk-based method using OVN memory for 29 occupieds at a time.
 Estimated scratch disk usage=  1374514079 words.
 Actual    scratch disk usage=  1361169947 words.
 JobTyp=1 Pass  1:  I=   1 to  29 NPSUse=  8 ParTrn=T ParDer=T DoDerP=F.
 Spin components of T(2) and E(2):
     alpha-alpha T2 =       0.6788374272D-01 E2=     -0.2057972829D+00
     alpha-beta  T2 =       0.3761827792D+00 E2=     -0.1189669296D+01
     beta-beta   T2 =       0.6788374272D-01 E2=     -0.2057972829D+00
 ANorm=    0.1229613868D+01
 E2 =    -0.1601263861D+01 EUMP2 =    -0.49451753688333D+03

 **********************************************************************

            Population analysis using the SCF density.

 **********************************************************************

 Orbital symmetries:
       Occupied  (A) (A) (A) (A) (A) (A) (A) (A) (A) (A) (A) (A)
                 (A) (A) (A) (A) (A) (A) (A) (A) (A) (A) (A) (A)
                 (A) (A) (A) (A) (A) (A) (A) (A) (A) (A) (A) (A)
                 (A) (A) (A)
       Virtual   (A) (A) (A) (A) (A) (A) (A) (A) (A) (A) (A) (A)
                 (A) (A) (A) (A) (A) (A) (A) (A) (A) (A) (A) (A)
                 (A) (A) (A) (A) (A) (A) (A) (A) (A) (A) (A) (A)
                 (A) (A) (A) (A) (A) (A) (A) (A) (A) (A) (A) (A)
                 (A) (A) (A) (A) (A) (A) (A) (A) (A) (A) (A) (A)
                 (A) (A) (A) (A) (A) (A) (A) (A) (A) (A) (A) (A)
                 (A) (A) (A) (A) (A) (A) (A) (A) (A) (A) (A) (A)
                 (A) (A) (A) (A) (A) (A) (A) (A) (A) (A) (A) (A)
                 (A) (A) (A) (A) (A) (A) (A) (A) (A) (A) (A) (A)
                 (A) (A) (A) (A) (A) (A) (A) (A) (A) (A) (A) (A)
                 (A) (A) (A) (A) (A) (A) (A) (A) (A) (A) (A) (A)
                 (A) (A) (A) (A) (A) (A) (A) (A) (A) (A) (A) (A)
                 (A) (A) (A) (A) (A) (A) (A) (A) (A) (A) (A) (A)
                 (A) (A) (A) (A) (A) (A) (A) (A) (A) (A) (A) (A)
                 (A) (A) (A) (A) (A) (A) (A) (A) (A) (A) (A) (A)
                 (A) (A) (A) (A) (A) (A) (A) (A) (A) (A) (A) (A)
                 (A) (A) (A) (A) (A) (A) (A) (A) (A) (A) (A) (A)
                 (A) (A) (A) (A) (A) (A) (A) (A) (A) (A) (A) (A)
                 (A) (A) (A) (A) (A) (A) (A) (A) (A) (A) (A) (A)
                 (A) (A) (A) (A) (A) (A) (A) (A) (A) (A) (A) (A)
                 (A) (A) (A) (A) (A) (A) (A) (A) (A) (A) (A) (A)
                 (A) (A) (A) (A) (A) (A) (A) (A) (A) (A) (A) (A)
                 (A) (A) (A) (A) (A) (A) (A) (A) (A) (A) (A) (A)
                 (A) (A) (A) (A) (A) (A) (A) (A) (A) (A) (A) (A)
                 (A) (A) (A) (A) (A) (A) (A) (A) (A) (A) (A)
 The electronic state is 1-A.
 Alpha  occ. eigenvalues --  -20.54216 -20.52313 -15.60678 -15.58698 -11.37039
 Alpha  occ. eigenvalues --  -11.35892 -11.30206 -11.27648 -11.23914 -11.23858
 Alpha  occ. eigenvalues --   -1.39790  -1.37592  -1.24452  -1.23201  -1.05710
 Alpha  occ. eigenvalues --   -0.98667  -0.96018  -0.89414  -0.80686  -0.75746
 Alpha  occ. eigenvalues --   -0.73064  -0.68712  -0.66185  -0.64925  -0.62525
 Alpha  occ. eigenvalues --   -0.61955  -0.59391  -0.58678  -0.56648  -0.55882
 Alpha  occ. eigenvalues --   -0.55377  -0.54503  -0.52682  -0.51978  -0.50243
 Alpha  occ. eigenvalues --   -0.43900  -0.41414  -0.40621  -0.38723
 Alpha virt. eigenvalues --    0.02696   0.04091   0.04257   0.04579   0.05622
 Alpha virt. eigenvalues --    0.06231   0.06354   0.06692   0.07398   0.07824
 Alpha virt. eigenvalues --    0.09394   0.10333   0.10976   0.11345   0.13106
 Alpha virt. eigenvalues --    0.13334   0.13886   0.14415   0.14793   0.15283
 Alpha virt. eigenvalues --    0.15368   0.16264   0.16538   0.16951   0.17199
 Alpha virt. eigenvalues --    0.17697   0.17908   0.18292   0.18741   0.19367
 Alpha virt. eigenvalues --    0.19580   0.20091   0.20778   0.21478   0.23165
 Alpha virt. eigenvalues --    0.23691   0.23978   0.24971   0.25357   0.26002
 Alpha virt. eigenvalues --    0.27229   0.28148   0.28567   0.30179   0.30319
 Alpha virt. eigenvalues --    0.30856   0.31244   0.32033   0.32659   0.33268
 Alpha virt. eigenvalues --    0.34415   0.35151   0.35327   0.35832   0.36333
 Alpha virt. eigenvalues --    0.36558   0.37329   0.38161   0.39363   0.39583
 Alpha virt. eigenvalues --    0.40549   0.41625   0.42006   0.42877   0.43329
 Alpha virt. eigenvalues --    0.43455   0.44159   0.44481   0.45066   0.45815
 Alpha virt. eigenvalues --    0.46524   0.47209   0.47627   0.47785   0.49542
 Alpha virt. eigenvalues --    0.50045   0.50433   0.50880   0.51440   0.51936
 Alpha virt. eigenvalues --    0.52945   0.54955   0.55055   0.55263   0.56208
 Alpha virt. eigenvalues --    0.56748   0.57604   0.57916   0.58494   0.58921
 Alpha virt. eigenvalues --    0.59382   0.60321   0.61014   0.61613   0.61810
 Alpha virt. eigenvalues --    0.62901   0.63430   0.63715   0.65384   0.65550
 Alpha virt. eigenvalues --    0.66483   0.67340   0.67443   0.67852   0.68234
 Alpha virt. eigenvalues --    0.68805   0.69984   0.70932   0.71251   0.71389
 Alpha virt. eigenvalues --    0.72593   0.72738   0.73595   0.75095   0.75683
 Alpha virt. eigenvalues --    0.76506   0.77411   0.77927   0.78378   0.79356
 Alpha virt. eigenvalues --    0.80487   0.81030   0.82409   0.82865   0.83088
 Alpha virt. eigenvalues --    0.84049   0.85424   0.86033   0.87400   0.87686
 Alpha virt. eigenvalues --    0.88433   0.90360   0.91693   0.92956   0.93737
 Alpha virt. eigenvalues --    0.94559   0.95417   0.95702   0.97044   0.98416
 Alpha virt. eigenvalues --    0.99681   1.02275   1.03669   1.04146   1.04817
 Alpha virt. eigenvalues --    1.06379   1.07126   1.07772   1.08817   1.10930
 Alpha virt. eigenvalues --    1.12877   1.13490   1.14577   1.15322   1.15567
 Alpha virt. eigenvalues --    1.17104   1.17685   1.19140   1.20140   1.22522
 Alpha virt. eigenvalues --    1.24769   1.25266   1.26254   1.27183   1.28664
 Alpha virt. eigenvalues --    1.30422   1.34270   1.36315   1.36491   1.37745
 Alpha virt. eigenvalues --    1.40429   1.41816   1.44372   1.45659   1.48964
 Alpha virt. eigenvalues --    1.49714   1.50590   1.51926   1.54555   1.55150
 Alpha virt. eigenvalues --    1.56135   1.58471   1.58942   1.61608   1.62806
 Alpha virt. eigenvalues --    1.68064   1.68322   1.69355   1.70176   1.72201
 Alpha virt. eigenvalues --    1.72989   1.75648   1.76174   1.78028   1.80389
 Alpha virt. eigenvalues --    1.82112   1.83976   1.85543   1.86338   1.86443
 Alpha virt. eigenvalues --    1.88327   1.89743   1.90195   1.91807   1.93034
 Alpha virt. eigenvalues --    1.94977   1.95849   1.96725   1.99817   2.00853
 Alpha virt. eigenvalues --    2.01486   2.03674   2.04200   2.05826   2.07532
 Alpha virt. eigenvalues --    2.08295   2.10301   2.10808   2.14271   2.16164
 Alpha virt. eigenvalues --    2.18833   2.19392   2.20029   2.22785   2.23682
 Alpha virt. eigenvalues --    2.24557   2.25950   2.26485   2.28204   2.29015
 Alpha virt. eigenvalues --    2.31988   2.33183   2.34725   2.35053   2.36843
 Alpha virt. eigenvalues --    2.37205   2.38645   2.41297   2.42852   2.44368
 Alpha virt. eigenvalues --    2.45400   2.46342   2.48459   2.49434   2.50887
 Alpha virt. eigenvalues --    2.51794   2.54790   2.56679   2.57852   2.60411
 Alpha virt. eigenvalues --    2.62358   2.63997   2.65666   2.67079   2.70819
 Alpha virt. eigenvalues --    2.71556   2.73720   2.74279   2.77747   2.78778
 Alpha virt. eigenvalues --    2.81249   2.83758   2.86669   2.87704   2.89080
 Alpha virt. eigenvalues --    2.90823   2.91293   2.93808   2.95416   2.97388
 Alpha virt. eigenvalues --    2.99733   3.01558   3.02746   3.05470   3.09642
 Alpha virt. eigenvalues --    3.10985   3.13795   3.15901   3.18683   3.24376
 Alpha virt. eigenvalues --    3.25762   3.31258   3.44127   3.46409   3.49553
 Alpha virt. eigenvalues --    3.62648   3.70242   3.72708   3.83011   3.83574
 Alpha virt. eigenvalues --    3.85774   3.86777   3.89404   4.00297   4.06898
 Alpha virt. eigenvalues --    4.08520   4.12431   4.20190   4.22862
          Condensed to atoms (all electrons):
              1          2          3          4          5          6
     1  H    0.801657   0.397349  -0.107938  -0.065565  -0.059901   0.028452
     2  C    0.397349   4.468421   0.304969   0.337134   0.217910  -0.021308
     3  H   -0.107938   0.304969   0.990977  -0.055123   0.100585  -0.008703
     4  H   -0.065565   0.337134  -0.055123   0.744738  -0.063024   0.017051
     5  C   -0.059901   0.217910   0.100585  -0.063024   5.297151   0.184373
     6  O    0.028452  -0.021308  -0.008703   0.017051   0.184373   8.696348
     7  N    0.035254  -0.004293  -0.122074   0.014598   0.114660  -0.116937
     8  H   -0.005578  -0.045043   0.018624  -0.006143  -0.146554   0.010307
     9  C   -0.005162  -0.008889  -0.029692   0.018230  -0.169432   0.041506
    10  H   -0.002171   0.003377   0.001531   0.001123  -0.006474   0.006288
    11  C    0.001810  -0.007850   0.001922  -0.005061  -0.028632  -0.006189
    12  H   -0.000930   0.001359   0.001240  -0.000563   0.011348  -0.005309
    13  H    0.000045  -0.005982  -0.000848   0.000066  -0.046454   0.007018
    14  H    0.000561   0.011791   0.000425  -0.000215   0.062397  -0.044204
    15  C   -0.002096   0.008515  -0.018630   0.010539  -0.092307   0.031049
    16  O   -0.000900  -0.002877   0.002860  -0.000609   0.005755  -0.001237
    17  N   -0.000055   0.001660   0.001177  -0.000429   0.000672  -0.000600
    18  H    0.000102  -0.000421  -0.000210  -0.000056   0.000037   0.000794
    19  C   -0.000083   0.001269  -0.000091   0.000193  -0.005115   0.000476
    20  H   -0.000045  -0.000067  -0.000037  -0.000003  -0.002255   0.000095
    21  H    0.000007   0.000054  -0.000057   0.000028   0.001211   0.000002
    22  H    0.000008   0.000328   0.000040   0.000026  -0.000503  -0.000008
              7          8          9         10         11         12
     1  H    0.035254  -0.005578  -0.005162  -0.002171   0.001810  -0.000930
     2  C   -0.004293  -0.045043  -0.008889   0.003377  -0.007850   0.001359
     3  H   -0.122074   0.018624  -0.029692   0.001531   0.001922   0.001240
     4  H    0.014598  -0.006143   0.018230   0.001123  -0.005061  -0.000563
     5  C    0.114660  -0.146554  -0.169432  -0.006474  -0.028632   0.011348
     6  O   -0.116937   0.010307   0.041506   0.006288  -0.006189  -0.005309
     7  N    7.577066   0.335791  -0.290067  -0.230470   0.094560  -0.067647
     8  H    0.335791   0.917922  -0.070807   0.034596  -0.010966  -0.001082
     9  C   -0.290067  -0.070807   6.776493   0.384714   0.012672   0.057530
    10  H   -0.230470   0.034596   0.384714   1.056591  -0.064608   0.072431
    11  C    0.094560  -0.010966   0.012672  -0.064608   4.368446   0.295043
    12  H   -0.067647  -0.001082   0.057530   0.072431   0.295043   1.101446
    13  H    0.078087   0.006008  -0.119206  -0.083245   0.359405  -0.181515
    14  H   -0.007718  -0.007062  -0.013063  -0.030966   0.269658  -0.192583
    15  C    0.097429  -0.060892  -0.480960  -0.109516  -0.001249  -0.090448
    16  O   -0.008722   0.026637  -0.037448  -0.000530   0.007618  -0.002610
    17  N    0.022850   0.006932  -0.048944  -0.004701   0.028216   0.017087
    18  H   -0.008695   0.001949   0.000732   0.000415  -0.048343  -0.005551
    19  C   -0.001372  -0.001812  -0.003764  -0.002260  -0.008460  -0.004347
    20  H    0.001173  -0.000639  -0.009543   0.000802  -0.002045   0.000135
    21  H    0.002546   0.001243  -0.004154  -0.002459  -0.003782  -0.001107
    22  H   -0.001968  -0.001483   0.002112  -0.000072   0.010951   0.000215
             13         14         15         16         17         18
     1  H    0.000045   0.000561  -0.002096  -0.000900  -0.000055   0.000102
     2  C   -0.005982   0.011791   0.008515  -0.002877   0.001660  -0.000421
     3  H   -0.000848   0.000425  -0.018630   0.002860   0.001177  -0.000210
     4  H    0.000066  -0.000215   0.010539  -0.000609  -0.000429  -0.000056
     5  C   -0.046454   0.062397  -0.092307   0.005755   0.000672   0.000037
     6  O    0.007018  -0.044204   0.031049  -0.001237  -0.000600   0.000794
     7  N    0.078087  -0.007718   0.097429  -0.008722   0.022850  -0.008695
     8  H    0.006008  -0.007062  -0.060892   0.026637   0.006932   0.001949
     9  C   -0.119206  -0.013063  -0.480960  -0.037448  -0.048944   0.000732
    10  H   -0.083245  -0.030966  -0.109516  -0.000530  -0.004701   0.000415
    11  C    0.359405   0.269658  -0.001249   0.007618   0.028216  -0.048343
    12  H   -0.181515  -0.192583  -0.090448  -0.002610   0.017087  -0.005551
    13  H    1.354525  -0.274332   0.065487   0.000838  -0.042415   0.019418
    14  H   -0.274332   1.192402   0.038795   0.000868   0.010484  -0.000759
    15  C    0.065487   0.038795   5.292521   0.315754   0.131265   0.015091
    16  O    0.000838   0.000868   0.315754   8.717134  -0.186201   0.004503
    17  N   -0.042415   0.010484   0.131265  -0.186201   7.149551   0.230600
    18  H    0.019418  -0.000759   0.015091   0.004503   0.230600   1.040364
    19  C   -0.015892   0.006756  -0.109061  -0.000731   0.293619  -0.142463
    20  H    0.002448  -0.000212   0.009304  -0.002578  -0.049347   0.002587
    21  H   -0.000420   0.000184   0.016108   0.011452  -0.104213   0.005724
    22  H   -0.003092   0.001446  -0.037189   0.005838   0.047097  -0.006457
             19         20         21         22
     1  H   -0.000083  -0.000045   0.000007   0.000008
     2  C    0.001269  -0.000067   0.000054   0.000328
     3  H   -0.000091  -0.000037  -0.000057   0.000040
     4  H    0.000193  -0.000003   0.000028   0.000026
     5  C   -0.005115  -0.002255   0.001211  -0.000503
     6  O    0.000476   0.000095   0.000002  -0.000008
     7  N   -0.001372   0.001173   0.002546  -0.001968
     8  H   -0.001812  -0.000639   0.001243  -0.001483
     9  C   -0.003764  -0.009543  -0.004154   0.002112
    10  H   -0.002260   0.000802  -0.002459  -0.000072
    11  C   -0.008460  -0.002045  -0.003782   0.010951
    12  H   -0.004347   0.000135  -0.001107   0.000215
    13  H   -0.015892   0.002448  -0.000420  -0.003092
    14  H    0.006756  -0.000212   0.000184   0.001446
    15  C   -0.109061   0.009304   0.016108  -0.037189
    16  O   -0.000731  -0.002578   0.011452   0.005838
    17  N    0.293619  -0.049347  -0.104213   0.047097
    18  H   -0.142463   0.002587   0.005724  -0.006457
    19  C    4.135289   0.487390   0.347743   0.313741
    20  H    0.487390   0.971204  -0.150916  -0.109825
    21  H    0.347743  -0.150916   1.158408  -0.142324
    22  H    0.313741  -0.109825  -0.142324   0.999278
 Mulliken atomic charges:
              1
     1  H   -0.014820
     2  C    0.342594
     3  H   -0.080946
     4  H    0.053064
     5  C    0.624550
     6  O   -0.819262
     7  N   -0.514050
     8  H   -0.001947
     9  C   -0.002857
    10  H   -0.024397
    11  C    0.736884
    12  H   -0.004142
    13  H   -0.119944
    14  H   -0.024653
    15  C    0.970492
    16  O   -0.854814
    17  N   -0.504306
    18  H   -0.109361
    19  C    0.708976
    20  H   -0.147626
    21  H   -0.135277
    22  H   -0.078158
 Sum of Mulliken atomic charges =   0.00000
 Mulliken charges with hydrogens summed into heavy atoms:
              1
     2  C    0.299892
     5  C    0.624550
     6  O   -0.819262
     7  N   -0.515997
     9  C   -0.027254
    11  C    0.588146
    15  C    0.970492
    16  O   -0.854814
    17  N   -0.613667
    19  C    0.347914
 Sum of Mulliken charges with hydrogens summed into heavy atoms =   0.00000
 Electronic spatial extent (au):  <R**2>=           1912.4708
 Charge=              0.0000 electrons
 Dipole moment (field-independent basis, Debye):
    X=             -3.2681    Y=              0.5847    Z=              0.8127  Tot=              3.4181
 Quadrupole moment (field-independent basis, Debye-Ang):
   XX=            -57.5824   YY=            -64.0266   ZZ=            -61.2766
   XY=            -13.3551   XZ=              4.0172   YZ=              2.2477
 Traceless Quadrupole moment (field-independent basis, Debye-Ang):
   XX=              3.3795   YY=             -3.0647   ZZ=             -0.3147
   XY=            -13.3551   XZ=              4.0172   YZ=              2.2477
 Octapole moment (field-independent basis, Debye-Ang**2):
  XXX=            -43.6036  YYY=              7.0060  ZZZ=             -1.1875  XYY=             -1.6191
  XXY=            -19.7477  XXZ=              1.3698  XZZ=             -3.4509  YZZ=             -2.2668
  YYZ=              2.1191  XYZ=              4.3573
 Hexadecapole moment (field-independent basis, Debye-Ang**3):
 XXXX=          -1741.8895 YYYY=           -507.7152 ZZZZ=           -151.2810 XXXY=            -63.2884
 XXXZ=             35.3400 YYYX=            -18.7743 YYYZ=             -1.0389 ZZZX=             -1.2613
 ZZZY=              0.2336 XXYY=           -396.8869 XXZZ=           -343.5595 YYZZ=           -108.6431
 XXYZ=             16.6283 YYXZ=              6.9296 ZZXY=             -2.4995
 N-N= 5.519903053601D+02 E-N=-2.259221052174D+03  KE= 4.920707896469D+02
 1\1\GINC-NODE004\SP\RMP2-FC\Aug-CC-pVDZ\C6H12N2O2\STEBOSS\12-Feb-2017\
 0\\#SP MP2/aug-cc-pVDZ\\Single Point calculation at MP2\\0,1\H,0,4.156
 4,-0.9886,-0.2712\C,0,3.108,-1.2944,-0.2771\H,0,2.9428,-2.0494,0.498\H
 ,0,2.8963,-1.7496,-1.252\C,0,2.2391,-0.051,-0.1079\O,0,2.5777,1.0281,-
 0.5771\N,0,1.0961,-0.2759,0.6204\H,0,0.8542,-1.2523,0.758\C,0,-0.1057,
 0.5537,0.7111\H,0,-0.3134,0.7127,1.7819\C,0,-0.0074,1.9379,0.0563\H,0,
 0.0602,1.8769,-1.0321\H,0,-0.8849,2.5366,0.3316\H,0,0.8785,2.4649,0.40
 74\C,0,-1.2845,-0.3247,0.2057\O,0,-1.1769,-1.5487,0.1761\N,0,-2.4397,0
 .323,-0.097\H,0,-2.4346,1.3308,-0.1389\C,0,-3.6384,-0.3788,-0.5279\H,0
 ,-3.5059,-1.4358,-0.2952\H,0,-4.5152,0.0053,0.0038\H,0,-3.8027,-0.2727
 ,-1.6074\\Version=EM64L-G09RevA.02\State=1-A\HF=-492.916273\MP2=-494.5
 175369\RMSD=4.852e-09\PG=C01 [X(C6H12N2O2)]\\@


     "IF I COULD JUST GET IT ON PAPER"
 LIFE AND INK, THEY RUN OUT AT THE SAME TIME,
 OR SO SAID MY OLD FRIEND THE SQUID.
     -- JIMMY BUFFETT, 1981
 Job cpu time:  0 days  8 hours 57 minutes 37.9 seconds.
 File lengths (MBytes):  RWF=  10501 Int=      0 D2E=      0 Chk=      7 Scr=      2
 Normal termination of Gaussian 09 at Sun Feb 12 16:25:48 2017.
