 Entering Gaussian System, Link 0=g09
 Initial command:
 /home/steboss/Software/g09/l1.exe /home/steboss/projects/phi_psi_scan/alanine/MP2/120/5219/Gau-16944.inp -scrdir=/home/steboss/projects/phi_psi_scan/alanine/MP2/120/5219/
 Entering Link 1 = /home/steboss/Software/g09/l1.exe PID=     16946.
  
 Copyright (c) 1988,1990,1992,1993,1995,1998,2003,2009, Gaussian, Inc.
                  All Rights Reserved.
  
 This is part of the Gaussian(R) 09 program.  It is based on
 the Gaussian(R) 03 system (copyright 2003, Gaussian, Inc.),
 the Gaussian(R) 98 system (copyright 1998, Gaussian, Inc.),
 the Gaussian(R) 94 system (copyright 1995, Gaussian, Inc.),
 the Gaussian 92(TM) system (copyright 1992, Gaussian, Inc.),
 the Gaussian 90(TM) system (copyright 1990, Gaussian, Inc.),
 the Gaussian 88(TM) system (copyright 1988, Gaussian, Inc.),
 the Gaussian 86(TM) system (copyright 1986, Carnegie Mellon
 University), and the Gaussian 82(TM) system (copyright 1983,
 Carnegie Mellon University). Gaussian is a federally registered
 trademark of Gaussian, Inc.
  
 This software contains proprietary and confidential information,
 including trade secrets, belonging to Gaussian, Inc.
  
 This software is provided under written license and may be
 used, copied, transmitted, or stored only in accord with that
 written license.
  
 The following legend is applicable only to US Government
 contracts under FAR:
  
                    RESTRICTED RIGHTS LEGEND
  
 Use, reproduction and disclosure by the US Government is
 subject to restrictions as set forth in subparagraphs (a)
 and (c) of the Commercial Computer Software - Restricted
 Rights clause in FAR 52.227-19.
  
 Gaussian, Inc.
 340 Quinnipiac St., Bldg. 40, Wallingford CT 06492
  
  
 ---------------------------------------------------------------
 Warning -- This program may not be used in any manner that
 competes with the business of Gaussian, Inc. or will provide
 assistance to any competitor of Gaussian, Inc.  The licensee
 of this program is prohibited from giving any competitor of
 Gaussian, Inc. access to this program.  By using this program,
 the user acknowledges that Gaussian, Inc. is engaged in the
 business of creating and licensing software in the field of
 computational chemistry and represents and warrants to the
 licensee that it is not a competitor of Gaussian, Inc. and that
 it will not use this program in any manner prohibited above.
 ---------------------------------------------------------------
  

 Cite this work as:
 Gaussian 09, Revision A.02,
 M. J. Frisch, G. W. Trucks, H. B. Schlegel, G. E. Scuseria, 
 M. A. Robb, J. R. Cheeseman, G. Scalmani, V. Barone, B. Mennucci, 
 G. A. Petersson, H. Nakatsuji, M. Caricato, X. Li, H. P. Hratchian, 
 A. F. Izmaylov, J. Bloino, G. Zheng, J. L. Sonnenberg, M. Hada, 
 M. Ehara, K. Toyota, R. Fukuda, J. Hasegawa, M. Ishida, T. Nakajima, 
 Y. Honda, O. Kitao, H. Nakai, T. Vreven, J. A. Montgomery, Jr., 
 J. E. Peralta, F. Ogliaro, M. Bearpark, J. J. Heyd, E. Brothers, 
 K. N. Kudin, V. N. Staroverov, R. Kobayashi, J. Normand, 
 K. Raghavachari, A. Rendell, J. C. Burant, S. S. Iyengar, J. Tomasi, 
 M. Cossi, N. Rega, J. M. Millam, M. Klene, J. E. Knox, J. B. Cross, 
 V. Bakken, C. Adamo, J. Jaramillo, R. Gomperts, R. E. Stratmann, 
 O. Yazyev, A. J. Austin, R. Cammi, C. Pomelli, J. W. Ochterski, 
 R. L. Martin, K. Morokuma, V. G. Zakrzewski, G. A. Voth, 
 P. Salvador, J. J. Dannenberg, S. Dapprich, A. D. Daniels, 
 O. Farkas, J. B. Foresman, J. V. Ortiz, J. Cioslowski, 
 and D. J. Fox, Gaussian, Inc., Wallingford CT, 2009.
 
 ******************************************
 Gaussian 09:  EM64L-G09RevA.02 11-Jun-2009
                12-Feb-2017 
 ******************************************
 %chk=structure_285.chk
 %NProcShared=8
 Will use up to    8 processors via shared memory.
 -------------------
 #SP MP2/aug-cc-pVDZ
 -------------------
 1/38=1/1;
 2/12=2,17=6,18=5,40=1/2;
 3/5=16,7=10,11=9,16=1,25=1,30=1/1,2,3;
 4//1;
 5/5=2,38=5/2;
 8/10=1/1;
 9/16=-3/6;
 6/7=2,8=2,9=2,10=2/1;
 99/5=1,9=1/99;
 -------------------------------
 Single Point calculation at MP2
 -------------------------------
 Symbolic Z-matrix:
 Charge =  0 Multiplicity = 1
 H                     3.4893   -1.8775   -0.0308 
 C                     3.1298   -1.0889    0.6342 
 H                     3.9723   -0.4182    0.8383 
 H                     2.8052   -1.5335    1.5805 
 C                     2.038    -0.3048   -0.0865 
 O                     2.1255   -0.0372   -1.279 
 N                     0.9764    0.0486    0.7055 
 H                     1.0182   -0.2445    1.6721 
 C                    -0.1054    1.0094    0.4254 
 H                    -0.1553    1.6735    1.2952 
 C                     0.0749    1.8852   -0.8182 
 H                     0.0906    1.3194   -1.749 
 H                    -0.7549    2.6001   -0.8465 
 H                     1.0126    2.4438   -0.7616 
 C                    -1.4547    0.2559    0.4736 
 O                    -2.2186    0.378     1.4242 
 N                    -1.7057   -0.5325   -0.6102 
 H                    -0.9639   -0.6532   -1.2869 
 C                    -2.8713   -1.3943   -0.6967 
 H                    -3.5747   -1.0728    0.0726 
 H                    -3.3429   -1.3045   -1.681 
 H                    -2.6144   -2.4473   -0.5226 
 
                          Input orientation:                          
 ---------------------------------------------------------------------
 Center     Atomic      Atomic             Coordinates (Angstroms)
 Number     Number       Type             X           Y           Z
 ---------------------------------------------------------------------
      1          1           0        3.489300   -1.877500   -0.030800
      2          6           0        3.129800   -1.088900    0.634200
      3          1           0        3.972300   -0.418200    0.838300
      4          1           0        2.805200   -1.533500    1.580500
      5          6           0        2.038000   -0.304800   -0.086500
      6          8           0        2.125500   -0.037200   -1.279000
      7          7           0        0.976400    0.048600    0.705500
      8          1           0        1.018200   -0.244500    1.672100
      9          6           0       -0.105400    1.009400    0.425400
     10          1           0       -0.155300    1.673500    1.295200
     11          6           0        0.074900    1.885200   -0.818200
     12          1           0        0.090600    1.319400   -1.749000
     13          1           0       -0.754900    2.600100   -0.846500
     14          1           0        1.012600    2.443800   -0.761600
     15          6           0       -1.454700    0.255900    0.473600
     16          8           0       -2.218600    0.378000    1.424200
     17          7           0       -1.705700   -0.532500   -0.610200
     18          1           0       -0.963900   -0.653200   -1.286900
     19          6           0       -2.871300   -1.394300   -0.696700
     20          1           0       -3.574700   -1.072800    0.072600
     21          1           0       -3.342900   -1.304500   -1.681000
     22          1           0       -2.614400   -2.447300   -0.522600
 ---------------------------------------------------------------------
                    Distance matrix (angstroms):
                    1          2          3          4          5
     1  H    0.000000
     2  C    1.092408   0.000000
     3  H    1.765837   1.096039   0.000000
     4  H    1.783989   1.094768   1.776760   0.000000
     5  C    2.140738   1.525204   2.147005   2.208436   0.000000
     6  O    2.608574   2.403128   2.835276   3.298128   1.225285
     7  N    3.250641   2.436416   3.034956   2.571609   1.370821
     8  H    3.416562   2.499820   3.074427   2.205285   2.033790
     9  C    4.632945   3.861733   4.340065   4.033880   2.565799
    10  H    5.258421   4.342771   4.649844   4.373878   3.260879
    11  C    5.141599   4.504126   4.820723   4.989570   3.030717
    12  H    4.972277   4.551515   4.978049   5.156904   3.032210
    13  H    6.223142   5.558065   5.856202   5.970870   4.100772
    14  H    5.034059   4.348651   4.417075   4.951541   3.010317
    15  C    5.408230   4.780368   5.480853   4.751203   3.581487
    16  O    6.307490   5.601900   6.269327   5.377437   4.568049
    17  N    5.397477   5.023960   5.860964   5.113647   3.787004
    18  H    4.786198   4.542999   5.379384   4.816952   3.251730
    19  C    6.413590   6.154491   7.081233   6.117816   5.065627
    20  H    7.110438   6.727999   7.613935   6.571844   5.667234
    21  H    7.051982   6.877680   7.787461   6.963401   5.700519
    22  H    6.149934   6.014921   7.025234   5.884737   5.140556
                    6          7          8          9         10
     6  O    0.000000
     7  N    2.294784   0.000000
     8  H    3.158810   1.010926   0.000000
     9  C    2.996209   1.473731   2.094995   0.000000
    10  H    3.841230   2.066105   2.279886   1.095477   0.000000
    11  C    2.848319   2.550973   3.409843   1.531690   2.136415
    12  H    2.490398   2.902438   3.874294   2.205115   3.074574
    13  H    3.929264   3.451993   4.192729   2.137734   2.409354
    14  H    2.767961   2.809035   3.626277   2.171727   2.487525
    15  C    3.996917   2.450918   2.793213   1.546188   2.091185
    16  O    5.133311   3.291361   3.305425   2.421132   2.439707
    17  N    3.920550   3.043420   3.565315   2.451710   3.301625
    18  H    3.150224   2.868265   3.584890   2.536382   3.568558
    19  C    5.210451   4.341995   4.696963   3.832373   4.555844
    20  H    5.949081   4.729758   4.933479   4.061535   4.552934
    21  H    5.627704   5.116895   5.602327   4.502495   5.280819
    22  H    5.370975   4.542201   4.781717   4.375221   5.131526
                   11         12         13         14         15
    11  C    0.000000
    12  H    1.089387   0.000000
    13  H    1.095651   1.780328   0.000000
    14  H    1.092940   1.757646   1.776427   0.000000
    15  C    2.581287   2.908425   2.779866   3.521391   0.000000
    16  O    3.544030   4.035819   3.498032   4.414284   1.225599
    17  N    3.009830   2.820123   3.282231   4.033663   1.363524
    18  H    2.782492   2.284000   3.289619   3.711321   2.041252
    19  C    4.410213   4.152632   4.522922   5.460760   2.469720
    20  H    4.781513   4.740809   4.720827   5.840007   2.533899
    21  H    4.753942   4.321851   4.758155   5.819401   3.262277
    22  H    5.107864   4.796781   5.388775   6.093858   3.105577
                   16         17         18         19         20
    16  O    0.000000
    17  N    2.287107   0.000000
    18  H    3.160334   1.011315   0.000000
    19  C    2.839944   1.452172   2.129728   0.000000
    20  H    2.402218   2.061868   2.973311   1.090851   0.000000
    21  H    3.706363   2.103098   2.497829   1.095133   1.783964
    22  H    3.453840   2.121289   2.554819   1.097778   1.779238
                   21         22
    21  H    0.000000
    22  H    1.782861   0.000000
 Stoichiometry    C6H12N2O2
 Framework group  C1[X(C6H12N2O2)]
 Deg. of freedom    60
 Full point group                 C1      NOp   1
 Largest Abelian subgroup         C1      NOp   1
 Largest concise Abelian subgroup C1      NOp   1
                         Standard orientation:                         
 ---------------------------------------------------------------------
 Center     Atomic      Atomic             Coordinates (Angstroms)
 Number     Number       Type             X           Y           Z
 ---------------------------------------------------------------------
      1          1           0        3.489290   -1.877510   -0.030797
      2          6           0        3.129794   -1.088908    0.634203
      3          1           0        3.972298   -0.418212    0.838303
      4          1           0        2.805192   -1.533507    1.580503
      5          6           0        2.037998   -0.304803   -0.086497
      6          8           0        2.125500   -0.037203   -1.278997
      7          7           0        0.976400    0.048603    0.705503
      8          1           0        1.018199   -0.244497    1.672103
      9          6           0       -0.105395    1.009408    0.425403
     10          1           0       -0.155292    1.673508    1.295203
     11          6           0        0.074910    1.885207   -0.818197
     12          1           0        0.090607    1.319407   -1.748997
     13          1           0       -0.754887    2.600112   -0.846497
     14          1           0        1.012612    2.443803   -0.761597
     15          6           0       -1.454699    0.255915    0.473603
     16          8           0       -2.218598    0.378019    1.424203
     17          7           0       -1.705703   -0.532484   -0.610197
     18          1           0       -0.963903   -0.653187   -1.286897
     19          6           0       -2.871307   -1.394278   -0.696697
     20          1           0       -3.574705   -1.072774    0.072603
     21          1           0       -3.342907   -1.304475   -1.680997
     22          1           0       -2.614412   -2.447279   -0.522597
 ---------------------------------------------------------------------
 Rotational constants (GHZ):      2.0691117      0.7445977      0.7196401
 Standard basis: Aug-CC-pVDZ (5D, 7F)
 There are   338 symmetry adapted basis functions of A   symmetry.
 Integral buffers will be    131072 words long.
 Raffenetti 1 integral format.
 Two-electron integral symmetry is turned on.
   338 basis functions,   562 primitive gaussians,   358 cartesian basis functions
    39 alpha electrons       39 beta electrons
       nuclear repulsion energy       554.1306100363 Hartrees.
 NAtoms=   22 NActive=   22 NUniq=   22 SFac= 7.50D-01 NAtFMM=   80 NAOKFM=F Big=F
 One-electron integrals computed using PRISM.
 NBasis=   338 RedAO= T  NBF=   338
 NBsUse=   338 1.00D-06 NBFU=   338
 Harris functional with IExCor=  205 diagonalized for initial guess.
 ExpMin= 2.97D-02 ExpMax= 1.17D+04 ExpMxC= 4.01D+02 IAcc=3 IRadAn=         0 AccDes= 0.00D+00
 HarFok:  IExCor=  205 AccDes= 0.00D+00 IRadAn=         0 IDoV= 1
 ScaDFX=  1.000000  1.000000  1.000000  1.000000
 FoFCou: FMM=F IPFlag=           0 FMFlag=      100000 FMFlg1=           0
         NFxFlg=           0 DoJE=T BraDBF=F KetDBF=T FulRan=T
         Omega=  0.000000  0.000000  1.000000  0.000000  0.000000 ICntrl=     500 IOpCl=  0
         NMat0=    1 NMatS0=    1 NMatT0=    0 NMatD0=    1 NMtDS0=    0 NMtDT0=    0
         I1Cent=           4 NGrid=           0.
 Petite list used in FoFCou.
 Initial guess orbital symmetries:
       Occupied  (A) (A) (A) (A) (A) (A) (A) (A) (A) (A) (A) (A)
                 (A) (A) (A) (A) (A) (A) (A) (A) (A) (A) (A) (A)
                 (A) (A) (A) (A) (A) (A) (A) (A) (A) (A) (A) (A)
                 (A) (A) (A)
       Virtual   (A) (A) (A) (A) (A) (A) (A) (A) (A) (A) (A) (A)
                 (A) (A) (A) (A) (A) (A) (A) (A) (A) (A) (A) (A)
                 (A) (A) (A) (A) (A) (A) (A) (A) (A) (A) (A) (A)
                 (A) (A) (A) (A) (A) (A) (A) (A) (A) (A) (A) (A)
                 (A) (A) (A) (A) (A) (A) (A) (A) (A) (A) (A) (A)
                 (A) (A) (A) (A) (A) (A) (A) (A) (A) (A) (A) (A)
                 (A) (A) (A) (A) (A) (A) (A) (A) (A) (A) (A) (A)
                 (A) (A) (A) (A) (A) (A) (A) (A) (A) (A) (A) (A)
                 (A) (A) (A) (A) (A) (A) (A) (A) (A) (A) (A) (A)
                 (A) (A) (A) (A) (A) (A) (A) (A) (A) (A) (A) (A)
                 (A) (A) (A) (A) (A) (A) (A) (A) (A) (A) (A) (A)
                 (A) (A) (A) (A) (A) (A) (A) (A) (A) (A) (A) (A)
                 (A) (A) (A) (A) (A) (A) (A) (A) (A) (A) (A) (A)
                 (A) (A) (A) (A) (A) (A) (A) (A) (A) (A) (A) (A)
                 (A) (A) (A) (A) (A) (A) (A) (A) (A) (A) (A) (A)
                 (A) (A) (A) (A) (A) (A) (A) (A) (A) (A) (A) (A)
                 (A) (A) (A) (A) (A) (A) (A) (A) (A) (A) (A) (A)
                 (A) (A) (A) (A) (A) (A) (A) (A) (A) (A) (A) (A)
                 (A) (A) (A) (A) (A) (A) (A) (A) (A) (A) (A) (A)
                 (A) (A) (A) (A) (A) (A) (A) (A) (A) (A) (A) (A)
                 (A) (A) (A) (A) (A) (A) (A) (A) (A) (A) (A) (A)
                 (A) (A) (A) (A) (A) (A) (A) (A) (A) (A) (A) (A)
                 (A) (A) (A) (A) (A) (A) (A) (A) (A) (A) (A) (A)
                 (A) (A) (A) (A) (A) (A) (A) (A) (A) (A) (A) (A)
                 (A) (A) (A) (A) (A) (A) (A) (A) (A) (A) (A)
 The electronic state of the initial guess is 1-A.
 Requested convergence on RMS density matrix=1.00D-08 within 128 cycles.
 Requested convergence on MAX density matrix=1.00D-06.
 Requested convergence on             energy=1.00D-06.
 No special actions if energy rises.
 Initial convergence to 1.0D-05 achieved.  Increase integral accuracy.
 SCF Done:  E(RHF) =  -492.916494134     A.U. after   14 cycles
             Convg  =    0.6936D-08             -V/T =  2.0017
 ExpMin= 2.97D-02 ExpMax= 1.17D+04 ExpMxC= 4.01D+02 IAcc=3 IRadAn=         5 AccDes= 0.00D+00
 HarFok:  IExCor=  205 AccDes= 0.00D+00 IRadAn=         5 IDoV=-2
 ScaDFX=  1.000000  1.000000  1.000000  1.000000
 Range of M.O.s used for correlation:    11   338
 NBasis=   338 NAE=    39 NBE=    39 NFC=    10 NFV=     0
 NROrb=    328 NOA=    29 NOB=    29 NVA=   299 NVB=   299

 **** Warning!!: The largest alpha MO coefficient is  0.74479549D+02

 Disk-based method using OVN memory for 29 occupieds at a time.
 Estimated scratch disk usage=  1383313840 words.
 Actual    scratch disk usage=  1370597284 words.
 JobTyp=1 Pass  1:  I=   1 to  29 NPSUse=  8 ParTrn=T ParDer=T DoDerP=F.
 Spin components of T(2) and E(2):
     alpha-alpha T2 =       0.6784582289D-01 E2=     -0.2055320656D+00
     alpha-beta  T2 =       0.3766546855D+00 E2=     -0.1190057425D+01
     beta-beta   T2 =       0.6784582289D-01 E2=     -0.2055320656D+00
 ANorm=    0.1229774911D+01
 E2 =    -0.1601121556D+01 EUMP2 =    -0.49451761568959D+03

 **********************************************************************

            Population analysis using the SCF density.

 **********************************************************************

 Orbital symmetries:
       Occupied  (A) (A) (A) (A) (A) (A) (A) (A) (A) (A) (A) (A)
                 (A) (A) (A) (A) (A) (A) (A) (A) (A) (A) (A) (A)
                 (A) (A) (A) (A) (A) (A) (A) (A) (A) (A) (A) (A)
                 (A) (A) (A)
       Virtual   (A) (A) (A) (A) (A) (A) (A) (A) (A) (A) (A) (A)
                 (A) (A) (A) (A) (A) (A) (A) (A) (A) (A) (A) (A)
                 (A) (A) (A) (A) (A) (A) (A) (A) (A) (A) (A) (A)
                 (A) (A) (A) (A) (A) (A) (A) (A) (A) (A) (A) (A)
                 (A) (A) (A) (A) (A) (A) (A) (A) (A) (A) (A) (A)
                 (A) (A) (A) (A) (A) (A) (A) (A) (A) (A) (A) (A)
                 (A) (A) (A) (A) (A) (A) (A) (A) (A) (A) (A) (A)
                 (A) (A) (A) (A) (A) (A) (A) (A) (A) (A) (A) (A)
                 (A) (A) (A) (A) (A) (A) (A) (A) (A) (A) (A) (A)
                 (A) (A) (A) (A) (A) (A) (A) (A) (A) (A) (A) (A)
                 (A) (A) (A) (A) (A) (A) (A) (A) (A) (A) (A) (A)
                 (A) (A) (A) (A) (A) (A) (A) (A) (A) (A) (A) (A)
                 (A) (A) (A) (A) (A) (A) (A) (A) (A) (A) (A) (A)
                 (A) (A) (A) (A) (A) (A) (A) (A) (A) (A) (A) (A)
                 (A) (A) (A) (A) (A) (A) (A) (A) (A) (A) (A) (A)
                 (A) (A) (A) (A) (A) (A) (A) (A) (A) (A) (A) (A)
                 (A) (A) (A) (A) (A) (A) (A) (A) (A) (A) (A) (A)
                 (A) (A) (A) (A) (A) (A) (A) (A) (A) (A) (A) (A)
                 (A) (A) (A) (A) (A) (A) (A) (A) (A) (A) (A) (A)
                 (A) (A) (A) (A) (A) (A) (A) (A) (A) (A) (A) (A)
                 (A) (A) (A) (A) (A) (A) (A) (A) (A) (A) (A) (A)
                 (A) (A) (A) (A) (A) (A) (A) (A) (A) (A) (A) (A)
                 (A) (A) (A) (A) (A) (A) (A) (A) (A) (A) (A) (A)
                 (A) (A) (A) (A) (A) (A) (A) (A) (A) (A) (A) (A)
                 (A) (A) (A) (A) (A) (A) (A) (A) (A) (A) (A)
 The electronic state is 1-A.
 Alpha  occ. eigenvalues --  -20.53616 -20.53466 -15.60799 -15.59392 -11.37334
 Alpha  occ. eigenvalues --  -11.35924 -11.29873 -11.26785 -11.25387 -11.23623
 Alpha  occ. eigenvalues --   -1.39156  -1.38490  -1.24889  -1.22885  -1.06057
 Alpha  occ. eigenvalues --   -0.99669  -0.95551  -0.89326  -0.79810  -0.77554
 Alpha  occ. eigenvalues --   -0.72354  -0.69878  -0.66439  -0.64197  -0.62188
 Alpha  occ. eigenvalues --   -0.61949  -0.59772  -0.59040  -0.57118  -0.56023
 Alpha  occ. eigenvalues --   -0.54953  -0.54365  -0.52763  -0.52079  -0.51251
 Alpha  occ. eigenvalues --   -0.44355  -0.42504  -0.39496  -0.38971
 Alpha virt. eigenvalues --    0.02876   0.03845   0.04145   0.04920   0.05637
 Alpha virt. eigenvalues --    0.05831   0.06375   0.06554   0.07649   0.07773
 Alpha virt. eigenvalues --    0.09030   0.09249   0.11247   0.11750   0.12249
 Alpha virt. eigenvalues --    0.13283   0.13960   0.14673   0.14862   0.15170
 Alpha virt. eigenvalues --    0.15450   0.15889   0.16461   0.16572   0.17111
 Alpha virt. eigenvalues --    0.17588   0.17912   0.18654   0.18753   0.18947
 Alpha virt. eigenvalues --    0.19140   0.19910   0.20110   0.21408   0.22260
 Alpha virt. eigenvalues --    0.22951   0.23354   0.24708   0.24921   0.25821
 Alpha virt. eigenvalues --    0.27729   0.28085   0.29257   0.29956   0.30338
 Alpha virt. eigenvalues --    0.31226   0.31986   0.32032   0.33007   0.33091
 Alpha virt. eigenvalues --    0.34009   0.34655   0.35388   0.36473   0.36836
 Alpha virt. eigenvalues --    0.37335   0.37868   0.37952   0.39790   0.40210
 Alpha virt. eigenvalues --    0.40483   0.41365   0.41519   0.42118   0.42744
 Alpha virt. eigenvalues --    0.42955   0.43878   0.44315   0.44892   0.45686
 Alpha virt. eigenvalues --    0.46043   0.46707   0.47193   0.47621   0.48431
 Alpha virt. eigenvalues --    0.49008   0.50272   0.51229   0.51315   0.52615
 Alpha virt. eigenvalues --    0.52980   0.53733   0.54441   0.55139   0.56232
 Alpha virt. eigenvalues --    0.56722   0.57051   0.57439   0.58304   0.58536
 Alpha virt. eigenvalues --    0.59708   0.60010   0.61131   0.61786   0.61940
 Alpha virt. eigenvalues --    0.63148   0.63347   0.64214   0.64676   0.65003
 Alpha virt. eigenvalues --    0.66131   0.66611   0.67190   0.67242   0.69221
 Alpha virt. eigenvalues --    0.69746   0.70439   0.70534   0.71289   0.72299
 Alpha virt. eigenvalues --    0.72553   0.72947   0.74002   0.74926   0.75601
 Alpha virt. eigenvalues --    0.75906   0.76516   0.77289   0.78113   0.78949
 Alpha virt. eigenvalues --    0.80172   0.80439   0.81399   0.82256   0.82782
 Alpha virt. eigenvalues --    0.83624   0.85495   0.85884   0.87282   0.87890
 Alpha virt. eigenvalues --    0.88683   0.90413   0.91020   0.92315   0.93113
 Alpha virt. eigenvalues --    0.93769   0.94323   0.95654   0.96473   0.98012
 Alpha virt. eigenvalues --    0.98776   1.00294   1.01164   1.03425   1.04233
 Alpha virt. eigenvalues --    1.04991   1.07397   1.07754   1.09368   1.10570
 Alpha virt. eigenvalues --    1.12519   1.13851   1.14227   1.15453   1.15781
 Alpha virt. eigenvalues --    1.16240   1.17789   1.20058   1.20426   1.21088
 Alpha virt. eigenvalues --    1.22780   1.23739   1.25679   1.26423   1.28146
 Alpha virt. eigenvalues --    1.29280   1.32021   1.34007   1.36736   1.37820
 Alpha virt. eigenvalues --    1.40067   1.41681   1.43373   1.44801   1.47008
 Alpha virt. eigenvalues --    1.49800   1.50430   1.51649   1.53767   1.54302
 Alpha virt. eigenvalues --    1.55169   1.56299   1.59523   1.61063   1.64699
 Alpha virt. eigenvalues --    1.67184   1.68755   1.69908   1.70818   1.72727
 Alpha virt. eigenvalues --    1.73668   1.75248   1.76459   1.77713   1.80904
 Alpha virt. eigenvalues --    1.81936   1.84396   1.85239   1.86497   1.88465
 Alpha virt. eigenvalues --    1.88841   1.89338   1.90672   1.91129   1.92907
 Alpha virt. eigenvalues --    1.95003   1.97442   1.98708   1.99842   2.00719
 Alpha virt. eigenvalues --    2.02810   2.03919   2.04659   2.05383   2.08212
 Alpha virt. eigenvalues --    2.09464   2.11845   2.13055   2.15314   2.16700
 Alpha virt. eigenvalues --    2.17105   2.18737   2.20888   2.22313   2.24994
 Alpha virt. eigenvalues --    2.25511   2.26261   2.26354   2.28586   2.30189
 Alpha virt. eigenvalues --    2.32414   2.33727   2.35427   2.36064   2.36586
 Alpha virt. eigenvalues --    2.39045   2.40036   2.42007   2.43108   2.45060
 Alpha virt. eigenvalues --    2.46975   2.47319   2.49354   2.50030   2.51887
 Alpha virt. eigenvalues --    2.53985   2.55008   2.55853   2.59321   2.61230
 Alpha virt. eigenvalues --    2.63485   2.64015   2.66251   2.66877   2.68939
 Alpha virt. eigenvalues --    2.71725   2.73104   2.74924   2.77406   2.77809
 Alpha virt. eigenvalues --    2.80409   2.82076   2.85706   2.86684   2.89295
 Alpha virt. eigenvalues --    2.91085   2.91520   2.94663   2.95940   2.98466
 Alpha virt. eigenvalues --    2.98674   3.02076   3.06022   3.07552   3.08966
 Alpha virt. eigenvalues --    3.10064   3.14089   3.16378   3.20256   3.23302
 Alpha virt. eigenvalues --    3.28309   3.36311   3.42132   3.45118   3.46478
 Alpha virt. eigenvalues --    3.62032   3.68717   3.74924   3.82266   3.83606
 Alpha virt. eigenvalues --    3.86736   3.86949   3.92644   3.96244   4.03869
 Alpha virt. eigenvalues --    4.07232   4.16384   4.20379   4.29742
          Condensed to atoms (all electrons):
              1          2          3          4          5          6
     1  H    0.749151   0.368866  -0.045744  -0.086555  -0.083975   0.026384
     2  C    0.368866   4.532480   0.350931   0.366724   0.168586  -0.029351
     3  H   -0.045744   0.350931   0.714668  -0.068618  -0.064058   0.010730
     4  H   -0.086555   0.366724  -0.068618   1.066058   0.101059  -0.008183
     5  C   -0.083975   0.168586  -0.064058   0.101059   5.651157   0.149804
     6  O    0.026384  -0.029351   0.010730  -0.008183   0.149804   8.711014
     7  N    0.046612  -0.052326   0.045708  -0.207333   0.067708  -0.090697
     8  H   -0.005109  -0.074323  -0.003369   0.009356  -0.128003  -0.004212
     9  C    0.009607  -0.061458   0.003341  -0.027418  -0.300596   0.045839
    10  H    0.001252   0.008519  -0.001889   0.001695  -0.007051   0.006246
    11  C   -0.001703   0.002748   0.002099  -0.001539  -0.043491  -0.003044
    12  H    0.001374   0.015238  -0.000276   0.002149   0.056884  -0.066041
    13  H    0.000072   0.003130   0.000330  -0.000389  -0.033986   0.005630
    14  H   -0.001753  -0.011070   0.000579  -0.000309   0.016750   0.020572
    15  C    0.000053  -0.005372   0.001914  -0.018989  -0.154834   0.032373
    16  O    0.000005  -0.000037  -0.000034   0.001639   0.015410   0.000334
    17  N    0.000135  -0.010979  -0.000975  -0.000962   0.022990  -0.000549
    18  H    0.000522   0.007415  -0.000374  -0.000999  -0.019282   0.011796
    19  C    0.000366   0.001366  -0.000013  -0.000314  -0.014078   0.000084
    20  H    0.000079   0.000496   0.000017  -0.000167  -0.002577   0.000097
    21  H   -0.000142  -0.000089   0.000008   0.000110  -0.001677   0.000193
    22  H    0.000169   0.000741   0.000019   0.000114   0.004468   0.000539
              7          8          9         10         11         12
     1  H    0.046612  -0.005109   0.009607   0.001252  -0.001703   0.001374
     2  C   -0.052326  -0.074323  -0.061458   0.008519   0.002748   0.015238
     3  H    0.045708  -0.003369   0.003341  -0.001889   0.002099  -0.000276
     4  H   -0.207333   0.009356  -0.027418   0.001695  -0.001539   0.002149
     5  C    0.067708  -0.128003  -0.300596  -0.007051  -0.043491   0.056884
     6  O   -0.090697  -0.004212   0.045839   0.006246  -0.003044  -0.066041
     7  N    7.773030   0.237312  -0.649612  -0.026137   0.072603  -0.046697
     8  H    0.237312   1.003086   0.144208  -0.031117  -0.034027  -0.007416
     9  C   -0.649612   0.144208   8.687297  -0.553287  -0.180979  -0.056342
    10  H   -0.026137  -0.031117  -0.553287   1.513635   0.021321   0.068550
    11  C    0.072603  -0.034027  -0.180979   0.021321   4.387883   0.348483
    12  H   -0.046697  -0.007416  -0.056342   0.068550   0.348483   1.050025
    13  H    0.131713  -0.003778  -0.245137  -0.066488   0.400978  -0.195885
    14  H   -0.080262   0.004388   0.123593  -0.019861   0.207641  -0.166812
    15  C    0.048880  -0.021746  -0.652099   0.220407   0.033149   0.001558
    16  O    0.007868   0.000666  -0.015549   0.036022   0.002328  -0.004113
    17  N    0.035068   0.008050  -0.303340   0.066446   0.027676  -0.026304
    18  H    0.018972   0.001610   0.038910  -0.005128  -0.020845   0.005102
    19  C    0.001557   0.003072  -0.118515   0.018914   0.000769   0.002801
    20  H   -0.002672  -0.000188   0.030694   0.007013  -0.014245   0.002219
    21  H   -0.001669  -0.000457  -0.032728  -0.002127   0.020142   0.001509
    22  H    0.002441  -0.000369   0.001604  -0.000618  -0.004416  -0.003309
             13         14         15         16         17         18
     1  H    0.000072  -0.001753   0.000053   0.000005   0.000135   0.000522
     2  C    0.003130  -0.011070  -0.005372  -0.000037  -0.010979   0.007415
     3  H    0.000330   0.000579   0.001914  -0.000034  -0.000975  -0.000374
     4  H   -0.000389  -0.000309  -0.018989   0.001639  -0.000962  -0.000999
     5  C   -0.033986   0.016750  -0.154834   0.015410   0.022990  -0.019282
     6  O    0.005630   0.020572   0.032373   0.000334  -0.000549   0.011796
     7  N    0.131713  -0.080262   0.048880   0.007868   0.035068   0.018972
     8  H   -0.003778   0.004388  -0.021746   0.000666   0.008050   0.001610
     9  C   -0.245137   0.123593  -0.652099  -0.015549  -0.303340   0.038910
    10  H   -0.066488  -0.019861   0.220407   0.036022   0.066446  -0.005128
    11  C    0.400978   0.207641   0.033149   0.002328   0.027676  -0.020845
    12  H   -0.195885  -0.166812   0.001558  -0.004113  -0.026304   0.005102
    13  H    1.280809  -0.199372   0.010571  -0.000377   0.000002   0.002899
    14  H   -0.199372   1.094994   0.032432  -0.003319   0.020389  -0.003200
    15  C    0.010571   0.032432   5.321310   0.224817   0.296387  -0.123266
    16  O   -0.000377  -0.003319   0.224817   8.690060  -0.128888   0.010573
    17  N    0.000002   0.020389   0.296387  -0.128888   7.129774   0.264173
    18  H    0.002899  -0.003200  -0.123266   0.010573   0.264173   0.994454
    19  C   -0.004594   0.003690  -0.026592  -0.013160   0.240036  -0.116147
    20  H   -0.002035  -0.000224  -0.005349  -0.015149  -0.055497  -0.006055
    21  H    0.000580   0.000915   0.000512   0.008974  -0.102263   0.010192
    22  H   -0.000385   0.000481  -0.036333   0.006326   0.070071  -0.004810
             19         20         21         22
     1  H    0.000366   0.000079  -0.000142   0.000169
     2  C    0.001366   0.000496  -0.000089   0.000741
     3  H   -0.000013   0.000017   0.000008   0.000019
     4  H   -0.000314  -0.000167   0.000110   0.000114
     5  C   -0.014078  -0.002577  -0.001677   0.004468
     6  O    0.000084   0.000097   0.000193   0.000539
     7  N    0.001557  -0.002672  -0.001669   0.002441
     8  H    0.003072  -0.000188  -0.000457  -0.000369
     9  C   -0.118515   0.030694  -0.032728   0.001604
    10  H    0.018914   0.007013  -0.002127  -0.000618
    11  C    0.000769  -0.014245   0.020142  -0.004416
    12  H    0.002801   0.002219   0.001509  -0.003309
    13  H   -0.004594  -0.002035   0.000580  -0.000385
    14  H    0.003690  -0.000224   0.000915   0.000481
    15  C   -0.026592  -0.005349   0.000512  -0.036333
    16  O   -0.013160  -0.015149   0.008974   0.006326
    17  N    0.240036  -0.055497  -0.102263   0.070071
    18  H   -0.116147  -0.006055   0.010192  -0.004810
    19  C    4.148665   0.462385   0.387657   0.298239
    20  H    0.462385   1.001065  -0.150279  -0.109533
    21  H    0.387657  -0.150279   1.128151  -0.150037
    22  H    0.298239  -0.109533  -0.150037   1.009102
 Mulliken atomic charges:
              1
     1  H    0.020334
     2  C    0.417763
     3  H    0.055003
     4  H   -0.127129
     5  C    0.598793
     6  O   -0.819560
     7  N   -0.332067
     8  H   -0.097634
     9  C    0.111968
    10  H   -0.256317
    11  C    0.776469
    12  H    0.017302
    13  H   -0.084288
    14  H   -0.040244
    15  C    0.820218
    16  O   -0.824396
    17  N   -0.551441
    18  H   -0.066513
    19  C    0.723812
    20  H   -0.140096
    21  H   -0.117476
    22  H   -0.084501
 Sum of Mulliken atomic charges =   0.00000
 Mulliken charges with hydrogens summed into heavy atoms:
              1
     2  C    0.365971
     5  C    0.598793
     6  O   -0.819560
     7  N   -0.429701
     9  C   -0.144349
    11  C    0.669239
    15  C    0.820218
    16  O   -0.824396
    17  N   -0.617954
    19  C    0.381739
 Sum of Mulliken charges with hydrogens summed into heavy atoms =   0.00000
 Electronic spatial extent (au):  <R**2>=           1802.6719
 Charge=              0.0000 electrons
 Dipole moment (field-independent basis, Debye):
    X=              1.5133    Y=             -1.3534    Z=              0.4843  Tot=              2.0872
 Quadrupole moment (field-independent basis, Debye-Ang):
   XX=            -64.9656   YY=            -57.0274   ZZ=            -65.7534
   XY=              1.4941   XZ=             16.1101   YZ=             -0.6551
 Traceless Quadrupole moment (field-independent basis, Debye-Ang):
   XX=             -2.3835   YY=              5.5547   ZZ=             -3.1713
   XY=              1.4941   XZ=             16.1101   YZ=             -0.6551
 Octapole moment (field-independent basis, Debye-Ang**2):
  XXX=             15.1881  YYY=             -0.1959  ZZZ=              1.1910  XYY=              0.8224
  XXY=            -18.0008  XXZ=             -0.1378  XZZ=              2.8549  YZZ=             -4.8475
  YYZ=             -1.4833  XYZ=             -0.4127
 Hexadecapole moment (field-independent basis, Debye-Ang**3):
 XXXX=          -1514.5172 YYYY=           -447.6565 ZZZZ=           -348.2907 XXXY=             13.0799
 XXXZ=             77.3262 YYYX=             -1.9301 YYYZ=              3.6308 ZZZX=             33.8647
 ZZZY=             -1.3619 XXYY=           -317.5374 XXZZ=           -361.7706 YYZZ=           -133.4200
 XXYZ=             -2.5597 YYXZ=             -1.0270 ZZXY=              6.1618
 N-N= 5.541306100363D+02 E-N=-2.263374341158D+03  KE= 4.920657035613D+02
 1\1\GINC-NODE005\SP\RMP2-FC\Aug-CC-pVDZ\C6H12N2O2\MANAGER\12-Feb-2017\
 0\\#SP MP2/aug-cc-pVDZ\\Single Point calculation at MP2\\0,1\H,0,3.489
 3,-1.8775,-0.0308\C,0,3.1298,-1.0889,0.6342\H,0,3.9723,-0.4182,0.8383\
 H,0,2.8052,-1.5335,1.5805\C,0,2.038,-0.3048,-0.0865\O,0,2.1255,-0.0372
 ,-1.279\N,0,0.9764,0.0486,0.7055\H,0,1.0182,-0.2445,1.6721\C,0,-0.1054
 ,1.0094,0.4254\H,0,-0.1553,1.6735,1.2952\C,0,0.0749,1.8852,-0.8182\H,0
 ,0.0906,1.3194,-1.749\H,0,-0.7549,2.6001,-0.8465\H,0,1.0126,2.4438,-0.
 7616\C,0,-1.4547,0.2559,0.4736\O,0,-2.2186,0.378,1.4242\N,0,-1.7057,-0
 .5325,-0.6102\H,0,-0.9639,-0.6532,-1.2869\C,0,-2.8713,-1.3943,-0.6967\
 H,0,-3.5747,-1.0728,0.0726\H,0,-3.3429,-1.3045,-1.681\H,0,-2.6144,-2.4
 473,-0.5226\\Version=EM64L-G09RevA.02\State=1-A\HF=-492.9164941\MP2=-4
 94.5176157\RMSD=6.936e-09\PG=C01 [X(C6H12N2O2)]\\@


 YOU WILL NEVER "FIND" TIME FOR ANYTHING.
 IF YOU WANT TIME, YOU MUST MAKE IT.

                        -- CHARLES BIXTON
 Job cpu time:  0 days 12 hours 32 minutes 10.7 seconds.
 File lengths (MBytes):  RWF=  10573 Int=      0 D2E=      0 Chk=      7 Scr=      2
 Normal termination of Gaussian 09 at Sun Feb 12 17:19:39 2017.
