 Entering Gaussian System, Link 0=g09
 Initial command:
 /home/steboss/Software/g09/l1.exe /tmp/Gau-9981.inp -scrdir=/tmp/
 Entering Link 1 = /home/steboss/Software/g09/l1.exe PID=      9983.
  
 Copyright (c) 1988,1990,1992,1993,1995,1998,2003,2009, Gaussian, Inc.
                  All Rights Reserved.
  
 This is part of the Gaussian(R) 09 program.  It is based on
 the Gaussian(R) 03 system (copyright 2003, Gaussian, Inc.),
 the Gaussian(R) 98 system (copyright 1998, Gaussian, Inc.),
 the Gaussian(R) 94 system (copyright 1995, Gaussian, Inc.),
 the Gaussian 92(TM) system (copyright 1992, Gaussian, Inc.),
 the Gaussian 90(TM) system (copyright 1990, Gaussian, Inc.),
 the Gaussian 88(TM) system (copyright 1988, Gaussian, Inc.),
 the Gaussian 86(TM) system (copyright 1986, Carnegie Mellon
 University), and the Gaussian 82(TM) system (copyright 1983,
 Carnegie Mellon University). Gaussian is a federally registered
 trademark of Gaussian, Inc.
  
 This software contains proprietary and confidential information,
 including trade secrets, belonging to Gaussian, Inc.
  
 This software is provided under written license and may be
 used, copied, transmitted, or stored only in accord with that
 written license.
  
 The following legend is applicable only to US Government
 contracts under FAR:
  
                    RESTRICTED RIGHTS LEGEND
  
 Use, reproduction and disclosure by the US Government is
 subject to restrictions as set forth in subparagraphs (a)
 and (c) of the Commercial Computer Software - Restricted
 Rights clause in FAR 52.227-19.
  
 Gaussian, Inc.
 340 Quinnipiac St., Bldg. 40, Wallingford CT 06492
  
  
 ---------------------------------------------------------------
 Warning -- This program may not be used in any manner that
 competes with the business of Gaussian, Inc. or will provide
 assistance to any competitor of Gaussian, Inc.  The licensee
 of this program is prohibited from giving any competitor of
 Gaussian, Inc. access to this program.  By using this program,
 the user acknowledges that Gaussian, Inc. is engaged in the
 business of creating and licensing software in the field of
 computational chemistry and represents and warrants to the
 licensee that it is not a competitor of Gaussian, Inc. and that
 it will not use this program in any manner prohibited above.
 ---------------------------------------------------------------
  

 Cite this work as:
 Gaussian 09, Revision A.02,
 M. J. Frisch, G. W. Trucks, H. B. Schlegel, G. E. Scuseria, 
 M. A. Robb, J. R. Cheeseman, G. Scalmani, V. Barone, B. Mennucci, 
 G. A. Petersson, H. Nakatsuji, M. Caricato, X. Li, H. P. Hratchian, 
 A. F. Izmaylov, J. Bloino, G. Zheng, J. L. Sonnenberg, M. Hada, 
 M. Ehara, K. Toyota, R. Fukuda, J. Hasegawa, M. Ishida, T. Nakajima, 
 Y. Honda, O. Kitao, H. Nakai, T. Vreven, J. A. Montgomery, Jr., 
 J. E. Peralta, F. Ogliaro, M. Bearpark, J. J. Heyd, E. Brothers, 
 K. N. Kudin, V. N. Staroverov, R. Kobayashi, J. Normand, 
 K. Raghavachari, A. Rendell, J. C. Burant, S. S. Iyengar, J. Tomasi, 
 M. Cossi, N. Rega, J. M. Millam, M. Klene, J. E. Knox, J. B. Cross, 
 V. Bakken, C. Adamo, J. Jaramillo, R. Gomperts, R. E. Stratmann, 
 O. Yazyev, A. J. Austin, R. Cammi, C. Pomelli, J. W. Ochterski, 
 R. L. Martin, K. Morokuma, V. G. Zakrzewski, G. A. Voth, 
 P. Salvador, J. J. Dannenberg, S. Dapprich, A. D. Daniels, 
 O. Farkas, J. B. Foresman, J. V. Ortiz, J. Cioslowski, 
 and D. J. Fox, Gaussian, Inc., Wallingford CT, 2009.
 
 ******************************************
 Gaussian 09:  EM64L-G09RevA.02 11-Jun-2009
                10-Feb-2017 
 ******************************************
 %chk=structure_135.chk
 %NProcShared=8
 Will use up to    8 processors via shared memory.
 -------------------------------------------
 # HF/6-31G* Opt=(ModRedundant) geom=nocrowd
 -------------------------------------------
 1/18=120,19=15,38=1/1,3;
 2/9=110,12=1,17=6,18=5,40=1/2;
 3/5=1,6=6,7=1,11=9,16=1,25=1,30=1,71=1/1,2,3;
 4//1;
 5/5=2,38=5/2;
 6/7=2,8=2,9=2,10=2,28=1/1;
 7//1,2,3,16;
 1/18=20,19=15/3(2);
 2/9=110,12=1/2;
 99//99;
 2/9=110,12=1/2;
 3/5=1,6=6,7=1,11=9,16=1,25=1,30=1,71=1/1,2,3;
 4/5=5,16=3/1;
 5/5=2,38=5/2;
 7//1,2,3,16;
 1/18=20,19=15/3(-5);
 2/9=110,12=1/2;
 6/7=2,8=2,9=2,10=2,19=2,28=1/1;
 99/9=1/99;
 ------------------
 Phi Psi fixed scan
 ------------------
 Symbolic Z-matrix:
 Charge =  0 Multiplicity = 1
 H                     1.9702    1.0601   -0.5095 
 C                     1.985     2.1203   -0.2568 
 H                     1.582     2.2609    0.7462 
 H                     1.3772    2.6735   -0.9728 
 C                     3.4103    2.6754   -0.2933 
 O                     4.3566    1.9459   -0.5812 
 N                     3.5554    3.9697    0. 
 H                     2.7466    4.529     0.2306 
 C                     4.8533    4.6139    0. 
 H                     5.4076    4.3155    0.8898 
 C                     5.6613    4.2208   -1.2322 
 H                     5.1233    4.5214   -2.1312 
 H                     6.6305    4.7189   -1.2058 
 H                     5.8085    3.1409   -1.2414 
 C                     4.7127    6.1294    0. 
 O                     3.9095    6.6814   -0.7488 
 N                     5.4979    6.8026    0.8441 
 H                     6.143     6.3041    1.4403 
 C                     5.4589    8.248     0.9387 
 H                     4.72      8.6386    0.2391 
 H                     5.1871    8.5389    1.9534 
 H                     6.4402    8.6552    0.695 
 
 The following ModRedundant input section has been read:
 D    5    7    9   15 F                                                       
 D    7    9   15   17 F                                                       

 GradGradGradGradGradGradGradGradGradGradGradGradGradGradGradGradGradGrad
 Berny optimization.
 Initialization pass.
                           ----------------------------
                           !    Initial Parameters    !
                           ! (Angstroms and Degrees)  !
 --------------------------                            --------------------------
 ! Name  Definition              Value          Derivative Info.                !
 --------------------------------------------------------------------------------
 ! R1    R(1,2)                  1.09           estimate D2E/DX2                !
 ! R2    R(2,3)                  1.09           estimate D2E/DX2                !
 ! R3    R(2,4)                  1.09           estimate D2E/DX2                !
 ! R4    R(2,5)                  1.53           estimate D2E/DX2                !
 ! R5    R(5,6)                  1.229          estimate D2E/DX2                !
 ! R6    R(5,7)                  1.335          estimate D2E/DX2                !
 ! R7    R(7,8)                  1.01           estimate D2E/DX2                !
 ! R8    R(7,9)                  1.449          estimate D2E/DX2                !
 ! R9    R(9,10)                 1.09           estimate D2E/DX2                !
 ! R10   R(9,11)                 1.525          estimate D2E/DX2                !
 ! R11   R(9,15)                 1.522          estimate D2E/DX2                !
 ! R12   R(11,12)                1.09           estimate D2E/DX2                !
 ! R13   R(11,13)                1.09           estimate D2E/DX2                !
 ! R14   R(11,14)                1.0899         estimate D2E/DX2                !
 ! R15   R(15,16)                1.229          estimate D2E/DX2                !
 ! R16   R(15,17)                1.335          estimate D2E/DX2                !
 ! R17   R(17,18)                1.01           estimate D2E/DX2                !
 ! R18   R(17,19)                1.449          estimate D2E/DX2                !
 ! R19   R(19,20)                1.0899         estimate D2E/DX2                !
 ! R20   R(19,21)                1.09           estimate D2E/DX2                !
 ! R21   R(19,22)                1.09           estimate D2E/DX2                !
 ! A1    A(1,2,3)              109.4973         estimate D2E/DX2                !
 ! A2    A(1,2,4)              109.4988         estimate D2E/DX2                !
 ! A3    A(1,2,5)              111.1006         estimate D2E/DX2                !
 ! A4    A(3,2,4)              109.4393         estimate D2E/DX2                !
 ! A5    A(3,2,5)              108.6364         estimate D2E/DX2                !
 ! A6    A(4,2,5)              108.6416         estimate D2E/DX2                !
 ! A7    A(2,5,6)              120.4973         estimate D2E/DX2                !
 ! A8    A(2,5,7)              116.5992         estimate D2E/DX2                !
 ! A9    A(6,5,7)              122.9035         estimate D2E/DX2                !
 ! A10   A(5,7,8)              119.9988         estimate D2E/DX2                !
 ! A11   A(5,7,9)              121.8962         estimate D2E/DX2                !
 ! A12   A(8,7,9)              118.105          estimate D2E/DX2                !
 ! A13   A(7,9,10)             109.5            estimate D2E/DX2                !
 ! A14   A(7,9,11)             111.0992         estimate D2E/DX2                !
 ! A15   A(7,9,15)             111.0966         estimate D2E/DX2                !
 ! A16   A(10,9,11)            108.6382         estimate D2E/DX2                !
 ! A17   A(10,9,15)            108.6373         estimate D2E/DX2                !
 ! A18   A(11,9,15)            107.7947         estimate D2E/DX2                !
 ! A19   A(9,11,12)            109.5007         estimate D2E/DX2                !
 ! A20   A(9,11,13)            109.4959         estimate D2E/DX2                !
 ! A21   A(9,11,14)            109.4978         estimate D2E/DX2                !
 ! A22   A(12,11,13)           109.441          estimate D2E/DX2                !
 ! A23   A(12,11,14)           109.4482         estimate D2E/DX2                !
 ! A24   A(13,11,14)           109.4436         estimate D2E/DX2                !
 ! A25   A(9,15,16)            120.5029         estimate D2E/DX2                !
 ! A26   A(9,15,17)            116.6012         estimate D2E/DX2                !
 ! A27   A(16,15,17)           122.8959         estimate D2E/DX2                !
 ! A28   A(15,17,18)           120.0006         estimate D2E/DX2                !
 ! A29   A(15,17,19)           121.9013         estimate D2E/DX2                !
 ! A30   A(18,17,19)           118.0981         estimate D2E/DX2                !
 ! A31   A(17,19,20)           109.5004         estimate D2E/DX2                !
 ! A32   A(17,19,21)           109.4935         estimate D2E/DX2                !
 ! A33   A(17,19,22)           109.5003         estimate D2E/DX2                !
 ! A34   A(20,19,21)           109.441          estimate D2E/DX2                !
 ! A35   A(20,19,22)           109.4464         estimate D2E/DX2                !
 ! A36   A(21,19,22)           109.4457         estimate D2E/DX2                !
 ! D1    D(1,2,5,6)              0.0063         estimate D2E/DX2                !
 ! D2    D(1,2,5,7)            179.9967         estimate D2E/DX2                !
 ! D3    D(3,2,5,6)            120.5158         estimate D2E/DX2                !
 ! D4    D(3,2,5,7)            -59.4937         estimate D2E/DX2                !
 ! D5    D(4,2,5,6)           -120.5085         estimate D2E/DX2                !
 ! D6    D(4,2,5,7)             59.482          estimate D2E/DX2                !
 ! D7    D(2,5,7,8)              0.006          estimate D2E/DX2                !
 ! D8    D(2,5,7,9)           -179.9978         estimate D2E/DX2                !
 ! D9    D(6,5,7,8)            179.9962         estimate D2E/DX2                !
 ! D10   D(6,5,7,9)             -0.0076         estimate D2E/DX2                !
 ! D11   D(5,7,9,10)           -74.9972         estimate D2E/DX2                !
 ! D12   D(5,7,9,11)            45.0054         estimate D2E/DX2                !
 ! D13   D(5,7,9,15)           165.003          Frozen                          !
 ! D14   D(8,7,9,10)           104.9991         estimate D2E/DX2                !
 ! D15   D(8,7,9,11)          -134.9983         estimate D2E/DX2                !
 ! D16   D(8,7,9,15)           -15.0007         estimate D2E/DX2                !
 ! D17   D(7,9,11,12)           60.0024         estimate D2E/DX2                !
 ! D18   D(7,9,11,13)          179.9986         estimate D2E/DX2                !
 ! D19   D(7,9,11,14)          -60.0038         estimate D2E/DX2                !
 ! D20   D(10,9,11,12)        -179.4843         estimate D2E/DX2                !
 ! D21   D(10,9,11,13)         -59.4881         estimate D2E/DX2                !
 ! D22   D(10,9,11,14)          60.5095         estimate D2E/DX2                !
 ! D23   D(15,9,11,12)         -61.938          estimate D2E/DX2                !
 ! D24   D(15,9,11,13)          58.0582         estimate D2E/DX2                !
 ! D25   D(15,9,11,14)         178.0558         estimate D2E/DX2                !
 ! D26   D(7,9,15,16)          -45.001          estimate D2E/DX2                !
 ! D27   D(7,9,15,17)          134.9977         Frozen                          !
 ! D28   D(10,9,15,16)        -165.5121         estimate D2E/DX2                !
 ! D29   D(10,9,15,17)          14.4866         estimate D2E/DX2                !
 ! D30   D(11,9,15,16)          76.941          estimate D2E/DX2                !
 ! D31   D(11,9,15,17)        -103.0603         estimate D2E/DX2                !
 ! D32   D(9,15,17,18)           0.0065         estimate D2E/DX2                !
 ! D33   D(9,15,17,19)         179.9968         estimate D2E/DX2                !
 ! D34   D(16,15,17,18)       -179.9949         estimate D2E/DX2                !
 ! D35   D(16,15,17,19)         -0.0045         estimate D2E/DX2                !
 ! D36   D(15,17,19,20)          0.0072         estimate D2E/DX2                !
 ! D37   D(15,17,19,21)        120.0017         estimate D2E/DX2                !
 ! D38   D(15,17,19,22)       -119.9981         estimate D2E/DX2                !
 ! D39   D(18,17,19,20)        179.9977         estimate D2E/DX2                !
 ! D40   D(18,17,19,21)        -60.0078         estimate D2E/DX2                !
 ! D41   D(18,17,19,22)         59.9924         estimate D2E/DX2                !
 --------------------------------------------------------------------------------
 Trust Radius=3.00D-01 FncErr=1.00D-07 GrdErr=1.00D-07
 Number of steps in this run= 108 maximum allowed number of steps= 132.
 GradGradGradGradGradGradGradGradGradGradGradGradGradGradGradGradGradGrad

                          Input orientation:                          
 ---------------------------------------------------------------------
 Center     Atomic      Atomic             Coordinates (Angstroms)
 Number     Number       Type             X           Y           Z
 ---------------------------------------------------------------------
      1          1           0        1.970200    1.060100   -0.509500
      2          6           0        1.985000    2.120300   -0.256800
      3          1           0        1.582000    2.260900    0.746200
      4          1           0        1.377200    2.673500   -0.972800
      5          6           0        3.410300    2.675400   -0.293300
      6          8           0        4.356600    1.945900   -0.581200
      7          7           0        3.555400    3.969700    0.000000
      8          1           0        2.746600    4.529000    0.230600
      9          6           0        4.853300    4.613900    0.000000
     10          1           0        5.407600    4.315500    0.889800
     11          6           0        5.661300    4.220800   -1.232200
     12          1           0        5.123300    4.521400   -2.131200
     13          1           0        6.630500    4.718900   -1.205800
     14          1           0        5.808500    3.140900   -1.241400
     15          6           0        4.712700    6.129400    0.000000
     16          8           0        3.909500    6.681400   -0.748800
     17          7           0        5.497900    6.802600    0.844100
     18          1           0        6.143000    6.304100    1.440300
     19          6           0        5.458900    8.248000    0.938700
     20          1           0        4.720000    8.638600    0.239100
     21          1           0        5.187100    8.538900    1.953400
     22          1           0        6.440200    8.655200    0.695000
 ---------------------------------------------------------------------
                    Distance matrix (angstroms):
                    1          2          3          4          5
     1  H    0.000000
     2  C    1.090000   0.000000
     3  H    1.780282   1.090040   0.000000
     4  H    1.780268   1.090003   1.779647   0.000000
     5  C    2.174816   1.530016   2.143607   2.143646   0.000000
     6  O    2.546505   2.400029   3.091864   3.091857   1.229040
     7  N    3.352346   2.439751   2.714981   2.714964   1.335025
     8  H    3.630952   2.572825   2.601233   2.601213   2.037352
     9  C    4.604492   3.809348   4.098149   4.098141   2.434349
    10  H    4.936739   4.224664   4.344792   4.733874   2.842334
    11  C    4.912895   4.344961   4.939227   4.562339   2.887351
    12  H    4.955053   4.373509   5.092160   4.334731   3.117685
    13  H    5.965739   5.406847   5.944697   5.642261   3.921509
    14  H    4.426958   4.078016   4.752710   4.463970   2.620486
    15  C    5.786078   4.855839   5.032235   4.900525   3.703024
    16  O    5.951232   4.974877   5.214701   4.746154   4.062600
    17  N    6.874097   5.956205   5.997574   6.109890   4.762933
    18  H    6.979507   6.137858   6.134490   6.458882   4.862148
    19  C    8.119989   7.144642   7.135319   7.168623   6.063700
    20  H    8.096633   7.086210   7.125956   6.944453   6.128500
    21  H    8.505691   7.505788   7.339439   7.581616   6.525742
    22  H    8.894789   7.966156   8.030679   8.012257   6.776064
                    6          7          8          9         10
     6  O    0.000000
     7  N    2.252883   0.000000
     8  H    3.150163   1.010025   0.000000
     9  C    2.775379   1.448978   2.120983   0.000000
    10  H    2.980511   2.083739   2.749736   1.089970   0.000000
    11  C    2.702076   2.452791   3.275706   1.525027   2.139209
    12  H    3.102181   2.702720   3.350651   2.150225   3.041326
    13  H    3.640093   3.386959   4.145357   2.150214   2.459625
    14  H    1.992963   2.702673   3.669991   2.150165   2.466256
    15  C    4.238664   2.450234   2.545586   1.522008   2.136554
    16  O    4.759511   2.835384   2.635220   2.392910   3.244502
    17  N    5.188601   3.537108   3.621504   2.432781   2.489158
    18  H    5.125582   3.770883   4.018692   2.567989   2.190524
    19  C    6.575837   4.775806   4.657138   3.801919   3.933139
    20  H    6.752569   4.817893   4.558859   4.033999   4.425539
    21  H    7.112073   5.230278   5.000338   4.396910   4.360845
    22  H    7.140363   5.546080   5.557326   4.396974   4.465110
                   11         12         13         14         15
    11  C    0.000000
    12  H    1.089957   0.000000
    13  H    1.090023   1.779613   0.000000
    14  H    1.089925   1.779613   1.779617   0.000000
    15  C    2.461892   2.701161   2.668599   3.416575   0.000000
    16  O    3.058926   2.837242   3.385867   4.047715   1.229039
    17  N    3.317139   3.767839   3.134753   4.225379   1.335006
    18  H    3.422635   4.119881   3.122877   4.160437   2.037337
    19  C    4.579532   4.839882   4.292560   5.563949   2.434428
    20  H    4.750550   4.767841   4.593669   5.796673   2.520577
    21  H    5.386919   5.729602   5.162979   6.303276   3.137916
    22  H    4.897417   5.177831   4.375353   5.878452   3.137985
                   16         17         18         19         20
    16  O    0.000000
    17  N    2.252784   0.000000
    18  H    3.150085   1.010005   0.000000
    19  C    2.775344   1.449017   2.120930   0.000000
    20  H    2.337411   2.083758   2.986252   1.089946   0.000000
    21  H    3.519155   2.083718   2.484220   1.090006   1.779592
    22  H    3.519217   2.083815   2.484245   1.090023   1.779665
                   21         22
    21  H    0.000000
    22  H    1.779707   0.000000
 Stoichiometry    C6H12N2O2
 Framework group  C1[X(C6H12N2O2)]
 Deg. of freedom    60
 Full point group                 C1      NOp   1
 Largest Abelian subgroup         C1      NOp   1
 Largest concise Abelian subgroup C1      NOp   1
                         Standard orientation:                         
 ---------------------------------------------------------------------
 Center     Atomic      Atomic             Coordinates (Angstroms)
 Number     Number       Type             X           Y           Z
 ---------------------------------------------------------------------
      1          1           0       -4.334064   -0.865585   -0.098060
      2          6           0       -3.318507   -1.260352   -0.068007
      3          1           0       -3.172913   -1.953421   -0.896647
      4          1           0       -3.159319   -1.783633    0.874830
      5          6           0       -2.286956   -0.136314   -0.183727
      6          8           0       -2.648505    1.033252   -0.292991
      7          7           0       -1.002377   -0.498977   -0.158752
      8          1           0       -0.754555   -1.473839   -0.067213
      9          6           0        0.069153    0.471135   -0.259963
     10          1           0        0.151648    0.815922   -1.290667
     11          6           0       -0.194347    1.675770    0.637327
     12          1           0       -0.270298    1.347640    1.673941
     13          1           0        0.625780    2.387316    0.541183
     14          1           0       -1.126924    2.154547    0.338982
     15          6           0        1.400323   -0.137402    0.157382
     16          8           0        1.480164   -0.827876    1.170992
     17          7           0        2.448195    0.120737   -0.628475
     18          1           0        2.332849    0.694289   -1.451788
     19          6           0        3.768995   -0.400338   -0.339304
     20          1           0        3.733647   -0.995275    0.573265
     21          1           0        4.102622   -1.025703   -1.167390
     22          1           0        4.465580    0.427418   -0.206111
 ---------------------------------------------------------------------
 Rotational constants (GHZ):      3.1140413      0.6478057      0.5959193
 Standard basis: 6-31G(d) (6D, 7F)
 There are   174 symmetry adapted basis functions of A   symmetry.
 Integral buffers will be    131072 words long.
 Raffenetti 1 integral format.
 Two-electron integral symmetry is turned on.
   174 basis functions,   328 primitive gaussians,   174 cartesian basis functions
    39 alpha electrons       39 beta electrons
       nuclear repulsion energy       554.0263641348 Hartrees.
 NAtoms=   22 NActive=   22 NUniq=   22 SFac= 7.50D-01 NAtFMM=   80 NAOKFM=F Big=F
 One-electron integrals computed using PRISM.
 NBasis=   174 RedAO= T  NBF=   174
 NBsUse=   174 1.00D-06 NBFU=   174
 Harris functional with IExCor=  205 diagonalized for initial guess.
 ExpMin= 1.61D-01 ExpMax= 5.48D+03 ExpMxC= 8.25D+02 IAcc=1 IRadAn=         1 AccDes= 0.00D+00
 HarFok:  IExCor=  205 AccDes= 0.00D+00 IRadAn=         1 IDoV= 1
 ScaDFX=  1.000000  1.000000  1.000000  1.000000
 FoFCou: FMM=F IPFlag=           0 FMFlag=      100000 FMFlg1=           0
         NFxFlg=           0 DoJE=T BraDBF=F KetDBF=T FulRan=T
         Omega=  0.000000  0.000000  1.000000  0.000000  0.000000 ICntrl=     500 IOpCl=  0
         NMat0=    1 NMatS0=    1 NMatT0=    0 NMatD0=    1 NMtDS0=    0 NMtDT0=    0
         I1Cent=           4 NGrid=           0.
 Petite list used in FoFCou.
 Initial guess orbital symmetries:
       Occupied  (A) (A) (A) (A) (A) (A) (A) (A) (A) (A) (A) (A)
                 (A) (A) (A) (A) (A) (A) (A) (A) (A) (A) (A) (A)
                 (A) (A) (A) (A) (A) (A) (A) (A) (A) (A) (A) (A)
                 (A) (A) (A)
       Virtual   (A) (A) (A) (A) (A) (A) (A) (A) (A) (A) (A) (A)
                 (A) (A) (A) (A) (A) (A) (A) (A) (A) (A) (A) (A)
                 (A) (A) (A) (A) (A) (A) (A) (A) (A) (A) (A) (A)
                 (A) (A) (A) (A) (A) (A) (A) (A) (A) (A) (A) (A)
                 (A) (A) (A) (A) (A) (A) (A) (A) (A) (A) (A) (A)
                 (A) (A) (A) (A) (A) (A) (A) (A) (A) (A) (A) (A)
                 (A) (A) (A) (A) (A) (A) (A) (A) (A) (A) (A) (A)
                 (A) (A) (A) (A) (A) (A) (A) (A) (A) (A) (A) (A)
                 (A) (A) (A) (A) (A) (A) (A) (A) (A) (A) (A) (A)
                 (A) (A) (A) (A) (A) (A) (A) (A) (A) (A) (A) (A)
                 (A) (A) (A) (A) (A) (A) (A) (A) (A) (A) (A) (A)
                 (A) (A) (A)
 The electronic state of the initial guess is 1-A.
 Requested convergence on RMS density matrix=1.00D-08 within 128 cycles.
 Requested convergence on MAX density matrix=1.00D-06.
 Requested convergence on             energy=1.00D-06.
 No special actions if energy rises.
 Integral accuracy reduced to 1.0D-05 until final iterations.
 Initial convergence to 1.0D-05 achieved.  Increase integral accuracy.
 SCF Done:  E(RHF) =  -492.841250322     A.U. after   15 cycles
             Convg  =    0.4690D-08             -V/T =  2.0020

 **********************************************************************

            Population analysis using the SCF density.

 **********************************************************************

 Orbital symmetries:
       Occupied  (A) (A) (A) (A) (A) (A) (A) (A) (A) (A) (A) (A)
                 (A) (A) (A) (A) (A) (A) (A) (A) (A) (A) (A) (A)
                 (A) (A) (A) (A) (A) (A) (A) (A) (A) (A) (A) (A)
                 (A) (A) (A)
       Virtual   (A) (A) (A) (A) (A) (A) (A) (A) (A) (A) (A) (A)
                 (A) (A) (A) (A) (A) (A) (A) (A) (A) (A) (A) (A)
                 (A) (A) (A) (A) (A) (A) (A) (A) (A) (A) (A) (A)
                 (A) (A) (A) (A) (A) (A) (A) (A) (A) (A) (A) (A)
                 (A) (A) (A) (A) (A) (A) (A) (A) (A) (A) (A) (A)
                 (A) (A) (A) (A) (A) (A) (A) (A) (A) (A) (A) (A)
                 (A) (A) (A) (A) (A) (A) (A) (A) (A) (A) (A) (A)
                 (A) (A) (A) (A) (A) (A) (A) (A) (A) (A) (A) (A)
                 (A) (A) (A) (A) (A) (A) (A) (A) (A) (A) (A) (A)
                 (A) (A) (A) (A) (A) (A) (A) (A) (A) (A) (A) (A)
                 (A) (A) (A) (A) (A) (A) (A) (A) (A) (A) (A) (A)
                 (A) (A) (A)
 The electronic state is 1-A.
 Alpha  occ. eigenvalues --  -20.52415 -20.51423 -15.60345 -15.59274 -11.35485
 Alpha  occ. eigenvalues --  -11.34984 -11.28361 -11.26697 -11.23489 -11.20517
 Alpha  occ. eigenvalues --   -1.38462  -1.37248  -1.24339  -1.23881  -1.05752
 Alpha  occ. eigenvalues --   -0.98854  -0.96183  -0.87903  -0.80393  -0.78153
 Alpha  occ. eigenvalues --   -0.73442  -0.68242  -0.66162  -0.63753  -0.63210
 Alpha  occ. eigenvalues --   -0.61669  -0.59521  -0.57610  -0.56401  -0.55657
 Alpha  occ. eigenvalues --   -0.55233  -0.54485  -0.52114  -0.50854  -0.49475
 Alpha  occ. eigenvalues --   -0.42295  -0.40067  -0.39563  -0.38907
 Alpha virt. eigenvalues --    0.18600   0.20200   0.21472   0.22857   0.26208
 Alpha virt. eigenvalues --    0.28082   0.29250   0.30283   0.30597   0.31518
 Alpha virt. eigenvalues --    0.31896   0.33221   0.33362   0.36078   0.37970
 Alpha virt. eigenvalues --    0.39937   0.41013   0.42796   0.46298   0.51721
 Alpha virt. eigenvalues --    0.52360   0.60482   0.61212   0.71534   0.72632
 Alpha virt. eigenvalues --    0.73757   0.74038   0.76132   0.77212   0.78764
 Alpha virt. eigenvalues --    0.80619   0.82587   0.83207   0.88320   0.90828
 Alpha virt. eigenvalues --    0.91980   0.93547   0.94801   0.97518   0.98674
 Alpha virt. eigenvalues --    1.01152   1.01792   1.02663   1.06534   1.08757
 Alpha virt. eigenvalues --    1.09847   1.12763   1.14419   1.14926   1.15432
 Alpha virt. eigenvalues --    1.16584   1.17854   1.18519   1.20311   1.20705
 Alpha virt. eigenvalues --    1.20976   1.22307   1.23053   1.26028   1.30559
 Alpha virt. eigenvalues --    1.32031   1.34739   1.36026   1.38074   1.44035
 Alpha virt. eigenvalues --    1.45903   1.49459   1.56638   1.59288   1.60554
 Alpha virt. eigenvalues --    1.63653   1.65865   1.68394   1.73078   1.73483
 Alpha virt. eigenvalues --    1.79787   1.83137   1.87034   1.91515   1.94485
 Alpha virt. eigenvalues --    2.01616   2.04839   2.09123   2.09730   2.12151
 Alpha virt. eigenvalues --    2.14382   2.16166   2.17160   2.20316   2.23221
 Alpha virt. eigenvalues --    2.23260   2.27598   2.28062   2.32874   2.36179
 Alpha virt. eigenvalues --    2.36696   2.37214   2.43929   2.46610   2.50753
 Alpha virt. eigenvalues --    2.51365   2.58627   2.59401   2.62576   2.63784
 Alpha virt. eigenvalues --    2.63877   2.66085   2.70169   2.72335   2.76770
 Alpha virt. eigenvalues --    2.79042   2.80276   2.83653   2.94311   2.98021
 Alpha virt. eigenvalues --    3.01849   3.03821   3.09750   3.11386   3.24012
 Alpha virt. eigenvalues --    3.30055   3.34564   3.37586   3.53198   3.58720
 Alpha virt. eigenvalues --    4.38271   4.40828   4.47459   4.60548   4.63111
 Alpha virt. eigenvalues --    4.67365   4.74625   4.82393   4.88183   5.08505
          Condensed to atoms (all electrons):
              1          2          3          4          5          6
     1  H    0.456254   0.385479  -0.018888  -0.018191  -0.030450   0.003608
     2  C    0.385479   5.249924   0.373853   0.375239   0.376792  -0.066470
     3  H   -0.018888   0.373853   0.516981  -0.023798  -0.034862   0.001228
     4  H   -0.018191   0.375239  -0.023798   0.505930  -0.035518   0.001111
     5  C   -0.030450   0.376792  -0.034862  -0.035518   4.184111   0.585391
     6  O    0.003608  -0.066470   0.001228   0.001111   0.585391   8.233446
     7  N    0.003816  -0.121229   0.003559   0.003904   0.254643  -0.105928
     8  H   -0.000007  -0.001403   0.000625   0.000426  -0.017718   0.002304
     9  C   -0.000075   0.004190  -0.000221  -0.000042  -0.033247   0.012922
    10  H    0.000002  -0.000071   0.000008  -0.000001  -0.002573   0.001574
    11  C    0.000008  -0.000632   0.000013   0.000012  -0.005782  -0.032387
    12  H    0.000000  -0.000054   0.000000   0.000005   0.000014  -0.000290
    13  H    0.000000   0.000011   0.000000  -0.000001   0.000522   0.000872
    14  H    0.000005   0.000327  -0.000010  -0.000011  -0.002837   0.006690
    15  C    0.000000  -0.000050  -0.000012   0.000005   0.003701   0.000370
    16  O    0.000000  -0.000017   0.000000  -0.000002   0.000013   0.000000
    17  N    0.000000   0.000000   0.000000   0.000000  -0.000144  -0.000002
    18  H    0.000000   0.000000   0.000000   0.000000   0.000003   0.000001
    19  C    0.000000   0.000000   0.000000   0.000000   0.000001   0.000000
    20  H    0.000000   0.000000   0.000000   0.000000   0.000000   0.000000
    21  H    0.000000   0.000000   0.000000   0.000000   0.000000   0.000000
    22  H    0.000000   0.000000   0.000000   0.000000   0.000000   0.000000
              7          8          9         10         11         12
     1  H    0.003816  -0.000007  -0.000075   0.000002   0.000008   0.000000
     2  C   -0.121229  -0.001403   0.004190  -0.000071  -0.000632  -0.000054
     3  H    0.003559   0.000625  -0.000221   0.000008   0.000013   0.000000
     4  H    0.003904   0.000426  -0.000042  -0.000001   0.000012   0.000005
     5  C    0.254643  -0.017718  -0.033247  -0.002573  -0.005782   0.000014
     6  O   -0.105928   0.002304   0.012922   0.001574  -0.032387  -0.000290
     7  N    7.396948   0.321292   0.175300  -0.049569  -0.052520   0.000592
     8  H    0.321292   0.309464  -0.028118   0.001923   0.003180   0.000038
     9  C    0.175300  -0.028118   5.041332   0.415806   0.336674  -0.042085
    10  H   -0.049569   0.001923   0.415806   0.544696  -0.041101   0.004491
    11  C   -0.052520   0.003180   0.336674  -0.041101   5.213263   0.388844
    12  H    0.000592   0.000038  -0.042085   0.004491   0.388844   0.502192
    13  H    0.004434  -0.000070  -0.040815   0.000172   0.374888  -0.022169
    14  H   -0.002852  -0.000205  -0.028926  -0.003508   0.389425  -0.018587
    15  C   -0.028285  -0.002415   0.345213  -0.063308  -0.045979  -0.005201
    16  O    0.000517   0.007551  -0.086971   0.002636   0.000187   0.004107
    17  N    0.001075   0.000449  -0.095298   0.008068  -0.002938   0.000571
    18  H   -0.000038  -0.000018   0.000791   0.002958  -0.000020  -0.000007
    19  C   -0.000073  -0.000008   0.004358   0.000020  -0.000238   0.000006
    20  H   -0.000005  -0.000008   0.000568  -0.000027  -0.000019  -0.000004
    21  H    0.000007   0.000001  -0.000081  -0.000011  -0.000006   0.000000
    22  H   -0.000001   0.000000  -0.000124  -0.000009   0.000044  -0.000001
             13         14         15         16         17         18
     1  H    0.000000   0.000005   0.000000   0.000000   0.000000   0.000000
     2  C    0.000011   0.000327  -0.000050  -0.000017   0.000000   0.000000
     3  H    0.000000  -0.000010  -0.000012   0.000000   0.000000   0.000000
     4  H   -0.000001  -0.000011   0.000005  -0.000002   0.000000   0.000000
     5  C    0.000522  -0.002837   0.003701   0.000013  -0.000144   0.000003
     6  O    0.000872   0.006690   0.000370   0.000000  -0.000002   0.000001
     7  N    0.004434  -0.002852  -0.028285   0.000517   0.001075  -0.000038
     8  H   -0.000070  -0.000205  -0.002415   0.007551   0.000449  -0.000018
     9  C   -0.040815  -0.028926   0.345213  -0.086971  -0.095298   0.000791
    10  H    0.000172  -0.003508  -0.063308   0.002636   0.008068   0.002958
    11  C    0.374888   0.389425  -0.045979   0.000187  -0.002938  -0.000020
    12  H   -0.022169  -0.018587  -0.005201   0.004107   0.000571  -0.000007
    13  H    0.555556  -0.020100  -0.004468  -0.000040   0.001975   0.000141
    14  H   -0.020100   0.411105   0.004056  -0.000010  -0.000069  -0.000013
    15  C   -0.004468   0.004056   4.230051   0.583391   0.275816  -0.017927
    16  O   -0.000040  -0.000010   0.583391   8.223686  -0.098795   0.002347
    17  N    0.001975  -0.000069   0.275816  -0.098795   7.318518   0.322112
    18  H    0.000141  -0.000013  -0.017927   0.002347   0.322112   0.319788
    19  C   -0.000080   0.000003  -0.028829  -0.005016   0.185611  -0.021863
    20  H   -0.000004   0.000000  -0.001577   0.010494  -0.031773   0.002285
    21  H    0.000002   0.000000   0.000541   0.000401  -0.047286  -0.000999
    22  H   -0.000011   0.000000   0.001542   0.000367  -0.047476  -0.001126
             19         20         21         22
     1  H    0.000000   0.000000   0.000000   0.000000
     2  C    0.000000   0.000000   0.000000   0.000000
     3  H    0.000000   0.000000   0.000000   0.000000
     4  H    0.000000   0.000000   0.000000   0.000000
     5  C    0.000001   0.000000   0.000000   0.000000
     6  O    0.000000   0.000000   0.000000   0.000000
     7  N   -0.000073  -0.000005   0.000007  -0.000001
     8  H   -0.000008  -0.000008   0.000001   0.000000
     9  C    0.004358   0.000568  -0.000081  -0.000124
    10  H    0.000020  -0.000027  -0.000011  -0.000009
    11  C   -0.000238  -0.000019  -0.000006   0.000044
    12  H    0.000006  -0.000004   0.000000  -0.000001
    13  H   -0.000080  -0.000004   0.000002  -0.000011
    14  H    0.000003   0.000000   0.000000   0.000000
    15  C   -0.028829  -0.001577   0.000541   0.001542
    16  O   -0.005016   0.010494   0.000401   0.000367
    17  N    0.185611  -0.031773  -0.047286  -0.047476
    18  H   -0.021863   0.002285  -0.000999  -0.001126
    19  C    4.960176   0.396028   0.402340   0.402151
    20  H    0.396028   0.429366  -0.022357  -0.022070
    21  H    0.402340  -0.022357   0.531520  -0.036067
    22  H    0.402151  -0.022070  -0.036067   0.528617
 Mulliken atomic charges:
              1
     1  H    0.218440
     2  C   -0.575888
     3  H    0.181524
     4  H    0.190933
     5  C    0.757938
     6  O   -0.644441
     7  N   -0.805584
     8  H    0.402716
     9  C    0.018848
    10  H    0.177824
    11  C   -0.524915
    12  H    0.187537
    13  H    0.149185
    14  H    0.265518
    15  C    0.753368
    16  O   -0.644848
    17  N   -0.790415
    18  H    0.391586
    19  C   -0.294587
    20  H    0.239102
    21  H    0.171994
    22  H    0.174163
 Sum of Mulliken atomic charges =   0.00000
 Mulliken charges with hydrogens summed into heavy atoms:
              1
     2  C    0.015009
     5  C    0.757938
     6  O   -0.644441
     7  N   -0.402869
     9  C    0.196672
    11  C    0.077326
    15  C    0.753368
    16  O   -0.644848
    17  N   -0.398829
    19  C    0.290672
 Sum of Mulliken charges with hydrogens summed into heavy atoms =   0.00000
 Electronic spatial extent (au):  <R**2>=           1968.1648
 Charge=              0.0000 electrons
 Dipole moment (field-independent basis, Debye):
    X=              2.5476    Y=             -1.4912    Z=             -2.9703  Tot=              4.1877
 Quadrupole moment (field-independent basis, Debye-Ang):
   XX=            -56.9291   YY=            -60.9063   ZZ=            -62.0872
   XY=             11.5093   XZ=             -7.6293   YZ=              2.0531
 Traceless Quadrupole moment (field-independent basis, Debye-Ang):
   XX=              3.0451   YY=             -0.9321   ZZ=             -2.1130
   XY=             11.5093   XZ=             -7.6293   YZ=              2.0531
 Octapole moment (field-independent basis, Debye-Ang**2):
  XXX=             42.1814  YYY=             -6.1913  ZZZ=             -7.2348  XYY=              3.5117
  XXY=            -23.9671  XXZ=             -6.7522  XZZ=             -0.2965  YZZ=              4.3537
  YYZ=             -2.5558  XYZ=             -1.9523
 Hexadecapole moment (field-independent basis, Debye-Ang**3):
 XXXX=          -1852.2151 YYYY=           -379.5722 ZZZZ=           -177.9843 XXXY=             53.8350
 XXXZ=            -28.6797 YYYX=              1.4610 YYYZ=             -2.9672 ZZZX=            -13.4872
 ZZZY=             -5.0847 XXYY=           -406.8545 XXZZ=           -356.9619 YYZZ=            -94.1035
 XXYZ=              3.6415 YYXZ=             -6.5551 ZZXY=              7.5456
 N-N= 5.540263641348D+02 E-N=-2.263354227113D+03  KE= 4.918754253570D+02
 Calling FoFJK, ICntrl=      2127 FMM=F ISym2X=0 I1Cent= 0 IOpClX= 0 NMat=1 NMatS=1 NMatT=0.
 ***** Axes restored to original set *****
 -------------------------------------------------------------------
 Center     Atomic                   Forces (Hartrees/Bohr)
 Number     Number              X              Y              Z
 -------------------------------------------------------------------
      1        1           0.004315851    0.008349427    0.001596193
      2        6           0.005510556    0.007946668    0.000669395
      3        1          -0.002643685   -0.000691708   -0.004370009
      4        1          -0.001500408   -0.002601809    0.004197521
      5        6           0.019725023   -0.048579666   -0.013575343
      6        8          -0.038082339    0.015286644    0.016600021
      7        7          -0.010422557    0.021669746    0.007583675
      8        1           0.011238314   -0.008027271   -0.006370551
      9        6           0.010060799   -0.002011217    0.001736305
     10        1          -0.002252070   -0.001696627   -0.001242879
     11        6           0.011607785   -0.004008967   -0.008089963
     12        1           0.003553104   -0.000431795    0.003532837
     13        1          -0.002724914    0.000666810   -0.001886364
     14        1           0.002614016    0.015872227   -0.002703724
     15        6          -0.040553447    0.012142515   -0.025737210
     16        8           0.023895139   -0.019085759    0.025002296
     17        7           0.010355875   -0.002647714    0.009006985
     18        1          -0.010894820    0.006524779   -0.009538975
     19        6           0.002889980    0.004223173    0.000455618
     20        1           0.006572158   -0.005453567    0.005905190
     21        1           0.001552027    0.001225852   -0.004457033
     22        1          -0.004816386    0.001328260    0.001686014
 -------------------------------------------------------------------
 Cartesian Forces:  Max     0.048579666 RMS     0.013074952

 GradGradGradGradGradGradGradGradGradGradGradGradGradGradGradGradGradGrad
 Berny optimization.
 Internal  Forces:  Max     0.045124487 RMS     0.011046213
 Search for a local minimum.
 Step number   1 out of a maximum of  108
 All quantities printed in internal units (Hartrees-Bohrs-Radians)
 Mixed Optimization -- RFO/linear search
 Second derivative matrix not updated -- first step.
     Eigenvalues ---    0.00369   0.00435   0.00999   0.01043   0.01269
     Eigenvalues ---    0.01422   0.01660   0.02551   0.02552   0.03503
     Eigenvalues ---    0.05232   0.05841   0.05844   0.05844   0.07165
     Eigenvalues ---    0.07463   0.07685   0.07686   0.15421   0.16000
     Eigenvalues ---    0.16000   0.16000   0.16000   0.16000   0.16000
     Eigenvalues ---    0.16000   0.16000   0.16000   0.16000   0.16000
     Eigenvalues ---    0.16180   0.22000   0.22000   0.25000   0.25000
     Eigenvalues ---    0.25000   0.25000   0.29422   0.29887   0.30174
     Eigenvalues ---    0.34808   0.34810   0.34810   0.34812   0.34812
     Eigenvalues ---    0.34813   0.34816   0.34818   0.34819   0.34821
     Eigenvalues ---    0.38374   0.38379   0.45968   0.45972   0.58334
     Eigenvalues ---    0.58339   0.91487   0.914881000.000001000.00000
     Eigenvalues --- 1000.000001000.000001000.000001000.000001000.00000
     Eigenvalues --- 1000.000001000.000001000.000001000.000001000.00000
     Eigenvalues --- 1000.000001000.000001000.000001000.000001000.00000
     Eigenvalues --- 1000.000001000.000001000.000001000.000001000.00000
     Eigenvalues --- 1000.000001000.000001000.000001000.000001000.00000
     Eigenvalues --- 1000.000001000.000001000.000001000.000001000.00000
     Eigenvalues --- 1000.000001000.000001000.000001000.000001000.00000
     Eigenvalues --- 1000.000001000.000001000.00000
 RFO step:  Lambda=-3.85737282D-02 EMin= 3.68895939D-03
 Linear search not attempted -- first point.
 Maximum step size (   0.300) exceeded in Quadratic search.
    -- Step size scaled by   0.674
 Iteration  1 RMS(Cart)=  0.15952071 RMS(Int)=  0.00633876
 Iteration  2 RMS(Cart)=  0.01231845 RMS(Int)=  0.00056708
 Iteration  3 RMS(Cart)=  0.00004948 RMS(Int)=  0.00056681
 Iteration  4 RMS(Cart)=  0.00000004 RMS(Int)=  0.00056681
 Iteration  1 RMS(Cart)=  0.00023099 RMS(Int)=  0.00012981
 Iteration  2 RMS(Cart)=  0.00015173 RMS(Int)=  0.00014349
 Iteration  3 RMS(Cart)=  0.00010008 RMS(Int)=  0.00016505
 Iteration  4 RMS(Cart)=  0.00006622 RMS(Int)=  0.00018312
 Iteration  5 RMS(Cart)=  0.00004392 RMS(Int)=  0.00019637
 Iteration  6 RMS(Cart)=  0.00002917 RMS(Int)=  0.00020563
 Iteration  7 RMS(Cart)=  0.00001941 RMS(Int)=  0.00021198
 Iteration  8 RMS(Cart)=  0.00001292 RMS(Int)=  0.00021628
 Iteration  9 RMS(Cart)=  0.00000861 RMS(Int)=  0.00021919
 Iteration 10 RMS(Cart)=  0.00000574 RMS(Int)=  0.00022114
 Iteration 11 RMS(Cart)=  0.00000383 RMS(Int)=  0.00022245
 Iteration 12 RMS(Cart)=  0.00000256 RMS(Int)=  0.00022332
 Iteration 13 RMS(Cart)=  0.00000171 RMS(Int)=  0.00022391
 Iteration 14 RMS(Cart)=  0.00000114 RMS(Int)=  0.00022430
 Iteration 15 RMS(Cart)=  0.00000076 RMS(Int)=  0.00022456
 Variable       Old X    -DE/DX   Delta X   Delta X   Delta X     New X
                                 (Linear)    (Quad)   (Total)
    R1        2.05980  -0.00855   0.00000  -0.01490  -0.01490   2.04490
    R2        2.05988  -0.00313   0.00000  -0.00546  -0.00546   2.05442
    R3        2.05981  -0.00324   0.00000  -0.00565  -0.00565   2.05416
    R4        2.89131  -0.00996   0.00000  -0.02017  -0.02017   2.87114
    R5        2.32255  -0.04228   0.00000  -0.02988  -0.02988   2.29267
    R6        2.52283   0.01992   0.00000   0.02159   0.02159   2.54442
    R7        1.90867  -0.01490   0.00000  -0.02015  -0.02015   1.88852
    R8        2.73817   0.01358   0.00000   0.02166   0.02166   2.75983
    R9        2.05975  -0.00170   0.00000  -0.00295  -0.00295   2.05679
   R10        2.88188   0.01225   0.00000   0.02445   0.02445   2.90634
   R11        2.87618  -0.00072   0.00000  -0.00142  -0.00142   2.87476
   R12        2.05972  -0.00479   0.00000  -0.00834  -0.00834   2.05138
   R13        2.05984  -0.00216   0.00000  -0.00377  -0.00377   2.05607
   R14        2.05966  -0.01535   0.00000  -0.02674  -0.02674   2.03292
   R15        2.32255  -0.03942   0.00000  -0.02786  -0.02786   2.29469
   R16        2.52280   0.00788   0.00000   0.00854   0.00854   2.53134
   R17        1.90863  -0.01581   0.00000  -0.02138  -0.02138   1.88725
   R18        2.73825   0.00139   0.00000   0.00221   0.00221   2.74046
   R19        2.05970  -0.01020   0.00000  -0.01777  -0.01777   2.04193
   R20        2.05981  -0.00421   0.00000  -0.00733  -0.00733   2.05248
   R21        2.05985  -0.00422   0.00000  -0.00735  -0.00735   2.05250
    A1        1.91109   0.00046   0.00000   0.00047   0.00059   1.91168
    A2        1.91111   0.00064   0.00000   0.00128   0.00140   1.91252
    A3        1.93907  -0.00814   0.00000  -0.02859  -0.02847   1.91060
    A4        1.91008  -0.00456   0.00000  -0.01338  -0.01364   1.89644
    A5        1.89606   0.00591   0.00000   0.02050   0.02043   1.91650
    A6        1.89615   0.00572   0.00000   0.01994   0.01988   1.91603
    A7        2.10307  -0.00294   0.00000  -0.00686  -0.00708   2.09600
    A8        2.03504  -0.01803   0.00000  -0.04209  -0.04233   1.99271
    A9        2.14507   0.02097   0.00000   0.04895   0.04869   2.19376
   A10        2.09437  -0.02313   0.00000  -0.06071  -0.06085   2.03352
   A11        2.12749   0.04512   0.00000   0.11759   0.11743   2.24492
   A12        2.06132  -0.02200   0.00000  -0.05688  -0.05705   2.00427
   A13        1.91114  -0.00361   0.00000   0.00324   0.00187   1.91301
   A14        1.93905   0.02890   0.00000   0.08858   0.08592   2.02496
   A15        1.93900  -0.01951   0.00000  -0.07175  -0.07000   1.86900
   A16        1.89609  -0.00379   0.00000   0.00578   0.00437   1.90047
   A17        1.89608   0.00658   0.00000   0.02255   0.02193   1.91801
   A18        1.88137  -0.00871   0.00000  -0.04857  -0.04607   1.83530
   A19        1.91115  -0.00020   0.00000  -0.00132  -0.00143   1.90971
   A20        1.91106  -0.00095   0.00000  -0.00586  -0.00589   1.90517
   A21        1.91110   0.00766   0.00000   0.02929   0.02921   1.94031
   A22        1.91011  -0.00174   0.00000  -0.01249  -0.01255   1.89756
   A23        1.91023  -0.00188   0.00000  -0.00108  -0.00123   1.90900
   A24        1.91015  -0.00291   0.00000  -0.00857  -0.00857   1.90158
   A25        2.10317   0.00087   0.00000   0.00202   0.00202   2.10519
   A26        2.03507  -0.00497   0.00000  -0.01161  -0.01161   2.02346
   A27        2.14494   0.00411   0.00000   0.00959   0.00958   2.15452
   A28        2.09441  -0.00500   0.00000  -0.01410  -0.01411   2.08030
   A29        2.12758   0.00725   0.00000   0.01890   0.01890   2.14648
   A30        2.06120  -0.00226   0.00000  -0.00480  -0.00481   2.05639
   A31        1.91114  -0.00441   0.00000  -0.01608  -0.01603   1.89511
   A32        1.91102   0.00345   0.00000   0.01216   0.01210   1.92312
   A33        1.91114   0.00471   0.00000   0.01666   0.01662   1.92776
   A34        1.91011  -0.00020   0.00000  -0.00202  -0.00198   1.90813
   A35        1.91020  -0.00063   0.00000  -0.00306  -0.00299   1.90721
   A36        1.91019  -0.00293   0.00000  -0.00768  -0.00783   1.90236
    D1        0.00011  -0.00146   0.00000  -0.01950  -0.01919  -0.01908
    D2        3.14154   0.00151   0.00000   0.01954   0.01923  -3.12242
    D3        2.10340  -0.00211   0.00000  -0.02336  -0.02320   2.08019
    D4       -1.03836   0.00086   0.00000   0.01568   0.01521  -1.02315
    D5       -2.10327  -0.00092   0.00000  -0.01628  -0.01582  -2.11909
    D6        1.03816   0.00205   0.00000   0.02275   0.02260   1.06075
    D7        0.00010   0.00392   0.00000   0.00628   0.00620   0.00631
    D8       -3.14155   0.00141   0.00000   0.04177   0.04098  -3.10057
    D9        3.14153   0.00697   0.00000   0.04633   0.04713  -3.09453
   D10       -0.00013   0.00446   0.00000   0.08183   0.08190   0.08177
   D11       -1.30895   0.00195   0.00000  -0.01516  -0.01449  -1.32344
   D12        0.78549   0.01314   0.00000   0.05010   0.05184   0.83733
   D13        2.87985   0.00842   0.00000   0.00000   0.00000   2.87984
   D14        1.83258  -0.00051   0.00000   0.01969   0.01980   1.85238
   D15       -2.35616   0.01068   0.00000   0.08495   0.08613  -2.27003
   D16       -0.26181   0.00597   0.00000   0.03485   0.03429  -0.22752
   D17        1.04724  -0.00674   0.00000  -0.04365  -0.04450   1.00274
   D18        3.14157  -0.00958   0.00000  -0.06335  -0.06422   3.07735
   D19       -1.04726  -0.00902   0.00000  -0.05948  -0.06040  -1.10766
   D20       -3.13259   0.00422   0.00000   0.01893   0.01942  -3.11317
   D21       -1.03826   0.00138   0.00000  -0.00077  -0.00030  -1.03857
   D22        1.05609   0.00194   0.00000   0.00310   0.00352   1.05961
   D23       -1.08102   0.00521   0.00000   0.02215   0.02259  -1.05843
   D24        1.01331   0.00238   0.00000   0.00244   0.00287   1.01618
   D25        3.10766   0.00293   0.00000   0.00631   0.00669   3.11435
   D26       -0.78542  -0.00911   0.00000  -0.00613  -0.00681  -0.79222
   D27        2.35615  -0.00820   0.00000   0.00000   0.00000   2.35615
   D28       -2.88873   0.00318   0.00000   0.01968   0.01983  -2.86890
   D29        0.25284   0.00408   0.00000   0.02581   0.02664   0.27948
   D30        1.34287   0.00889   0.00000   0.02731   0.02859   1.37146
   D31       -1.79874   0.00980   0.00000   0.03343   0.03539  -1.76335
   D32        0.00011  -0.00127   0.00000  -0.01113  -0.01150  -0.01139
   D33        3.14154  -0.00180   0.00000  -0.01762  -0.01797   3.12356
   D34       -3.14150  -0.00034   0.00000  -0.00484  -0.00448   3.13720
   D35       -0.00008  -0.00087   0.00000  -0.01133  -0.01096  -0.01103
   D36        0.00013   0.00034   0.00000   0.00363   0.00363   0.00376
   D37        2.09442  -0.00049   0.00000  -0.00124  -0.00131   2.09311
   D38       -2.09436   0.00092   0.00000   0.00702   0.00711  -2.08725
   D39        3.14155  -0.00018   0.00000  -0.00274  -0.00276   3.13879
   D40       -1.04733  -0.00102   0.00000  -0.00762  -0.00770  -1.05503
   D41        1.04706   0.00040   0.00000   0.00064   0.00072   1.04779
         Item               Value     Threshold  Converged?
 Maximum Force            0.045125     0.000450     NO 
 RMS     Force            0.011025     0.000300     NO 
 Maximum Displacement     0.544482     0.001800     NO 
 RMS     Displacement     0.162501     0.001200     NO 
 Predicted change in Energy=-1.907135D-02
 GradGradGradGradGradGradGradGradGradGradGradGradGradGradGradGradGradGrad

                          Input orientation:                          
 ---------------------------------------------------------------------
 Center     Atomic      Atomic             Coordinates (Angstroms)
 Number     Number       Type             X           Y           Z
 ---------------------------------------------------------------------
      1          1           0        1.751331    1.203618   -0.410577
      2          6           0        1.896242    2.255047   -0.199686
      3          1           0        1.516681    2.482235    0.793398
      4          1           0        1.349216    2.850980   -0.925789
      5          6           0        3.377081    2.586883   -0.273219
      6          8           0        4.184415    1.714999   -0.518069
      7          7           0        3.668002    3.873266   -0.002098
      8          1           0        2.896312    4.467606    0.221462
      9          6           0        4.967709    4.538857   -0.027388
     10          1           0        5.539644    4.256959    0.854685
     11          6           0        5.827836    4.292235   -1.278269
     12          1           0        5.275948    4.597729   -2.161726
     13          1           0        6.735809    4.887870   -1.210384
     14          1           0        6.096627    3.254325   -1.366503
     15          6           0        4.703020    6.036863   -0.015759
     16          8           0        3.856930    6.521046   -0.739786
     17          7           0        5.457949    6.758695    0.822914
     18          1           0        6.133335    6.293797    1.393098
     19          6           0        5.349136    8.199936    0.941381
     20          1           0        4.582640    8.544366    0.262100
     21          1           0        5.078475    8.473137    1.957143
     22          1           0        6.292762    8.673951    0.687275
 ---------------------------------------------------------------------
                    Distance matrix (angstroms):
                    1          2          3          4          5
     1  H    0.000000
     2  C    1.082117   0.000000
     3  H    1.771857   1.087151   0.000000
     4  H    1.772271   1.087015   1.766245   0.000000
     5  C    2.139007   1.519343   2.147024   2.146586   0.000000
     6  O    2.488567   2.372500   3.070082   3.081403   1.213228
     7  N    3.311722   2.407656   2.682530   2.697229   1.346448
     8  H    3.516258   2.464330   2.484390   2.514591   2.003240
     9  C    4.649273   3.831368   4.100363   4.092621   2.529967
    10  H    5.027434   4.288791   4.397458   4.765139   2.956011
    11  C    5.187517   4.557511   5.114094   4.717997   3.150326
    12  H    5.197061   4.556334   5.228782   4.471901   3.348979
    13  H    6.249674   5.601310   6.086174   5.765873   4.177783
    14  H    4.899061   4.472500   5.122227   4.784855   3.006108
    15  C    5.677024   4.713169   4.841784   4.714446   3.704965
    16  O    5.728610   4.725966   4.913188   4.448889   3.990687
    17  N    6.791126   5.832179   5.815718   5.933791   4.789106
    18  H    6.954504   6.066417   6.016738   6.333879   4.910678
    19  C    7.982509   6.968946   6.884890   6.935201   6.072118
    20  H    7.896543   6.854598   6.814090   6.654378   6.101766
    21  H    8.337979   7.310483   7.066229   7.336710   6.520525
    22  H    8.811115   7.830607   7.820458   7.806895   6.817341
                    6          7          8          9         10
     6  O    0.000000
     7  N    2.278382   0.000000
     8  H    3.127773   0.999363   0.000000
     9  C    2.971277   1.460441   2.087508   0.000000
    10  H    3.191028   2.093882   2.726271   1.088407   0.000000
    11  C    3.149743   2.543429   3.297542   1.537967   2.152624
    12  H    3.493306   2.788249   3.370340   2.157285   3.047031
    13  H    4.129893   3.449755   4.119289   2.155798   2.468475
    14  H    2.597291   2.853578   3.773023   2.172029   2.499836
    15  C    4.381754   2.398458   2.404794   1.521255   2.150737
    16  O    4.822291   2.755108   2.462397   2.381263   3.240363
    17  N    5.372056   3.494317   3.488956   2.427144   2.503271
    18  H    5.330688   3.726045   3.896925   2.540921   2.188850
    19  C    6.748405   4.736711   4.523816   3.806244   3.948528
    20  H    6.885310   4.767131   4.411952   4.034375   4.432705
    21  H    7.252479   5.194890   4.880441   4.407856   4.382265
    22  H    7.370548   5.514633   5.426434   4.400626   4.483863
                   11         12         13         14         15
    11  C    0.000000
    12  H    1.085543   0.000000
    13  H    1.088027   1.766473   0.000000
    14  H    1.075774   1.763697   1.761077   0.000000
    15  C    2.429582   2.646607   2.622888   3.392516   0.000000
    16  O    3.023579   2.781128   3.343152   4.010047   1.214296
    17  N    3.261167   3.689305   3.044209   4.181156   1.339526
    18  H    3.351982   4.030947   3.019557   4.105501   2.024029
    19  C    4.519527   4.755053   4.186016   5.508551   2.452033
    20  H    4.690828   4.683114   4.491582   5.738383   2.525721
    21  H    5.339417   5.658875   5.063015   6.270507   3.157331
    22  H    4.824827   5.076052   4.258146   5.799035   3.158444
                   16         17         18         19         20
    16  O    0.000000
    17  N    2.249837   0.000000
    18  H    3.127755   0.998692   0.000000
    19  C    2.805650   1.450189   2.110066   0.000000
    20  H    2.371551   2.066228   2.957849   1.080542   0.000000
    21  H    3.546302   2.090404   2.486041   1.086126   1.767511
    22  H    3.550321   2.093685   2.487716   1.086135   1.766942
                   21         22
    21  H    0.000000
    22  H    1.768441   0.000000
 Stoichiometry    C6H12N2O2
 Framework group  C1[X(C6H12N2O2)]
 Deg. of freedom    60
 Full point group                 C1      NOp   1
 Largest Abelian subgroup         C1      NOp   1
 Largest concise Abelian subgroup C1      NOp   1
                         Standard orientation:                         
 ---------------------------------------------------------------------
 Center     Atomic      Atomic             Coordinates (Angstroms)
 Number     Number       Type             X           Y           Z
 ---------------------------------------------------------------------
      1          1           0       -4.226616   -1.107870   -0.027348
      2          6           0       -3.179479   -1.378000    0.011503
      3          1           0       -2.960610   -2.098341   -0.772781
      4          1           0       -2.955962   -1.832455    0.973330
      5          6           0       -2.328193   -0.134154   -0.179715
      6          8           0       -2.856712    0.942459   -0.362728
      7          7           0       -1.002045   -0.366918   -0.170983
      8          1           0       -0.716623   -1.316688   -0.047707
      9          6           0        0.092824    0.593504   -0.279336
     10          1           0        0.189635    0.921978   -1.312468
     11          6           0       -0.002314    1.830508    0.629572
     12          1           0       -0.070229    1.512915    1.665394
     13          1           0        0.895140    2.433349    0.507253
     14          1           0       -0.861518    2.428910    0.382646
     15          6           0        1.361443   -0.123855    0.156808
     16          8           0        1.370224   -0.811315    1.157726
     17          7           0        2.436554    0.062656   -0.620162
     18          1           0        2.356792    0.638771   -1.432021
     19          6           0        3.729005   -0.530136   -0.335178
     20          1           0        3.647352   -1.115705    0.569263
     21          1           0        4.034583   -1.174593   -1.154303
     22          1           0        4.478679    0.243214   -0.195145
 ---------------------------------------------------------------------
 Rotational constants (GHZ):      2.9093081      0.6529195      0.5921448
 Standard basis: 6-31G(d) (6D, 7F)
 There are   174 symmetry adapted basis functions of A   symmetry.
 Integral buffers will be    131072 words long.
 Raffenetti 1 integral format.
 Two-electron integral symmetry is turned on.
   174 basis functions,   328 primitive gaussians,   174 cartesian basis functions
    39 alpha electrons       39 beta electrons
       nuclear repulsion energy       551.5437148454 Hartrees.
 NAtoms=   22 NActive=   22 NUniq=   22 SFac= 7.50D-01 NAtFMM=   80 NAOKFM=F Big=F
 One-electron integrals computed using PRISM.
 NBasis=   174 RedAO= T  NBF=   174
 NBsUse=   174 1.00D-06 NBFU=   174
 Initial guess read from the read-write file.
 B after Tr=     0.000000    0.000000    0.000000
         Rot=    1.000000    0.000000    0.000000    0.000000 Ang=   0.00 deg.
 Initial guess orbital symmetries:
       Occupied  (A) (A) (A) (A) (A) (A) (A) (A) (A) (A) (A) (A)
                 (A) (A) (A) (A) (A) (A) (A) (A) (A) (A) (A) (A)
                 (A) (A) (A) (A) (A) (A) (A) (A) (A) (A) (A) (A)
                 (A) (A) (A)
       Virtual   (A) (A) (A) (A) (A) (A) (A) (A) (A) (A) (A) (A)
                 (A) (A) (A) (A) (A) (A) (A) (A) (A) (A) (A) (A)
                 (A) (A) (A) (A) (A) (A) (A) (A) (A) (A) (A) (A)
                 (A) (A) (A) (A) (A) (A) (A) (A) (A) (A) (A) (A)
                 (A) (A) (A) (A) (A) (A) (A) (A) (A) (A) (A) (A)
                 (A) (A) (A) (A) (A) (A) (A) (A) (A) (A) (A) (A)
                 (A) (A) (A) (A) (A) (A) (A) (A) (A) (A) (A) (A)
                 (A) (A) (A) (A) (A) (A) (A) (A) (A) (A) (A) (A)
                 (A) (A) (A) (A) (A) (A) (A) (A) (A) (A) (A) (A)
                 (A) (A) (A) (A) (A) (A) (A) (A) (A) (A) (A) (A)
                 (A) (A) (A) (A) (A) (A) (A) (A) (A) (A) (A) (A)
                 (A) (A) (A)
 Harris functional with IExCor=  205 diagonalized for initial guess.
 ExpMin= 1.61D-01 ExpMax= 5.48D+03 ExpMxC= 8.25D+02 IAcc=1 IRadAn=         1 AccDes= 0.00D+00
 HarFok:  IExCor=  205 AccDes= 0.00D+00 IRadAn=         1 IDoV= 1
 ScaDFX=  1.000000  1.000000  1.000000  1.000000
 FoFCou: FMM=F IPFlag=           0 FMFlag=      100000 FMFlg1=           0
         NFxFlg=           0 DoJE=T BraDBF=F KetDBF=T FulRan=T
         Omega=  0.000000  0.000000  1.000000  0.000000  0.000000 ICntrl=     500 IOpCl=  0
         NMat0=    1 NMatS0=    1 NMatT0=    0 NMatD0=    1 NMtDS0=    0 NMtDT0=    0
         I1Cent=           4 NGrid=           0.
 Petite list used in FoFCou.
 Requested convergence on RMS density matrix=1.00D-08 within 128 cycles.
 Requested convergence on MAX density matrix=1.00D-06.
 Requested convergence on             energy=1.00D-06.
 No special actions if energy rises.
 Integral accuracy reduced to 1.0D-05 until final iterations.
 Initial convergence to 1.0D-05 achieved.  Increase integral accuracy.
 SCF Done:  E(RHF) =  -492.849261068     A.U. after   15 cycles
             Convg  =    0.3919D-08             -V/T =  2.0018
 Calling FoFJK, ICntrl=      2127 FMM=F ISym2X=0 I1Cent= 0 IOpClX= 0 NMat=1 NMatS=1 NMatT=0.
 ***** Axes restored to original set *****
 -------------------------------------------------------------------
 Center     Atomic                   Forces (Hartrees/Bohr)
 Number     Number              X              Y              Z
 -------------------------------------------------------------------
      1        1           0.001628517    0.002216170    0.000463742
      2        6           0.000770077    0.004698360   -0.000909015
      3        1          -0.001523054   -0.000349149   -0.001654244
      4        1          -0.001388949   -0.001020712    0.001848237
      5        6           0.009035116   -0.029955579   -0.000262626
      6        8          -0.005664937    0.022175451    0.002721890
      7        7           0.003023790    0.012736752   -0.000569748
      8        1           0.003302679   -0.001809451   -0.005853114
      9        6           0.002221748   -0.004238309   -0.001478107
     10        1          -0.001519779   -0.000958087   -0.001466770
     11        6          -0.005245268   -0.002417890   -0.001000302
     12        1           0.001600847   -0.000936685    0.001225307
     13        1          -0.001517687   -0.001107480   -0.000049342
     14        1           0.000133278   -0.003327168   -0.000119771
     15        6          -0.020725944    0.007818061   -0.007337888
     16        8           0.011724383   -0.007077426    0.012586386
     17        7           0.006144657    0.002947338    0.004496112
     18        1          -0.004007370    0.001306785   -0.002797576
     19        6           0.001536330   -0.000018518   -0.000178176
     20        1           0.001771112   -0.001157867    0.001524900
     21        1           0.000348245    0.000346315   -0.001623628
     22        1          -0.001647792    0.000129089    0.000433731
 -------------------------------------------------------------------
 Cartesian Forces:  Max     0.029955579 RMS     0.006577514

 GradGradGradGradGradGradGradGradGradGradGradGradGradGradGradGradGradGrad
 Berny optimization.
 Using GEDIIS/GDIIS optimizer.
 Internal  Forces:  Max     0.020255362 RMS     0.004750333
 Search for a local minimum.
 Step number   2 out of a maximum of  108
 All quantities printed in internal units (Hartrees-Bohrs-Radians)
 Mixed Optimization -- RFO/linear search
 Update second derivatives using D2CorX and points    1    2
 DE= -8.01D-03 DEPred=-1.91D-02 R= 4.20D-01
 Trust test= 4.20D-01 RLast= 3.00D-01 DXMaxT set to 3.00D-01
 Use linear search instead of GDIIS.
     Eigenvalues ---    0.00369   0.00437   0.01005   0.01043   0.01332
     Eigenvalues ---    0.01436   0.01656   0.02549   0.02620   0.03783
     Eigenvalues ---    0.04946   0.05652   0.05898   0.06176   0.07269
     Eigenvalues ---    0.07275   0.07542   0.07732   0.15532   0.15913
     Eigenvalues ---    0.15994   0.16000   0.16000   0.16000   0.16000
     Eigenvalues ---    0.16000   0.16000   0.16000   0.16000   0.16539
     Eigenvalues ---    0.16584   0.21920   0.23966   0.24719   0.24999
     Eigenvalues ---    0.25000   0.29255   0.29698   0.30052   0.33732
     Eigenvalues ---    0.34509   0.34808   0.34810   0.34811   0.34812
     Eigenvalues ---    0.34812   0.34815   0.34817   0.34818   0.36432
     Eigenvalues ---    0.38374   0.45065   0.45969   0.50038   0.57971
     Eigenvalues ---    0.59456   0.84857   0.914881000.000001000.00000
     Eigenvalues --- 1000.000001000.000001000.000001000.000001000.00000
     Eigenvalues --- 1000.000001000.000001000.000001000.000001000.00000
     Eigenvalues --- 1000.000001000.000001000.000001000.000001000.00000
     Eigenvalues --- 1000.000001000.000001000.000001000.000001000.00000
     Eigenvalues --- 1000.000001000.000001000.000001000.000001000.00000
     Eigenvalues --- 1000.000001000.000001000.000001000.000001000.00000
     Eigenvalues --- 1000.000001000.000001000.000001000.000001000.00000
     Eigenvalues --- 1000.000001000.000001000.00000
 RFO step:  Lambda=-4.29466398D-03 EMin= 3.68895713D-03
 Quartic linear search produced a step of -0.23706.
 Iteration  1 RMS(Cart)=  0.05177112 RMS(Int)=  0.00128146
 Iteration  2 RMS(Cart)=  0.00185842 RMS(Int)=  0.00042142
 Iteration  3 RMS(Cart)=  0.00000183 RMS(Int)=  0.00042142
 Iteration  4 RMS(Cart)=  0.00000000 RMS(Int)=  0.00042142
 Iteration  1 RMS(Cart)=  0.00003665 RMS(Int)=  0.00002337
 Iteration  2 RMS(Cart)=  0.00002439 RMS(Int)=  0.00002584
 Iteration  3 RMS(Cart)=  0.00001633 RMS(Int)=  0.00002971
 Iteration  4 RMS(Cart)=  0.00001097 RMS(Int)=  0.00003294
 Iteration  5 RMS(Cart)=  0.00000738 RMS(Int)=  0.00003531
 Iteration  6 RMS(Cart)=  0.00000496 RMS(Int)=  0.00003696
 Iteration  7 RMS(Cart)=  0.00000333 RMS(Int)=  0.00003809
 Iteration  8 RMS(Cart)=  0.00000224 RMS(Int)=  0.00003886
 Iteration  9 RMS(Cart)=  0.00000150 RMS(Int)=  0.00003938
 Iteration 10 RMS(Cart)=  0.00000101 RMS(Int)=  0.00003972
 Iteration 11 RMS(Cart)=  0.00000068 RMS(Int)=  0.00003996
 Variable       Old X    -DE/DX   Delta X   Delta X   Delta X     New X
                                 (Linear)    (Quad)   (Total)
    R1        2.04490  -0.00246   0.00353  -0.01282  -0.00929   2.03562
    R2        2.05442  -0.00105   0.00129  -0.00502  -0.00373   2.05069
    R3        2.05416  -0.00110   0.00134  -0.00521  -0.00387   2.05029
    R4        2.87114  -0.00072   0.00478  -0.01177  -0.00699   2.86415
    R5        2.29267  -0.02026   0.00708  -0.03298  -0.02590   2.26677
    R6        2.54442   0.00107  -0.00512   0.01280   0.00769   2.55211
    R7        1.88852  -0.00494   0.00478  -0.01855  -0.01377   1.87475
    R8        2.75983  -0.01221  -0.00514  -0.01292  -0.01805   2.74178
    R9        2.05679  -0.00174   0.00070  -0.00524  -0.00454   2.05225
   R10        2.90634  -0.00161  -0.00580   0.00802   0.00223   2.90856
   R11        2.87476   0.00513   0.00034   0.01205   0.01239   2.88715
   R12        2.05138  -0.00207   0.00198  -0.00868  -0.00670   2.04468
   R13        2.05607  -0.00188   0.00089  -0.00595  -0.00506   2.05102
   R14        2.03292   0.00325   0.00634  -0.00644  -0.00010   2.03282
   R15        2.29469  -0.01850   0.00660  -0.03043  -0.02382   2.27086
   R16        2.53134   0.00541  -0.00202   0.01153   0.00950   2.54084
   R17        1.88725  -0.00492   0.00507  -0.01915  -0.01409   1.87317
   R18        2.74046  -0.00083  -0.00052  -0.00051  -0.00103   2.73943
   R19        2.04193  -0.00258   0.00421  -0.01453  -0.01032   2.03161
   R20        2.05248  -0.00152   0.00174  -0.00697  -0.00523   2.04725
   R21        2.05250  -0.00148   0.00174  -0.00689  -0.00515   2.04735
    A1        1.91168  -0.00027  -0.00014  -0.00233  -0.00243   1.90925
    A2        1.91252  -0.00020  -0.00033  -0.00039  -0.00067   1.91185
    A3        1.91060  -0.00290   0.00675  -0.02645  -0.01965   1.89095
    A4        1.89644  -0.00242   0.00323  -0.01570  -0.01260   1.88384
    A5        1.91650   0.00266  -0.00484   0.02122   0.01633   1.93282
    A6        1.91603   0.00313  -0.00471   0.02379   0.01904   1.93507
    A7        2.09600   0.01126   0.00168   0.03142   0.03138   2.12738
    A8        1.99271   0.00217   0.01003  -0.01258  -0.00418   1.98853
    A9        2.19376  -0.01338  -0.01154  -0.01538  -0.02846   2.16531
   A10        2.03352   0.00766   0.01443  -0.00297   0.01114   2.04467
   A11        2.24492  -0.01510  -0.02784   0.00337  -0.02477   2.22015
   A12        2.00427   0.00741   0.01352  -0.00194   0.01129   2.01556
   A13        1.91301   0.00365  -0.00044  -0.01125  -0.01168   1.90132
   A14        2.02496  -0.01158  -0.02037  -0.00777  -0.02786   1.99710
   A15        1.86900   0.00037   0.01659  -0.01729  -0.00066   1.86834
   A16        1.90047   0.00081  -0.00104  -0.00500  -0.00644   1.89403
   A17        1.91801  -0.00403  -0.00520   0.01266   0.00748   1.92549
   A18        1.83530   0.01099   0.01092   0.03153   0.04191   1.87721
   A19        1.90971   0.00127   0.00034   0.00584   0.00620   1.91591
   A20        1.90517   0.00001   0.00140  -0.00082   0.00057   1.90575
   A21        1.94031  -0.00100  -0.00692   0.00566  -0.00124   1.93906
   A22        1.89756  -0.00032   0.00297  -0.00230   0.00067   1.89823
   A23        1.90900  -0.00034   0.00029  -0.00546  -0.00513   1.90387
   A24        1.90158   0.00039   0.00203  -0.00311  -0.00108   1.90050
   A25        2.10519   0.00177  -0.00048   0.00629   0.00579   2.11098
   A26        2.02346  -0.00221   0.00275  -0.01214  -0.00941   2.01405
   A27        2.15452   0.00043  -0.00227   0.00592   0.00363   2.15815
   A28        2.08030  -0.00192   0.00334  -0.01418  -0.01084   2.06946
   A29        2.14648   0.00188  -0.00448   0.01521   0.01072   2.15720
   A30        2.05639   0.00004   0.00114  -0.00108   0.00006   2.05645
   A31        1.89511  -0.00099   0.00380  -0.01194  -0.00814   1.88697
   A32        1.92312   0.00104  -0.00287   0.01025   0.00738   1.93050
   A33        1.92776   0.00122  -0.00394   0.01307   0.00912   1.93688
   A34        1.90813  -0.00024   0.00047  -0.00240  -0.00193   1.90620
   A35        1.90721  -0.00028   0.00071  -0.00304  -0.00233   1.90487
   A36        1.90236  -0.00077   0.00186  -0.00612  -0.00428   1.89808
    D1       -0.01908   0.00073   0.00455   0.04620   0.05148   0.03240
    D2       -3.12242  -0.00051  -0.00456  -0.04622  -0.05152   3.10925
    D3        2.08019   0.00024   0.00550   0.03999   0.04616   2.12635
    D4       -1.02315  -0.00100  -0.00361  -0.05243  -0.05684  -1.07999
    D5       -2.11909   0.00084   0.00375   0.04843   0.05299  -2.06610
    D6        1.06075  -0.00040  -0.00536  -0.04399  -0.05001   1.01075
    D7        0.00631   0.00017  -0.00147   0.00474   0.00206   0.00837
    D8       -3.10057   0.00116  -0.00972   0.06268   0.05192  -3.04865
    D9       -3.09453  -0.00181  -0.01117  -0.09492  -0.10505   3.08360
   D10        0.08177  -0.00082  -0.01942  -0.03698  -0.05520   0.02658
   D11       -1.32344   0.00203   0.00344  -0.00107   0.00215  -1.32129
   D12        0.83733  -0.00262  -0.01229  -0.02297  -0.03553   0.80180
   D13        2.87984   0.00463   0.00000   0.00000   0.00001   2.87985
   D14        1.85238   0.00300  -0.00469   0.05608   0.05127   1.90365
   D15       -2.27003  -0.00165  -0.02042   0.03418   0.01359  -2.25644
   D16       -0.22752   0.00560  -0.00813   0.05715   0.04913  -0.17839
   D17        1.00274   0.00145   0.01055   0.04134   0.05189   1.05463
   D18        3.07735   0.00181   0.01522   0.04150   0.05673   3.13409
   D19       -1.10766   0.00167   0.01432   0.04066   0.05499  -1.05267
   D20       -3.11317  -0.00163  -0.00460   0.01637   0.01171  -3.10147
   D21       -1.03857  -0.00126   0.00007   0.01653   0.01656  -1.02201
   D22        1.05961  -0.00140  -0.00083   0.01568   0.01482   1.07442
   D23       -1.05843  -0.00011  -0.00536   0.04534   0.04001  -1.01842
   D24        1.01618   0.00025  -0.00068   0.04551   0.04486   1.06104
   D25        3.11435   0.00012  -0.00159   0.04466   0.04312  -3.12572
   D26       -0.79222   0.00412   0.00161   0.01067   0.01239  -0.77984
   D27        2.35615   0.00487   0.00000   0.00000   0.00000   2.35616
   D28       -2.86890   0.00175  -0.00470   0.02726   0.02267  -2.84623
   D29        0.27948   0.00250  -0.00632   0.01658   0.01028   0.28976
   D30        1.37146  -0.00320  -0.00678   0.00975   0.00265   1.37411
   D31       -1.76335  -0.00246  -0.00839  -0.00092  -0.00973  -1.77308
   D32       -0.01139  -0.00110   0.00273  -0.01053  -0.00776  -0.01915
   D33        3.12356  -0.00143   0.00426  -0.01954  -0.01522   3.10834
   D34        3.13720  -0.00033   0.00106  -0.02153  -0.02053   3.11667
   D35       -0.01103  -0.00066   0.00260  -0.03055  -0.02799  -0.03902
   D36        0.00376   0.00019  -0.00086   0.00534   0.00448   0.00824
   D37        2.09311  -0.00008   0.00031   0.00118   0.00149   2.09460
   D38       -2.08725   0.00042  -0.00169   0.00864   0.00697  -2.08028
   D39        3.13879  -0.00014   0.00065  -0.00361  -0.00296   3.13583
   D40       -1.05503  -0.00042   0.00183  -0.00777  -0.00596  -1.06100
   D41        1.04779   0.00009  -0.00017  -0.00030  -0.00048   1.04731
         Item               Value     Threshold  Converged?
 Maximum Force            0.020255     0.000450     NO 
 RMS     Force            0.004650     0.000300     NO 
 Maximum Displacement     0.191108     0.001800     NO 
 RMS     Displacement     0.052202     0.001200     NO 
 Predicted change in Energy=-2.386191D-03
 GradGradGradGradGradGradGradGradGradGradGradGradGradGradGradGradGradGrad

                          Input orientation:                          
 ---------------------------------------------------------------------
 Center     Atomic      Atomic             Coordinates (Angstroms)
 Number     Number       Type             X           Y           Z
 ---------------------------------------------------------------------
      1          1           0        1.824020    1.203388   -0.477585
      2          6           0        1.928841    2.244362   -0.221171
      3          1           0        1.504834    2.417583    0.762609
      4          1           0        1.379106    2.850692   -0.933427
      5          6           0        3.403517    2.593912   -0.239259
      6          8           0        4.241795    1.789624   -0.538031
      7          7           0        3.662293    3.891792    0.029879
      8          1           0        2.884912    4.479083    0.216910
      9          6           0        4.950632    4.557449   -0.016616
     10          1           0        5.526322    4.272623    0.859087
     11          6           0        5.783750    4.244506   -1.272382
     12          1           0        5.244929    4.558207   -2.156678
     13          1           0        6.721313    4.789079   -1.223371
     14          1           0        5.995497    3.192288   -1.344333
     15          6           0        4.678647    6.060824   -0.006866
     16          8           0        3.821916    6.538393   -0.701126
     17          7           0        5.451495    6.781278    0.824687
     18          1           0        6.121854    6.306539    1.379480
     19          6           0        5.372338    8.223697    0.945619
     20          1           0        4.606150    8.573615    0.277551
     21          1           0        5.118323    8.507987    1.959678
     22          1           0        6.314617    8.687478    0.679545
 ---------------------------------------------------------------------
                    Distance matrix (angstroms):
                    1          2          3          4          5
     1  H    0.000000
     2  C    1.077202   0.000000
     3  H    1.764719   1.085178   0.000000
     4  H    1.766168   1.084966   1.754972   0.000000
     5  C    2.117821   1.515645   2.154026   2.155468   0.000000
     6  O    2.488567   2.378433   3.094666   3.078504   1.199522
     7  N    3.296102   2.404560   2.713819   2.687897   1.350516
     8  H    3.512548   2.469811   2.540115   2.498476   2.007713
     9  C    4.608462   3.810962   4.130344   4.063171   2.509704
    10  H    4.991387   4.268802   4.429769   4.736496   2.920743
    11  C    5.055647   4.468327   5.078185   4.632331   3.075275
    12  H    5.077084   4.482913   5.205076   4.399606   3.305412
    13  H    6.115297   5.517951   6.064632   5.690394   4.098171
    14  H    4.701936   4.324090   5.020501   4.647214   2.880557
    15  C    5.653774   4.708794   4.892687   4.695789   3.701276
    16  O    5.701214   4.717287   4.948986   4.429495   3.993409
    17  N    6.779923   5.838366   5.884031   5.926620   4.781238
    18  H    6.925477   6.053489   6.068063   6.307620   4.877836
    19  C    7.993798   6.997965   6.978684   6.953121   6.080680
    20  H    7.913958   6.890294   6.910150   6.680728   6.121297
    21  H    8.375551   7.359477   7.182151   7.372705   6.538514
    22  H    8.804318   7.846022   7.902689   7.812107   6.815442
                    6          7          8          9         10
     6  O    0.000000
     7  N    2.253320   0.000000
     8  H    3.105520   0.992075   0.000000
     9  C    2.904337   1.450888   2.080354   0.000000
    10  H    3.125257   2.075385   2.726181   1.086002   0.000000
    11  C    2.990542   2.514134   3.267457   1.539145   2.147142
    12  H    3.360260   2.780265   3.348113   2.160203   3.042298
    13  H    3.951510   3.425400   4.109559   2.155278   2.455883
    14  H    2.386014   2.796713   3.710668   2.172151   2.498461
    15  C    4.326214   2.395627   2.401971   1.527812   2.160114
    16  O    4.770085   2.750336   2.441623   2.380482   3.236199
    17  N    5.313848   3.490286   3.500978   2.429830   2.510007
    18  H    5.254902   3.701604   3.894735   2.525899   2.182266
    19  C    6.699002   4.746391   4.554167   3.813805   3.955020
    20  H    6.842548   4.782434   4.442019   4.041633   4.436602
    21  H    7.221028   5.210893   4.925183   4.420476   4.395006
    22  H    7.304757   5.518650   5.448623   4.404797   4.488272
                   11         12         13         14         15
    11  C    0.000000
    12  H    1.081996   0.000000
    13  H    1.085351   1.761838   0.000000
    14  H    1.075722   1.757552   1.758176   0.000000
    15  C    2.474226   2.683324   2.696240   3.428034   0.000000
    16  O    3.071977   2.839849   3.426273   4.041608   1.201689
    17  N    3.308066   3.724682   3.126634   4.228645   1.344555
    18  H    3.376192   4.041050   3.071949   4.139286   2.016229
    19  C    4.574139   4.803780   4.280287   5.563028   2.463017
[...]
    14  H    4.649236   4.160696   4.904054   4.269470   2.820657
    15  C    5.656716   4.707082   4.731359   4.863965   3.681403
    16  O    5.728119   4.687369   4.625593   4.625618   3.985915
    17  N    6.781338   5.881931   5.838414   6.144158   4.767087
    18  H    6.937037   6.138102   6.155078   6.521063   4.882265
    19  C    7.987163   7.025223   6.866678   7.196648   6.053086
    20  H    7.928004   6.931808   6.619656   7.094630   6.153673
    21  H    8.759107   7.844184   7.673230   8.103658   6.794672
    22  H    8.411185   7.421209   7.350747   7.447284   6.464777
                    6          7          8          9         10
     6  O    0.000000
     7  N    2.253763   0.000000
     8  H    3.094203   0.997802   0.000000
     9  C    2.837852   1.453781   2.059304   0.000000
    10  H    2.947354   2.074256   2.843826   1.083627   0.000000
    11  C    3.014515   2.516739   3.067544   1.536473   2.152056
    12  H    3.452619   2.765994   3.014172   2.161522   3.048255
    13  H    3.953332   3.433659   3.946029   2.161906   2.488728
    14  H    2.420170   2.815434   3.550808   2.166353   2.484460
    15  C    4.287818   2.383446   2.362193   1.527057   2.160896
    16  O    4.799934   2.732727   2.266979   2.381376   3.237196
    17  N    5.230152   3.486902   3.568034   2.439494   2.531366
    18  H    5.147579   3.726691   4.040769   2.553757   2.227794
    19  C    6.616390   4.719794   4.577735   3.806597   3.977885
    20  H    6.876300   4.791667   4.459023   4.178131   4.440031
    21  H    7.259563   5.490511   5.455523   4.499699   4.437349
    22  H    7.011924   5.166898   4.976125   4.183848   4.520352
                   11         12         13         14         15
    11  C    0.000000
    12  H    1.083988   0.000000
    13  H    1.086266   1.758741   0.000000
    14  H    1.078773   1.764739   1.759617   0.000000
    15  C    2.469649   2.695788   2.686230   3.423542   0.000000
    16  O    3.065485   2.846815   3.404387   4.044755   1.204314
    17  N    3.316219   3.748610   3.136797   4.229608   1.342766
    18  H    3.398513   4.075689   3.099118   4.150251   2.022496
    19  C    4.553698   4.788643   4.259766   5.542615   2.437832
    20  H    5.111678   5.237083   5.008081   6.102170   2.732630
    21  H    5.253214   5.628970   4.831668   6.174380   3.306547
    22  H    4.602340   4.665184   4.194112   5.646022   2.790484
                   16         17         18         19         20
    16  O    0.000000
    17  N    2.237437   0.000000
    18  H    3.111302   0.992825   0.000000
    19  C    2.765385   1.448652   2.116774   0.000000
    20  H    2.731378   2.088776   2.856470   1.081494   0.000000
    21  H    3.807011   2.065259   2.283277   1.081370   1.761616
    22  H    2.869999   2.099608   2.801770   1.083000   1.755995
                   21         22
    21  H    0.000000
    22  H    1.762463   0.000000
 Stoichiometry    C6H12N2O2
 Framework group  C1[X(C6H12N2O2)]
 Deg. of freedom    60
 Full point group                 C1      NOp   1
 Largest Abelian subgroup         C1      NOp   1
 Largest concise Abelian subgroup C1      NOp   1
                         Standard orientation:                         
 ---------------------------------------------------------------------
 Center     Atomic      Atomic             Coordinates (Angstroms)
 Number     Number       Type             X           Y           Z
 ---------------------------------------------------------------------
      1          1           0       -4.212830   -1.038638   -0.261827
      2          6           0       -3.210388   -1.275079    0.063564
      3          1           0       -2.877500   -2.192671   -0.408030
      4          1           0       -3.219946   -1.432106    1.138237
      5          6           0       -2.298845   -0.112007   -0.265717
      6          8           0       -2.722466    0.983368   -0.510593
      7          7           0       -0.971954   -0.418754   -0.288764
      8          1           0       -0.717238   -1.279615    0.146720
      9          6           0        0.071212    0.590227   -0.203665
     10          1           0        0.150218    1.092159   -1.160780
     11          6           0       -0.140247    1.637300    0.900723
     12          1           0       -0.221657    1.147293    1.864204
     13          1           0        0.708234    2.314762    0.933886
     14          1           0       -1.034576    2.211107    0.714523
     15          6           0        1.362251   -0.159424    0.117494
     16          8           0        1.383907   -1.021814    0.957844
     17          7           0        2.447306    0.194904   -0.589703
     18          1           0        2.367604    0.909489   -1.274333
     19          6           0        3.747560   -0.388833   -0.330502
     20          1           0        3.702138   -1.465940   -0.416559
     21          1           0        4.448493   -0.005377   -1.059210
     22          1           0        4.098813   -0.139049    0.663036
 ---------------------------------------------------------------------
 Rotational constants (GHZ):      3.0232747      0.6577333      0.6026037

 **********************************************************************

            Population analysis using the SCF density.

 **********************************************************************

 Orbital symmetries:
       Occupied  (A) (A) (A) (A) (A) (A) (A) (A) (A) (A) (A) (A)
                 (A) (A) (A) (A) (A) (A) (A) (A) (A) (A) (A) (A)
                 (A) (A) (A) (A) (A) (A) (A) (A) (A) (A) (A) (A)
                 (A) (A) (A)
       Virtual   (A) (A) (A) (A) (A) (A) (A) (A) (A) (A) (A) (A)
                 (A) (A) (A) (A) (A) (A) (A) (A) (A) (A) (A) (A)
                 (A) (A) (A) (A) (A) (A) (A) (A) (A) (A) (A) (A)
                 (A) (A) (A) (A) (A) (A) (A) (A) (A) (A) (A) (A)
                 (A) (A) (A) (A) (A) (A) (A) (A) (A) (A) (A) (A)
                 (A) (A) (A) (A) (A) (A) (A) (A) (A) (A) (A) (A)
                 (A) (A) (A) (A) (A) (A) (A) (A) (A) (A) (A) (A)
                 (A) (A) (A) (A) (A) (A) (A) (A) (A) (A) (A) (A)
                 (A) (A) (A) (A) (A) (A) (A) (A) (A) (A) (A) (A)
                 (A) (A) (A) (A) (A) (A) (A) (A) (A) (A) (A) (A)
                 (A) (A) (A) (A) (A) (A) (A) (A) (A) (A) (A) (A)
                 (A) (A) (A)
 The electronic state is 1-A.
 Alpha  occ. eigenvalues --  -20.53387 -20.52241 -15.59916 -15.57886 -11.35450
 Alpha  occ. eigenvalues --  -11.34523 -11.28243 -11.26690 -11.22852 -11.21767
 Alpha  occ. eigenvalues --   -1.40461  -1.38866  -1.24561  -1.23408  -1.05510
 Alpha  occ. eigenvalues --   -0.99094  -0.96580  -0.88354  -0.80491  -0.77580
 Alpha  occ. eigenvalues --   -0.73158  -0.67419  -0.66325  -0.64124  -0.63529
 Alpha  occ. eigenvalues --   -0.62133  -0.60509  -0.58495  -0.56653  -0.56394
 Alpha  occ. eigenvalues --   -0.56274  -0.54735  -0.52288  -0.51982  -0.49894
 Alpha  occ. eigenvalues --   -0.42906  -0.41571  -0.40152  -0.38893
 Alpha virt. eigenvalues --    0.18884   0.20485   0.21124   0.23822   0.25828
 Alpha virt. eigenvalues --    0.28049   0.29986   0.30081   0.31170   0.31399
 Alpha virt. eigenvalues --    0.32174   0.33365   0.34036   0.35919   0.37217
 Alpha virt. eigenvalues --    0.40207   0.41168   0.42768   0.46386   0.51549
 Alpha virt. eigenvalues --    0.52523   0.60231   0.61422   0.71083   0.72601
 Alpha virt. eigenvalues --    0.73283   0.74330   0.75771   0.76919   0.78030
 Alpha virt. eigenvalues --    0.79486   0.83306   0.85375   0.87001   0.91608
 Alpha virt. eigenvalues --    0.92398   0.93900   0.97917   0.98844   0.99387
 Alpha virt. eigenvalues --    1.01848   1.03353   1.04963   1.05434   1.09534
 Alpha virt. eigenvalues --    1.11868   1.12052   1.13168   1.14538   1.14884
 Alpha virt. eigenvalues --    1.17074   1.17972   1.18847   1.20413   1.20541
 Alpha virt. eigenvalues --    1.21511   1.21963   1.22800   1.24215   1.26541
 Alpha virt. eigenvalues --    1.31389   1.32663   1.36997   1.38701   1.38861
 Alpha virt. eigenvalues --    1.43469   1.48383   1.51413   1.55248   1.60877
 Alpha virt. eigenvalues --    1.64991   1.68765   1.70270   1.73674   1.74847
 Alpha virt. eigenvalues --    1.78328   1.84135   1.86778   1.94163   1.97364
 Alpha virt. eigenvalues --    2.03176   2.05248   2.09320   2.10679   2.12439
 Alpha virt. eigenvalues --    2.13636   2.15496   2.18370   2.21098   2.22005
 Alpha virt. eigenvalues --    2.23218   2.29112   2.30236   2.33049   2.34746
 Alpha virt. eigenvalues --    2.35793   2.39309   2.41369   2.44226   2.50567
 Alpha virt. eigenvalues --    2.52027   2.55946   2.58689   2.59468   2.64579
 Alpha virt. eigenvalues --    2.65539   2.68723   2.71053   2.75311   2.77319
 Alpha virt. eigenvalues --    2.81346   2.84885   2.86786   2.93428   2.96491
 Alpha virt. eigenvalues --    3.03623   3.04804   3.10372   3.11783   3.26317
 Alpha virt. eigenvalues --    3.30469   3.37608   3.38767   3.54232   3.56986
 Alpha virt. eigenvalues --    4.37178   4.40966   4.48793   4.59381   4.64485
 Alpha virt. eigenvalues --    4.68824   4.75669   4.83987   4.89476   5.08593
          Condensed to atoms (all electrons):
              1          2          3          4          5          6
     1  H    0.466628   0.383673  -0.020342  -0.017834  -0.032738   0.003596
     2  C    0.383673   5.270623   0.377651   0.374430   0.374585  -0.071174
     3  H   -0.020342   0.377651   0.510038  -0.024429  -0.035638   0.001822
     4  H   -0.017834   0.374430  -0.024429   0.497873  -0.027441   0.000522
     5  C   -0.032738   0.374585  -0.035638  -0.027441   4.147745   0.610746
     6  O    0.003596  -0.071174   0.001822   0.000522   0.610746   8.149856
     7  N    0.004442  -0.122758   0.004859   0.000800   0.266857  -0.105534
     8  H    0.000060  -0.001214   0.000082   0.000242  -0.019742   0.002331
     9  C   -0.000126   0.005529   0.000055  -0.000207  -0.029970   0.013306
    10  H    0.000006  -0.000065  -0.000011  -0.000002  -0.002876   0.001435
    11  C    0.000003  -0.000588   0.000012   0.000067  -0.004509  -0.009654
    12  H    0.000002  -0.000070  -0.000002   0.000012  -0.000452  -0.000112
    13  H    0.000000   0.000006   0.000000  -0.000001   0.000323   0.000128
    14  H    0.000001   0.000246  -0.000004  -0.000022   0.000592   0.007810
    15  C    0.000000  -0.000064  -0.000025  -0.000001   0.004262   0.000351
    16  O    0.000000  -0.000066   0.000000   0.000002   0.000042  -0.000002
    17  N    0.000000   0.000000   0.000000   0.000000  -0.000144   0.000000
    18  H    0.000000   0.000000   0.000000   0.000000   0.000001   0.000000
    19  C    0.000000   0.000000   0.000000   0.000000   0.000001   0.000000
    20  H    0.000000   0.000000   0.000000   0.000000   0.000000   0.000000
    21  H    0.000000   0.000000   0.000000   0.000000   0.000000   0.000000
    22  H    0.000000   0.000000   0.000000   0.000000   0.000000   0.000000
              7          8          9         10         11         12
     1  H    0.004442   0.000060  -0.000126   0.000006   0.000003   0.000002
     2  C   -0.122758  -0.001214   0.005529  -0.000065  -0.000588  -0.000070
     3  H    0.004859   0.000082   0.000055  -0.000011   0.000012  -0.000002
     4  H    0.000800   0.000242  -0.000207  -0.000002   0.000067   0.000012
     5  C    0.266857  -0.019742  -0.029970  -0.002876  -0.004509  -0.000452
     6  O   -0.105534   0.002331   0.013306   0.001435  -0.009654  -0.000112
     7  N    7.391038   0.314941   0.198505  -0.041619  -0.055665   0.001213
     8  H    0.314941   0.311409  -0.036348   0.003119   0.002993   0.000654
     9  C    0.198505  -0.036348   5.017121   0.413493   0.335581  -0.040920
    10  H   -0.041619   0.003119   0.413493   0.515665  -0.040241   0.004070
    11  C   -0.055665   0.002993   0.335581  -0.040241   5.184732   0.389131
    12  H    0.001213   0.000654  -0.040920   0.004070   0.389131   0.507044
    13  H    0.004213  -0.000061  -0.037378   0.000480   0.378400  -0.023473
    14  H   -0.004403  -0.000237  -0.028093  -0.003684   0.391415  -0.021609
    15  C   -0.037105  -0.006591   0.362998  -0.054642  -0.049908  -0.004590
    16  O   -0.007932   0.020458  -0.081331   0.002342   0.000293   0.003724
    17  N    0.001193   0.001295  -0.098216   0.006780  -0.002238   0.000596
    18  H    0.000031  -0.000036   0.000489   0.002426  -0.000090  -0.000010
    19  C   -0.000091  -0.000043   0.004858   0.000031  -0.000294  -0.000004
    20  H    0.000019   0.000011  -0.000110  -0.000010  -0.000014  -0.000001
    21  H    0.000001   0.000000   0.000006  -0.000022   0.000001   0.000000
    22  H   -0.000006  -0.000004  -0.000104   0.000001   0.000078   0.000001
             13         14         15         16         17         18
     1  H    0.000000   0.000001   0.000000   0.000000   0.000000   0.000000
     2  C    0.000006   0.000246  -0.000064  -0.000066   0.000000   0.000000
     3  H    0.000000  -0.000004  -0.000025   0.000000   0.000000   0.000000
     4  H   -0.000001  -0.000022  -0.000001   0.000002   0.000000   0.000000
     5  C    0.000323   0.000592   0.004262   0.000042  -0.000144   0.000001
     6  O    0.000128   0.007810   0.000351  -0.000002   0.000000   0.000000
     7  N    0.004213  -0.004403  -0.037105  -0.007932   0.001193   0.000031
     8  H   -0.000061  -0.000237  -0.006591   0.020458   0.001295  -0.000036
     9  C   -0.037378  -0.028093   0.362998  -0.081331  -0.098216   0.000489
    10  H    0.000480  -0.003684  -0.054642   0.002342   0.006780   0.002426
    11  C    0.378400   0.391415  -0.049908   0.000293  -0.002238  -0.000090
    12  H   -0.023473  -0.021609  -0.004590   0.003724   0.000596  -0.000010
    13  H    0.541587  -0.022133  -0.003937   0.000074   0.002036   0.000176
    14  H   -0.022133   0.444431   0.004285  -0.000029  -0.000077  -0.000014
    15  C   -0.003937   0.004285   4.219352   0.582295   0.280825  -0.019668
    16  O    0.000074  -0.000029   0.582295   8.198536  -0.104195   0.002531
    17  N    0.002036  -0.000077   0.280825  -0.104195   7.307436   0.327283
    18  H    0.000176  -0.000014  -0.019668   0.002531   0.327283   0.317440
    19  C   -0.000077   0.000003  -0.031906   0.009311   0.195113  -0.022073
    20  H    0.000004   0.000000  -0.003581   0.002641  -0.041919   0.002248
    21  H   -0.000001   0.000000   0.004667   0.000373  -0.036188  -0.004821
    22  H   -0.000021   0.000000  -0.002812   0.001466  -0.044946   0.001749
             19         20         21         22
     1  H    0.000000   0.000000   0.000000   0.000000
     2  C    0.000000   0.000000   0.000000   0.000000
     3  H    0.000000   0.000000   0.000000   0.000000
     4  H    0.000000   0.000000   0.000000   0.000000
     5  C    0.000001   0.000000   0.000000   0.000000
     6  O    0.000000   0.000000   0.000000   0.000000
     7  N   -0.000091   0.000019   0.000001  -0.000006
     8  H   -0.000043   0.000011   0.000000  -0.000004
     9  C    0.004858  -0.000110   0.000006  -0.000104
    10  H    0.000031  -0.000010  -0.000022   0.000001
    11  C   -0.000294  -0.000014   0.000001   0.000078
    12  H   -0.000004  -0.000001   0.000000   0.000001
    13  H   -0.000077   0.000004  -0.000001  -0.000021
    14  H    0.000003   0.000000   0.000000   0.000000
    15  C   -0.031906  -0.003581   0.004667  -0.002812
    16  O    0.009311   0.002641   0.000373   0.001466
    17  N    0.195113  -0.041919  -0.036188  -0.044946
    18  H   -0.022073   0.002248  -0.004821   0.001749
    19  C    4.910703   0.404637   0.396411   0.406040
    20  H    0.404637   0.497987  -0.026460  -0.033497
    21  H    0.396411  -0.026460   0.523429  -0.028923
    22  H    0.406040  -0.033497  -0.028923   0.511968
 Mulliken atomic charges:
              1
     1  H    0.212629
     2  C   -0.590743
     3  H    0.185931
     4  H    0.195988
     5  C    0.748355
     6  O   -0.605427
     7  N   -0.812999
     8  H    0.406680
     9  C    0.000862
    10  H    0.193323
    11  C   -0.519506
    12  H    0.184795
    13  H    0.159655
    14  H    0.231523
    15  C    0.755794
    16  O   -0.630531
    17  N   -0.794633
    18  H    0.392338
    19  C   -0.272620
    20  H    0.198046
    21  H    0.171529
    22  H    0.189011
 Sum of Mulliken atomic charges =   0.00000
 Mulliken charges with hydrogens summed into heavy atoms:
              1
     2  C    0.003806
     5  C    0.748355
     6  O   -0.605427
     7  N   -0.406319
     9  C    0.194185
    11  C    0.056466
    15  C    0.755794
    16  O   -0.630531
    17  N   -0.402295
    19  C    0.285966
 Sum of Mulliken charges with hydrogens summed into heavy atoms =   0.00000
 Electronic spatial extent (au):  <R**2>=           1949.7423
 Charge=              0.0000 electrons
 Dipole moment (field-independent basis, Debye):
    X=              2.9362    Y=             -0.2872    Z=             -1.2213  Tot=              3.1930
 Quadrupole moment (field-independent basis, Debye-Ang):
   XX=            -56.7149   YY=            -61.4011   ZZ=            -61.7284
   XY=             12.1399   XZ=             -8.6339   YZ=              1.7720
 Traceless Quadrupole moment (field-independent basis, Debye-Ang):
   XX=              3.2332   YY=             -1.4530   ZZ=             -1.7803
   XY=             12.1399   XZ=             -8.6339   YZ=              1.7720
 Octapole moment (field-independent basis, Debye-Ang**2):
  XXX=             49.1690  YYY=             -2.7914  ZZZ=             -3.1838  XYY=              3.0173
  XXY=            -21.6286  XXZ=             -3.7634  XZZ=              1.3886  YZZ=              4.9293
  YYZ=             -3.1046  XYZ=             -3.0015
 Hexadecapole moment (field-independent basis, Debye-Ang**3):
 XXXX=          -1817.0649 YYYY=           -383.3004 ZZZZ=           -185.9996 XXXY=             59.8063
 XXXZ=            -43.7261 YYYX=              2.0292 YYYZ=             -1.8686 ZZZX=             -7.8925
 ZZZY=             -9.7454 XXYY=           -400.8244 XXZZ=           -348.4687 YYZZ=            -98.1749
 XXYZ=              5.4161 YYXZ=            -11.6134 ZZXY=             10.7269
 N-N= 5.546717821161D+02 E-N=-2.264676613280D+03  KE= 4.921284748915D+02
 1\1\GINC-RODAN\FOpt\RHF\6-31G(d)\C6H12N2O2\STEBOSS\10-Feb-2017\0\\# HF
 /6-31G* Opt=(ModRedundant) geom=nocrowd\\Phi Psi fixed scan\\0,1\H,1.8
 56958081,1.1676727864,-0.2842001369\C,1.9727240729,2.235540095,-0.3979
 201952\H,1.2964974424,2.7523146546,0.2735343153\H,1.7114998849,2.50868
 41976,-1.4161656285\C,3.4169978964,2.6049220937,-0.1339067801\O,4.2992
 466594,1.7922322386,-0.1548553156\N,3.6235243166,3.9198239737,0.155306
 417\H,2.8759572138,4.5385508637,-0.0769186891\C,4.9303488508,4.5502906
 637,0.0647466904\H,5.5235080902,4.2484422939,0.9199052508\C,5.70454976
 71,4.2352470494,-1.2244813486\H,5.1208602,4.5321903645,-2.0882874342\H
 ,6.6389135914,4.7890969399,-1.2381797892\H,5.9256924599,3.1812566163,-
 1.2873337629\C,4.6783400817,6.0561828886,0.0909084857\O,3.801298593,6.
 5480205716,-0.5718638444\N,5.4785951776,6.7792418569,0.890782776\H,6.1
 814018855,6.3176145257,1.4186698291\C,5.389789226,8.2239670998,0.94973
 23237\H,4.3867408482,8.5304279559,1.2135617115\H,6.0780652472,8.580679
 2984,1.7036509209\H,5.645590414,8.6720009719,-0.0024857958\\Version=EM
 64L-G09RevA.02\State=1-A\HF=-492.8552263\RMSD=4.435e-09\RMSF=1.892e-03
 \Dipole=0.3704192,0.9944594,0.6722691\Quadrupole=5.7565672,-6.4830058,
 0.7264387,8.1108809,2.1861957,4.509885\PG=C01 [X(C6H12N2O2)]\\@


 POCKETA-POCKETA
 BARON VON RICHTOFEN
 SLAUGHTERED THE ALLIES WITH
 HARDLY A CARE.
 KILLED EIGHTY-ONE WITH HIS
 BLOOD-COLORED TRIPLANE, THEN
 UN-AEROBATICALLY
 PLUNGED FROM THE AIR.
   -- TONY HOFFMAN
 Job cpu time:  0 days  0 hours 34 minutes 40.7 seconds.
 File lengths (MBytes):  RWF=     25 Int=      0 D2E=      0 Chk=      3 Scr=      1
 Normal termination of Gaussian 09 at Fri Feb 10 04:31:45 2017.
