 Entering Gaussian System, Link 0=g09
 Initial command:
 /home/steboss/Software/g09/l1.exe /tmp/Gau-8964.inp -scrdir=/tmp/
 Entering Link 1 = /home/steboss/Software/g09/l1.exe PID=      8966.
  
 Copyright (c) 1988,1990,1992,1993,1995,1998,2003,2009, Gaussian, Inc.
                  All Rights Reserved.
  
 This is part of the Gaussian(R) 09 program.  It is based on
 the Gaussian(R) 03 system (copyright 2003, Gaussian, Inc.),
 the Gaussian(R) 98 system (copyright 1998, Gaussian, Inc.),
 the Gaussian(R) 94 system (copyright 1995, Gaussian, Inc.),
 the Gaussian 92(TM) system (copyright 1992, Gaussian, Inc.),
 the Gaussian 90(TM) system (copyright 1990, Gaussian, Inc.),
 the Gaussian 88(TM) system (copyright 1988, Gaussian, Inc.),
 the Gaussian 86(TM) system (copyright 1986, Carnegie Mellon
 University), and the Gaussian 82(TM) system (copyright 1983,
 Carnegie Mellon University). Gaussian is a federally registered
 trademark of Gaussian, Inc.
  
 This software contains proprietary and confidential information,
 including trade secrets, belonging to Gaussian, Inc.
  
 This software is provided under written license and may be
 used, copied, transmitted, or stored only in accord with that
 written license.
  
 The following legend is applicable only to US Government
 contracts under FAR:
  
                    RESTRICTED RIGHTS LEGEND
  
 Use, reproduction and disclosure by the US Government is
 subject to restrictions as set forth in subparagraphs (a)
 and (c) of the Commercial Computer Software - Restricted
 Rights clause in FAR 52.227-19.
  
 Gaussian, Inc.
 340 Quinnipiac St., Bldg. 40, Wallingford CT 06492
  
  
 ---------------------------------------------------------------
 Warning -- This program may not be used in any manner that
 competes with the business of Gaussian, Inc. or will provide
 assistance to any competitor of Gaussian, Inc.  The licensee
 of this program is prohibited from giving any competitor of
 Gaussian, Inc. access to this program.  By using this program,
 the user acknowledges that Gaussian, Inc. is engaged in the
 business of creating and licensing software in the field of
 computational chemistry and represents and warrants to the
 licensee that it is not a competitor of Gaussian, Inc. and that
 it will not use this program in any manner prohibited above.
 ---------------------------------------------------------------
  

 Cite this work as:
 Gaussian 09, Revision A.02,
 M. J. Frisch, G. W. Trucks, H. B. Schlegel, G. E. Scuseria, 
 M. A. Robb, J. R. Cheeseman, G. Scalmani, V. Barone, B. Mennucci, 
 G. A. Petersson, H. Nakatsuji, M. Caricato, X. Li, H. P. Hratchian, 
 A. F. Izmaylov, J. Bloino, G. Zheng, J. L. Sonnenberg, M. Hada, 
 M. Ehara, K. Toyota, R. Fukuda, J. Hasegawa, M. Ishida, T. Nakajima, 
 Y. Honda, O. Kitao, H. Nakai, T. Vreven, J. A. Montgomery, Jr., 
 J. E. Peralta, F. Ogliaro, M. Bearpark, J. J. Heyd, E. Brothers, 
 K. N. Kudin, V. N. Staroverov, R. Kobayashi, J. Normand, 
 K. Raghavachari, A. Rendell, J. C. Burant, S. S. Iyengar, J. Tomasi, 
 M. Cossi, N. Rega, J. M. Millam, M. Klene, J. E. Knox, J. B. Cross, 
 V. Bakken, C. Adamo, J. Jaramillo, R. Gomperts, R. E. Stratmann, 
 O. Yazyev, A. J. Austin, R. Cammi, C. Pomelli, J. W. Ochterski, 
 R. L. Martin, K. Morokuma, V. G. Zakrzewski, G. A. Voth, 
 P. Salvador, J. J. Dannenberg, S. Dapprich, A. D. Daniels, 
 O. Farkas, J. B. Foresman, J. V. Ortiz, J. Cioslowski, 
 and D. J. Fox, Gaussian, Inc., Wallingford CT, 2009.
 
 ******************************************
 Gaussian 09:  EM64L-G09RevA.02 11-Jun-2009
                10-Feb-2017 
 ******************************************
 %chk=structure_270.chk
 %NProcShared=8
 Will use up to    8 processors via shared memory.
 -------------------------------------------
 # HF/6-31G* Opt=(ModRedundant) geom=nocrowd
 -------------------------------------------
 1/18=120,19=15,38=1/1,3;
 2/9=110,12=1,17=6,18=5,40=1/2;
 3/5=1,6=6,7=1,11=9,16=1,25=1,30=1,71=1/1,2,3;
 4//1;
 5/5=2,38=5/2;
 6/7=2,8=2,9=2,10=2,28=1/1;
 7//1,2,3,16;
 1/18=20,19=15/3(2);
 2/9=110,12=1/2;
 99//99;
 2/9=110,12=1/2;
 3/5=1,6=6,7=1,11=9,16=1,25=1,30=1,71=1/1,2,3;
 4/5=5,16=3/1;
 5/5=2,38=5/2;
 7//1,2,3,16;
 1/18=20,19=15/3(-5);
 2/9=110,12=1/2;
 6/7=2,8=2,9=2,10=2,19=2,28=1/1;
 99/9=1/99;
 ------------------
 Phi Psi fixed scan
 ------------------
 Symbolic Z-matrix:
 Charge =  0 Multiplicity = 1
 H                     1.9702    1.0601   -0.5095 
 C                     1.985     2.1203   -0.2568 
 H                     1.582     2.2609    0.7462 
 H                     1.3772    2.6735   -0.9728 
 C                     3.4103    2.6754   -0.2933 
 O                     4.3566    1.9459   -0.5812 
 N                     3.5554    3.9697    0. 
 H                     2.7466    4.529     0.2306 
 C                     4.8533    4.6139    0. 
 H                     5.4076    4.3155    0.8898 
 C                     5.6613    4.2208   -1.2322 
 H                     5.1233    4.5214   -2.1312 
 H                     6.6305    4.7189   -1.2058 
 H                     5.8085    3.1409   -1.2414 
 C                     4.7127    6.1294    0. 
 O                     4.6551    6.7505    1.059 
 N                     4.6575    6.7246   -1.1937 
 H                     4.7088    6.171    -2.0369 
 C                     4.5242    8.1613   -1.3275 
 H                     4.482     8.6165   -0.3381 
 H                     5.3811    8.557    -1.8727 
 H                     3.6091    8.3926   -1.8727 
 
 The following ModRedundant input section has been read:
 D    5    7    9   15 F                                                       
 D    7    9   15   17 F                                                       

 GradGradGradGradGradGradGradGradGradGradGradGradGradGradGradGradGradGrad
 Berny optimization.
 Initialization pass.
                           ----------------------------
                           !    Initial Parameters    !
                           ! (Angstroms and Degrees)  !
 --------------------------                            --------------------------
 ! Name  Definition              Value          Derivative Info.                !
 --------------------------------------------------------------------------------
 ! R1    R(1,2)                  1.09           estimate D2E/DX2                !
 ! R2    R(2,3)                  1.09           estimate D2E/DX2                !
 ! R3    R(2,4)                  1.09           estimate D2E/DX2                !
 ! R4    R(2,5)                  1.53           estimate D2E/DX2                !
 ! R5    R(5,6)                  1.229          estimate D2E/DX2                !
 ! R6    R(5,7)                  1.335          estimate D2E/DX2                !
 ! R7    R(7,8)                  1.01           estimate D2E/DX2                !
 ! R8    R(7,9)                  1.449          estimate D2E/DX2                !
 ! R9    R(9,10)                 1.09           estimate D2E/DX2                !
 ! R10   R(9,11)                 1.525          estimate D2E/DX2                !
 ! R11   R(9,15)                 1.522          estimate D2E/DX2                !
 ! R12   R(11,12)                1.09           estimate D2E/DX2                !
 ! R13   R(11,13)                1.09           estimate D2E/DX2                !
 ! R14   R(11,14)                1.0899         estimate D2E/DX2                !
 ! R15   R(15,16)                1.2291         estimate D2E/DX2                !
 ! R16   R(15,17)                1.335          estimate D2E/DX2                !
 ! R17   R(17,18)                1.01           estimate D2E/DX2                !
 ! R18   R(17,19)                1.4491         estimate D2E/DX2                !
 ! R19   R(19,20)                1.0899         estimate D2E/DX2                !
 ! R20   R(19,21)                1.09           estimate D2E/DX2                !
 ! R21   R(19,22)                1.09           estimate D2E/DX2                !
 ! A1    A(1,2,3)              109.4973         estimate D2E/DX2                !
 ! A2    A(1,2,4)              109.4988         estimate D2E/DX2                !
 ! A3    A(1,2,5)              111.1006         estimate D2E/DX2                !
 ! A4    A(3,2,4)              109.4393         estimate D2E/DX2                !
 ! A5    A(3,2,5)              108.6364         estimate D2E/DX2                !
 ! A6    A(4,2,5)              108.6416         estimate D2E/DX2                !
 ! A7    A(2,5,6)              120.4973         estimate D2E/DX2                !
 ! A8    A(2,5,7)              116.5992         estimate D2E/DX2                !
 ! A9    A(6,5,7)              122.9035         estimate D2E/DX2                !
 ! A10   A(5,7,8)              119.9988         estimate D2E/DX2                !
 ! A11   A(5,7,9)              121.8962         estimate D2E/DX2                !
 ! A12   A(8,7,9)              118.105          estimate D2E/DX2                !
 ! A13   A(7,9,10)             109.5            estimate D2E/DX2                !
 ! A14   A(7,9,11)             111.0992         estimate D2E/DX2                !
 ! A15   A(7,9,15)             111.0966         estimate D2E/DX2                !
 ! A16   A(10,9,11)            108.6382         estimate D2E/DX2                !
 ! A17   A(10,9,15)            108.6373         estimate D2E/DX2                !
 ! A18   A(11,9,15)            107.7947         estimate D2E/DX2                !
 ! A19   A(9,11,12)            109.5007         estimate D2E/DX2                !
 ! A20   A(9,11,13)            109.4959         estimate D2E/DX2                !
 ! A21   A(9,11,14)            109.4978         estimate D2E/DX2                !
 ! A22   A(12,11,13)           109.441          estimate D2E/DX2                !
 ! A23   A(12,11,14)           109.4482         estimate D2E/DX2                !
 ! A24   A(13,11,14)           109.4436         estimate D2E/DX2                !
 ! A25   A(9,15,16)            120.4987         estimate D2E/DX2                !
 ! A26   A(9,15,17)            116.5998         estimate D2E/DX2                !
 ! A27   A(16,15,17)           122.9016         estimate D2E/DX2                !
 ! A28   A(15,17,18)           120.001          estimate D2E/DX2                !
 ! A29   A(15,17,19)           121.8978         estimate D2E/DX2                !
 ! A30   A(18,17,19)           118.1012         estimate D2E/DX2                !
 ! A31   A(17,19,20)           109.5013         estimate D2E/DX2                !
 ! A32   A(17,19,21)           109.4994         estimate D2E/DX2                !
 ! A33   A(17,19,22)           109.4995         estimate D2E/DX2                !
 ! A34   A(20,19,21)           109.4436         estimate D2E/DX2                !
 ! A35   A(20,19,22)           109.446          estimate D2E/DX2                !
 ! A36   A(21,19,22)           109.4374         estimate D2E/DX2                !
 ! D1    D(1,2,5,6)              0.0063         estimate D2E/DX2                !
 ! D2    D(1,2,5,7)            179.9967         estimate D2E/DX2                !
 ! D3    D(3,2,5,6)            120.5158         estimate D2E/DX2                !
 ! D4    D(3,2,5,7)            -59.4937         estimate D2E/DX2                !
 ! D5    D(4,2,5,6)           -120.5085         estimate D2E/DX2                !
 ! D6    D(4,2,5,7)             59.482          estimate D2E/DX2                !
 ! D7    D(2,5,7,8)              0.006          estimate D2E/DX2                !
 ! D8    D(2,5,7,9)           -179.9978         estimate D2E/DX2                !
 ! D9    D(6,5,7,8)            179.9962         estimate D2E/DX2                !
 ! D10   D(6,5,7,9)             -0.0076         estimate D2E/DX2                !
 ! D11   D(5,7,9,10)           -74.9972         estimate D2E/DX2                !
 ! D12   D(5,7,9,11)            45.0054         estimate D2E/DX2                !
 ! D13   D(5,7,9,15)           165.003          Frozen                          !
 ! D14   D(8,7,9,10)           104.9991         estimate D2E/DX2                !
 ! D15   D(8,7,9,11)          -134.9983         estimate D2E/DX2                !
 ! D16   D(8,7,9,15)           -15.0007         estimate D2E/DX2                !
 ! D17   D(7,9,11,12)           60.0024         estimate D2E/DX2                !
 ! D18   D(7,9,11,13)          179.9986         estimate D2E/DX2                !
 ! D19   D(7,9,11,14)          -60.0038         estimate D2E/DX2                !
 ! D20   D(10,9,11,12)        -179.4843         estimate D2E/DX2                !
 ! D21   D(10,9,11,13)         -59.4881         estimate D2E/DX2                !
 ! D22   D(10,9,11,14)          60.5095         estimate D2E/DX2                !
 ! D23   D(15,9,11,12)         -61.938          estimate D2E/DX2                !
 ! D24   D(15,9,11,13)          58.0582         estimate D2E/DX2                !
 ! D25   D(15,9,11,14)         178.0558         estimate D2E/DX2                !
 ! D26   D(7,9,15,16)           90.0012         estimate D2E/DX2                !
 ! D27   D(7,9,15,17)          -90.0009         Frozen                          !
 ! D28   D(10,9,15,16)         -30.5099         estimate D2E/DX2                !
 ! D29   D(10,9,15,17)         149.488          estimate D2E/DX2                !
 ! D30   D(11,9,15,16)        -148.0568         estimate D2E/DX2                !
 ! D31   D(11,9,15,17)          31.9411         estimate D2E/DX2                !
 ! D32   D(9,15,17,18)           0.0048         estimate D2E/DX2                !
 ! D33   D(9,15,17,19)         179.9994         estimate D2E/DX2                !
 ! D34   D(16,15,17,18)       -179.9974         estimate D2E/DX2                !
 ! D35   D(16,15,17,19)         -0.0028         estimate D2E/DX2                !
 ! D36   D(15,17,19,20)          0.0031         estimate D2E/DX2                !
 ! D37   D(15,17,19,21)        120.005          estimate D2E/DX2                !
 ! D38   D(15,17,19,22)       -120.0018         estimate D2E/DX2                !
 ! D39   D(18,17,19,20)        179.9978         estimate D2E/DX2                !
 ! D40   D(18,17,19,21)        -60.0003         estimate D2E/DX2                !
 ! D41   D(18,17,19,22)         59.9929         estimate D2E/DX2                !
 --------------------------------------------------------------------------------
 Trust Radius=3.00D-01 FncErr=1.00D-07 GrdErr=1.00D-07
 Number of steps in this run= 108 maximum allowed number of steps= 132.
 GradGradGradGradGradGradGradGradGradGradGradGradGradGradGradGradGradGrad

                          Input orientation:                          
 ---------------------------------------------------------------------
 Center     Atomic      Atomic             Coordinates (Angstroms)
 Number     Number       Type             X           Y           Z
 ---------------------------------------------------------------------
      1          1           0        1.970200    1.060100   -0.509500
      2          6           0        1.985000    2.120300   -0.256800
      3          1           0        1.582000    2.260900    0.746200
      4          1           0        1.377200    2.673500   -0.972800
      5          6           0        3.410300    2.675400   -0.293300
      6          8           0        4.356600    1.945900   -0.581200
      7          7           0        3.555400    3.969700    0.000000
      8          1           0        2.746600    4.529000    0.230600
      9          6           0        4.853300    4.613900    0.000000
     10          1           0        5.407600    4.315500    0.889800
     11          6           0        5.661300    4.220800   -1.232200
     12          1           0        5.123300    4.521400   -2.131200
     13          1           0        6.630500    4.718900   -1.205800
     14          1           0        5.808500    3.140900   -1.241400
     15          6           0        4.712700    6.129400    0.000000
     16          8           0        4.655100    6.750500    1.059000
     17          7           0        4.657500    6.724600   -1.193700
     18          1           0        4.708800    6.171000   -2.036900
     19          6           0        4.524200    8.161300   -1.327500
     20          1           0        4.482000    8.616500   -0.338100
     21          1           0        5.381100    8.557000   -1.872700
     22          1           0        3.609100    8.392600   -1.872700
 ---------------------------------------------------------------------
                    Distance matrix (angstroms):
                    1          2          3          4          5
     1  H    0.000000
     2  C    1.090000   0.000000
     3  H    1.780282   1.090040   0.000000
     4  H    1.780268   1.090003   1.779647   0.000000
     5  C    2.174816   1.530016   2.143607   2.143646   0.000000
     6  O    2.546505   2.400029   3.091864   3.091857   1.229040
     7  N    3.352346   2.439751   2.714981   2.714964   1.335025
     8  H    3.630952   2.572825   2.601233   2.601213   2.037352
     9  C    4.604492   3.809348   4.098149   4.098141   2.434349
    10  H    4.936739   4.224664   4.344792   4.733874   2.842334
    11  C    4.912895   4.344961   4.939227   4.562339   2.887351
    12  H    4.955053   4.373509   5.092160   4.334731   3.117685
    13  H    5.965739   5.406847   5.944697   5.642261   3.921509
    14  H    4.426958   4.078016   4.752710   4.463970   2.620486
    15  C    5.786078   4.855839   5.032235   4.900525   3.703024
    16  O    6.484561   5.504500   5.449614   5.612020   4.470423
    17  N    6.306843   5.405517   5.757302   5.217334   4.331541
    18  H    5.996180   5.195769   5.728124   4.946147   4.116487
    19  C    7.590723   6.639851   6.911692   6.336037   5.692578
    20  H    7.964779   6.960045   7.069608   6.735123   6.037153
    21  H    8.348417   7.454913   7.805938   7.173326   6.400920
    22  H    7.636090   6.677618   6.968896   6.204781   5.934678
                    6          7          8          9         10
     6  O    0.000000
     7  N    2.252883   0.000000
     8  H    3.150163   1.010025   0.000000
     9  C    2.775379   1.448978   2.120983   0.000000
    10  H    2.980511   2.083739   2.749736   1.089970   0.000000
    11  C    2.702076   2.452791   3.275706   1.525027   2.139209
    12  H    3.102181   2.702720   3.350651   2.150225   3.041326
    13  H    3.640093   3.386959   4.145357   2.150214   2.459625
    14  H    1.992963   2.702673   3.669991   2.150165   2.466256
    15  C    4.238664   2.450234   2.545586   1.522008   2.136554
    16  O    5.085621   3.172329   3.043630   2.392869   2.554234
    17  N    4.827180   3.198284   3.240498   2.432758   3.272214
    18  H    4.482698   3.213256   3.418764   2.567957   3.535078
    19  C    6.262288   4.502259   4.333721   3.801922   4.526256
    20  H    6.676206   4.750332   4.476906   4.033978   4.567611
    21  H    6.813532   5.280484   5.252547   4.397001   5.061860
    22  H    6.617150   4.803325   4.482765   4.397000   5.242972
                   11         12         13         14         15
    11  C    0.000000
    12  H    1.089957   0.000000
    13  H    1.090023   1.779613   0.000000
    14  H    1.089925   1.779613   1.779617   0.000000
    15  C    2.461892   2.701161   2.668599   3.416575   0.000000
    16  O    3.558289   3.919882   3.627523   4.432988   1.229050
    17  N    2.697797   2.439255   2.813487   3.764304   1.335002
    18  H    2.314752   1.703491   2.547990   3.320191   2.037328
    19  C    4.102392   3.775411   4.037503   5.182785   2.434421
    20  H    4.638140   4.516228   4.534340   5.705940   2.520556
    21  H    4.392196   4.052080   4.091059   5.469493   3.137994
    22  H    4.693152   4.164831   4.803091   5.728547   3.137995
                   16         17         18         19         20
    16  O    0.000000
    17  N    2.252850   0.000000
    18  H    3.150127   1.009995   0.000000
    19  C    2.775405   1.449061   2.120995   0.000000
    20  H    2.337479   2.083780   2.986274   1.089908   0.000000
    21  H    3.519287   2.083825   2.484340   1.090000   1.779584
    22  H    3.519300   2.083844   2.484312   1.090023   1.779630
                   21         22
    21  H    0.000000
    22  H    1.779610   0.000000
 Stoichiometry    C6H12N2O2
 Framework group  C1[X(C6H12N2O2)]
 Deg. of freedom    60
 Full point group                 C1      NOp   1
 Largest Abelian subgroup         C1      NOp   1
 Largest concise Abelian subgroup C1      NOp   1
                         Standard orientation:                         
 ---------------------------------------------------------------------
 Center     Atomic      Atomic             Coordinates (Angstroms)
 Number     Number       Type             X           Y           Z
 ---------------------------------------------------------------------
      1          1           0        4.179322   -0.847854   -0.738014
      2          6           0        3.177998   -1.244933   -0.571344
      3          1           0        3.221379   -2.040996    0.172019
      4          1           0        2.784120   -1.642940   -1.506522
      5          6           0        2.230373   -0.155177   -0.065986
      6          8           0        2.633701    0.993680    0.101329
      7          7           0        0.970007   -0.523618    0.174888
      8          1           0        0.685649   -1.480654    0.022003
      9          6           0       -0.023353    0.415026    0.656260
     10          1           0        0.153285    0.622379    1.711646
     11          6           0        0.042522    1.728326   -0.116148
     12          1           0       -0.141521    1.538193   -1.173495
     13          1           0       -0.713957    2.413626    0.266281
     14          1           0        1.030026    2.173110    0.006073
     15          6           0       -1.429195   -0.146730    0.499586
     16          8           0       -1.941872   -0.805348    1.401776
     17          7           0       -2.052898    0.115566   -0.651252
     18          1           0       -1.589888    0.661831   -1.363507
     19          6           0       -3.393660   -0.362862   -0.921883
     20          1           0       -3.756616   -0.931822   -0.066051
     21          1           0       -4.053910    0.486002   -1.099642
     22          1           0       -3.380403   -1.003050   -1.804002
 ---------------------------------------------------------------------
 Rotational constants (GHZ):      2.6845742      0.6794426      0.6439346
 Standard basis: 6-31G(d) (6D, 7F)
 There are   174 symmetry adapted basis functions of A   symmetry.
 Integral buffers will be    131072 words long.
 Raffenetti 1 integral format.
 Two-electron integral symmetry is turned on.
   174 basis functions,   328 primitive gaussians,   174 cartesian basis functions
    39 alpha electrons       39 beta electrons
       nuclear repulsion energy       557.3837439190 Hartrees.
 NAtoms=   22 NActive=   22 NUniq=   22 SFac= 7.50D-01 NAtFMM=   80 NAOKFM=F Big=F
 One-electron integrals computed using PRISM.
 NBasis=   174 RedAO= T  NBF=   174
 NBsUse=   174 1.00D-06 NBFU=   174
 Harris functional with IExCor=  205 diagonalized for initial guess.
 ExpMin= 1.61D-01 ExpMax= 5.48D+03 ExpMxC= 8.25D+02 IAcc=1 IRadAn=         1 AccDes= 0.00D+00
 HarFok:  IExCor=  205 AccDes= 0.00D+00 IRadAn=         1 IDoV= 1
 ScaDFX=  1.000000  1.000000  1.000000  1.000000
 FoFCou: FMM=F IPFlag=           0 FMFlag=      100000 FMFlg1=           0
         NFxFlg=           0 DoJE=T BraDBF=F KetDBF=T FulRan=T
         Omega=  0.000000  0.000000  1.000000  0.000000  0.000000 ICntrl=     500 IOpCl=  0
         NMat0=    1 NMatS0=    1 NMatT0=    0 NMatD0=    1 NMtDS0=    0 NMtDT0=    0
         I1Cent=           4 NGrid=           0.
 Petite list used in FoFCou.
 Initial guess orbital symmetries:
       Occupied  (A) (A) (A) (A) (A) (A) (A) (A) (A) (A) (A) (A)
                 (A) (A) (A) (A) (A) (A) (A) (A) (A) (A) (A) (A)
                 (A) (A) (A) (A) (A) (A) (A) (A) (A) (A) (A) (A)
                 (A) (A) (A)
       Virtual   (A) (A) (A) (A) (A) (A) (A) (A) (A) (A) (A) (A)
                 (A) (A) (A) (A) (A) (A) (A) (A) (A) (A) (A) (A)
                 (A) (A) (A) (A) (A) (A) (A) (A) (A) (A) (A) (A)
                 (A) (A) (A) (A) (A) (A) (A) (A) (A) (A) (A) (A)
                 (A) (A) (A) (A) (A) (A) (A) (A) (A) (A) (A) (A)
                 (A) (A) (A) (A) (A) (A) (A) (A) (A) (A) (A) (A)
                 (A) (A) (A) (A) (A) (A) (A) (A) (A) (A) (A) (A)
                 (A) (A) (A) (A) (A) (A) (A) (A) (A) (A) (A) (A)
                 (A) (A) (A) (A) (A) (A) (A) (A) (A) (A) (A) (A)
                 (A) (A) (A) (A) (A) (A) (A) (A) (A) (A) (A) (A)
                 (A) (A) (A) (A) (A) (A) (A) (A) (A) (A) (A) (A)
                 (A) (A) (A)
 The electronic state of the initial guess is 1-A.
 Requested convergence on RMS density matrix=1.00D-08 within 128 cycles.
 Requested convergence on MAX density matrix=1.00D-06.
 Requested convergence on             energy=1.00D-06.
 No special actions if energy rises.
 Integral accuracy reduced to 1.0D-05 until final iterations.
 Initial convergence to 1.0D-05 achieved.  Increase integral accuracy.
 SCF Done:  E(RHF) =  -492.830044312     A.U. after   15 cycles
             Convg  =    0.4350D-08             -V/T =  2.0018

 **********************************************************************

            Population analysis using the SCF density.

 **********************************************************************

 Orbital symmetries:
       Occupied  (A) (A) (A) (A) (A) (A) (A) (A) (A) (A) (A) (A)
                 (A) (A) (A) (A) (A) (A) (A) (A) (A) (A) (A) (A)
                 (A) (A) (A) (A) (A) (A) (A) (A) (A) (A) (A) (A)
                 (A) (A) (A)
       Virtual   (A) (A) (A) (A) (A) (A) (A) (A) (A) (A) (A) (A)
                 (A) (A) (A) (A) (A) (A) (A) (A) (A) (A) (A) (A)
                 (A) (A) (A) (A) (A) (A) (A) (A) (A) (A) (A) (A)
                 (A) (A) (A) (A) (A) (A) (A) (A) (A) (A) (A) (A)
                 (A) (A) (A) (A) (A) (A) (A) (A) (A) (A) (A) (A)
                 (A) (A) (A) (A) (A) (A) (A) (A) (A) (A) (A) (A)
                 (A) (A) (A) (A) (A) (A) (A) (A) (A) (A) (A) (A)
                 (A) (A) (A) (A) (A) (A) (A) (A) (A) (A) (A) (A)
                 (A) (A) (A) (A) (A) (A) (A) (A) (A) (A) (A) (A)
                 (A) (A) (A) (A) (A) (A) (A) (A) (A) (A) (A) (A)
                 (A) (A) (A) (A) (A) (A) (A) (A) (A) (A) (A) (A)
                 (A) (A) (A)
 The electronic state is 1-A.
 Alpha  occ. eigenvalues --  -20.52326 -20.52191 -15.60223 -15.59751 -11.35721
 Alpha  occ. eigenvalues --  -11.35235 -11.28287 -11.26483 -11.24152 -11.21575
 Alpha  occ. eigenvalues --   -1.38510  -1.37723  -1.25151  -1.23786  -1.06417
 Alpha  occ. eigenvalues --   -0.99503  -0.95594  -0.89281  -0.80298  -0.78934
 Alpha  occ. eigenvalues --   -0.73984  -0.68716  -0.66534  -0.64047  -0.62792
 Alpha  occ. eigenvalues --   -0.62520  -0.58960  -0.58159  -0.56803  -0.56403
 Alpha  occ. eigenvalues --   -0.55244  -0.54911  -0.53158  -0.51803  -0.49886
 Alpha  occ. eigenvalues --   -0.42553  -0.40415  -0.40107  -0.38706
 Alpha virt. eigenvalues --    0.18524   0.19492   0.21436   0.22523   0.25966
 Alpha virt. eigenvalues --    0.27220   0.27852   0.29928   0.31213   0.31353
 Alpha virt. eigenvalues --    0.31942   0.32767   0.35516   0.36236   0.37454
 Alpha virt. eigenvalues --    0.39738   0.40578   0.44281   0.45502   0.51540
 Alpha virt. eigenvalues --    0.52976   0.57676   0.63371   0.71414   0.71840
 Alpha virt. eigenvalues --    0.72929   0.74302   0.75170   0.76313   0.79045
 Alpha virt. eigenvalues --    0.80156   0.82899   0.84222   0.86615   0.90047
 Alpha virt. eigenvalues --    0.92018   0.92782   0.94567   0.96118   0.98444
 Alpha virt. eigenvalues --    0.99480   1.00629   1.06313   1.07297   1.08241
 Alpha virt. eigenvalues --    1.11231   1.12393   1.13762   1.14580   1.14903
 Alpha virt. eigenvalues --    1.15871   1.17122   1.18575   1.18897   1.19926
 Alpha virt. eigenvalues --    1.20886   1.21918   1.22905   1.26767   1.28538
 Alpha virt. eigenvalues --    1.31698   1.35647   1.36337   1.38407   1.40532
 Alpha virt. eigenvalues --    1.46457   1.52487   1.57258   1.58449   1.61625
 Alpha virt. eigenvalues --    1.64808   1.66647   1.69123   1.71341   1.76853
 Alpha virt. eigenvalues --    1.79788   1.81037   1.86486   1.90533   1.95526
 Alpha virt. eigenvalues --    2.03988   2.04655   2.07893   2.11553   2.12159
 Alpha virt. eigenvalues --    2.13979   2.14775   2.18165   2.20818   2.21029
 Alpha virt. eigenvalues --    2.22549   2.23422   2.29729   2.31793   2.34192
 Alpha virt. eigenvalues --    2.36590   2.37543   2.40914   2.45013   2.50311
 Alpha virt. eigenvalues --    2.50872   2.57844   2.60029   2.61788   2.63618
 Alpha virt. eigenvalues --    2.64426   2.67673   2.70919   2.72923   2.73759
 Alpha virt. eigenvalues --    2.76324   2.79323   2.84196   2.96606   2.98057
 Alpha virt. eigenvalues --    3.01456   3.03577   3.07350   3.09816   3.25314
 Alpha virt. eigenvalues --    3.29869   3.35376   3.36960   3.52912   3.57928
 Alpha virt. eigenvalues --    4.37602   4.41725   4.46059   4.56905   4.62111
 Alpha virt. eigenvalues --    4.66080   4.73826   4.77865   4.88711   5.10965
          Condensed to atoms (all electrons):
              1          2          3          4          5          6
     1  H    0.452585   0.385593  -0.018097  -0.018550  -0.030207   0.003549
     2  C    0.385593   5.249835   0.375230   0.373986   0.376440  -0.066163
     3  H   -0.018097   0.375230   0.506777  -0.023971  -0.034726   0.001164
     4  H   -0.018550   0.373986  -0.023971   0.517460  -0.036155   0.001172
     5  C   -0.030207   0.376440  -0.034726  -0.036155   4.188243   0.585652
     6  O    0.003549  -0.066163   0.001164   0.001172   0.585652   8.226322
     7  N    0.003794  -0.121637   0.003524   0.003842   0.251519  -0.105182
     8  H   -0.000008  -0.001095   0.000615   0.000489  -0.019703   0.002326
     9  C   -0.000071   0.003817  -0.000217  -0.000046  -0.030381   0.012426
    10  H    0.000001  -0.000082   0.000006  -0.000001  -0.001719   0.001416
    11  C    0.000007  -0.000584   0.000012   0.000012  -0.007441  -0.032449
    12  H    0.000001  -0.000088   0.000000   0.000006   0.000361  -0.000322
    13  H    0.000000   0.000011   0.000000  -0.000001   0.000481   0.000845
    14  H    0.000005   0.000335  -0.000010  -0.000012  -0.002285   0.008107
    15  C    0.000000  -0.000010  -0.000014   0.000001   0.004134   0.000440
    16  O    0.000000  -0.000001   0.000000   0.000000  -0.000103   0.000000
    17  N    0.000000  -0.000001   0.000000   0.000000  -0.000282  -0.000002
    18  H    0.000000   0.000002   0.000000   0.000000   0.000013   0.000001
    19  C    0.000000   0.000000   0.000000   0.000000   0.000004   0.000000
    20  H    0.000000   0.000000   0.000000   0.000000   0.000000   0.000000
    21  H    0.000000   0.000000   0.000000   0.000000   0.000000   0.000000
    22  H    0.000000   0.000000   0.000000   0.000000   0.000000   0.000000
              7          8          9         10         11         12
     1  H    0.003794  -0.000008  -0.000071   0.000001   0.000007   0.000001
     2  C   -0.121637  -0.001095   0.003817  -0.000082  -0.000584  -0.000088
     3  H    0.003524   0.000615  -0.000217   0.000006   0.000012   0.000000
     4  H    0.003842   0.000489  -0.000046  -0.000001   0.000012   0.000006
     5  C    0.251519  -0.019703  -0.030381  -0.001719  -0.007441   0.000361
     6  O   -0.105182   0.002326   0.012426   0.001416  -0.032449  -0.000322
     7  N    7.417217   0.322247   0.165538  -0.042329  -0.059100   0.000731
     8  H    0.322247   0.315013  -0.026020   0.001763   0.003790  -0.000048
     9  C    0.165538  -0.026020   5.029153   0.411816   0.327833  -0.040146
    10  H   -0.042329   0.001763   0.411816   0.477641  -0.042998   0.004610
    11  C   -0.059100   0.003790   0.327833  -0.042998   5.278238   0.373948
    12  H    0.000731  -0.000048  -0.040146   0.004610   0.373948   0.588735
    13  H    0.004263  -0.000079  -0.043707  -0.000725   0.384158  -0.028398
    14  H   -0.002723  -0.000187  -0.024529  -0.003116   0.384984  -0.019000
    15  C   -0.033074  -0.003459   0.378683  -0.038058  -0.065678  -0.008845
    16  O    0.000376   0.002138  -0.071495   0.002850   0.002443  -0.000075
    17  N    0.001927   0.001352  -0.110901   0.003469  -0.007020  -0.005948
    18  H    0.000665  -0.000014  -0.001776   0.000111  -0.001866   0.007338
    19  C   -0.000159  -0.000035   0.004033  -0.000065   0.000105   0.000416
    20  H   -0.000011  -0.000010   0.000562  -0.000011  -0.000071  -0.000014
    21  H   -0.000001   0.000001  -0.000013   0.000006  -0.000054   0.000038
    22  H    0.000020  -0.000002  -0.000179   0.000000   0.000017  -0.000016
             13         14         15         16         17         18
     1  H    0.000000   0.000005   0.000000   0.000000   0.000000   0.000000
     2  C    0.000011   0.000335  -0.000010  -0.000001  -0.000001   0.000002
     3  H    0.000000  -0.000010  -0.000014   0.000000   0.000000   0.000000
     4  H   -0.000001  -0.000012   0.000001   0.000000   0.000000   0.000000
     5  C    0.000481  -0.002285   0.004134  -0.000103  -0.000282   0.000013
     6  O    0.000845   0.008107   0.000440   0.000000  -0.000002   0.000001
     7  N    0.004263  -0.002723  -0.033074   0.000376   0.001927   0.000665
     8  H   -0.000079  -0.000187  -0.003459   0.002138   0.001352  -0.000014
     9  C   -0.043707  -0.024529   0.378683  -0.071495  -0.110901  -0.001776
    10  H   -0.000725  -0.003116  -0.038058   0.002850   0.003469   0.000111
    11  C    0.384158   0.384984  -0.065678   0.002443  -0.007020  -0.001866
    12  H   -0.028398  -0.019000  -0.008845  -0.000075  -0.005948   0.007338
    13  H    0.530925  -0.017128   0.000007   0.000099  -0.001356  -0.000464
    14  H   -0.017128   0.398109   0.003349  -0.000058   0.000354   0.000009
    15  C    0.000007   0.003349   4.203261   0.591574   0.276409  -0.016441
    16  O    0.000099  -0.000058   0.591574   8.201680  -0.101514   0.002431
    17  N   -0.001356   0.000354   0.276409  -0.101514   7.355687   0.316514
    18  H   -0.000464   0.000009  -0.016441   0.002431   0.316514   0.308870
    19  C   -0.000167   0.000002  -0.026760  -0.005060   0.187406  -0.021425
    20  H   -0.000004   0.000001  -0.001608   0.010777  -0.032445   0.002237
    21  H    0.000026  -0.000001   0.000962   0.000407  -0.048200  -0.000650
    22  H    0.000001   0.000000   0.001040   0.000410  -0.047273  -0.001360
             19         20         21         22
     1  H    0.000000   0.000000   0.000000   0.000000
     2  C    0.000000   0.000000   0.000000   0.000000
     3  H    0.000000   0.000000   0.000000   0.000000
     4  H    0.000000   0.000000   0.000000   0.000000
     5  C    0.000004   0.000000   0.000000   0.000000
     6  O    0.000000   0.000000   0.000000   0.000000
     7  N   -0.000159  -0.000011  -0.000001   0.000020
     8  H   -0.000035  -0.000010   0.000001  -0.000002
     9  C    0.004033   0.000562  -0.000013  -0.000179
    10  H   -0.000065  -0.000011   0.000006   0.000000
    11  C    0.000105  -0.000071  -0.000054   0.000017
    12  H    0.000416  -0.000014   0.000038  -0.000016
    13  H   -0.000167  -0.000004   0.000026   0.000001
    14  H    0.000002   0.000001  -0.000001   0.000000
    15  C   -0.026760  -0.001608   0.000962   0.001040
    16  O   -0.005060   0.010777   0.000407   0.000410
    17  N    0.187406  -0.032445  -0.048200  -0.047273
    18  H   -0.021425   0.002237  -0.000650  -0.001360
    19  C    4.952058   0.396538   0.403685   0.401461
    20  H    0.396538   0.431979  -0.022420  -0.022451
    21  H    0.403685  -0.022420   0.528794  -0.036281
    22  H    0.401461  -0.022451  -0.036281   0.536162
 Mulliken atomic charges:
              1
     1  H    0.221397
     2  C   -0.575586
     3  H    0.189706
     4  H    0.181769
     5  C    0.756156
     6  O   -0.639304
     7  N   -0.811446
     8  H    0.400927
     9  C    0.015619
    10  H    0.225413
    11  C   -0.538287
    12  H    0.126715
    13  H    0.171214
    14  H    0.273795
    15  C    0.734086
    16  O   -0.636877
    17  N   -0.788175
    18  H    0.405807
    19  C   -0.292037
    20  H    0.236952
    21  H    0.173703
    22  H    0.168451
 Sum of Mulliken atomic charges =   0.00000
 Mulliken charges with hydrogens summed into heavy atoms:
              1
     2  C    0.017286
     5  C    0.756156
     6  O   -0.639304
     7  N   -0.410518
     9  C    0.241033
    11  C    0.033437
    15  C    0.734086
    16  O   -0.636877
    17  N   -0.382368
    19  C    0.287069
 Sum of Mulliken charges with hydrogens summed into heavy atoms =   0.00000
 Electronic spatial extent (au):  <R**2>=           1887.2752
 Charge=              0.0000 electrons
 Dipole moment (field-independent basis, Debye):
    X=             -0.8885    Y=             -1.4675    Z=             -3.7661  Tot=              4.1384
 Quadrupole moment (field-independent basis, Debye-Ang):
   XX=            -63.8701   YY=            -60.7050   ZZ=            -62.3741
   XY=            -11.6121   XZ=              6.3414   YZ=              2.9835
 Traceless Quadrupole moment (field-independent basis, Debye-Ang):
   XX=             -1.5537   YY=              1.6114   ZZ=             -0.0577
   XY=            -11.6121   XZ=              6.3414   YZ=              2.9835
 Octapole moment (field-independent basis, Debye-Ang**2):
  XXX=            -22.7883  YYY=             -6.1199  ZZZ=             -7.4443  XYY=             -1.5541
  XXY=            -20.6071  XXZ=            -22.0159  XZZ=              6.4976  YZZ=              5.9401
  YYZ=             -1.3031  XYZ=             -4.9286
 Hexadecapole moment (field-independent basis, Debye-Ang**3):
 XXXX=          -1737.6176 YYYY=           -378.0524 ZZZZ=           -252.9011 XXXY=            -56.6059
 XXXZ=             19.6274 YYYX=             -0.4111 YYYZ=              0.0081 ZZZX=             17.4921
 ZZZY=              5.1147 XXYY=           -378.0111 XXZZ=           -350.9618 YYZZ=           -107.3759
 XXYZ=              7.5498 YYXZ=              5.5167 ZZXY=             -8.1013
 N-N= 5.573837439190D+02 E-N=-2.269824335738D+03  KE= 4.919336230829D+02
 Calling FoFJK, ICntrl=      2127 FMM=F ISym2X=0 I1Cent= 0 IOpClX= 0 NMat=1 NMatS=1 NMatT=0.
 ***** Axes restored to original set *****
 -------------------------------------------------------------------
 Center     Atomic                   Forces (Hartrees/Bohr)
 Number     Number              X              Y              Z
 -------------------------------------------------------------------
      1        1           0.004268074    0.008436100    0.001497879
      2        6           0.005621966    0.007755414    0.001074584
      3        1          -0.002491642   -0.000663039   -0.004498148
      4        1          -0.001815295   -0.002673417    0.004067079
      5        6           0.019274935   -0.051837960   -0.012667293
      6        8          -0.038807545    0.016956467    0.016279753
      7        7          -0.014870195    0.023704290    0.001116338
      8        1           0.010707576   -0.010556217   -0.000590489
      9        6           0.016756079   -0.004439957   -0.009930176
     10        1          -0.004274969    0.006627445   -0.002317277
     11        6           0.012946192   -0.014548390   -0.002175087
     12        1           0.006321715   -0.010975589    0.000640672
     13        1          -0.003848457    0.000214648   -0.002103398
     14        1           0.002331013    0.015867561   -0.004809730
     15        6          -0.006915110    0.019135884    0.051133626
     16        8           0.000734050   -0.021308865   -0.034094084
     17        7          -0.004168234    0.002940435   -0.014264335
     18        1          -0.001409837    0.014791273    0.017457130
     19        6          -0.000598381    0.003144472   -0.001142711
     20        1           0.000590905   -0.005543243   -0.008509433
     21        1          -0.004497158    0.000951637    0.001970379
     22        1           0.004144318    0.002021052    0.001864722
 -------------------------------------------------------------------
 Cartesian Forces:  Max     0.051837960 RMS     0.014250682

 GradGradGradGradGradGradGradGradGradGradGradGradGradGradGradGradGradGrad
 Berny optimization.
 Internal  Forces:  Max     0.044637735 RMS     0.012449225
 Search for a local minimum.
 Step number   1 out of a maximum of  108
 All quantities printed in internal units (Hartrees-Bohrs-Radians)
 Mixed Optimization -- RFO/linear search
 Second derivative matrix not updated -- first step.
     Eigenvalues ---    0.00369   0.00435   0.00999   0.01043   0.01269
     Eigenvalues ---    0.01422   0.01660   0.02551   0.02552   0.03503
     Eigenvalues ---    0.05232   0.05841   0.05844   0.05844   0.07165
     Eigenvalues ---    0.07463   0.07685   0.07685   0.15421   0.16000
     Eigenvalues ---    0.16000   0.16000   0.16000   0.16000   0.16000
     Eigenvalues ---    0.16000   0.16000   0.16000   0.16000   0.16000
     Eigenvalues ---    0.16180   0.22000   0.22000   0.25000   0.25000
     Eigenvalues ---    0.25000   0.25000   0.29422   0.29887   0.30174
     Eigenvalues ---    0.34808   0.34810   0.34810   0.34812   0.34813
     Eigenvalues ---    0.34813   0.34816   0.34818   0.34821   0.34823
     Eigenvalues ---    0.38368   0.38379   0.45968   0.45973   0.58334
     Eigenvalues ---    0.58340   0.91483   0.914871000.000001000.00000
     Eigenvalues --- 1000.000001000.000001000.000001000.000001000.00000
     Eigenvalues --- 1000.000001000.000001000.000001000.000001000.00000
     Eigenvalues --- 1000.000001000.000001000.000001000.000001000.00000
     Eigenvalues --- 1000.000001000.000001000.000001000.000001000.00000
     Eigenvalues --- 1000.000001000.000001000.000001000.000001000.00000
     Eigenvalues --- 1000.000001000.000001000.000001000.000001000.00000
     Eigenvalues --- 1000.000001000.000001000.000001000.000001000.00000
     Eigenvalues --- 1000.000001000.000001000.00000
 RFO step:  Lambda=-4.43883323D-02 EMin= 3.68895939D-03
 Linear search not attempted -- first point.
 Maximum step size (   0.300) exceeded in Quadratic search.
    -- Step size scaled by   0.638
 Iteration  1 RMS(Cart)=  0.17700367 RMS(Int)=  0.00628510
 Iteration  2 RMS(Cart)=  0.01477042 RMS(Int)=  0.00050113
 Iteration  3 RMS(Cart)=  0.00005209 RMS(Int)=  0.00050088
 Iteration  4 RMS(Cart)=  0.00000002 RMS(Int)=  0.00050088
 Iteration  1 RMS(Cart)=  0.00035438 RMS(Int)=  0.00012232
 Iteration  2 RMS(Cart)=  0.00019100 RMS(Int)=  0.00013661
 Iteration  3 RMS(Cart)=  0.00010333 RMS(Int)=  0.00015414
 Iteration  4 RMS(Cart)=  0.00005621 RMS(Int)=  0.00016566
 Iteration  5 RMS(Cart)=  0.00003083 RMS(Int)=  0.00017243
 Iteration  6 RMS(Cart)=  0.00001710 RMS(Int)=  0.00017628
 Iteration  7 RMS(Cart)=  0.00000963 RMS(Int)=  0.00017845
 Iteration  8 RMS(Cart)=  0.00000553 RMS(Int)=  0.00017967
 Iteration  9 RMS(Cart)=  0.00000325 RMS(Int)=  0.00018036
 Iteration 10 RMS(Cart)=  0.00000195 RMS(Int)=  0.00018075
 Iteration 11 RMS(Cart)=  0.00000120 RMS(Int)=  0.00018098
 Iteration 12 RMS(Cart)=  0.00000076 RMS(Int)=  0.00018111
 Variable       Old X    -DE/DX   Delta X   Delta X   Delta X     New X
                                 (Linear)    (Quad)   (Total)
    R1        2.05980  -0.00861   0.00000  -0.01399  -0.01399   2.04582
    R2        2.05988  -0.00330   0.00000  -0.00537  -0.00537   2.05451
    R3        2.05981  -0.00302   0.00000  -0.00490  -0.00490   2.05491
    R4        2.89131  -0.00981   0.00000  -0.01848  -0.01848   2.87283
    R5        2.32255  -0.04376   0.00000  -0.02908  -0.02908   2.29347
    R6        2.52283   0.02161   0.00000   0.02195   0.02195   2.54478
    R7        1.90867  -0.01455   0.00000  -0.01841  -0.01841   1.89026
    R8        2.73817   0.02017   0.00000   0.03004   0.03004   2.76821
    R9        2.05975  -0.00588   0.00000  -0.00955  -0.00955   2.05019
   R10        2.88188   0.01866   0.00000   0.03467   0.03467   2.91655
   R11        2.87618   0.01718   0.00000   0.03165   0.03165   2.90783
   R12        2.05972  -0.00668   0.00000  -0.01084  -0.01084   2.04888
   R13        2.05984  -0.00337   0.00000  -0.00548  -0.00548   2.05436
   R14        2.05966  -0.01537   0.00000  -0.02495  -0.02495   2.03471
   R15        2.32257  -0.04018   0.00000  -0.02671  -0.02671   2.29586
   R16        2.52279   0.01075   0.00000   0.01092   0.01092   2.53371
   R17        1.90861  -0.02275   0.00000  -0.02878  -0.02878   1.87984
   R18        2.73833   0.00114   0.00000   0.00170   0.00170   2.74003
   R19        2.05963  -0.01006   0.00000  -0.01634  -0.01634   2.04329
   R20        2.05980  -0.00418   0.00000  -0.00678  -0.00678   2.05302
   R21        2.05985  -0.00398   0.00000  -0.00647  -0.00647   2.05338
    A1        1.91109   0.00053   0.00000   0.00064   0.00074   1.91183
    A2        1.91111   0.00043   0.00000   0.00056   0.00067   1.91179
    A3        1.93907  -0.00813   0.00000  -0.02627  -0.02616   1.91291
    A4        1.91008  -0.00461   0.00000  -0.01249  -0.01271   1.89736
    A5        1.89606   0.00571   0.00000   0.01818   0.01812   1.91418
    A6        1.89615   0.00612   0.00000   0.01958   0.01952   1.91568
    A7        2.10307  -0.00244   0.00000  -0.00529  -0.00543   2.09764
    A8        2.03504  -0.01716   0.00000  -0.03717  -0.03732   1.99772
    A9        2.14507   0.01961   0.00000   0.04247   0.04231   2.18738
   A10        2.09437  -0.02444   0.00000  -0.06043  -0.06058   2.03380
   A11        2.12749   0.04464   0.00000   0.10765   0.10749   2.23498
   A12        2.06132  -0.02020   0.00000  -0.04721  -0.04738   2.01394
   A13        1.91114   0.00331   0.00000   0.00871   0.00657   1.91771
   A14        1.93905   0.01760   0.00000   0.06013   0.06156   2.00061
   A15        1.93900  -0.02788   0.00000  -0.07465  -0.07680   1.86221
   A16        1.89609  -0.00989   0.00000  -0.02074  -0.02067   1.87543
   A17        1.89608  -0.00638   0.00000  -0.02353  -0.02440   1.87168
   A18        1.88137   0.02320   0.00000   0.04959   0.05121   1.93258
   A19        1.91115   0.01080   0.00000   0.03446   0.03425   1.94540
   A20        1.91106  -0.00182   0.00000  -0.00529  -0.00530   1.90577
   A21        1.91110   0.00715   0.00000   0.02115   0.02098   1.93207
   A22        1.91011  -0.00355   0.00000  -0.00875  -0.00880   1.90131
   A23        1.91023  -0.00931   0.00000  -0.02984  -0.03020   1.88003
   A24        1.91015  -0.00329   0.00000  -0.01179  -0.01175   1.89840
   A25        2.10310  -0.01409   0.00000  -0.03052  -0.03067   2.07242
   A26        2.03505   0.02577   0.00000   0.05581   0.05567   2.09072
   A27        2.14504  -0.01168   0.00000  -0.02530  -0.02543   2.11960
   A28        2.09441   0.00113   0.00000   0.00462   0.00462   2.09903
   A29        2.12752   0.00307   0.00000   0.00740   0.00740   2.13492
   A30        2.06126  -0.00420   0.00000  -0.01202  -0.01202   2.04923
   A31        1.91116  -0.00370   0.00000  -0.01238  -0.01235   1.89881
   A32        1.91113   0.00378   0.00000   0.01214   0.01210   1.92322
   A33        1.91113   0.00423   0.00000   0.01367   0.01364   1.92476
   A34        1.91015  -0.00061   0.00000  -0.00290  -0.00287   1.90728
   A35        1.91019  -0.00065   0.00000  -0.00270  -0.00266   1.90753
   A36        1.91004  -0.00304   0.00000  -0.00784  -0.00795   1.90209
    D1        0.00011  -0.00137   0.00000  -0.01566  -0.01546  -0.01535
    D2        3.14154   0.00141   0.00000   0.01546   0.01525  -3.12640
    D3        2.10340  -0.00206   0.00000  -0.01937  -0.01929   2.08411
    D4       -1.03836   0.00072   0.00000   0.01175   0.01141  -1.02695
    D5       -2.10327  -0.00083   0.00000  -0.01276  -0.01241  -2.11568
    D6        1.03816   0.00196   0.00000   0.01837   0.01829   1.05645
    D7        0.00010   0.00472   0.00000  -0.00036  -0.00039  -0.00028
    D8       -3.14155  -0.00031   0.00000   0.03474   0.03418  -3.10738
    D9        3.14153   0.00758   0.00000   0.03158   0.03214  -3.10952
   D10       -0.00013   0.00255   0.00000   0.06668   0.06670   0.06657
   D11       -1.30895  -0.00074   0.00000  -0.07077  -0.07084  -1.37979
   D12        0.78549   0.00022   0.00000  -0.05293  -0.05163   0.73386
   D13        2.87985   0.02265   0.00000   0.00000   0.00000   2.87985
   D14        1.83258  -0.00568   0.00000  -0.03631  -0.03661   1.79597
   D15       -2.35616  -0.00472   0.00000  -0.01847  -0.01740  -2.37357
   D16       -0.26181   0.01771   0.00000   0.03446   0.03423  -0.22758
   D17        1.04724  -0.00850   0.00000  -0.05260  -0.05142   0.99582
   D18        3.14157  -0.00735   0.00000  -0.04543  -0.04431   3.09726
   D19       -1.04726  -0.00811   0.00000  -0.05014  -0.04916  -1.09642
   D20       -3.13259   0.00008   0.00000  -0.01802  -0.01806   3.13253
   D21       -1.03826   0.00124   0.00000  -0.01085  -0.01095  -1.04921
   D22        1.05609   0.00048   0.00000  -0.01557  -0.01580   1.04029
   D23       -1.08102  -0.00008   0.00000  -0.02989  -0.03077  -1.11180
   D24        1.01331   0.00108   0.00000  -0.02272  -0.02366   0.98964
   D25        3.10766   0.00031   0.00000  -0.02743  -0.02851   3.07915
   D26        1.57082  -0.01234   0.00000  -0.03220  -0.03156   1.53926
   D27       -1.57081  -0.00991   0.00000   0.00000   0.00000  -1.57081
   D28       -0.53250   0.00494   0.00000   0.01844   0.01763  -0.51487
   D29        2.60906   0.00737   0.00000   0.05063   0.04919   2.65825
   D30       -2.58408   0.00738   0.00000   0.02850   0.02804  -2.55603
   D31        0.55748   0.00981   0.00000   0.06069   0.05961   0.61708
   D32        0.00008  -0.00125   0.00000  -0.01654  -0.01624  -0.01615
   D33        3.14158  -0.00134   0.00000  -0.01744  -0.01714   3.12444
   D34       -3.14155   0.00124   0.00000   0.01650   0.01620  -3.12535
   D35       -0.00005   0.00115   0.00000   0.01560   0.01529   0.01524
   D36        0.00005   0.00013   0.00000   0.00101   0.00100   0.00106
   D37        2.09448  -0.00057   0.00000  -0.00270  -0.00276   2.09172
   D38       -2.09443   0.00061   0.00000   0.00353   0.00359  -2.09084
   D39        3.14155   0.00005   0.00000   0.00012   0.00012  -3.14151
   D40       -1.04720  -0.00066   0.00000  -0.00358  -0.00364  -1.05084
   D41        1.04707   0.00053   0.00000   0.00264   0.00271   1.04978
         Item               Value     Threshold  Converged?
 Maximum Force            0.044638     0.000450     NO 
 RMS     Force            0.012004     0.000300     NO 
 Maximum Displacement     0.584694     0.001800     NO 
 RMS     Displacement     0.183131     0.001200     NO 
 Predicted change in Energy=-2.124760D-02
 GradGradGradGradGradGradGradGradGradGradGradGradGradGradGradGradGradGrad

                          Input orientation:                          
 ---------------------------------------------------------------------
 Center     Atomic      Atomic             Coordinates (Angstroms)
 Number     Number       Type             X           Y           Z
 ---------------------------------------------------------------------
      1          1           0        1.749752    1.235887   -0.454040
      2          6           0        1.894359    2.287839   -0.243077
      3          1           0        1.507493    2.516711    0.746850
      4          1           0        1.353814    2.883192   -0.975079
      5          6           0        3.376430    2.620994   -0.303029
      6          8           0        4.188167    1.751289   -0.543118
      7          7           0        3.669910    3.907877   -0.036132
      8          1           0        2.897444    4.508456    0.171634
      9          6           0        4.983568    4.555936   -0.049362
     10          1           0        5.519253    4.322511    0.864749
     11          6           0        5.888425    4.151303   -1.232368
     12          1           0        5.409079    4.349674   -2.184422
     13          1           0        6.817051    4.714184   -1.180857
     14          1           0        6.117907    3.100030   -1.193790
     15          6           0        4.727950    6.073308   -0.053331
     16          8           0        4.606413    6.648045    1.010121
     17          7           0        4.607878    6.725534   -1.218611
     18          1           0        4.697060    6.234847   -2.079329
     19          6           0        4.346027    8.150045   -1.286326
     20          1           0        4.275699    8.539516   -0.280100
     21          1           0        5.152330    8.655024   -1.810883
     22          1           0        3.412291    8.336895   -1.809701
 ---------------------------------------------------------------------
                    Distance matrix (angstroms):
                    1          2          3          4          5
     1  H    0.000000
     2  C    1.082599   0.000000
     3  H    1.772382   1.087200   0.000000
     4  H    1.772530   1.087411   1.767192   0.000000
     5  C    2.141823   1.520237   2.146170   2.147411   0.000000
     6  O    2.493881   2.374756   3.071791   3.082426   1.213650
     7  N    3.316804   2.412454   2.687835   2.701093   1.346638
     8  H    3.523972   2.471701   2.495975   2.517782   2.004307
     9  C    4.652317   3.837317   4.107979   4.102455   2.528090
    10  H    5.047335   4.301980   4.401027   4.775719   2.974989
    11  C    5.121920   4.517052   5.077575   4.715612   3.084743
    12  H    5.106914   4.513673   5.212915   4.478644   3.264910
    13  H    6.189049   5.567717   6.061052   5.765573   4.121880
    14  H    4.806562   4.404755   5.036096   4.774037   2.922093
    15  C    5.694811   4.732337   4.864259   4.734052   3.715835
    16  O    6.292515   5.285560   5.171126   5.356729   4.410711
    17  N    6.236159   5.292258   5.584767   5.041015   4.382010
    18  H    6.026424   5.177434   5.655543   4.861095   4.237835
    19  C    7.432289   6.439294   6.627635   6.065472   5.698895
    20  H    7.730050   6.689964   6.707591   6.404249   5.986495
    21  H    8.274186   7.322120   7.583253   6.959981   6.468150
    22  H    7.417963   6.430358   6.636171   5.888701   5.911250
                    6          7          8          9         10
     6  O    0.000000
     7  N    2.275192   0.000000
     8  H    3.127108   1.000283   0.000000
     9  C    2.956772   1.464872   2.098334   0.000000
    10  H    3.219482   2.098470   2.718247   1.084916   0.000000
    11  C    3.020929   2.532202   3.323364   1.543372   2.136235
    12  H    3.306979   2.799115   3.447393   2.186798   3.051282
    13  H    4.012042   3.444564   4.151490   2.160320   2.454015
    14  H    2.442616   2.825858   3.770865   2.171658   2.467879
    15  C    4.383047   2.410152   2.418702   1.538758   2.129394
    16  O    5.154193   3.078994   2.863822   2.375221   2.502502
    17  N    5.037416   3.196440   3.126307   2.493080   3.308400
    18  H    4.766677   3.262588   3.359445   2.649830   3.605638
    19  C    6.443707   4.473937   4.181532   3.854110   4.544623
    20  H    6.793885   4.677455   4.284051   4.052559   4.543153
    21  H    7.085083   5.280409   5.119463   4.464747   5.105321
    22  H    6.751031   4.777878   4.341394   4.456834   5.263768
                   11         12         13         14         15
    11  C    0.000000
    12  H    1.084219   0.000000
    13  H    1.087122   1.767030   0.000000
    14  H    1.076720   1.745108   1.759108   0.000000
    15  C    2.535929   2.824252   2.735485   3.474624   0.000000
    16  O    3.592497   4.016452   3.664304   4.441875   1.214917
    17  N    2.875180   2.686899   2.987876   3.927478   1.340781
    18  H    2.545162   2.017893   2.759353   3.553880   2.032663
    19  C    4.286238   4.047156   4.233465   5.352641   2.445195
    20  H    4.771175   4.739807   4.680064   5.815201   2.517566
    21  H    4.600002   4.329144   4.324170   5.671957   3.151880
    22  H    4.897319   4.474987   5.011175   5.926590   3.152717
                   16         17         18         19         20
    16  O    0.000000
    17  N    2.230079   0.000000
    18  H    3.118277   0.994767   0.000000
    19  C    2.756352   1.449959   2.102393   0.000000
    20  H    2.313375   2.069221   2.954026   1.081261   0.000000
    21  H    3.504861   2.090489   2.477214   1.086411   1.767801
    22  H    3.497076   2.091722   2.478293   1.086599   1.768109
                   21         22
    21  H    0.000000
    22  H    1.768882   0.000000
 Stoichiometry    C6H12N2O2
 Framework group  C1[X(C6H12N2O2)]
 Deg. of freedom    60
 Full point group                 C1      NOp   1
 Largest Abelian subgroup         C1      NOp   1
 Largest concise Abelian subgroup C1      NOp   1
                         Standard orientation:                         
 ---------------------------------------------------------------------
 Center     Atomic      Atomic             Coordinates (Angstroms)
 Number     Number       Type             X           Y           Z
 ---------------------------------------------------------------------
      1          1           0        4.024447   -1.263663   -0.631333
      2          6           0        2.990153   -1.487918   -0.403376
      3          1           0        2.943729   -2.169416    0.442443
      4          1           0        2.523780   -1.965230   -1.261939
      5          6           0        2.251958   -0.202458   -0.066062
      6          8           0        2.841881    0.858172   -0.066714
      7          7           0        0.954588   -0.371700    0.252724
      8          1           0        0.609315   -1.310363    0.236460
      9          6           0       -0.034983    0.655887    0.585388
     10          1           0        0.097961    0.977036    1.613120
     11          6           0        0.022096    1.915696   -0.304343
     12          1           0       -0.095528    1.666463   -1.352951
     13          1           0       -0.773815    2.596055   -0.011988
     14          1           0        0.967167    2.419046   -0.191186
     15          6           0       -1.416886   -0.014519    0.492237
     16          8           0       -1.864114   -0.570188    1.475722
     17          7           0       -2.083712   -0.007280   -0.670942
     18          1           0       -1.694731    0.441326   -1.469070
     19          6           0       -3.379077   -0.640050   -0.825904
     20          1           0       -3.666937   -1.080322    0.118777
     21          1           0       -4.122735    0.095147   -1.120432
     22          1           0       -3.330481   -1.416908   -1.584078
 ---------------------------------------------------------------------
 Rotational constants (GHZ):      2.4696192      0.6840537      0.6334516
 Standard basis: 6-31G(d) (6D, 7F)
 There are   174 symmetry adapted basis functions of A   symmetry.
 Integral buffers will be    131072 words long.
 Raffenetti 1 integral format.
 Two-electron integral symmetry is turned on.
   174 basis functions,   328 primitive gaussians,   174 cartesian basis functions
    39 alpha electrons       39 beta electrons
       nuclear repulsion energy       552.5798790938 Hartrees.
 NAtoms=   22 NActive=   22 NUniq=   22 SFac= 7.50D-01 NAtFMM=   80 NAOKFM=F Big=F
 One-electron integrals computed using PRISM.
 NBasis=   174 RedAO= T  NBF=   174
 NBsUse=   174 1.00D-06 NBFU=   174
 Initial guess read from the read-write file.
 B after Tr=     0.000000    0.000000    0.000000
         Rot=    1.000000    0.000000    0.000000    0.000000 Ang=   0.00 deg.
 Initial guess orbital symmetries:
       Occupied  (A) (A) (A) (A) (A) (A) (A) (A) (A) (A) (A) (A)
                 (A) (A) (A) (A) (A) (A) (A) (A) (A) (A) (A) (A)
                 (A) (A) (A) (A) (A) (A) (A) (A) (A) (A) (A) (A)
                 (A) (A) (A)
       Virtual   (A) (A) (A) (A) (A) (A) (A) (A) (A) (A) (A) (A)
                 (A) (A) (A) (A) (A) (A) (A) (A) (A) (A) (A) (A)
                 (A) (A) (A) (A) (A) (A) (A) (A) (A) (A) (A) (A)
                 (A) (A) (A) (A) (A) (A) (A) (A) (A) (A) (A) (A)
                 (A) (A) (A) (A) (A) (A) (A) (A) (A) (A) (A) (A)
                 (A) (A) (A) (A) (A) (A) (A) (A) (A) (A) (A) (A)
                 (A) (A) (A) (A) (A) (A) (A) (A) (A) (A) (A) (A)
                 (A) (A) (A) (A) (A) (A) (A) (A) (A) (A) (A) (A)
                 (A) (A) (A) (A) (A) (A) (A) (A) (A) (A) (A) (A)
                 (A) (A) (A) (A) (A) (A) (A) (A) (A) (A) (A) (A)
                 (A) (A) (A) (A) (A) (A) (A) (A) (A) (A) (A) (A)
                 (A) (A) (A)
 Harris functional with IExCor=  205 diagonalized for initial guess.
 ExpMin= 1.61D-01 ExpMax= 5.48D+03 ExpMxC= 8.25D+02 IAcc=1 IRadAn=         1 AccDes= 0.00D+00
 HarFok:  IExCor=  205 AccDes= 0.00D+00 IRadAn=         1 IDoV= 1
 ScaDFX=  1.000000  1.000000  1.000000  1.000000
 FoFCou: FMM=F IPFlag=           0 FMFlag=      100000 FMFlg1=           0
         NFxFlg=           0 DoJE=T BraDBF=F KetDBF=T FulRan=T
         Omega=  0.000000  0.000000  1.000000  0.000000  0.000000 ICntrl=     500 IOpCl=  0
         NMat0=    1 NMatS0=    1 NMatT0=    0 NMatD0=    1 NMtDS0=    0 NMtDT0=    0
         I1Cent=           4 NGrid=           0.
 Petite list used in FoFCou.
 Requested convergence on RMS density matrix=1.00D-08 within 128 cycles.
 Requested convergence on MAX density matrix=1.00D-06.
 Requested convergence on             energy=1.00D-06.
 No special actions if energy rises.
 Integral accuracy reduced to 1.0D-05 until final iterations.
 Initial convergence to 1.0D-05 achieved.  Increase integral accuracy.
 SCF Done:  E(RHF) =  -492.842602081     A.U. after   16 cycles
             Convg  =    0.4679D-08             -V/T =  2.0018
 Calling FoFJK, ICntrl=      2127 FMM=F ISym2X=0 I1Cent= 0 IOpClX= 0 NMat=1 NMatS=1 NMatT=0.
 ***** Axes restored to original set *****
 -------------------------------------------------------------------
 Center     Atomic                   Forces (Hartrees/Bohr)
 Number     Number              X              Y              Z
 -------------------------------------------------------------------
      1        1           0.001924934    0.002660929    0.000398703
      2        6           0.001361523    0.004927810   -0.000261455
      3        1          -0.001523068   -0.000357687   -0.001905975
      4        1          -0.001630796   -0.001169539    0.001904769
      5        6           0.009163601   -0.032526907   -0.000655985
      6        8          -0.008741946    0.021703075    0.003681701
      7        7          -0.001398544    0.016536979   -0.006745062
      8        1           0.003874434   -0.004205880    0.001459288
      9        6           0.008616654   -0.003195379   -0.016243473
     10        1          -0.004161361    0.004662116    0.000096188
     11        6          -0.004554000   -0.002211719    0.004870299
     12        1           0.000687493   -0.001840569   -0.001041537
     13        1          -0.001980424    0.000121881   -0.000286318
     14        1          -0.000152222   -0.001331853    0.000270115
     15        6          -0.002890553    0.009390634    0.035063058
     16        8           0.001665886   -0.010763331   -0.013395011
     17        7          -0.000741898   -0.002161147   -0.008265024
     18        1           0.000432899    0.000167871    0.003219240
     19        6          -0.000140901    0.000798451   -0.000325531
     20        1           0.000339704   -0.001683531   -0.003367599
     21        1          -0.001654778   -0.000054336    0.000755997
     22        1           0.001503363    0.000532134    0.000773612
 -------------------------------------------------------------------
 Cartesian Forces:  Max     0.035063058 RMS     0.008059647

 GradGradGradGradGradGradGradGradGradGradGradGradGradGradGradGradGradGrad
 Berny optimization.
 Using GEDIIS/GDIIS optimizer.
 Internal  Forces:  Max     0.022127768 RMS     0.004439988
 Search for a local minimum.
 Step number   2 out of a maximum of  108
 All quantities printed in internal units (Hartrees-Bohrs-Radians)
 Mixed Optimization -- RFO/linear search
 Update second derivatives using D2CorX and points    1    2
 DE= -1.26D-02 DEPred=-2.12D-02 R= 5.91D-01
 SS=  1.41D+00  RLast= 3.00D-01 DXNew= 5.0454D-01 8.9954D-01
 Trust test= 5.91D-01 RLast= 3.00D-01 DXMaxT set to 5.05D-01
 Use linear search instead of GDIIS.
     Eigenvalues ---    0.00369   0.00447   0.01002   0.01043   0.01324
     Eigenvalues ---    0.01418   0.01666   0.02551   0.02601   0.03576
     Eigenvalues ---    0.04997   0.05580   0.05757   0.06033   0.07259
     Eigenvalues ---    0.07288   0.07559   0.07711   0.14553   0.15863
     Eigenvalues ---    0.15995   0.16000   0.16000   0.16000   0.16000
     Eigenvalues ---    0.16000   0.16000   0.16000   0.16000   0.16122
     Eigenvalues ---    0.17284   0.21936   0.23274   0.24785   0.24990
     Eigenvalues ---    0.24996   0.28979   0.29448   0.30068   0.34079
     Eigenvalues ---    0.34628   0.34808   0.34810   0.34811   0.34812
     Eigenvalues ---    0.34813   0.34815   0.34818   0.34820   0.36966
     Eigenvalues ---    0.38368   0.44515   0.45876   0.52308   0.58106
     Eigenvalues ---    0.59280   0.86106   0.915431000.000001000.00000
     Eigenvalues --- 1000.000001000.000001000.000001000.000001000.00000
     Eigenvalues --- 1000.000001000.000001000.000001000.000001000.00000
     Eigenvalues --- 1000.000001000.000001000.000001000.000001000.00000
     Eigenvalues --- 1000.000001000.000001000.000001000.000001000.00000
     Eigenvalues --- 1000.000001000.000001000.000001000.000001000.00000
     Eigenvalues --- 1000.000001000.000001000.000001000.000001000.00000
     Eigenvalues --- 1000.000001000.000001000.000001000.000001000.00000
     Eigenvalues --- 1000.000001000.000001000.00000
 RFO step:  Lambda=-6.20928941D-03 EMin= 3.68895545D-03
 Quartic linear search produced a step of -0.00779.
 Iteration  1 RMS(Cart)=  0.06213370 RMS(Int)=  0.00135444
 Iteration  2 RMS(Cart)=  0.00188816 RMS(Int)=  0.00031919
 Iteration  3 RMS(Cart)=  0.00000166 RMS(Int)=  0.00031919
 Iteration  4 RMS(Cart)=  0.00000000 RMS(Int)=  0.00031919
 Iteration  1 RMS(Cart)=  0.00009544 RMS(Int)=  0.00003717
 Iteration  2 RMS(Cart)=  0.00005619 RMS(Int)=  0.00004131
 Iteration  3 RMS(Cart)=  0.00003371 RMS(Int)=  0.00004708
 Iteration  4 RMS(Cart)=  0.00002062 RMS(Int)=  0.00005145
 Iteration  5 RMS(Cart)=  0.00001284 RMS(Int)=  0.00005440
 Iteration  6 RMS(Cart)=  0.00000813 RMS(Int)=  0.00005634
 Iteration  7 RMS(Cart)=  0.00000521 RMS(Int)=  0.00005759
 Iteration  8 RMS(Cart)=  0.00000338 RMS(Int)=  0.00005840
 Iteration  9 RMS(Cart)=  0.00000221 RMS(Int)=  0.00005893
 Iteration 10 RMS(Cart)=  0.00000145 RMS(Int)=  0.00005928
 Iteration 11 RMS(Cart)=  0.00000096 RMS(Int)=  0.00005950
 Variable       Old X    -DE/DX   Delta X   Delta X   Delta X     New X
                                 (Linear)    (Quad)   (Total)
    R1        2.04582  -0.00292   0.00011  -0.01093  -0.01082   2.03500
    R2        2.05451  -0.00127   0.00004  -0.00460  -0.00456   2.04995
    R3        2.05491  -0.00111   0.00004  -0.00407  -0.00404   2.05087
    R4        2.87283  -0.00145   0.00014  -0.00847  -0.00832   2.86451
    R5        2.29347  -0.02213   0.00023  -0.02955  -0.02932   2.26414
    R6        2.54478   0.00380  -0.00017   0.01079   0.01062   2.55540
    R7        1.89026  -0.00521   0.00014  -0.01473  -0.01459   1.87567
    R8        2.76821  -0.00608  -0.00023  -0.00930  -0.00954   2.75867
    R9        2.05019  -0.00298   0.00007  -0.01019  -0.01011   2.04008
   R10        2.91655  -0.00506  -0.00027  -0.00936  -0.00963   2.90692
   R11        2.90783  -0.00351  -0.00025  -0.00487  -0.00511   2.90272
   R12        2.04888   0.00027   0.00008  -0.00142  -0.00134   2.04754
   R13        2.05436  -0.00164   0.00004  -0.00566  -0.00562   2.04874
   R14        2.03471   0.00128   0.00019  -0.00147  -0.00128   2.03343
   R15        2.29586  -0.01698   0.00021  -0.02357  -0.02336   2.27250
   R16        2.53371   0.00512  -0.00009   0.01076   0.01067   2.54438
   R17        1.87984  -0.00283   0.00022  -0.01179  -0.01156   1.86827
   R18        2.74003  -0.00031  -0.00001  -0.00043  -0.00045   2.73958
   R19        2.04329  -0.00376   0.00013  -0.01374  -0.01361   2.02968
   R20        2.05302  -0.00162   0.00005  -0.00586  -0.00581   2.04721
   R21        2.05338  -0.00157   0.00005  -0.00567  -0.00562   2.04775
    A1        1.91183  -0.00013  -0.00001  -0.00275  -0.00264   1.90919
    A2        1.91179  -0.00028  -0.00001  -0.00244  -0.00229   1.90950
    A3        1.91291  -0.00338   0.00020  -0.02677  -0.02643   1.88648
    A4        1.89736  -0.00260   0.00010  -0.01478  -0.01503   1.88233
    A5        1.91418   0.00282  -0.00014   0.02074   0.02047   1.93465
    A6        1.91568   0.00358  -0.00015   0.02614   0.02588   1.94156
    A7        2.09764   0.00955   0.00004   0.03599   0.03568   2.13332
    A8        1.99772   0.00002   0.00029  -0.00696  -0.00701   1.99071
    A9        2.18738  -0.00953  -0.00033  -0.02768  -0.02833   2.15904
   A10        2.03380   0.00359   0.00047   0.00267   0.00304   2.03684
   A11        2.23498  -0.00839  -0.00084  -0.01494  -0.01588   2.21910
   A12        2.01394   0.00486   0.00037   0.01303   0.01329   2.02724
   A13        1.91771   0.00217  -0.00005  -0.00464  -0.00573   1.91197
   A14        2.00061  -0.00607  -0.00048  -0.01254  -0.01255   1.98807
   A15        1.86221  -0.00332   0.00060  -0.02771  -0.02762   1.83459
   A16        1.87543   0.00107   0.00016   0.01439   0.01513   1.89055
   A17        1.87168  -0.00600   0.00019  -0.04693  -0.04775   1.82393
   A18        1.93258   0.01205  -0.00040   0.07431   0.07399   2.00658
   A19        1.94540   0.00262  -0.00027   0.02245   0.02218   1.96758
   A20        1.90577  -0.00079   0.00004  -0.00456  -0.00455   1.90122
   A21        1.93207  -0.00103  -0.00016  -0.00339  -0.00354   1.92853
   A22        1.90131  -0.00055   0.00007  -0.00235  -0.00231   1.89900
   A23        1.88003  -0.00112   0.00024  -0.01487  -0.01461   1.86542
   A24        1.89840   0.00086   0.00009   0.00233   0.00241   1.90081
   A25        2.07242   0.00222   0.00024   0.00216   0.00222   2.07465
   A26        2.09072  -0.01150  -0.00043  -0.03332  -0.03393   2.05678
   A27        2.11960   0.00926   0.00020   0.03018   0.03020   2.14980
   A28        2.09903  -0.00317  -0.00004  -0.01514  -0.01518   2.08385
   A29        2.13492   0.00344  -0.00006   0.01646   0.01640   2.15132
   A30        2.04923  -0.00028   0.00009  -0.00131  -0.00122   2.04801
   A31        1.89881  -0.00095   0.00010  -0.00867  -0.00856   1.89025
   A32        1.92322   0.00112  -0.00009   0.00932   0.00921   1.93243
   A33        1.92476   0.00111  -0.00011   0.00957   0.00944   1.93420
   A34        1.90728  -0.00020   0.00002  -0.00239  -0.00235   1.90493
   A35        1.90753  -0.00019   0.00002  -0.00227  -0.00223   1.90530
   A36        1.90209  -0.00090   0.00006  -0.00569  -0.00569   1.89641
    D1       -0.01535   0.00048   0.00012   0.02055   0.02104   0.00570
    D2       -3.12640  -0.00035  -0.00012  -0.02448  -0.02501   3.13178
    D3        2.08411  -0.00003   0.00015   0.01340   0.01375   2.09786
    D4       -1.02695  -0.00086  -0.00009  -0.03163  -0.03230  -1.05924
    D5       -2.11568   0.00070   0.00010   0.02400   0.02469  -2.09099
    D6        1.05645  -0.00012  -0.00014  -0.02103  -0.02136   1.03509
    D7       -0.00028   0.00159   0.00000   0.03898   0.03835   0.03807
    D8       -3.10738  -0.00066  -0.00027   0.01052   0.00973  -3.09765
    D9       -3.10952   0.00031  -0.00025  -0.01005  -0.00977  -3.11929
   D10        0.06657  -0.00194  -0.00052  -0.03851  -0.03840   0.02817
   D11       -1.37979  -0.00083   0.00055  -0.07288  -0.07248  -1.45227
   D12        0.73386  -0.00204   0.00040  -0.06639  -0.06582   0.66804
   D13        2.87985   0.00696   0.00000   0.00000   0.00000   2.87985
   D14        1.79597  -0.00304   0.00029  -0.10090  -0.10080   1.69517
   D15       -2.37357  -0.00425   0.00014  -0.09441  -0.09414  -2.46771
   D16       -0.22758   0.00474  -0.00027  -0.02802  -0.02832  -0.25590
   D17        0.99582  -0.00044   0.00040  -0.04737  -0.04675   0.94907
   D18        3.09726   0.00000   0.00035  -0.03907  -0.03848   3.05877
   D19       -1.09642  -0.00007   0.00038  -0.04118  -0.04055  -1.13697
   D20        3.13253  -0.00089   0.00014  -0.05097  -0.05132   3.08121
   D21       -1.04921  -0.00044   0.00009  -0.04267  -0.04305  -1.09227
   D22        1.04029  -0.00052   0.00012  -0.04478  -0.04512   0.99517
   D23       -1.11180  -0.00091   0.00024  -0.05847  -0.05800  -1.16979
   D24        0.98964  -0.00046   0.00018  -0.05017  -0.04973   0.93991
   D25        3.07915  -0.00054   0.00022  -0.05228  -0.05180   3.02735
   D26        1.53926  -0.00031   0.00025  -0.03425  -0.03350   1.50576
   D27       -1.57081   0.00018   0.00000   0.00000   0.00000  -1.57081
   D28       -0.51487   0.00187  -0.00014   0.00875   0.00770  -0.50716
   D29        2.65825   0.00236  -0.00038   0.04301   0.04121   2.69946
   D30       -2.55603  -0.00243  -0.00022  -0.02133  -0.02099  -2.57703
   D31        0.61708  -0.00194  -0.00046   0.01292   0.01251   0.62959
   D32       -0.01615  -0.00057   0.00013  -0.02614  -0.02607  -0.04222
   D33        3.12444  -0.00044   0.00013  -0.02096  -0.02090   3.10353
   D34       -3.12535   0.00008  -0.00013   0.00963   0.00958  -3.11577
   D35        0.01524   0.00021  -0.00012   0.01480   0.01474   0.02998
   D36        0.00106  -0.00003  -0.00001  -0.00082  -0.00084   0.00022
   D37        2.09172  -0.00019   0.00002  -0.00350  -0.00352   2.08821
   D38       -2.09084   0.00012  -0.00003   0.00157   0.00156  -2.08928
   D39       -3.14151   0.00009   0.00000   0.00421   0.00421  -3.13730
   D40       -1.05084  -0.00007   0.00003   0.00153   0.00154  -1.04930
   D41        1.04978   0.00024  -0.00002   0.00660   0.00662   1.05640
         Item               Value     Threshold  Converged?
 Maximum Force            0.022128     0.000450     NO 
 RMS     Force            0.004337     0.000300     NO 
 Maximum Displacement     0.261921     0.001800     NO 
 RMS     Displacement     0.062381     0.001200     NO 
 Predicted change in Energy=-3.375441D-03
 GradGradGradGradGradGradGradGradGradGradGradGradGradGradGradGradGradGrad

                          Input orientation:                          
 ---------------------------------------------------------------------
 Center     Atomic      Atomic             Coordinates (Angstroms)
 Number     Number       Type             X           Y           Z
 ---------------------------------------------------------------------
      1          1           0        1.772777    1.306967   -0.521665
      2          6           0        1.906156    2.343305   -0.261141
      3          1           0        1.519573    2.516196    0.737569
      4          1           0        1.340465    2.963696   -0.948840
      5          6           0        3.387314    2.658593   -0.328336
      6          8           0        4.202511    1.835770   -0.634829
      7          7           0        3.691643    3.942477   -0.032317
      8          1           0        2.936119    4.531426    0.227494
      9          6           0        5.012312    4.563950   -0.058722
     10          1           0        5.527445    4.357093    0.867186
     11          6           0        5.900567    4.091288   -1.222286
     12          1           0        5.424285    4.211072   -2.188104
     13          1           0        6.823013    4.660856   -1.214488
     14          1           0        6.135027    3.046394   -1.116962
     15          6           0        4.744289    6.075950   -0.020331
     16          8           0        4.606578    6.614290    1.046141
     17          7           0        4.599492    6.718989   -1.194388
     18          1           0        4.704026    6.216179   -2.039184
     19          6           0        4.298359    8.133565   -1.294329
     20          1           0        4.220724    8.532956   -0.300314
     21          1           0        5.083968    8.655998   -1.826777
     22          1           0        3.361657    8.292090   -1.815579
 ---------------------------------------------------------------------
                    Distance matrix (angstroms):
                    1          2          3          4          5
     1  H    0.000000
     2  C    1.076874   0.000000
     3  H    1.764091   1.084785   0.000000
     4  H    1.764688   1.085275   1.753942   0.000000
     5  C    2.114473   1.515833   2.155200   2.160487   0.000000
     6  O    2.489186   2.381277   3.089436   3.092269   1.198132
     7  N    3.296577   2.407837   2.710147   2.706670   1.352258
     8  H    3.508808   2.467278   2.515538   2.527379   2.005001
     9  C    4.617016   3.823668   4.126330   4.103118   2.518669
    10  H    5.032862   4.294438   4.412340   4.771824   2.982338
    11  C    5.028117   4.464814   5.051244   4.705397   3.027905
    12  H    4.954225   4.424813   5.165166   4.446268   3.165150
    13  H    6.101922   5.518640   6.044549   5.745367   4.074107
    14  H    4.733836   4.371512   5.002281   4.798221   2.884831
    15  C    5.641313   4.695277   4.862618   4.704707   3.689794
    16  O    6.217404   5.219442   5.139960   5.289071   4.361575
    17  N    6.142707   5.222224   5.557143   4.978330   4.325071
    18  H    5.915694   5.097908   5.616135   4.804272   4.161388
    19  C    7.319700   6.349584   6.588254   5.966241   5.633690
    20  H    7.632585   6.608369   6.676438   6.303422   5.933254
    21  H    8.165510   7.238771   7.548374   6.869271   6.410369
    22  H    7.279470   6.318449   6.578206   5.764393   5.826564
                    6          7          8          9         10
     6  O    0.000000
     7  N    2.249938   0.000000
     8  H    3.100631   0.992563   0.000000
     9  C    2.903556   1.459825   2.096081   0.000000
    10  H    3.220026   2.085948   2.674803   1.079564   0.000000
    11  C    2.883724   2.513467   3.329195   1.538274   2.139104
    12  H    3.089895   2.778777   3.482630   2.197387   3.060516
    13  H    3.896683   3.423313   4.147772   2.150308   2.470654
    14  H    2.330811   2.819493   3.774374   2.164102   2.454369
    15  C    4.318594   2.379057   2.390910   1.536052   2.086982
    16  O    5.081651   3.023038   2.792658   2.364157   2.444373
    17  N    4.931179   3.143822   3.094187   2.470699   3.269517
    18  H    4.627279   3.197210   3.331924   2.597524   3.546999
    19  C    6.332957   4.418823   4.140899   3.844295   4.521564
    20  H    6.705559   4.628633   4.235686   4.054379   4.528621
    21  H    6.979485   5.232202   5.083836   4.458252   5.092612
    22  H    6.617044   4.712541   4.300910   4.439621   5.231833
                   11         12         13         14         15
    11  C    0.000000
    12  H    1.083512   0.000000
    13  H    1.084146   1.762576   0.000000
    14  H    1.076042   1.734639   1.757647   0.000000
    15  C    2.592404   2.939286   2.783810   3.509268   0.000000
    16  O    3.631213   4.111501   3.720071   4.443540   1.202554
    17  N    2.932301   2.820887   3.029911   3.981434   1.346430
    18  H    2.571807   2.135744   2.754861   3.598026   2.024117
    19  C    4.348823   4.177618   4.294177   5.411480   2.460833
    20  H    4.837387   4.867339   4.754027   5.868034   2.527724
    21  H    4.676411   4.472554   4.400038   5.751193   3.167850
[...]
    15  C    5.613009   4.718902   5.082508   4.608677   3.689616
    16  O    6.211264   5.215628   5.368791   5.048672   4.380897
    17  N    6.087554   5.308126   5.876688   5.048265   4.316697
    18  H    5.794044   5.155456   5.867659   4.943619   4.103659
    19  C    7.204914   6.393552   6.932614   5.949483   5.590312
    20  H    7.960008   7.086689   7.513435   6.704828   6.221953
    21  H    7.718453   7.006424   7.655982   6.544010   6.181279
    22  H    7.039548   6.198614   6.700273   5.600920   5.639767
                    6          7          8          9         10
     6  O    0.000000
     7  N    2.264702   0.000000
     8  H    3.100736   0.996771   0.000000
     9  C    2.920810   1.462471   2.077892   0.000000
    10  H    3.294400   2.094904   2.524994   1.083790   0.000000
    11  C    2.867956   2.513227   3.380450   1.529458   2.142190
    12  H    2.914633   2.721840   3.589017   2.182049   3.054423
    13  H    3.922655   3.416966   4.167957   2.144791   2.519229
    14  H    2.425872   2.878908   3.827243   2.160632   2.425840
    15  C    4.311222   2.371117   2.442997   1.534174   2.094781
    16  O    5.124484   3.032901   2.758724   2.375422   2.469135
    17  N    4.866676   3.129666   3.274378   2.463515   3.271717
    18  H    4.498198   3.139764   3.504930   2.587513   3.555861
    19  C    6.244908   4.366026   4.271529   3.821848   4.510227
    20  H    6.854479   4.922937   4.793155   4.167684   4.637053
    21  H    6.733738   5.068101   5.086378   4.525850   5.305360
    22  H    6.456603   4.431875   4.118356   4.210376   4.899074
                   11         12         13         14         15
    11  C    0.000000
    12  H    1.084396   0.000000
    13  H    1.085129   1.763933   0.000000
    14  H    1.077198   1.738626   1.760376   0.000000
    15  C    2.566499   2.946117   2.710806   3.485867   0.000000
    16  O    3.616893   4.121348   3.670369   4.425799   1.203177
    17  N    2.888883   2.832006   2.894012   3.950892   1.345170
    18  H    2.550498   2.156653   2.662638   3.593625   2.024479
    19  C    4.315287   4.204803   4.178505   5.384054   2.435279
    20  H    4.717874   4.813249   4.392102   5.762290   2.689307
    21  H    4.713532   4.408929   4.505490   5.786128   3.303085
    22  H    4.942339   4.794241   4.986977   5.976081   2.828305
                   16         17         18         19         20
    16  O    0.000000
    17  N    2.235378   0.000000
    18  H    3.107483   0.992008   0.000000
    19  C    2.754142   1.447527   2.112034   0.000000
    20  H    2.656835   2.082404   2.892351   1.080558   0.000000
    21  H    3.790559   2.065761   2.296318   1.081701   1.760796
    22  H    2.920696   2.104896   2.744843   1.084371   1.755193
                   21         22
    21  H    0.000000
    22  H    1.763648   0.000000
 Stoichiometry    C6H12N2O2
 Framework group  C1[X(C6H12N2O2)]
 Deg. of freedom    60
 Full point group                 C1      NOp   1
 Largest Abelian subgroup         C1      NOp   1
 Largest concise Abelian subgroup C1      NOp   1
                         Standard orientation:                         
 ---------------------------------------------------------------------
 Center     Atomic      Atomic             Coordinates (Angstroms)
 Number     Number       Type             X           Y           Z
 ---------------------------------------------------------------------
      1          1           0        3.867552   -1.245713   -0.953025
      2          6           0        2.998834   -1.471676   -0.352140
      3          1           0        3.333891   -1.852983    0.607980
      4          1           0        2.407987   -2.241026   -0.835859
      5          6           0        2.211657   -0.194489   -0.133868
      6          8           0        2.721354    0.884781   -0.242728
      7          7           0        0.906510   -0.396808    0.196297
      8          1           0        0.665152   -1.327992    0.457438
      9          6           0       -0.045066    0.614779    0.654572
     10          1           0        0.076802    0.778673    1.718943
     11          6           0        0.067002    1.957044   -0.070002
     12          1           0        0.118684    1.835901   -1.146369
     13          1           0       -0.799468    2.563719    0.172243
     14          1           0        0.957944    2.481410    0.232682
     15          6           0       -1.418464   -0.053659    0.510842
     16          8           0       -1.854500   -0.727773    1.406988
     17          7           0       -2.062911    0.096755   -0.660288
     18          1           0       -1.613782    0.577355   -1.402842
     19          6           0       -3.307584   -0.591787   -0.928682
     20          1           0       -4.006078   -0.423226   -0.121651
     21          1           0       -3.727708   -0.202273   -1.846207
     22          1           0       -3.159282   -1.660814   -1.033800
 ---------------------------------------------------------------------
 Rotational constants (GHZ):      2.4203088      0.7054758      0.6475131

 **********************************************************************

            Population analysis using the SCF density.

 **********************************************************************

 Orbital symmetries:
       Occupied  (A) (A) (A) (A) (A) (A) (A) (A) (A) (A) (A) (A)
                 (A) (A) (A) (A) (A) (A) (A) (A) (A) (A) (A) (A)
                 (A) (A) (A) (A) (A) (A) (A) (A) (A) (A) (A) (A)
                 (A) (A) (A)
       Virtual   (A) (A) (A) (A) (A) (A) (A) (A) (A) (A) (A) (A)
                 (A) (A) (A) (A) (A) (A) (A) (A) (A) (A) (A) (A)
                 (A) (A) (A) (A) (A) (A) (A) (A) (A) (A) (A) (A)
                 (A) (A) (A) (A) (A) (A) (A) (A) (A) (A) (A) (A)
                 (A) (A) (A) (A) (A) (A) (A) (A) (A) (A) (A) (A)
                 (A) (A) (A) (A) (A) (A) (A) (A) (A) (A) (A) (A)
                 (A) (A) (A) (A) (A) (A) (A) (A) (A) (A) (A) (A)
                 (A) (A) (A) (A) (A) (A) (A) (A) (A) (A) (A) (A)
                 (A) (A) (A) (A) (A) (A) (A) (A) (A) (A) (A) (A)
                 (A) (A) (A) (A) (A) (A) (A) (A) (A) (A) (A) (A)
                 (A) (A) (A) (A) (A) (A) (A) (A) (A) (A) (A) (A)
                 (A) (A) (A)
 The electronic state is 1-A.
 Alpha  occ. eigenvalues --  -20.52906 -20.52696 -15.59162 -15.59160 -11.35360
 Alpha  occ. eigenvalues --  -11.34868 -11.28404 -11.26302 -11.23466 -11.22289
 Alpha  occ. eigenvalues --   -1.39968  -1.39330  -1.24637  -1.23423  -1.05933
 Alpha  occ. eigenvalues --   -0.99451  -0.95949  -0.89465  -0.79882  -0.77742
 Alpha  occ. eigenvalues --   -0.72887  -0.69010  -0.66792  -0.64582  -0.62766
 Alpha  occ. eigenvalues --   -0.62231  -0.59554  -0.59009  -0.56925  -0.56381
 Alpha  occ. eigenvalues --   -0.55639  -0.54194  -0.53897  -0.52157  -0.50949
 Alpha  occ. eigenvalues --   -0.43053  -0.41617  -0.39620  -0.38903
 Alpha virt. eigenvalues --    0.19262   0.19983   0.21709   0.22828   0.25767
 Alpha virt. eigenvalues --    0.27607   0.28589   0.29817   0.30347   0.31582
 Alpha virt. eigenvalues --    0.32732   0.33322   0.34379   0.35151   0.37478
 Alpha virt. eigenvalues --    0.39625   0.40549   0.43601   0.44922   0.50852
 Alpha virt. eigenvalues --    0.52514   0.58442   0.63437   0.70079   0.73374
 Alpha virt. eigenvalues --    0.73965   0.75032   0.75220   0.76906   0.78246
 Alpha virt. eigenvalues --    0.79331   0.82054   0.83003   0.87818   0.88704
 Alpha virt. eigenvalues --    0.92051   0.93571   0.95484   0.97708   0.98564
 Alpha virt. eigenvalues --    1.00296   1.02941   1.04353   1.06931   1.09888
 Alpha virt. eigenvalues --    1.11175   1.12447   1.14116   1.14484   1.15405
 Alpha virt. eigenvalues --    1.16092   1.17629   1.18941   1.19645   1.20936
 Alpha virt. eigenvalues --    1.21883   1.22111   1.22855   1.26056   1.26277
 Alpha virt. eigenvalues --    1.28787   1.34999   1.35752   1.37506   1.39567
 Alpha virt. eigenvalues --    1.45295   1.50057   1.53092   1.58944   1.60345
 Alpha virt. eigenvalues --    1.65276   1.68898   1.71236   1.74094   1.76442
 Alpha virt. eigenvalues --    1.78588   1.80493   1.88613   1.91356   1.95213
 Alpha virt. eigenvalues --    1.99951   2.03979   2.07412   2.11780   2.13239
 Alpha virt. eigenvalues --    2.13808   2.16616   2.17537   2.20153   2.21448
 Alpha virt. eigenvalues --    2.23460   2.25233   2.30075   2.33307   2.33885
 Alpha virt. eigenvalues --    2.35625   2.36098   2.39847   2.44137   2.49928
 Alpha virt. eigenvalues --    2.54123   2.56490   2.58519   2.59928   2.63625
 Alpha virt. eigenvalues --    2.66662   2.70193   2.73036   2.74724   2.76819
 Alpha virt. eigenvalues --    2.78198   2.81247   2.85186   2.93639   2.99166
 Alpha virt. eigenvalues --    3.02013   3.03102   3.09505   3.11197   3.26964
 Alpha virt. eigenvalues --    3.31549   3.37900   3.38620   3.54436   3.57531
 Alpha virt. eigenvalues --    4.36948   4.38979   4.47892   4.57475   4.62480
 Alpha virt. eigenvalues --    4.66964   4.74164   4.78551   4.91510   5.08917
          Condensed to atoms (all electrons):
              1          2          3          4          5          6
     1  H    0.462426   0.384644  -0.017421  -0.020571  -0.031936   0.003228
     2  C    0.384644   5.275661   0.374759   0.376106   0.375073  -0.072097
     3  H   -0.017421   0.374759   0.493684  -0.024468  -0.026558   0.000378
     4  H   -0.020571   0.376106  -0.024468   0.517802  -0.037187   0.002046
     5  C   -0.031936   0.375073  -0.026558  -0.037187   4.137920   0.617085
     6  O    0.003228  -0.072097   0.000378   0.002046   0.617085   8.144362
     7  N    0.004274  -0.125947   0.000618   0.005836   0.254962  -0.100135
     8  H    0.000081  -0.000639   0.000180  -0.000013  -0.020008   0.002326
     9  C   -0.000070   0.003289  -0.000224   0.000181  -0.021308   0.005385
    10  H   -0.000002  -0.000149   0.000035   0.000006  -0.000853   0.000553
    11  C    0.000006  -0.000052   0.000000  -0.000020  -0.004285  -0.007262
    12  H    0.000000  -0.000082   0.000001   0.000002   0.000372  -0.000588
    13  H    0.000000   0.000010   0.000000   0.000000   0.000228   0.000531
    14  H    0.000000   0.000079  -0.000004  -0.000001   0.000310   0.004167
    15  C    0.000002  -0.000136  -0.000006  -0.000008   0.002877   0.000074
    16  O    0.000000  -0.000005   0.000000  -0.000001  -0.000064   0.000000
    17  N    0.000000   0.000001   0.000000   0.000000  -0.000135   0.000003
    18  H    0.000000  -0.000001   0.000000   0.000001  -0.000002  -0.000013
    19  C    0.000000   0.000000   0.000000   0.000000   0.000002   0.000000
    20  H    0.000000   0.000000   0.000000   0.000000   0.000000   0.000000
    21  H    0.000000   0.000000   0.000000   0.000000   0.000000   0.000000
    22  H    0.000000   0.000000   0.000000   0.000000   0.000000   0.000000
              7          8          9         10         11         12
     1  H    0.004274   0.000081  -0.000070  -0.000002   0.000006   0.000000
     2  C   -0.125947  -0.000639   0.003289  -0.000149  -0.000052  -0.000082
     3  H    0.000618   0.000180  -0.000224   0.000035   0.000000   0.000001
     4  H    0.005836  -0.000013   0.000181   0.000006  -0.000020   0.000002
     5  C    0.254962  -0.020008  -0.021308  -0.000853  -0.004285   0.000372
     6  O   -0.100135   0.002326   0.005385   0.000553  -0.007262  -0.000588
     7  N    7.435556   0.319933   0.181411  -0.044627  -0.046969  -0.000956
     8  H    0.319933   0.323516  -0.030553   0.000931   0.003841  -0.000070
     9  C    0.181411  -0.030553   4.994144   0.412508   0.325910  -0.032315
    10  H   -0.044627   0.000931   0.412508   0.500338  -0.040161   0.003971
    11  C   -0.046969   0.003841   0.325910  -0.040161   5.164244   0.382461
    12  H   -0.000956  -0.000070  -0.032315   0.003971   0.382461   0.538716
    13  H    0.003703  -0.000067  -0.044212  -0.000263   0.384409  -0.028482
    14  H   -0.001503  -0.000135  -0.024878  -0.004003   0.391042  -0.022097
    15  C   -0.055429  -0.002546   0.399665  -0.048988  -0.046482  -0.004849
    16  O   -0.002052   0.005929  -0.074018   0.004041   0.002553  -0.000056
    17  N    0.003982   0.000703  -0.111747   0.004656   0.000270  -0.000138
    18  H    0.001387  -0.000105  -0.002186   0.000191   0.000204   0.004309
    19  C   -0.000265  -0.000051   0.004307  -0.000122  -0.000154   0.000010
    20  H   -0.000006  -0.000006   0.000134   0.000009  -0.000038   0.000001
    21  H   -0.000002  -0.000001   0.000034   0.000001  -0.000025   0.000007
    22  H    0.000050   0.000037  -0.000280  -0.000004   0.000018  -0.000004
             13         14         15         16         17         18
     1  H    0.000000   0.000000   0.000002   0.000000   0.000000   0.000000
     2  C    0.000010   0.000079  -0.000136  -0.000005   0.000001  -0.000001
     3  H    0.000000  -0.000004  -0.000006   0.000000   0.000000   0.000000
     4  H    0.000000  -0.000001  -0.000008  -0.000001   0.000000   0.000001
     5  C    0.000228   0.000310   0.002877  -0.000064  -0.000135  -0.000002
     6  O    0.000531   0.004167   0.000074   0.000000   0.000003  -0.000013
     7  N    0.003703  -0.001503  -0.055429  -0.002052   0.003982   0.001387
     8  H   -0.000067  -0.000135  -0.002546   0.005929   0.000703  -0.000105
     9  C   -0.044212  -0.024878   0.399665  -0.074018  -0.111747  -0.002186
    10  H   -0.000263  -0.004003  -0.048988   0.004041   0.004656   0.000191
    11  C    0.384409   0.391042  -0.046482   0.002553   0.000270   0.000204
    12  H   -0.028482  -0.022097  -0.004849  -0.000056  -0.000138   0.004309
    13  H    0.538008  -0.021856  -0.002387   0.000099   0.000966  -0.000513
    14  H   -0.021856   0.445075   0.003119  -0.000058   0.000086  -0.000017
    15  C   -0.002387   0.003119   4.212452   0.597704   0.268739  -0.019373
    16  O    0.000099  -0.000058   0.597704   8.173695  -0.109661   0.002475
    17  N    0.000966   0.000086   0.268739  -0.109661   7.331759   0.324756
    18  H   -0.000513  -0.000017  -0.019373   0.002475   0.324756   0.314192
    19  C   -0.000113   0.000003  -0.029587   0.009048   0.198855  -0.022586
    20  H   -0.000010   0.000000  -0.003714   0.003099  -0.040165   0.002535
    21  H    0.000003   0.000000   0.004488   0.000409  -0.037489  -0.004193
    22  H    0.000002   0.000000  -0.002484   0.001481  -0.047092   0.001195
             19         20         21         22
     1  H    0.000000   0.000000   0.000000   0.000000
     2  C    0.000000   0.000000   0.000000   0.000000
     3  H    0.000000   0.000000   0.000000   0.000000
     4  H    0.000000   0.000000   0.000000   0.000000
     5  C    0.000002   0.000000   0.000000   0.000000
     6  O    0.000000   0.000000   0.000000   0.000000
     7  N   -0.000265  -0.000006  -0.000002   0.000050
     8  H   -0.000051  -0.000006  -0.000001   0.000037
     9  C    0.004307   0.000134   0.000034  -0.000280
    10  H   -0.000122   0.000009   0.000001  -0.000004
    11  C   -0.000154  -0.000038  -0.000025   0.000018
    12  H    0.000010   0.000001   0.000007  -0.000004
    13  H   -0.000113  -0.000010   0.000003   0.000002
    14  H    0.000003   0.000000   0.000000   0.000000
    15  C   -0.029587  -0.003714   0.004488  -0.002484
    16  O    0.009048   0.003099   0.000409   0.001481
    17  N    0.198855  -0.040165  -0.037489  -0.047092
    18  H   -0.022586   0.002535  -0.004193   0.001195
    19  C    4.903853   0.404847   0.397382   0.405156
    20  H    0.404847   0.489811  -0.025206  -0.033669
    21  H    0.397382  -0.025206   0.525885  -0.031192
    22  H    0.405156  -0.033669  -0.031192   0.528276
 Mulliken atomic charges:
              1
     1  H    0.215340
     2  C   -0.590512
     3  H    0.199026
     4  H    0.180291
     5  C    0.753507
     6  O   -0.600043
     7  N   -0.833820
     8  H    0.396718
     9  C    0.014822
    10  H    0.211933
    11  C   -0.509509
    12  H    0.159786
    13  H    0.169945
    14  H    0.230669
    15  C    0.726868
    16  O   -0.614618
    17  N   -0.788349
    18  H    0.397743
    19  C   -0.270585
    20  H    0.202380
    21  H    0.169899
    22  H    0.178509
 Sum of Mulliken atomic charges =   0.00000
 Mulliken charges with hydrogens summed into heavy atoms:
              1
     2  C    0.004145
     5  C    0.753507
     6  O   -0.600043
     7  N   -0.437102
     9  C    0.226754
    11  C    0.050891
    15  C    0.726868
    16  O   -0.614618
    17  N   -0.390606
    19  C    0.280204
 Sum of Mulliken charges with hydrogens summed into heavy atoms =   0.00000
 Electronic spatial extent (au):  <R**2>=           1875.9579
 Charge=              0.0000 electrons
 Dipole moment (field-independent basis, Debye):
    X=             -1.1247    Y=             -1.2334    Z=             -2.4974  Tot=              3.0039
 Quadrupole moment (field-independent basis, Debye-Ang):
   XX=            -64.8629   YY=            -59.3578   ZZ=            -61.5457
   XY=            -10.6018   XZ=              9.0129   YZ=              2.8444
 Traceless Quadrupole moment (field-independent basis, Debye-Ang):
   XX=             -2.9407   YY=              2.5643   ZZ=              0.3764
   XY=            -10.6018   XZ=              9.0129   YZ=              2.8444
 Octapole moment (field-independent basis, Debye-Ang**2):
  XXX=            -28.9782  YYY=             -4.3726  ZZZ=             -8.8485  XYY=              0.6703
  XXY=            -22.9655  XXZ=            -14.5547  XZZ=              5.3233  YZZ=              5.7473
  YYZ=              0.6360  XYZ=             -3.6592
 Hexadecapole moment (field-independent basis, Debye-Ang**3):
 XXXX=          -1696.5208 YYYY=           -443.4748 ZZZZ=           -244.9713 XXXY=            -55.0284
 XXXZ=             37.7951 YYYX=              4.8395 YYYZ=              0.0372 ZZZX=             19.2563
 ZZZY=             -1.4359 XXYY=           -373.1778 XXZZ=           -324.9874 YYZZ=           -116.9464
 XXYZ=             16.1173 YYXZ=              6.5216 ZZXY=             -9.7770
 N-N= 5.555660092894D+02 E-N=-2.266334368241D+03  KE= 4.921186989777D+02
 1\1\GINC-RODAN\FOpt\RHF\6-31G(d)\C6H12N2O2\STEBOSS\10-Feb-2017\0\\# HF
 /6-31G* Opt=(ModRedundant) geom=nocrowd\\Phi Psi fixed scan\\0,1\H,1.6
 843061815,1.4365427349,-0.9039828245\C,1.8891663715,2.3080308551,-0.29
 95535824\H,1.7045964624,2.0567572702,0.7407752505\H,1.2197988126,3.113
 7309493,-0.5784380606\C,3.3472004047,2.6871785719,-0.4695032755\O,4.16
 30217693,1.8949426796,-0.8480041284\N,3.6249556268,3.9808680241,-0.149
 2384848\H,2.9098358645,4.4675682716,0.3460180031\C,4.9514735524,4.5834
 846582,-0.0226462012\H,5.3571551857,4.3760096163,0.9607033139\C,5.9549
 430171,4.1220623981,-1.0806537293\H,5.5355781477,4.1516600904,-2.08023
 91454\H,6.8262854561,4.7679692143,-1.0479132702\H,6.2640321419,3.10664
 04057,-0.8969765245\C,4.6914717424,6.0954270907,-0.033568072\O,4.44125
 11629,6.6687420862,0.9942130955\N,4.6950237701,6.7176494328,-1.2261745
 612\H,4.8055871867,6.1808288612,-2.0530235495\C,4.3457337992,8.1172575
 898,-1.3462952357\H,4.9204370567,8.7044049776,-0.6444542503\H,4.573802
 2037,8.4458604219,-2.3513234666\H,3.2926440845,8.2854838003,-1.1499213
 009\\Version=EM64L-G09RevA.02\State=1-A\HF=-492.8474144\RMSD=9.753e-09
 \RMSF=5.142e-04\Dipole=-0.5867994,0.6029901,-0.829932\Quadrupole=5.609
 1518,-5.5856336,-0.0235182,3.2685759,-1.3450805,-8.480882\PG=C01 [X(C6
 H12N2O2)]\\@


 ASKING FOR EFFICIENCY AND ADAPTABILITY IN THE SAME PROGRAM IS LIKE
 ASKING FOR A BEAUTIFUL AND MODEST WIFE ...
 WE'LL PROBABLY HAVE TO SETTLE FOR ONE OR THE OTHER.

             -- THE PSYCHOLOGY OF COMPUTER PROGRAMMING
                GERALD M. WEINBERG
 Job cpu time:  0 days  0 hours 30 minutes 42.6 seconds.
 File lengths (MBytes):  RWF=     25 Int=      0 D2E=      0 Chk=      3 Scr=      1
 Normal termination of Gaussian 09 at Fri Feb 10 05:17:12 2017.
