 Entering Gaussian System, Link 0=g09
 Initial command:
 /home/steboss/Software/g09/l1.exe /tmp/Gau-19174.inp -scrdir=/tmp/
 Entering Link 1 = /home/steboss/Software/g09/l1.exe PID=     19176.
  
 Copyright (c) 1988,1990,1992,1993,1995,1998,2003,2009, Gaussian, Inc.
                  All Rights Reserved.
  
 This is part of the Gaussian(R) 09 program.  It is based on
 the Gaussian(R) 03 system (copyright 2003, Gaussian, Inc.),
 the Gaussian(R) 98 system (copyright 1998, Gaussian, Inc.),
 the Gaussian(R) 94 system (copyright 1995, Gaussian, Inc.),
 the Gaussian 92(TM) system (copyright 1992, Gaussian, Inc.),
 the Gaussian 90(TM) system (copyright 1990, Gaussian, Inc.),
 the Gaussian 88(TM) system (copyright 1988, Gaussian, Inc.),
 the Gaussian 86(TM) system (copyright 1986, Carnegie Mellon
 University), and the Gaussian 82(TM) system (copyright 1983,
 Carnegie Mellon University). Gaussian is a federally registered
 trademark of Gaussian, Inc.
  
 This software contains proprietary and confidential information,
 including trade secrets, belonging to Gaussian, Inc.
  
 This software is provided under written license and may be
 used, copied, transmitted, or stored only in accord with that
 written license.
  
 The following legend is applicable only to US Government
 contracts under FAR:
  
                    RESTRICTED RIGHTS LEGEND
  
 Use, reproduction and disclosure by the US Government is
 subject to restrictions as set forth in subparagraphs (a)
 and (c) of the Commercial Computer Software - Restricted
 Rights clause in FAR 52.227-19.
  
 Gaussian, Inc.
 340 Quinnipiac St., Bldg. 40, Wallingford CT 06492
  
  
 ---------------------------------------------------------------
 Warning -- This program may not be used in any manner that
 competes with the business of Gaussian, Inc. or will provide
 assistance to any competitor of Gaussian, Inc.  The licensee
 of this program is prohibited from giving any competitor of
 Gaussian, Inc. access to this program.  By using this program,
 the user acknowledges that Gaussian, Inc. is engaged in the
 business of creating and licensing software in the field of
 computational chemistry and represents and warrants to the
 licensee that it is not a competitor of Gaussian, Inc. and that
 it will not use this program in any manner prohibited above.
 ---------------------------------------------------------------
  

 Cite this work as:
 Gaussian 09, Revision A.02,
 M. J. Frisch, G. W. Trucks, H. B. Schlegel, G. E. Scuseria, 
 M. A. Robb, J. R. Cheeseman, G. Scalmani, V. Barone, B. Mennucci, 
 G. A. Petersson, H. Nakatsuji, M. Caricato, X. Li, H. P. Hratchian, 
 A. F. Izmaylov, J. Bloino, G. Zheng, J. L. Sonnenberg, M. Hada, 
 M. Ehara, K. Toyota, R. Fukuda, J. Hasegawa, M. Ishida, T. Nakajima, 
 Y. Honda, O. Kitao, H. Nakai, T. Vreven, J. A. Montgomery, Jr., 
 J. E. Peralta, F. Ogliaro, M. Bearpark, J. J. Heyd, E. Brothers, 
 K. N. Kudin, V. N. Staroverov, R. Kobayashi, J. Normand, 
 K. Raghavachari, A. Rendell, J. C. Burant, S. S. Iyengar, J. Tomasi, 
 M. Cossi, N. Rega, J. M. Millam, M. Klene, J. E. Knox, J. B. Cross, 
 V. Bakken, C. Adamo, J. Jaramillo, R. Gomperts, R. E. Stratmann, 
 O. Yazyev, A. J. Austin, R. Cammi, C. Pomelli, J. W. Ochterski, 
 R. L. Martin, K. Morokuma, V. G. Zakrzewski, G. A. Voth, 
 P. Salvador, J. J. Dannenberg, S. Dapprich, A. D. Daniels, 
 O. Farkas, J. B. Foresman, J. V. Ortiz, J. Cioslowski, 
 and D. J. Fox, Gaussian, Inc., Wallingford CT, 2009.
 
 ******************************************
 Gaussian 09:  EM64L-G09RevA.02 11-Jun-2009
                10-Feb-2017 
 ******************************************
 %chk=structure_330.chk
 %NProcShared=8
 Will use up to    8 processors via shared memory.
 -------------------------------------------
 # HF/6-31G* Opt=(ModRedundant) geom=nocrowd
 -------------------------------------------
 1/18=120,19=15,38=1/1,3;
 2/9=110,12=1,17=6,18=5,40=1/2;
 3/5=1,6=6,7=1,11=9,16=1,25=1,30=1,71=1/1,2,3;
 4//1;
 5/5=2,38=5/2;
 6/7=2,8=2,9=2,10=2,28=1/1;
 7//1,2,3,16;
 1/18=20,19=15/3(2);
 2/9=110,12=1/2;
 99//99;
 2/9=110,12=1/2;
 3/5=1,6=6,7=1,11=9,16=1,25=1,30=1,71=1/1,2,3;
 4/5=5,16=3/1;
 5/5=2,38=5/2;
 7//1,2,3,16;
 1/18=20,19=15/3(-5);
 2/9=110,12=1/2;
 6/7=2,8=2,9=2,10=2,19=2,28=1/1;
 99/9=1/99;
 ------------------
 Phi Psi fixed scan
 ------------------
 Symbolic Z-matrix:
 Charge =  0 Multiplicity = 1
 H                     1.9702    1.0601   -0.5095 
 C                     1.985     2.1203   -0.2568 
 H                     1.582     2.2609    0.7462 
 H                     1.3772    2.6735   -0.9728 
 C                     3.4103    2.6754   -0.2933 
 O                     4.3566    1.9459   -0.5812 
 N                     3.5554    3.9697    0. 
 H                     2.7466    4.529     0.2306 
 C                     4.8533    4.6139    0. 
 H                     5.4076    4.3155    0.8898 
 C                     5.6613    4.2208   -1.2322 
 H                     5.1233    4.5214   -2.1312 
 H                     6.6305    4.7189   -1.2058 
 H                     5.8085    3.1409   -1.2414 
 C                     4.7127    6.1294    0. 
 O                     5.5682    6.8352    0.5295 
 N                     3.6281    6.6291   -0.5968 
 H                     2.9524    6.0081   -1.0184 
 C                     3.3794    8.0551   -0.6638 
 H                     4.1904    8.5895   -0.169 
 H                     3.3232    8.366    -1.7069 
 H                     2.4372    8.2838   -0.1657 
 
 The following ModRedundant input section has been read:
 D    5    7    9   15 F                                                       
 D    7    9   15   17 F                                                       

 GradGradGradGradGradGradGradGradGradGradGradGradGradGradGradGradGradGrad
 Berny optimization.
 Initialization pass.
                           ----------------------------
                           !    Initial Parameters    !
                           ! (Angstroms and Degrees)  !
 --------------------------                            --------------------------
 ! Name  Definition              Value          Derivative Info.                !
 --------------------------------------------------------------------------------
 ! R1    R(1,2)                  1.09           estimate D2E/DX2                !
 ! R2    R(2,3)                  1.09           estimate D2E/DX2                !
 ! R3    R(2,4)                  1.09           estimate D2E/DX2                !
 ! R4    R(2,5)                  1.53           estimate D2E/DX2                !
 ! R5    R(5,6)                  1.229          estimate D2E/DX2                !
 ! R6    R(5,7)                  1.335          estimate D2E/DX2                !
 ! R7    R(7,8)                  1.01           estimate D2E/DX2                !
 ! R8    R(7,9)                  1.449          estimate D2E/DX2                !
 ! R9    R(9,10)                 1.09           estimate D2E/DX2                !
 ! R10   R(9,11)                 1.525          estimate D2E/DX2                !
 ! R11   R(9,15)                 1.522          estimate D2E/DX2                !
 ! R12   R(11,12)                1.09           estimate D2E/DX2                !
 ! R13   R(11,13)                1.09           estimate D2E/DX2                !
 ! R14   R(11,14)                1.0899         estimate D2E/DX2                !
 ! R15   R(15,16)                1.229          estimate D2E/DX2                !
 ! R16   R(15,17)                1.335          estimate D2E/DX2                !
 ! R17   R(17,18)                1.0099         estimate D2E/DX2                !
 ! R18   R(17,19)                1.4491         estimate D2E/DX2                !
 ! R19   R(19,20)                1.09           estimate D2E/DX2                !
 ! R20   R(19,21)                1.0899         estimate D2E/DX2                !
 ! R21   R(19,22)                1.09           estimate D2E/DX2                !
 ! A1    A(1,2,3)              109.4973         estimate D2E/DX2                !
 ! A2    A(1,2,4)              109.4988         estimate D2E/DX2                !
 ! A3    A(1,2,5)              111.1006         estimate D2E/DX2                !
 ! A4    A(3,2,4)              109.4393         estimate D2E/DX2                !
 ! A5    A(3,2,5)              108.6364         estimate D2E/DX2                !
 ! A6    A(4,2,5)              108.6416         estimate D2E/DX2                !
 ! A7    A(2,5,6)              120.4973         estimate D2E/DX2                !
 ! A8    A(2,5,7)              116.5992         estimate D2E/DX2                !
 ! A9    A(6,5,7)              122.9035         estimate D2E/DX2                !
 ! A10   A(5,7,8)              119.9988         estimate D2E/DX2                !
 ! A11   A(5,7,9)              121.8962         estimate D2E/DX2                !
 ! A12   A(8,7,9)              118.105          estimate D2E/DX2                !
 ! A13   A(7,9,10)             109.5            estimate D2E/DX2                !
 ! A14   A(7,9,11)             111.0992         estimate D2E/DX2                !
 ! A15   A(7,9,15)             111.0966         estimate D2E/DX2                !
 ! A16   A(10,9,11)            108.6382         estimate D2E/DX2                !
 ! A17   A(10,9,15)            108.6373         estimate D2E/DX2                !
 ! A18   A(11,9,15)            107.7947         estimate D2E/DX2                !
 ! A19   A(9,11,12)            109.5007         estimate D2E/DX2                !
 ! A20   A(9,11,13)            109.4959         estimate D2E/DX2                !
 ! A21   A(9,11,14)            109.4978         estimate D2E/DX2                !
 ! A22   A(12,11,13)           109.441          estimate D2E/DX2                !
 ! A23   A(12,11,14)           109.4482         estimate D2E/DX2                !
 ! A24   A(13,11,14)           109.4436         estimate D2E/DX2                !
 ! A25   A(9,15,16)            120.4998         estimate D2E/DX2                !
 ! A26   A(9,15,17)            116.5999         estimate D2E/DX2                !
 ! A27   A(16,15,17)           122.9004         estimate D2E/DX2                !
 ! A28   A(15,17,18)           120.0016         estimate D2E/DX2                !
 ! A29   A(15,17,19)           121.9009         estimate D2E/DX2                !
 ! A30   A(18,17,19)           118.0975         estimate D2E/DX2                !
 ! A31   A(17,19,20)           109.4983         estimate D2E/DX2                !
 ! A32   A(17,19,21)           109.5005         estimate D2E/DX2                !
 ! A33   A(17,19,22)           109.4932         estimate D2E/DX2                !
 ! A34   A(20,19,21)           109.4486         estimate D2E/DX2                !
 ! A35   A(20,19,22)           109.4406         estimate D2E/DX2                !
 ! A36   A(21,19,22)           109.4461         estimate D2E/DX2                !
 ! D1    D(1,2,5,6)              0.0063         estimate D2E/DX2                !
 ! D2    D(1,2,5,7)            179.9967         estimate D2E/DX2                !
 ! D3    D(3,2,5,6)            120.5158         estimate D2E/DX2                !
 ! D4    D(3,2,5,7)            -59.4937         estimate D2E/DX2                !
 ! D5    D(4,2,5,6)           -120.5085         estimate D2E/DX2                !
 ! D6    D(4,2,5,7)             59.482          estimate D2E/DX2                !
 ! D7    D(2,5,7,8)              0.006          estimate D2E/DX2                !
 ! D8    D(2,5,7,9)           -179.9978         estimate D2E/DX2                !
 ! D9    D(6,5,7,8)            179.9962         estimate D2E/DX2                !
 ! D10   D(6,5,7,9)             -0.0076         estimate D2E/DX2                !
 ! D11   D(5,7,9,10)           -74.9972         estimate D2E/DX2                !
 ! D12   D(5,7,9,11)            45.0054         estimate D2E/DX2                !
 ! D13   D(5,7,9,15)           165.003          Frozen                          !
 ! D14   D(8,7,9,10)           104.9991         estimate D2E/DX2                !
 ! D15   D(8,7,9,11)          -134.9983         estimate D2E/DX2                !
 ! D16   D(8,7,9,15)           -15.0007         estimate D2E/DX2                !
 ! D17   D(7,9,11,12)           60.0024         estimate D2E/DX2                !
 ! D18   D(7,9,11,13)          179.9986         estimate D2E/DX2                !
 ! D19   D(7,9,11,14)          -60.0038         estimate D2E/DX2                !
 ! D20   D(10,9,11,12)        -179.4843         estimate D2E/DX2                !
 ! D21   D(10,9,11,13)         -59.4881         estimate D2E/DX2                !
 ! D22   D(10,9,11,14)          60.5095         estimate D2E/DX2                !
 ! D23   D(15,9,11,12)         -61.938          estimate D2E/DX2                !
 ! D24   D(15,9,11,13)          58.0582         estimate D2E/DX2                !
 ! D25   D(15,9,11,14)         178.0558         estimate D2E/DX2                !
 ! D26   D(7,9,15,16)          149.9979         estimate D2E/DX2                !
 ! D27   D(7,9,15,17)          -29.9973         Frozen                          !
 ! D28   D(10,9,15,16)          29.4868         estimate D2E/DX2                !
 ! D29   D(10,9,15,17)        -150.5084         estimate D2E/DX2                !
 ! D30   D(11,9,15,16)         -88.0601         estimate D2E/DX2                !
 ! D31   D(11,9,15,17)          91.9447         estimate D2E/DX2                !
 ! D32   D(9,15,17,18)          -0.0044         estimate D2E/DX2                !
 ! D33   D(9,15,17,19)        -179.9964         estimate D2E/DX2                !
 ! D34   D(16,15,17,18)       -179.9995         estimate D2E/DX2                !
 ! D35   D(16,15,17,19)          0.0086         estimate D2E/DX2                !
 ! D36   D(15,17,19,20)         -0.0089         estimate D2E/DX2                !
 ! D37   D(15,17,19,21)        119.9979         estimate D2E/DX2                !
 ! D38   D(15,17,19,22)       -120.0014         estimate D2E/DX2                !
 ! D39   D(18,17,19,20)        179.9989         estimate D2E/DX2                !
 ! D40   D(18,17,19,21)        -59.9942         estimate D2E/DX2                !
 ! D41   D(18,17,19,22)         60.0065         estimate D2E/DX2                !
 --------------------------------------------------------------------------------
 Trust Radius=3.00D-01 FncErr=1.00D-07 GrdErr=1.00D-07
 Number of steps in this run= 108 maximum allowed number of steps= 132.
 GradGradGradGradGradGradGradGradGradGradGradGradGradGradGradGradGradGrad

                          Input orientation:                          
 ---------------------------------------------------------------------
 Center     Atomic      Atomic             Coordinates (Angstroms)
 Number     Number       Type             X           Y           Z
 ---------------------------------------------------------------------
      1          1           0        1.970200    1.060100   -0.509500
      2          6           0        1.985000    2.120300   -0.256800
      3          1           0        1.582000    2.260900    0.746200
      4          1           0        1.377200    2.673500   -0.972800
      5          6           0        3.410300    2.675400   -0.293300
      6          8           0        4.356600    1.945900   -0.581200
      7          7           0        3.555400    3.969700    0.000000
      8          1           0        2.746600    4.529000    0.230600
      9          6           0        4.853300    4.613900    0.000000
     10          1           0        5.407600    4.315500    0.889800
     11          6           0        5.661300    4.220800   -1.232200
     12          1           0        5.123300    4.521400   -2.131200
     13          1           0        6.630500    4.718900   -1.205800
     14          1           0        5.808500    3.140900   -1.241400
     15          6           0        4.712700    6.129400    0.000000
     16          8           0        5.568200    6.835200    0.529500
     17          7           0        3.628100    6.629100   -0.596800
     18          1           0        2.952400    6.008100   -1.018400
     19          6           0        3.379400    8.055100   -0.663800
     20          1           0        4.190400    8.589500   -0.169000
     21          1           0        3.323200    8.366000   -1.706900
     22          1           0        2.437200    8.283800   -0.165700
 ---------------------------------------------------------------------
                    Distance matrix (angstroms):
                    1          2          3          4          5
     1  H    0.000000
     2  C    1.090000   0.000000
     3  H    1.780282   1.090040   0.000000
     4  H    1.780268   1.090003   1.779647   0.000000
     5  C    2.174816   1.530016   2.143607   2.143646   0.000000
     6  O    2.546505   2.400029   3.091864   3.091857   1.229040
     7  N    3.352346   2.439751   2.714981   2.714964   1.335025
     8  H    3.630952   2.572825   2.601233   2.601213   2.037352
     9  C    4.604492   3.809348   4.098149   4.098141   2.434349
    10  H    4.936739   4.224664   4.344792   4.733874   2.842334
    11  C    4.912895   4.344961   4.939227   4.562339   2.887351
    12  H    4.955053   4.373509   5.092160   4.334731   3.117685
    13  H    5.965739   5.406847   5.944697   5.642261   3.921509
    14  H    4.426958   4.078016   4.752710   4.463970   2.620486
    15  C    5.786078   4.855839   5.032235   4.900525   3.703024
    16  O    6.883088   5.973933   6.071324   6.094353   4.757885
    17  N    5.811197   4.810889   5.007129   4.566694   3.971309
    18  H    5.070148   4.078098   4.362719   3.688210   3.441269
    19  C    7.137204   6.109980   6.228282   5.750296   5.392532
    20  H    7.857296   6.835353   6.905977   6.599943   5.966623
    21  H    7.525992   6.549988   6.806006   6.060559   5.864195
    22  H    7.246939   6.180738   6.151281   5.766323   5.693624
                    6          7          8          9         10
     6  O    0.000000
     7  N    2.252883   0.000000
     8  H    3.150163   1.010025   0.000000
     9  C    2.775379   1.448978   2.120983   0.000000
    10  H    2.980511   2.083739   2.749736   1.089970   0.000000
    11  C    2.702076   2.452791   3.275706   1.525027   2.139209
    12  H    3.102181   2.702720   3.350651   2.150225   3.041326
    13  H    3.640093   3.386959   4.145357   2.150214   2.459625
    14  H    1.992963   2.702673   3.669991   2.150165   2.466256
    15  C    4.238664   2.450234   2.545586   1.522008   2.136554
    16  O    5.158186   3.541585   3.656409   2.392828   2.550391
    17  N    4.739548   2.726511   2.423232   2.432759   3.275568
    18  H    4.320230   2.357079   1.946816   2.567947   3.540357
    19  C    6.187412   4.142716   3.692393   3.801956   4.529004
    20  H    6.658450   4.666298   4.328036   4.034029   4.568338
    21  H    6.599455   4.721745   4.336928   4.396927   5.243484
    22  H    6.635187   4.459741   3.788312   4.396949   5.068014
                   11         12         13         14         15
    11  C    0.000000
    12  H    1.089957   0.000000
    13  H    1.090023   1.779613   0.000000
    14  H    1.089925   1.779613   1.779617   0.000000
    15  C    2.461892   2.701161   2.668599   3.416575   0.000000
    16  O    3.153941   3.554002   2.935724   4.103862   1.228985
    17  N    3.215205   3.005396   3.610284   4.163795   1.335001
    18  H    3.252428   2.856818   3.901996   4.053131   2.037280
    19  C    4.498000   4.204936   4.689738   5.512124   2.434469
    20  H    4.730696   4.611938   4.691544   5.784076   2.520605
    21  H    4.782754   4.266303   4.948805   5.804746   3.137929
    22  H    5.295301   5.023343   5.601257   6.242773   3.137961
                   16         17         18         19         20
    16  O    0.000000
    17  N    2.252780   0.000000
    18  H    3.150000   1.009930   0.000000
    19  C    2.775422   1.449074   2.120915   0.000000
    20  H    2.337478   2.083834   2.986260   1.090014   0.000000
    21  H    3.519213   2.083772   2.484193   1.089897   1.779642
    22  H    3.519220   2.083776   2.484218   1.090022   1.779655
                   21         22
    21  H    0.000000
    22  H    1.779621   0.000000
 Stoichiometry    C6H12N2O2
 Framework group  C1[X(C6H12N2O2)]
 Deg. of freedom    60
 Full point group                 C1      NOp   1
 Largest Abelian subgroup         C1      NOp   1
 Largest concise Abelian subgroup C1      NOp   1
                         Standard orientation:                         
 ---------------------------------------------------------------------
 Center     Atomic      Atomic             Coordinates (Angstroms)
 Number     Number       Type             X           Y           Z
 ---------------------------------------------------------------------
      1          1           0        4.029824    1.313470    0.102684
      2          6           0        2.982701    1.516328   -0.122000
      3          1           0        2.902802    1.959061   -1.114869
      4          1           0        2.579405    2.208349    0.617301
      5          6           0        2.153782    0.230664   -0.091803
      6          8           0        2.684910   -0.848079    0.162670
      7          7           0        0.850297    0.353582   -0.352780
      8          1           0        0.459578    1.262416   -0.556519
      9          6           0       -0.041150   -0.788720   -0.354825
     10          1           0        0.119339   -1.373865   -1.260299
     11          6           0        0.210021   -1.683271    0.854473
     12          1           0        0.044317   -1.113833    1.768961
     13          1           0       -0.472966   -2.532343    0.827010
     14          1           0        1.238311   -2.043948    0.832859
     15          6           0       -1.497170   -0.347438   -0.312559
     16          8           0       -2.372334   -1.033593   -0.835706
     17          7           0       -1.755104    0.803265    0.313205
     18          1           0       -1.001567    1.332417    0.728101
     19          6           0       -3.100226    1.331184    0.421660
     20          1           0       -3.797794    0.653600   -0.070693
     21          1           0       -3.369414    1.427897    1.473353
     22          1           0       -3.146546    2.309753   -0.056258
 ---------------------------------------------------------------------
 Rotational constants (GHZ):      2.4478653      0.7502629      0.6304477
 Standard basis: 6-31G(d) (6D, 7F)
 There are   174 symmetry adapted basis functions of A   symmetry.
 Integral buffers will be    131072 words long.
 Raffenetti 1 integral format.
 Two-electron integral symmetry is turned on.
   174 basis functions,   328 primitive gaussians,   174 cartesian basis functions
    39 alpha electrons       39 beta electrons
       nuclear repulsion energy       558.8057619237 Hartrees.
 NAtoms=   22 NActive=   22 NUniq=   22 SFac= 7.50D-01 NAtFMM=   80 NAOKFM=F Big=F
 One-electron integrals computed using PRISM.
 NBasis=   174 RedAO= T  NBF=   174
 NBsUse=   174 1.00D-06 NBFU=   174
 Harris functional with IExCor=  205 diagonalized for initial guess.
 ExpMin= 1.61D-01 ExpMax= 5.48D+03 ExpMxC= 8.25D+02 IAcc=1 IRadAn=         1 AccDes= 0.00D+00
 HarFok:  IExCor=  205 AccDes= 0.00D+00 IRadAn=         1 IDoV= 1
 ScaDFX=  1.000000  1.000000  1.000000  1.000000
 FoFCou: FMM=F IPFlag=           0 FMFlag=      100000 FMFlg1=           0
         NFxFlg=           0 DoJE=T BraDBF=F KetDBF=T FulRan=T
         Omega=  0.000000  0.000000  1.000000  0.000000  0.000000 ICntrl=     500 IOpCl=  0
         NMat0=    1 NMatS0=    1 NMatT0=    0 NMatD0=    1 NMtDS0=    0 NMtDT0=    0
         I1Cent=           4 NGrid=           0.
 Petite list used in FoFCou.
 Initial guess orbital symmetries:
       Occupied  (A) (A) (A) (A) (A) (A) (A) (A) (A) (A) (A) (A)
                 (A) (A) (A) (A) (A) (A) (A) (A) (A) (A) (A) (A)
                 (A) (A) (A) (A) (A) (A) (A) (A) (A) (A) (A) (A)
                 (A) (A) (A)
       Virtual   (A) (A) (A) (A) (A) (A) (A) (A) (A) (A) (A) (A)
                 (A) (A) (A) (A) (A) (A) (A) (A) (A) (A) (A) (A)
                 (A) (A) (A) (A) (A) (A) (A) (A) (A) (A) (A) (A)
                 (A) (A) (A) (A) (A) (A) (A) (A) (A) (A) (A) (A)
                 (A) (A) (A) (A) (A) (A) (A) (A) (A) (A) (A) (A)
                 (A) (A) (A) (A) (A) (A) (A) (A) (A) (A) (A) (A)
                 (A) (A) (A) (A) (A) (A) (A) (A) (A) (A) (A) (A)
                 (A) (A) (A) (A) (A) (A) (A) (A) (A) (A) (A) (A)
                 (A) (A) (A) (A) (A) (A) (A) (A) (A) (A) (A) (A)
                 (A) (A) (A) (A) (A) (A) (A) (A) (A) (A) (A) (A)
                 (A) (A) (A) (A) (A) (A) (A) (A) (A) (A) (A) (A)
                 (A) (A) (A)
 The electronic state of the initial guess is 1-A.
 Requested convergence on RMS density matrix=1.00D-08 within 128 cycles.
 Requested convergence on MAX density matrix=1.00D-06.
 Requested convergence on             energy=1.00D-06.
 No special actions if energy rises.
 Integral accuracy reduced to 1.0D-05 until final iterations.
 Initial convergence to 1.0D-05 achieved.  Increase integral accuracy.
 SCF Done:  E(RHF) =  -492.835828398     A.U. after   15 cycles
             Convg  =    0.5603D-08             -V/T =  2.0019

 **********************************************************************

            Population analysis using the SCF density.

 **********************************************************************

 Orbital symmetries:
       Occupied  (A) (A) (A) (A) (A) (A) (A) (A) (A) (A) (A) (A)
                 (A) (A) (A) (A) (A) (A) (A) (A) (A) (A) (A) (A)
                 (A) (A) (A) (A) (A) (A) (A) (A) (A) (A) (A) (A)
                 (A) (A) (A)
       Virtual   (A) (A) (A) (A) (A) (A) (A) (A) (A) (A) (A) (A)
                 (A) (A) (A) (A) (A) (A) (A) (A) (A) (A) (A) (A)
                 (A) (A) (A) (A) (A) (A) (A) (A) (A) (A) (A) (A)
                 (A) (A) (A) (A) (A) (A) (A) (A) (A) (A) (A) (A)
                 (A) (A) (A) (A) (A) (A) (A) (A) (A) (A) (A) (A)
                 (A) (A) (A) (A) (A) (A) (A) (A) (A) (A) (A) (A)
                 (A) (A) (A) (A) (A) (A) (A) (A) (A) (A) (A) (A)
                 (A) (A) (A) (A) (A) (A) (A) (A) (A) (A) (A) (A)
                 (A) (A) (A) (A) (A) (A) (A) (A) (A) (A) (A) (A)
                 (A) (A) (A) (A) (A) (A) (A) (A) (A) (A) (A) (A)
                 (A) (A) (A) (A) (A) (A) (A) (A) (A) (A) (A) (A)
                 (A) (A) (A)
 The electronic state is 1-A.
 Alpha  occ. eigenvalues --  -20.52565 -20.52189 -15.60644 -15.60485 -11.36111
 Alpha  occ. eigenvalues --  -11.35468 -11.28247 -11.26870 -11.24649 -11.20862
 Alpha  occ. eigenvalues --   -1.38782  -1.37828  -1.26255  -1.23638  -1.06220
 Alpha  occ. eigenvalues --   -0.99508  -0.96758  -0.88307  -0.81435  -0.78979
 Alpha  occ. eigenvalues --   -0.74356  -0.68538  -0.66875  -0.63919  -0.63246
 Alpha  occ. eigenvalues --   -0.62317  -0.59912  -0.58452  -0.57232  -0.56414
 Alpha  occ. eigenvalues --   -0.55609  -0.54970  -0.52386  -0.51207  -0.49756
 Alpha  occ. eigenvalues --   -0.42857  -0.40532  -0.40135  -0.39512
 Alpha virt. eigenvalues --    0.17997   0.18956   0.20344   0.24282   0.26504
 Alpha virt. eigenvalues --    0.26873   0.28243   0.29568   0.30353   0.31362
 Alpha virt. eigenvalues --    0.31674   0.32312   0.33926   0.35738   0.37731
 Alpha virt. eigenvalues --    0.38469   0.40446   0.42432   0.46663   0.48913
 Alpha virt. eigenvalues --    0.54703   0.58442   0.61309   0.70724   0.71856
 Alpha virt. eigenvalues --    0.72713   0.74126   0.75379   0.76875   0.78205
 Alpha virt. eigenvalues --    0.79546   0.81726   0.83358   0.87082   0.90537
 Alpha virt. eigenvalues --    0.92538   0.93278   0.94265   0.97697   0.99030
 Alpha virt. eigenvalues --    0.99204   1.00677   1.02929   1.05388   1.09088
 Alpha virt. eigenvalues --    1.11059   1.12016   1.13920   1.14084   1.14796
 Alpha virt. eigenvalues --    1.16135   1.16516   1.18352   1.19397   1.21302
 Alpha virt. eigenvalues --    1.21595   1.22658   1.23653   1.26686   1.30241
 Alpha virt. eigenvalues --    1.31885   1.34330   1.37241   1.38727   1.39649
 Alpha virt. eigenvalues --    1.47051   1.50029   1.56315   1.58196   1.61742
 Alpha virt. eigenvalues --    1.63343   1.64912   1.68868   1.71747   1.74480
 Alpha virt. eigenvalues --    1.79524   1.80473   1.87126   1.91279   1.98527
 Alpha virt. eigenvalues --    2.02923   2.04859   2.08676   2.09860   2.12623
 Alpha virt. eigenvalues --    2.13242   2.13476   2.15125   2.20054   2.21566
 Alpha virt. eigenvalues --    2.22808   2.23222   2.29639   2.31822   2.33473
 Alpha virt. eigenvalues --    2.36329   2.37797   2.42476   2.45142   2.49476
 Alpha virt. eigenvalues --    2.50820   2.57049   2.59153   2.61676   2.63368
 Alpha virt. eigenvalues --    2.64115   2.67128   2.68501   2.70625   2.75304
 Alpha virt. eigenvalues --    2.77787   2.80443   2.84807   2.91161   2.99863
 Alpha virt. eigenvalues --    3.02415   3.03928   3.07210   3.11306   3.22799
 Alpha virt. eigenvalues --    3.29521   3.33426   3.39821   3.51985   3.59021
 Alpha virt. eigenvalues --    4.38450   4.40813   4.47056   4.58221   4.61373
 Alpha virt. eigenvalues --    4.65553   4.69339   4.80501   4.90860   5.12746
          Condensed to atoms (all electrons):
              1          2          3          4          5          6
     1  H    0.447784   0.385797  -0.017801  -0.018201  -0.029912   0.003601
     2  C    0.385797   5.252850   0.374981   0.373301   0.376591  -0.066023
     3  H   -0.017801   0.374981   0.509800  -0.024709  -0.035295   0.001141
     4  H   -0.018201   0.373301  -0.024709   0.523554  -0.036850   0.001154
     5  C   -0.029912   0.376591  -0.035295  -0.036850   4.194290   0.589643
     6  O    0.003601  -0.066023   0.001141   0.001154   0.589643   8.216552
     7  N    0.003837  -0.123159   0.003766   0.004222   0.235688  -0.104753
     8  H   -0.000017  -0.001234   0.000645   0.000414  -0.018013   0.002381
     9  C   -0.000057   0.003562  -0.000202  -0.000043  -0.028976   0.012379
    10  H    0.000002  -0.000059   0.000007   0.000000  -0.002132   0.001341
    11  C    0.000007  -0.000658   0.000012   0.000010  -0.007589  -0.031364
    12  H    0.000001  -0.000062   0.000000   0.000006   0.000100  -0.000279
    13  H    0.000000   0.000011   0.000000  -0.000001   0.000496   0.000802
    14  H    0.000006   0.000293  -0.000010  -0.000010  -0.002264   0.005211
    15  C    0.000000   0.000003  -0.000013   0.000009   0.003527   0.000422
    16  O    0.000000   0.000000   0.000000   0.000000  -0.000071   0.000000
    17  N    0.000000  -0.000043   0.000001  -0.000010   0.000085   0.000000
    18  H   -0.000001   0.000033  -0.000004   0.000068  -0.000080  -0.000028
    19  C    0.000000   0.000000   0.000000   0.000000   0.000009   0.000000
    20  H    0.000000   0.000000   0.000000   0.000000   0.000000   0.000000
    21  H    0.000000   0.000000   0.000000   0.000000   0.000001   0.000000
    22  H    0.000000   0.000000   0.000000   0.000000  -0.000002   0.000000
              7          8          9         10         11         12
     1  H    0.003837  -0.000017  -0.000057   0.000002   0.000007   0.000001
     2  C   -0.123159  -0.001234   0.003562  -0.000059  -0.000658  -0.000062
     3  H    0.003766   0.000645  -0.000202   0.000007   0.000012   0.000000
     4  H    0.004222   0.000414  -0.000043   0.000000   0.000010   0.000006
     5  C    0.235688  -0.018013  -0.028976  -0.002132  -0.007589   0.000100
     6  O   -0.104753   0.002381   0.012379   0.001341  -0.031364  -0.000279
     7  N    7.519262   0.318719   0.113154  -0.048148  -0.054080   0.000613
     8  H    0.318719   0.328593  -0.029307   0.000828   0.004253  -0.000146
     9  C    0.113154  -0.029307   5.082167   0.414516   0.337029  -0.044740
    10  H   -0.048148   0.000828   0.414516   0.471999  -0.035138   0.004356
    11  C   -0.054080   0.004253   0.337029  -0.035138   5.216245   0.383674
    12  H    0.000613  -0.000146  -0.044740   0.004356   0.383674   0.554202
    13  H    0.004277  -0.000080  -0.039758  -0.000679   0.381927  -0.022795
    14  H   -0.002952  -0.000214  -0.028072  -0.002908   0.388667  -0.019702
    15  C   -0.036691  -0.005065   0.388461  -0.039784  -0.054141  -0.006598
    16  O    0.002030  -0.000056  -0.066145   0.003499  -0.001821   0.000086
    17  N   -0.006411   0.011300  -0.122327   0.003661   0.000363   0.002695
    18  H    0.008929   0.000225  -0.001659   0.000319  -0.000269   0.000899
    19  C    0.000091  -0.000384   0.003930  -0.000057  -0.000258  -0.000070
    20  H   -0.000032  -0.000014   0.000584  -0.000011  -0.000023  -0.000004
    21  H   -0.000006   0.000045  -0.000159  -0.000001   0.000041  -0.000015
    22  H    0.000009  -0.000120   0.000002   0.000006  -0.000005   0.000004
             13         14         15         16         17         18
     1  H    0.000000   0.000006   0.000000   0.000000   0.000000  -0.000001
     2  C    0.000011   0.000293   0.000003   0.000000  -0.000043   0.000033
     3  H    0.000000  -0.000010  -0.000013   0.000000   0.000001  -0.000004
     4  H   -0.000001  -0.000010   0.000009   0.000000  -0.000010   0.000068
     5  C    0.000496  -0.002264   0.003527  -0.000071   0.000085  -0.000080
     6  O    0.000802   0.005211   0.000422   0.000000   0.000000  -0.000028
     7  N    0.004277  -0.002952  -0.036691   0.002030  -0.006411   0.008929
     8  H   -0.000080  -0.000214  -0.005065  -0.000056   0.011300   0.000225
     9  C   -0.039758  -0.028072   0.388461  -0.066145  -0.122327  -0.001659
    10  H   -0.000679  -0.002908  -0.039784   0.003499   0.003661   0.000319
    11  C    0.381927   0.388667  -0.054141  -0.001821   0.000363  -0.000269
    12  H   -0.022795  -0.019702  -0.006598   0.000086   0.002695   0.000899
    13  H    0.506530  -0.018336  -0.002406   0.002938   0.000398  -0.000026
    14  H   -0.018336   0.409371   0.003978  -0.000046  -0.000074  -0.000013
    15  C   -0.002406   0.003978   4.181097   0.591967   0.262623  -0.021044
    16  O    0.002938  -0.000046   0.591967   8.201972  -0.099481   0.002555
    17  N    0.000398  -0.000074   0.262623  -0.099481   7.366813   0.317860
    18  H   -0.000026  -0.000013  -0.021044   0.002555   0.317860   0.328349
    19  C    0.000002   0.000003  -0.025585  -0.005142   0.182876  -0.021468
    20  H   -0.000004   0.000000  -0.001593   0.010861  -0.031722   0.002245
    21  H    0.000001   0.000000   0.001545   0.000373  -0.046918  -0.001747
    22  H    0.000000   0.000000   0.000271   0.000395  -0.048251  -0.000283
             19         20         21         22
     1  H    0.000000   0.000000   0.000000   0.000000
     2  C    0.000000   0.000000   0.000000   0.000000
     3  H    0.000000   0.000000   0.000000   0.000000
     4  H    0.000000   0.000000   0.000000   0.000000
     5  C    0.000009   0.000000   0.000001  -0.000002
     6  O    0.000000   0.000000   0.000000   0.000000
     7  N    0.000091  -0.000032  -0.000006   0.000009
     8  H   -0.000384  -0.000014   0.000045  -0.000120
     9  C    0.003930   0.000584  -0.000159   0.000002
    10  H   -0.000057  -0.000011  -0.000001   0.000006
    11  C   -0.000258  -0.000023   0.000041  -0.000005
    12  H   -0.000070  -0.000004  -0.000015   0.000004
    13  H    0.000002  -0.000004   0.000001   0.000000
    14  H    0.000003   0.000000   0.000000   0.000000
    15  C   -0.025585  -0.001593   0.001545   0.000271
    16  O   -0.005142   0.010861   0.000373   0.000395
    17  N    0.182876  -0.031722  -0.046918  -0.048251
    18  H   -0.021468   0.002245  -0.001747  -0.000283
    19  C    4.956667   0.396193   0.402206   0.402902
    20  H    0.396193   0.425164  -0.021882  -0.022180
    21  H    0.402206  -0.021882   0.528256  -0.036350
    22  H    0.402902  -0.022180  -0.036350   0.535225
 Mulliken atomic charges:
              1
     1  H    0.224954
     2  C   -0.576185
     3  H    0.187680
     4  H    0.177085
     5  C    0.760754
     6  O   -0.632181
     7  N   -0.838364
     8  H    0.387247
     9  C    0.005661
    10  H    0.228384
    11  C   -0.526883
    12  H    0.147774
    13  H    0.186705
    14  H    0.267072
    15  C    0.759018
    16  O   -0.643913
    17  N   -0.793437
    18  H    0.385140
    19  C   -0.291916
    20  H    0.242419
    21  H    0.174610
    22  H    0.168377
 Sum of Mulliken atomic charges =   0.00000
 Mulliken charges with hydrogens summed into heavy atoms:
              1
     2  C    0.013533
     5  C    0.760754
     6  O   -0.632181
     7  N   -0.451117
     9  C    0.234045
    11  C    0.074668
    15  C    0.759018
    16  O   -0.643913
    17  N   -0.408297
    19  C    0.293490
 Sum of Mulliken charges with hydrogens summed into heavy atoms =   0.00000
 Electronic spatial extent (au):  <R**2>=           1849.1664
 Charge=              0.0000 electrons
 Dipole moment (field-independent basis, Debye):
    X=              0.0089    Y=              5.8193    Z=              1.1468  Tot=              5.9312
 Quadrupole moment (field-independent basis, Debye-Ang):
   XX=            -70.5652   YY=            -58.5548   ZZ=            -61.3507
   XY=              0.0729   XZ=             -6.3455   YZ=             -0.8682
 Traceless Quadrupole moment (field-independent basis, Debye-Ang):
   XX=             -7.0750   YY=              4.9354   ZZ=              2.1395
   XY=              0.0729   XZ=             -6.3455   YZ=             -0.8682
 Octapole moment (field-independent basis, Debye-Ang**2):
  XXX=            -12.3229  YYY=              5.6655  ZZZ=             -1.1218  XYY=              1.1038
  XXY=             43.1498  XXZ=              8.2698  XZZ=              4.0522  YZZ=              3.0671
  YYZ=              1.9702  XYZ=              4.1405
 Hexadecapole moment (field-independent basis, Debye-Ang**3):
 XXXX=          -1689.9311 YYYY=           -518.8981 ZZZZ=           -169.3526 XXXY=              7.7072
 XXXZ=            -34.6949 YYYX=            -11.8182 YYYZ=              0.8671 ZZZX=             -2.5242
 ZZZY=              4.7323 XXYY=           -381.7945 XXZZ=           -316.4418 YYZZ=           -115.0937
 XXYZ=             -7.4720 YYXZ=             -7.2327 ZZXY=             -5.8872
 N-N= 5.588057619237D+02 E-N=-2.272513682651D+03  KE= 4.919109677531D+02
 Calling FoFJK, ICntrl=      2127 FMM=F ISym2X=0 I1Cent= 0 IOpClX= 0 NMat=1 NMatS=1 NMatT=0.
 ***** Axes restored to original set *****
 -------------------------------------------------------------------
 Center     Atomic                   Forces (Hartrees/Bohr)
 Number     Number              X              Y              Z
 -------------------------------------------------------------------
      1        1           0.004083784    0.008520828    0.001473890
      2        6           0.005858042    0.007407396    0.001132094
      3        1          -0.002579171   -0.000752366   -0.004404306
      4        1          -0.001993395   -0.002760306    0.003868544
      5        6           0.019938091   -0.055676992   -0.013691280
      6        8          -0.041362007    0.018057397    0.017194616
      7        7          -0.014633756    0.019355556    0.000171653
      8        1           0.011290777   -0.014891049    0.002672526
      9        6           0.009265170   -0.000240734    0.001580350
     10        1          -0.003369189    0.006652823   -0.003002702
     11        6           0.013662844   -0.003873349   -0.007040214
     12        1           0.003612607   -0.001538541    0.000643663
     13        1          -0.005063801    0.000710041   -0.000893762
     14        1           0.002215432    0.016018323   -0.003477436
     15        6           0.035322776    0.017975781    0.034356320
     16        8          -0.028355848   -0.027539552   -0.021331383
     17        7          -0.016637398   -0.000000479   -0.007669489
     18        1           0.014291651    0.011721242    0.002799075
     19        6          -0.001989650    0.004280723   -0.002257374
     20        1          -0.006768819   -0.006816903   -0.004268351
     21        1          -0.000467228    0.001506533    0.004909901
     22        1           0.003679089    0.001883628   -0.002766337
 -------------------------------------------------------------------
 Cartesian Forces:  Max     0.055676992 RMS     0.014334406

 GradGradGradGradGradGradGradGradGradGradGradGradGradGradGradGradGradGrad
 Berny optimization.
 Internal  Forces:  Max     0.046592503 RMS     0.011800561
 Search for a local minimum.
 Step number   1 out of a maximum of  108
 All quantities printed in internal units (Hartrees-Bohrs-Radians)
 Mixed Optimization -- RFO/linear search
 Second derivative matrix not updated -- first step.
     Eigenvalues ---    0.00369   0.00435   0.00999   0.01043   0.01269
     Eigenvalues ---    0.01422   0.01660   0.02551   0.02552   0.03503
     Eigenvalues ---    0.05232   0.05841   0.05844   0.05844   0.07165
     Eigenvalues ---    0.07463   0.07685   0.07686   0.15421   0.16000
     Eigenvalues ---    0.16000   0.16000   0.16000   0.16000   0.16000
     Eigenvalues ---    0.16000   0.16000   0.16000   0.16000   0.16000
     Eigenvalues ---    0.16180   0.22000   0.22000   0.25000   0.25000
     Eigenvalues ---    0.25000   0.25000   0.29422   0.29887   0.30174
     Eigenvalues ---    0.34808   0.34810   0.34810   0.34811   0.34812
     Eigenvalues ---    0.34813   0.34816   0.34818   0.34821   0.34825
     Eigenvalues ---    0.38366   0.38379   0.45968   0.45984   0.58334
     Eigenvalues ---    0.58340   0.91487   0.915111000.000001000.00000
     Eigenvalues --- 1000.000001000.000001000.000001000.000001000.00000
     Eigenvalues --- 1000.000001000.000001000.000001000.000001000.00000
     Eigenvalues --- 1000.000001000.000001000.000001000.000001000.00000
     Eigenvalues --- 1000.000001000.000001000.000001000.000001000.00000
     Eigenvalues --- 1000.000001000.000001000.000001000.000001000.00000
     Eigenvalues --- 1000.000001000.000001000.000001000.000001000.00000
     Eigenvalues --- 1000.000001000.000001000.000001000.000001000.00000
     Eigenvalues --- 1000.000001000.000001000.00000
 RFO step:  Lambda=-3.81805102D-02 EMin= 3.68895939D-03
 Linear search not attempted -- first point.
 Maximum step size (   0.300) exceeded in Quadratic search.
    -- Step size scaled by   0.715
 Iteration  1 RMS(Cart)=  0.14930654 RMS(Int)=  0.00566138
 Iteration  2 RMS(Cart)=  0.00919746 RMS(Int)=  0.00044134
 Iteration  3 RMS(Cart)=  0.00002333 RMS(Int)=  0.00044120
 Iteration  4 RMS(Cart)=  0.00000002 RMS(Int)=  0.00044120
 Iteration  1 RMS(Cart)=  0.00007546 RMS(Int)=  0.00003282
 Iteration  2 RMS(Cart)=  0.00004414 RMS(Int)=  0.00003649
 Iteration  3 RMS(Cart)=  0.00002666 RMS(Int)=  0.00004143
 Iteration  4 RMS(Cart)=  0.00001659 RMS(Int)=  0.00004507
 Iteration  5 RMS(Cart)=  0.00001059 RMS(Int)=  0.00004748
 Iteration  6 RMS(Cart)=  0.00000688 RMS(Int)=  0.00004905
 Iteration  7 RMS(Cart)=  0.00000454 RMS(Int)=  0.00005006
 Iteration  8 RMS(Cart)=  0.00000301 RMS(Int)=  0.00005072
 Iteration  9 RMS(Cart)=  0.00000201 RMS(Int)=  0.00005116
 Iteration 10 RMS(Cart)=  0.00000135 RMS(Int)=  0.00005144
 Iteration 11 RMS(Cart)=  0.00000091 RMS(Int)=  0.00005163
 Variable       Old X    -DE/DX   Delta X   Delta X   Delta X     New X
                                 (Linear)    (Quad)   (Total)
    R1        2.05980  -0.00869   0.00000  -0.01607  -0.01607   2.04373
    R2        2.05988  -0.00320   0.00000  -0.00592  -0.00592   2.05396
    R3        2.05981  -0.00283   0.00000  -0.00524  -0.00524   2.05457
    R4        2.89131  -0.00946   0.00000  -0.02034  -0.02034   2.87097
    R5        2.32255  -0.04659   0.00000  -0.03495  -0.03495   2.28760
    R6        2.52283   0.02496   0.00000   0.02871   0.02871   2.55154
    R7        1.90867  -0.01668   0.00000  -0.02395  -0.02395   1.88472
    R8        2.73817   0.02660   0.00000   0.04506   0.04506   2.78323
    R9        2.05975  -0.00599   0.00000  -0.01108  -0.01108   2.04867
   R10        2.88188   0.01343   0.00000   0.02848   0.02848   2.91037
   R11        2.87618   0.00308   0.00000   0.00649   0.00649   2.88266
   R12        2.05972  -0.00274   0.00000  -0.00507  -0.00507   2.05465
   R13        2.05984  -0.00420   0.00000  -0.00777  -0.00777   2.05207
   R14        2.05966  -0.01554   0.00000  -0.02876  -0.02876   2.03090
   R15        2.32245  -0.04474   0.00000  -0.03356  -0.03356   2.28889
   R16        2.52279   0.01526   0.00000   0.01755   0.01755   2.54033
   R17        1.90849  -0.01794   0.00000  -0.02575  -0.02575   1.88274
   R18        2.73835   0.00199   0.00000   0.00338   0.00338   2.74173
   R19        2.05983  -0.01032   0.00000  -0.01909  -0.01909   2.04074
   R20        2.05961  -0.00425   0.00000  -0.00785  -0.00785   2.05175
   R21        2.05984  -0.00405   0.00000  -0.00749  -0.00749   2.05235
    A1        1.91109   0.00039   0.00000   0.00015   0.00029   1.91138
    A2        1.91111   0.00019   0.00000  -0.00043  -0.00028   1.91084
    A3        1.93907  -0.00796   0.00000  -0.02988  -0.02973   1.90934
    A4        1.91008  -0.00464   0.00000  -0.01426  -0.01458   1.89550
    A5        1.89606   0.00580   0.00000   0.02145   0.02136   1.91742
    A6        1.89615   0.00627   0.00000   0.02321   0.02313   1.91928
    A7        2.10307  -0.00328   0.00000  -0.00814  -0.00838   2.09470
    A8        2.03504  -0.01701   0.00000  -0.04221  -0.04247   1.99257
    A9        2.14507   0.02029   0.00000   0.05035   0.05005   2.19512
   A10        2.09437  -0.02786   0.00000  -0.08112  -0.08118   2.01319
   A11        2.12749   0.04629   0.00000   0.12818   0.12811   2.25560
   A12        2.06132  -0.01842   0.00000  -0.04706  -0.04713   2.01419
   A13        1.91114  -0.00721   0.00000   0.00637   0.00501   1.91614
   A14        1.93905   0.02607   0.00000   0.07790   0.07675   2.01580
   A15        1.93900  -0.00523   0.00000  -0.01508  -0.01320   1.92581
   A16        1.89609   0.00027   0.00000   0.00751   0.00532   1.90141
   A17        1.89608   0.00078   0.00000  -0.00888  -0.00931   1.88677
   A18        1.88137  -0.01506   0.00000  -0.06986  -0.06942   1.81196
   A19        1.91115   0.00310   0.00000   0.01082   0.01060   1.92175
   A20        1.91106  -0.00359   0.00000  -0.01588  -0.01581   1.89526
   A21        1.91110   0.00814   0.00000   0.03264   0.03248   1.94358
   A22        1.91011  -0.00191   0.00000  -0.01341  -0.01340   1.89671
   A23        1.91023  -0.00371   0.00000  -0.00758  -0.00798   1.90225
   A24        1.91015  -0.00204   0.00000  -0.00662  -0.00650   1.90365
   A25        2.10312  -0.00726   0.00000  -0.01801  -0.01801   2.08510
   A26        2.03505   0.00888   0.00000   0.02203   0.02203   2.05708
   A27        2.14502  -0.00162   0.00000  -0.00402  -0.00402   2.14100
   A28        2.09442  -0.00217   0.00000  -0.00556  -0.00569   2.08873
   A29        2.12757   0.00544   0.00000   0.01506   0.01493   2.14251
   A30        2.06119  -0.00326   0.00000  -0.00950  -0.00962   2.05157
   A31        1.91111  -0.00461   0.00000  -0.01792  -0.01786   1.89325
   A32        1.91114   0.00427   0.00000   0.01604   0.01598   1.92712
   A33        1.91102   0.00420   0.00000   0.01585   0.01578   1.92680
   A34        1.91024  -0.00048   0.00000  -0.00310  -0.00304   1.90720
   A35        1.91010  -0.00040   0.00000  -0.00268  -0.00262   1.90748
   A36        1.91020  -0.00300   0.00000  -0.00820  -0.00839   1.90181
    D1        0.00011  -0.00147   0.00000  -0.02082  -0.02048  -0.02037
    D2        3.14154   0.00147   0.00000   0.02036   0.02001  -3.12164
    D3        2.10340  -0.00216   0.00000  -0.02524  -0.02508   2.07832
    D4       -1.03836   0.00077   0.00000   0.01593   0.01541  -1.02296
    D5       -2.10327  -0.00083   0.00000  -0.01680  -0.01627  -2.11954
    D6        1.03816   0.00210   0.00000   0.02437   0.02422   1.06237
    D7        0.00010   0.00560   0.00000   0.03286   0.03226   0.03237
    D8       -3.14155  -0.00102   0.00000   0.01002   0.00967  -3.13189
    D9        3.14153   0.00860   0.00000   0.07511   0.07547  -3.06619
   D10       -0.00013   0.00199   0.00000   0.05227   0.05287   0.05274
   D11       -1.30895   0.00083   0.00000  -0.01643  -0.01657  -1.32552
   D12        0.78549   0.01294   0.00000   0.04626   0.04669   0.83219
   D13        2.87985   0.00784   0.00000   0.00000   0.00000   2.87984
   D14        1.83258  -0.00567   0.00000  -0.03886  -0.03918   1.79340
   D15       -2.35616   0.00645   0.00000   0.02384   0.02409  -2.33208
   D16       -0.26181   0.00134   0.00000  -0.02243  -0.02261  -0.28442
   D17        1.04724  -0.00183   0.00000  -0.02966  -0.03044   1.01680
   D18        3.14157  -0.00447   0.00000  -0.04919  -0.05005   3.09152
   D19       -1.04726  -0.00418   0.00000  -0.04702  -0.04806  -1.09532
   D20       -3.13259   0.00555   0.00000   0.03130   0.03163  -3.10096
   D21       -1.03826   0.00291   0.00000   0.01176   0.01202  -1.02624
   D22        1.05609   0.00320   0.00000   0.01393   0.01402   1.07011
   D23       -1.08102  -0.00163   0.00000  -0.01345  -0.01267  -1.09369
   D24        1.01331  -0.00427   0.00000  -0.03298  -0.03228   0.98102
   D25        3.10766  -0.00398   0.00000  -0.03082  -0.03029   3.07737
   D26        2.61796  -0.01061   0.00000   0.00003  -0.00018   2.61778
   D27       -0.52355  -0.01434   0.00000   0.00000   0.00000  -0.52355
   D28        0.51464   0.00104   0.00000   0.00722   0.00754   0.52218
   D29       -2.62687  -0.00269   0.00000   0.00719   0.00772  -2.61915
   D30       -1.53694   0.00856   0.00000   0.04137   0.04148  -1.49546
   D31        1.60474   0.00482   0.00000   0.04134   0.04166   1.64639
   D32       -0.00008  -0.00081   0.00000  -0.03273  -0.03286  -0.03293
   D33       -3.14153   0.00148   0.00000  -0.00276  -0.00285   3.13881
   D34       -3.14158  -0.00465   0.00000  -0.03276  -0.03267   3.10893
   D35        0.00015  -0.00235   0.00000  -0.00279  -0.00266  -0.00251
   D36       -0.00016  -0.00115   0.00000  -0.01524  -0.01523  -0.01539
   D37        2.09436  -0.00195   0.00000  -0.02019  -0.02028   2.07408
   D38       -2.09442  -0.00042   0.00000  -0.01069  -0.01058  -2.10500
   D39        3.14157   0.00110   0.00000   0.01418   0.01417  -3.12744
   D40       -1.04710   0.00031   0.00000   0.00923   0.00912  -1.03797
   D41        1.04731   0.00184   0.00000   0.01874   0.01883   1.06614
         Item               Value     Threshold  Converged?
 Maximum Force            0.046593     0.000450     NO 
 RMS     Force            0.011667     0.000300     NO 
 Maximum Displacement     0.540025     0.001800     NO 
 RMS     Displacement     0.148867     0.001200     NO 
 Predicted change in Energy=-1.927467D-02
 GradGradGradGradGradGradGradGradGradGradGradGradGradGradGradGradGradGrad

                          Input orientation:                          
 ---------------------------------------------------------------------
 Center     Atomic      Atomic             Coordinates (Angstroms)
 Number     Number       Type             X           Y           Z
 ---------------------------------------------------------------------
      1          1           0        1.751662    1.172646   -0.429671
      2          6           0        1.880957    2.224827   -0.215600
      3          1           0        1.505638    2.441323    0.781213
      4          1           0        1.315914    2.813214   -0.934348
      5          6           0        3.355840    2.579391   -0.300066
      6          8           0        4.171395    1.721428   -0.553419
      7          7           0        3.630176    3.872372   -0.024344
      8          1           0        2.843725    4.431190    0.228492
      9          6           0        4.928002    4.568667   -0.018847
     10          1           0        5.483441    4.302623    0.873341
     11          6           0        5.816784    4.324088   -1.252602
     12          1           0        5.292193    4.623840   -2.156549
     13          1           0        6.715624    4.925796   -1.156515
     14          1           0        6.094269    3.289190   -1.336158
     15          6           0        4.719029    6.079719   -0.014156
     16          8           0        5.540670    6.793213    0.517731
     17          7           0        3.614840    6.563091   -0.609321
     18          1           0        2.982251    5.937568   -1.057843
     19          6           0        3.309072    7.980309   -0.664131
     20          1           0        4.090520    8.519166   -0.149174
     21          1           0        3.260448    8.317686   -1.694978
     22          1           0        2.356952    8.181052   -0.181754
 ---------------------------------------------------------------------
                    Distance matrix (angstroms):
                    1          2          3          4          5
     1  H    0.000000
     2  C    1.081494   0.000000
     3  H    1.770963   1.086909   0.000000
     4  H    1.770887   1.087231   1.765629   0.000000
     5  C    2.137549   1.519252   2.147434   2.149019   0.000000
     6  O    2.484267   2.369311   3.066879   3.080727   1.210544
     7  N    3.313854   2.410549   2.685235   2.702912   1.350216
     8  H    3.499127   2.447892   2.460803   2.510826   1.992686
     9  C    4.668070   3.849257   4.108317   4.119095   2.551078
    10  H    5.041902   4.298943   4.392703   4.780623   2.978775
    11  C    5.209034   4.579629   5.125153   4.758347   3.163470
    12  H    5.237195   4.599899   5.266101   4.536842   3.372798
    13  H    6.265411   5.617344   6.088625   5.802520   4.186559
    14  H    4.915254   4.487818   5.124224   4.818785   3.012690
    15  C    5.749547   4.791181   4.918986   4.806038   3.767270
    16  O    6.844335   5.899272   5.940526   5.983100   4.816489
    17  N    5.706190   4.688486   4.834386   4.410474   4.004072
    18  H    4.961193   3.963163   4.217374   3.543095   3.462824
    19  C    6.987473   5.946954   6.001814   5.544779   5.413377
    20  H    7.714940   6.671228   6.669889   6.393186   5.986941
    21  H    7.411413   6.419851   6.613813   5.887188   5.906176
    22  H    7.038863   5.975310   5.881882   5.519406   5.691255
                    6          7          8          9         10
     6  O    0.000000
     7  N    2.280219   0.000000
     8  H    3.117195   0.997352   0.000000
     9  C    2.994160   1.472824   2.103399   0.000000
    10  H    3.227952   2.103698   2.720379   1.084108   0.000000
    11  C    3.157532   2.548317   3.323281   1.540099   2.152025
    12  H    3.500030   2.805940   3.423526   2.169204   3.052865
    13  H    4.135796   3.451305   4.141797   2.148819   2.454982
    14  H    2.601539   2.851791   3.783958   2.175443   2.506401
    15  C    4.425540   2.461318   2.508643   1.525440   2.128390
    16  O    5.361462   3.532017   3.596710   2.368941   2.516500
    17  N    4.873867   2.753617   2.416930   2.459834   3.286286
    18  H    4.409574   2.398534   1.985704   2.596026   3.557874
    19  C    6.318976   4.169843   3.689115   3.831009   4.540603
    20  H    6.810228   4.671210   4.290533   4.040397   4.556863
    21  H    6.756005   4.763249   4.356403   4.432301   5.259153
    22  H    6.719902   4.495621   3.803513   4.436909   5.092187
                   11         12         13         14         15
    11  C    0.000000
    12  H    1.087275   0.000000
    13  H    1.085909   1.765617   0.000000
    14  H    1.074707   1.760016   1.759783   0.000000
    15  C    2.412686   2.652912   2.573502   3.380240   0.000000
    16  O    3.050720   3.452490   2.769632   4.002693   1.211227
    17  N    3.205543   2.994682   3.548947   4.170647   1.344286
    18  H    3.267388   2.875563   3.869302   4.095854   2.031228
    19  C    4.472457   4.174442   4.601857   5.496867   2.454117
    20  H    4.668643   4.543912   4.562699   5.725085   2.522729
    21  H    4.762287   4.240936   4.871663   5.783171   3.156124
    22  H    5.290872   5.016892   5.526742   6.263426   3.165928
                   16         17         18         19         20
    16  O    0.000000
    17  N    2.243217   0.000000
    18  H    3.124111   0.996303   0.000000
    19  C    2.790345   1.450864   2.105852   0.000000
    20  H    2.350875   2.065003   2.952726   1.079911   0.000000
    21  H    3.524132   2.093525   2.479576   1.085740   1.766103
    22  H    3.542801   2.093536   2.488323   1.086056   1.766534
                   21         22
    21  H    0.000000
    22  H    1.767716   0.000000
 Stoichiometry    C6H12N2O2
 Framework group  C1[X(C6H12N2O2)]
 Deg. of freedom    60
 Full point group                 C1      NOp   1
 Largest Abelian subgroup         C1      NOp   1
 Largest concise Abelian subgroup C1      NOp   1
                         Standard orientation:                         
 ---------------------------------------------------------------------
 Center     Atomic      Atomic             Coordinates (Angstroms)
 Number     Number       Type             X           Y           Z
 ---------------------------------------------------------------------
      1          1           0        3.951347    1.460396    0.086019
      2          6           0        2.893872    1.574613   -0.109765
      3          1           0        2.752447    2.024070   -1.089233
      4          1           0        2.455123    2.229519    0.639013
      5          6           0        2.222465    0.212502   -0.065116
      6          8           0        2.881719   -0.781064    0.143755
      7          7           0        0.897223    0.240794   -0.322057
      8          1           0        0.523205    1.139865   -0.537677
      9          6           0       -0.069371   -0.869998   -0.354398
     10          1           0        0.054860   -1.438072   -1.269357
     11          6           0       -0.011137   -1.834602    0.844790
     12          1           0       -0.174910   -1.289566    1.771225
     13          1           0       -0.798315   -2.574188    0.732708
     14          1           0        0.937574   -2.336762    0.897487
     15          6           0       -1.496465   -0.332213   -0.320404
     16          8           0       -2.381436   -0.956193   -0.863124
     17          7           0       -1.715020    0.829383    0.319936
     18          1           0       -0.958848    1.291549    0.775156
     19          6           0       -3.028367    1.438629    0.414501
     20          1           0       -3.733923    0.814617   -0.113710
     21          1           0       -3.332583    1.523538    1.453287
     22          1           0       -3.019643    2.428275   -0.032761
 ---------------------------------------------------------------------
 Rotational constants (GHZ):      2.3068849      0.7445784      0.6168943
 Standard basis: 6-31G(d) (6D, 7F)
 There are   174 symmetry adapted basis functions of A   symmetry.
 Integral buffers will be    131072 words long.
 Raffenetti 1 integral format.
 Two-electron integral symmetry is turned on.
   174 basis functions,   328 primitive gaussians,   174 cartesian basis functions
    39 alpha electrons       39 beta electrons
       nuclear repulsion energy       554.1397247855 Hartrees.
 NAtoms=   22 NActive=   22 NUniq=   22 SFac= 7.50D-01 NAtFMM=   80 NAOKFM=F Big=F
 One-electron integrals computed using PRISM.
 NBasis=   174 RedAO= T  NBF=   174
 NBsUse=   174 1.00D-06 NBFU=   174
 Initial guess read from the read-write file.
 B after Tr=     0.000000    0.000000    0.000000
         Rot=    1.000000    0.000000    0.000000    0.000000 Ang=   0.00 deg.
 Initial guess orbital symmetries:
       Occupied  (A) (A) (A) (A) (A) (A) (A) (A) (A) (A) (A) (A)
                 (A) (A) (A) (A) (A) (A) (A) (A) (A) (A) (A) (A)
                 (A) (A) (A) (A) (A) (A) (A) (A) (A) (A) (A) (A)
                 (A) (A) (A)
       Virtual   (A) (A) (A) (A) (A) (A) (A) (A) (A) (A) (A) (A)
                 (A) (A) (A) (A) (A) (A) (A) (A) (A) (A) (A) (A)
                 (A) (A) (A) (A) (A) (A) (A) (A) (A) (A) (A) (A)
                 (A) (A) (A) (A) (A) (A) (A) (A) (A) (A) (A) (A)
                 (A) (A) (A) (A) (A) (A) (A) (A) (A) (A) (A) (A)
                 (A) (A) (A) (A) (A) (A) (A) (A) (A) (A) (A) (A)
                 (A) (A) (A) (A) (A) (A) (A) (A) (A) (A) (A) (A)
                 (A) (A) (A) (A) (A) (A) (A) (A) (A) (A) (A) (A)
                 (A) (A) (A) (A) (A) (A) (A) (A) (A) (A) (A) (A)
                 (A) (A) (A) (A) (A) (A) (A) (A) (A) (A) (A) (A)
                 (A) (A) (A) (A) (A) (A) (A) (A) (A) (A) (A) (A)
                 (A) (A) (A)
 Harris functional with IExCor=  205 diagonalized for initial guess.
 ExpMin= 1.61D-01 ExpMax= 5.48D+03 ExpMxC= 8.25D+02 IAcc=1 IRadAn=         1 AccDes= 0.00D+00
 HarFok:  IExCor=  205 AccDes= 0.00D+00 IRadAn=         1 IDoV= 1
 ScaDFX=  1.000000  1.000000  1.000000  1.000000
 FoFCou: FMM=F IPFlag=           0 FMFlag=      100000 FMFlg1=           0
         NFxFlg=           0 DoJE=T BraDBF=F KetDBF=T FulRan=T
         Omega=  0.000000  0.000000  1.000000  0.000000  0.000000 ICntrl=     500 IOpCl=  0
         NMat0=    1 NMatS0=    1 NMatT0=    0 NMatD0=    1 NMtDS0=    0 NMtDT0=    0
         I1Cent=           4 NGrid=           0.
 Petite list used in FoFCou.
 Requested convergence on RMS density matrix=1.00D-08 within 128 cycles.
 Requested convergence on MAX density matrix=1.00D-06.
 Requested convergence on             energy=1.00D-06.
 No special actions if energy rises.
 Integral accuracy reduced to 1.0D-05 until final iterations.
 Initial convergence to 1.0D-05 achieved.  Increase integral accuracy.
 SCF Done:  E(RHF) =  -492.843953120     A.U. after   14 cycles
             Convg  =    0.5288D-08             -V/T =  2.0017
 Calling FoFJK, ICntrl=      2127 FMM=F ISym2X=0 I1Cent= 0 IOpClX= 0 NMat=1 NMatS=1 NMatT=0.
 ***** Axes restored to original set *****
 -------------------------------------------------------------------
 Center     Atomic                   Forces (Hartrees/Bohr)
 Number     Number              X              Y              Z
 -------------------------------------------------------------------
      1        1           0.001364989    0.002001881    0.000272677
      2        6           0.000427163    0.004803941   -0.000716418
      3        1          -0.001441723   -0.000451864   -0.001445734
      4        1          -0.001642644   -0.001121807    0.001523640
      5        6           0.010376908   -0.031567762    0.000899679
      6        8          -0.006109983    0.022239781    0.002254602
      7        7           0.003081091    0.015734543   -0.008110928
      8        1           0.003441111   -0.003894783    0.003897189
      9        6          -0.001718364   -0.004248393   -0.008392235
     10        1          -0.002204723    0.004023958   -0.001024189
     11        6          -0.003592833   -0.003474886   -0.000254987
     12        1           0.001397910   -0.001438418    0.000457627
     13        1          -0.002363154   -0.001069721    0.000451533
     14        1          -0.000009151   -0.004292592   -0.000516906
     15        6           0.011432689    0.010888251    0.027258853
     16        8          -0.009118190   -0.010666500   -0.009934553
     17        7          -0.008622385    0.001133378   -0.003706278
     18        1           0.004930857    0.002268766   -0.001388334
     19        6           0.000709315   -0.000085585   -0.001166401
     20        1          -0.001587686   -0.001254580   -0.001061975
     21        1           0.000054187    0.000335328    0.001420362
     22        1           0.001194614    0.000137063   -0.000717223
 -------------------------------------------------------------------
 Cartesian Forces:  Max     0.031567762 RMS     0.007422079

 GradGradGradGradGradGradGradGradGradGradGradGradGradGradGradGradGradGrad
 Berny optimization.
 Using GEDIIS/GDIIS optimizer.
 Internal  Forces:  Max     0.020350467 RMS     0.004834453
 Search for a local minimum.
 Step number   2 out of a maximum of  108
 All quantities printed in internal units (Hartrees-Bohrs-Radians)
 Mixed Optimization -- RFO/linear search
 Update second derivatives using D2CorX and points    1    2
 DE= -8.12D-03 DEPred=-1.93D-02 R= 4.22D-01
 Trust test= 4.22D-01 RLast= 3.00D-01 DXMaxT set to 3.00D-01
 Use linear search instead of GDIIS.
     Eigenvalues ---    0.00369   0.00438   0.01004   0.01043   0.01342
     Eigenvalues ---    0.01401   0.01660   0.02548   0.02617   0.03566
     Eigenvalues ---    0.04996   0.05617   0.05902   0.06249   0.07250
     Eigenvalues ---    0.07271   0.07528   0.07737   0.15251   0.15913
     Eigenvalues ---    0.15996   0.15998   0.16000   0.16000   0.16000
     Eigenvalues ---    0.16000   0.16000   0.16000   0.16000   0.16167
     Eigenvalues ---    0.17321   0.21974   0.24043   0.24699   0.25000
     Eigenvalues ---    0.25000   0.29223   0.29687   0.30128   0.33135
     Eigenvalues ---    0.34472   0.34808   0.34810   0.34811   0.34812
     Eigenvalues ---    0.34812   0.34815   0.34817   0.34824   0.35929
     Eigenvalues ---    0.38367   0.44909   0.45975   0.51111   0.57619
     Eigenvalues ---    0.59190   0.84297   0.915311000.000001000.00000
     Eigenvalues --- 1000.000001000.000001000.000001000.000001000.00000
     Eigenvalues --- 1000.000001000.000001000.000001000.000001000.00000
     Eigenvalues --- 1000.000001000.000001000.000001000.000001000.00000
     Eigenvalues --- 1000.000001000.000001000.000001000.000001000.00000
     Eigenvalues --- 1000.000001000.000001000.000001000.000001000.00000
     Eigenvalues --- 1000.000001000.000001000.000001000.000001000.00000
     Eigenvalues --- 1000.000001000.000001000.000001000.000001000.00000
     Eigenvalues --- 1000.000001000.000001000.00000
 RFO step:  Lambda=-5.45533638D-03 EMin= 3.68894733D-03
 Quartic linear search produced a step of -0.25800.
 Maximum step size (   0.300) exceeded in Quadratic search.
    -- Step size scaled by   0.942
 Iteration  1 RMS(Cart)=  0.07143368 RMS(Int)=  0.00219322
 Iteration  2 RMS(Cart)=  0.00259406 RMS(Int)=  0.00042928
 Iteration  3 RMS(Cart)=  0.00000382 RMS(Int)=  0.00042927
 Iteration  4 RMS(Cart)=  0.00000000 RMS(Int)=  0.00042927
 Iteration  1 RMS(Cart)=  0.00005036 RMS(Int)=  0.00002351
 Iteration  2 RMS(Cart)=  0.00003320 RMS(Int)=  0.00002599
 Iteration  3 RMS(Cart)=  0.00002214 RMS(Int)=  0.00002983
 Iteration  4 RMS(Cart)=  0.00001486 RMS(Int)=  0.00003304
 Iteration  5 RMS(Cart)=  0.00001002 RMS(Int)=  0.00003540
 Iteration  6 RMS(Cart)=  0.00000677 RMS(Int)=  0.00003705
 Iteration  7 RMS(Cart)=  0.00000458 RMS(Int)=  0.00003820
 Iteration  8 RMS(Cart)=  0.00000310 RMS(Int)=  0.00003898
 Iteration  9 RMS(Cart)=  0.00000210 RMS(Int)=  0.00003952
 Iteration 10 RMS(Cart)=  0.00000143 RMS(Int)=  0.00003988
 Iteration 11 RMS(Cart)=  0.00000097 RMS(Int)=  0.00004013
 Variable       Old X    -DE/DX   Delta X   Delta X   Delta X     New X
                                 (Linear)    (Quad)   (Total)
    R1        2.04373  -0.00216   0.00415  -0.01242  -0.00828   2.03545
    R2        2.05396  -0.00092   0.00153  -0.00481  -0.00329   2.05067
    R3        2.05457  -0.00076   0.00135  -0.00416  -0.00281   2.05176
    R4        2.87097   0.00001   0.00525  -0.01003  -0.00478   2.86619
    R5        2.28760  -0.02035   0.00902  -0.03462  -0.02560   2.26199
    R6        2.55154   0.00275  -0.00741   0.01859   0.01118   2.56272
    R7        1.88472  -0.00391   0.00618  -0.01840  -0.01222   1.87250
    R8        2.78323  -0.01202  -0.01163   0.00155  -0.01008   2.77315
    R9        2.04867  -0.00296   0.00286  -0.01146  -0.00860   2.04006
   R10        2.91037  -0.00111  -0.00735   0.01157   0.00422   2.91458
   R11        2.88266   0.00290  -0.00167   0.00982   0.00814   2.89081
   R12        2.05465  -0.00145   0.00131  -0.00544  -0.00413   2.05052
   R13        2.05207  -0.00251   0.00201  -0.00890  -0.00689   2.04518
   R14        2.03090   0.00417   0.00742  -0.00634   0.00108   2.03198
   R15        2.28889  -0.01683   0.00866  -0.03118  -0.02252   2.26636
   R16        2.54033   0.00657  -0.00453   0.01716   0.01263   2.55297
   R17        1.88274  -0.00393   0.00664  -0.01937  -0.01273   1.87001
   R18        2.74173  -0.00087  -0.00087   0.00018  -0.00070   2.74104
   R19        2.04074  -0.00228   0.00493  -0.01418  -0.00926   2.03148
   R20        2.05175  -0.00125   0.00203  -0.00644  -0.00442   2.04734
   R21        2.05235  -0.00134   0.00193  -0.00645  -0.00451   2.04784
    A1        1.91138  -0.00031  -0.00007  -0.00244  -0.00250   1.90888
    A2        1.91084  -0.00051   0.00007  -0.00255  -0.00244   1.90839
    A3        1.90934  -0.00271   0.00767  -0.02500  -0.01730   1.89204
    A4        1.89550  -0.00232   0.00376  -0.01457  -0.01090   1.88460
    A5        1.91742   0.00246  -0.00551   0.01974   0.01419   1.93161
    A6        1.91928   0.00339  -0.00597   0.02487   0.01888   1.93816
    A7        2.09470   0.01105   0.00216   0.02737   0.02771   2.12241
    A8        1.99257   0.00239   0.01096  -0.01259  -0.00336   1.98921
    A9        2.19512  -0.01337  -0.01291  -0.01105  -0.02561   2.16951
   A10        2.01319   0.00761   0.02095  -0.01469   0.00568   2.01887
   A11        2.25560  -0.01630  -0.03305   0.00928  -0.02434   2.23126
   A12        2.01419   0.00863   0.01216   0.00414   0.01572   2.02991
   A13        1.91614   0.00199  -0.00129  -0.00541  -0.00663   1.90952
   A14        2.01580  -0.01103  -0.01980  -0.01714  -0.03758   1.97822
   A15        1.92581   0.00293   0.00340   0.02299   0.02645   1.95225
   A16        1.90141   0.00173  -0.00137  -0.00299  -0.00418   1.89723
   A17        1.88677  -0.00631   0.00240  -0.01739  -0.01484   1.87193
   A18        1.81196   0.01103   0.01791   0.02049   0.03868   1.85064
   A19        1.92175   0.00205  -0.00274   0.01348   0.01081   1.93256
   A20        1.89526  -0.00113   0.00408  -0.00940  -0.00534   1.88992
   A21        1.94358  -0.00093  -0.00838   0.00746  -0.00088   1.94270
   A22        1.89671  -0.00002   0.00346  -0.00075   0.00271   1.89942
   A23        1.90225  -0.00092   0.00206  -0.01165  -0.00948   1.89277
   A24        1.90365   0.00098   0.00168   0.00064   0.00228   1.90594
   A25        2.08510  -0.00123   0.00465  -0.01203  -0.00757   2.07753
   A26        2.05708  -0.00034  -0.00568   0.00966   0.00379   2.06087
   A27        2.14100   0.00158   0.00104   0.00238   0.00322   2.14422
   A28        2.08873  -0.00102   0.00147  -0.00702  -0.00572   2.08301
   A29        2.14251   0.00062  -0.00385   0.00873   0.00471   2.14721
   A30        2.05157   0.00035   0.00248  -0.00284  -0.00053   2.05104
   A31        1.89325  -0.00053   0.00461  -0.00994  -0.00534   1.88791
   A32        1.92712   0.00107  -0.00412   0.01147   0.00735   1.93448
   A33        1.92680   0.00048  -0.00407   0.00875   0.00469   1.93149
   A34        1.90720  -0.00036   0.00078  -0.00274  -0.00196   1.90524
   A35        1.90748  -0.00014   0.00068  -0.00187  -0.00120   1.90627
   A36        1.90181  -0.00054   0.00216  -0.00585  -0.00366   1.89815
    D1       -0.02037   0.00081   0.00528   0.04589   0.05183   0.03146
    D2       -3.12164  -0.00067  -0.00516  -0.04873  -0.05455   3.10699
    D3        2.07832   0.00026   0.00647   0.03951   0.04660   2.12491
    D4       -1.02296  -0.00122  -0.00397  -0.05511  -0.05978  -1.08274
    D5       -2.11954   0.00103   0.00420   0.04927   0.05418  -2.06536
    D6        1.06237  -0.00045  -0.00625  -0.04534  -0.05220   1.01018
    D7        0.03237   0.00193  -0.00832   0.06464   0.05526   0.08763
    D8       -3.13189  -0.00089  -0.00249  -0.00754  -0.01100   3.14030
    D9       -3.06619  -0.00034  -0.01947  -0.03738  -0.05588  -3.12207
   D10        0.05274  -0.00316  -0.01364  -0.10955  -0.12214  -0.06940
   D11       -1.32552   0.00025   0.00428  -0.01060  -0.00622  -1.33174
   D12        0.83219  -0.00408  -0.01205  -0.03183  -0.04354   0.78864
   D13        2.87984   0.00498   0.00000   0.00000   0.00000   2.87984
   D14        1.79340  -0.00258   0.01011  -0.08301  -0.07295   1.72045
   D15       -2.33208  -0.00691  -0.00621  -0.10424  -0.11028  -2.44236
   D16       -0.28442   0.00215   0.00583  -0.07241  -0.06674  -0.35116
   D17        1.01680   0.00281   0.00785   0.05143   0.05920   1.07600
   D18        3.09152   0.00330   0.01291   0.05276   0.06560  -3.12607
   D19       -1.09532   0.00320   0.01240   0.05207   0.06445  -1.03087
   D20       -3.10096  -0.00127  -0.00816   0.02919   0.02103  -3.07993
   D21       -1.02624  -0.00078  -0.00310   0.03052   0.02743  -0.99881
   D22        1.07011  -0.00087  -0.00362   0.02983   0.02628   1.09639
   D23       -1.09369  -0.00229   0.00327   0.01816   0.02143  -1.07226
   D24        0.98102  -0.00180   0.00833   0.01949   0.02783   1.00886
   D25        3.07737  -0.00189   0.00781   0.01880   0.02668   3.10405
   D26        2.61778   0.00190   0.00005   0.03534   0.03515   2.65293
   D27       -0.52355  -0.00182   0.00000   0.00000   0.00000  -0.52355
   D28        0.52218   0.00164  -0.00194   0.03906   0.03698   0.55916
   D29       -2.61915  -0.00209  -0.00199   0.00371   0.00183  -2.61732
   D30       -1.49546  -0.00292  -0.01070   0.04008   0.02976  -1.46570
   D31        1.64639  -0.00664  -0.01075   0.00473  -0.00539   1.64100
   D32       -0.03293   0.00002   0.00848  -0.02234  -0.01383  -0.04676
   D33        3.13881   0.00194   0.00073   0.02349   0.02417  -3.12020
   D34        3.10893  -0.00383   0.00843  -0.05889  -0.05042   3.05851
   D35       -0.00251  -0.00191   0.00069  -0.01307  -0.01241  -0.01493
   D36       -0.01539  -0.00104   0.00393  -0.02488  -0.02098  -0.03637
   D37        2.07408  -0.00117   0.00523  -0.02754  -0.02232   2.05176
   D38       -2.10500  -0.00084   0.00273  -0.02167  -0.01898  -2.12398
   D39       -3.12744   0.00086  -0.00366   0.02009   0.01646  -3.11098
   D40       -1.03797   0.00073  -0.00235   0.01744   0.01512  -1.02285
   D41        1.06614   0.00107  -0.00486   0.02330   0.01846   1.08460
         Item               Value     Threshold  Converged?
 Maximum Force            0.020350     0.000450     NO 
 RMS     Force            0.004816     0.000300     NO 
 Maximum Displacement     0.253309     0.001800     NO 
 RMS     Displacement     0.071597     0.001200     NO 
 Predicted change in Energy=-3.119562D-03
 GradGradGradGradGradGradGradGradGradGradGradGradGradGradGradGradGradGrad

                          Input orientation:                          
 ---------------------------------------------------------------------
 Center     Atomic      Atomic             Coordinates (Angstroms)
 Number     Number       Type             X           Y           Z
 ---------------------------------------------------------------------
      1          1           0        1.837382    1.133381   -0.487690
      2          6           0        1.919441    2.171558   -0.212682
      3          1           0        1.544492    2.307278    0.796569
      4          1           0        1.307632    2.770008   -0.880808
      5          6           0        3.378462    2.576443   -0.300826
      6          8           0        4.222066    1.807795   -0.661814
      7          7           0        3.605908    3.882812   -0.016632
      8          1           0        2.817236    4.399436    0.288250
      9          6           0        4.890702    4.591867   -0.008220
     10          1           0        5.437458    4.332959    0.885908
     11          6           0        5.770830    4.276484   -1.234881
     12          1           0        5.276457    4.582354   -2.151101
     13          1           0        6.697978    4.826293   -1.137935
     14          1           0        5.988116    3.225406   -1.300042
     15          6           0        4.703255    6.110074   -0.001801
     16          8           0        5.548874    6.798852    0.497050
     17          7           0        3.603180    6.617507   -0.599693
     18          1           0        2.973767    6.005761   -1.056694
     19          6           0        3.331753    8.040161   -0.679185
     20          1           0        4.117896    8.560771   -0.162858
     21          1           0        3.304377    8.370226   -1.710723
     22          1           0        2.382138    8.274973   -0.212890
 ---------------------------------------------------------------------
                    Distance matrix (angstroms):
                    1          2          3          4          5
     1  H    0.000000
     2  C    1.077115   0.000000
     3  H    1.764410   1.085170   0.000000
     4  H    1.764575   1.085746   1.756080   0.000000
     5  C    2.119499   1.516721   2.154106   2.159209   0.000000
     6  O    2.484325   2.374052   3.089622   3.076968   1.196996
     7  N    3.302870   2.410600   2.719015   2.695775   1.356134
     8  H    3.497044   2.453652   2.501078   2.510107   1.996319
     9  C    4.638295   3.837719   4.130879   4.113267   2.536616
    10  H    5.008455   4.272586   4.389368   4.756003   2.955190
    11  C    5.090128   4.506528   5.085911   4.723872   3.079938
    12  H    5.146804   4.564971   5.271840   4.544206   3.324091
    13  H    6.138878   5.544198   6.053608   5.774968   4.096556
    14  H    4.718589   4.341320   4.998453   4.721236   2.868777
    15  C    5.763401   4.827628   5.007638   4.843444   3.785636
    16  O    6.844155   5.923542   6.024868   6.009843   4.814149
    17  N    5.762484   4.769823   4.976527   4.489077   4.058326
    18  H    5.035397   4.065104   4.376779   3.643767   3.534874
    19  C    7.069189   6.054151   6.183697   5.649091   5.477002
    20  H    7.776400   6.757050   6.830014   6.476571   6.031416
    21  H    7.484639   6.525769   6.792868   6.003182   5.963323
    22  H    7.167608   6.120927   6.110159   5.648479   5.785640
                    6          7          8          9         10
     6  O    0.000000
     7  N    2.258674   0.000000
     8  H    3.097220   0.990887   0.000000
     9  C    2.936888   1.467490   2.103375   0.000000
    10  H    3.201417   2.090882   2.688341   1.079556   0.000000
    11  C    2.970101   2.515153   3.325472   1.542331   2.147573
    12  H    3.320827   2.799294   3.468668   2.177346   3.051482
    13  H    3.932959   3.421751   4.156486   2.144168   2.434796
    14  H    2.352847   2.784644   3.735706   2.177231   2.511628
    15  C    4.379128   2.482959   2.562710   1.529749   2.117834
    16  O    5.292829   3.541508   3.641791   2.357811   2.498851
    17  N    4.849763   2.796161   2.515152   2.471997   3.284927
    18  H    4.397396   2.447088   2.100870   2.602506   3.555523
    19  C    6.295660   4.218730   3.802044   3.843338   4.541680
    20  H    6.772185   4.708164   4.383141   4.046399   4.551434
    21  H    6.708790   4.806011   4.472178   4.437448   5.252814
    22  H    6.738787   4.563683   3.931951   4.460948   5.107036
                   11         12         13         14         15
    11  C    0.000000
    12  H    1.085091   0.000000
    13  H    1.082263   1.762593   0.000000
    14  H    1.075278   1.752732   1.758699   0.000000
    15  C    2.454029   2.698514   2.630174   3.414324   0.000000
    16  O    3.067766   3.464069   2.807954   4.023927   1.199308
    17  N    3.253084   3.057542   3.616065   4.205324   1.350972
    18  H    3.293283   2.919964   3.907364   4.108028   2.028500
    19  C    4.519199   4.231410   4.676630   5.533859   2.462743
    20  H    4.715564   4.595995   4.642621   5.766891   2.524777
    21  H    4.802973   4.293135   4.940049   5.817241   3.159994
[...]
    13  H    6.133558   5.568481   6.062426   5.869392   4.096259
    14  H    4.802595   4.433371   4.947533   4.980300   2.926595
    15  C    5.709155   4.822557   5.181820   4.739219   3.759187
    16  O    6.810088   5.903037   6.152002   5.865416   4.801531
    17  N    5.637007   4.770987   5.264954   4.396911   3.994524
    18  H    4.916641   4.141413   4.786353   3.696625   3.471029
    19  C    6.955755   6.096324   6.577528   5.587078   5.423322
    20  H    7.538553   6.597605   6.926346   6.119532   5.944320
    21  H    7.576236   6.788987   7.353413   6.342469   5.967122
    22  H    6.982057   6.164280   6.685984   5.488765   5.723957
                    6          7          8          9         10
     6  O    0.000000
     7  N    2.267538   0.000000
     8  H    3.095708   0.996324   0.000000
     9  C    2.917005   1.459804   2.082506   0.000000
    10  H    3.249452   2.102485   2.558963   1.083536   0.000000
    11  C    2.905738   2.511356   3.377534   1.535135   2.146852
    12  H    3.101162   2.739302   3.572897   2.171333   3.052094
    13  H    3.927819   3.413220   4.168977   2.139025   2.474590
    14  H    2.375681   2.844010   3.806423   2.171245   2.473061
    15  C    4.343754   2.450247   2.572921   1.529503   2.099597
    16  O    5.287674   3.519146   3.598605   2.372096   2.491037
    17  N    4.762547   2.727846   2.605257   2.456109   3.260082
    18  H    4.263748   2.399236   2.359660   2.559281   3.528855
    19  C    6.193783   4.166923   3.932673   3.809932   4.509776
    20  H    6.752656   4.612914   4.258400   4.151090   4.627521
    21  H    6.583784   4.761125   4.714923   4.190583   4.919492
    22  H    6.586277   4.570432   4.215413   4.522272   5.294398
                   11         12         13         14         15
    11  C    0.000000
    12  H    1.085161   0.000000
    13  H    1.083367   1.762777   0.000000
    14  H    1.076912   1.752658   1.763334   0.000000
    15  C    2.466830   2.777671   2.588189   3.419199   0.000000
    16  O    3.103295   3.582011   2.805326   4.021184   1.199962
    17  N    3.256783   3.124086   3.547765   4.231993   1.352269
    18  H    3.201073   2.830829   3.737960   4.074356   2.015494
    19  C    4.457573   4.236090   4.511468   5.497787   2.435109
    20  H    4.984895   4.965173   4.928078   6.011165   2.666283
    21  H    4.490086   4.173196   4.359840   5.561557   2.840284
    22  H    5.194452   4.829858   5.388369   6.193373   3.305612
                   16         17         18         19         20
    16  O    0.000000
    17  N    2.243921   0.000000
    18  H    3.097749   0.994212   0.000000
    19  C    2.760347   1.448479   2.110394   0.000000
    20  H    2.608893   2.075546   2.926905   1.079610   0.000000
    21  H    2.977034   2.110228   2.672741   1.084906   1.755149
    22  H    3.788647   2.068271   2.333614   1.082092   1.760517
                   21         22
    21  H    0.000000
    22  H    1.765170   0.000000
 Stoichiometry    C6H12N2O2
 Framework group  C1[X(C6H12N2O2)]
 Deg. of freedom    60
 Full point group                 C1      NOp   1
 Largest Abelian subgroup         C1      NOp   1
 Largest concise Abelian subgroup C1      NOp   1
                         Standard orientation:                         
 ---------------------------------------------------------------------
 Center     Atomic      Atomic             Coordinates (Angstroms)
 Number     Number       Type             X           Y           Z
 ---------------------------------------------------------------------
      1          1           0       -3.880408   -1.473455    0.363485
      2          6           0       -2.973253   -1.508143   -0.221745
      3          1           0       -3.243669   -1.596459   -1.269922
      4          1           0       -2.392759   -2.381433    0.053777
      5          6           0       -2.207517   -0.216341   -0.010969
      6          8           0       -2.750917    0.779178    0.371148
      7          7           0       -0.876849   -0.303907   -0.304521
      8          1           0       -0.610639   -1.116572   -0.815763
      9          6           0        0.062435    0.809582   -0.398949
     10          1           0       -0.046990    1.322314   -1.347201
     11          6           0       -0.067911    1.832859    0.737956
     12          1           0       -0.008480    1.343282    1.704578
     13          1           0        0.748649    2.539962    0.654770
     14          1           0       -1.005271    2.360158    0.682726
     15          6           0        1.499893    0.287536   -0.375247
     16          8           0        2.371851    0.893578   -0.934094
     17          7           0        1.722296   -0.854510    0.313882
     18          1           0        0.996964   -1.180974    0.910348
     19          6           0        3.071287   -1.326266    0.550021
     20          1           0        3.620035   -1.329265   -0.379724
     21          1           0        3.602889   -0.699927    1.258626
     22          1           0        3.024462   -2.336117    0.935937
 ---------------------------------------------------------------------
 Rotational constants (GHZ):      2.3712281      0.7401032      0.6262444

 **********************************************************************

            Population analysis using the SCF density.

 **********************************************************************

 Orbital symmetries:
       Occupied  (A) (A) (A) (A) (A) (A) (A) (A) (A) (A) (A) (A)
                 (A) (A) (A) (A) (A) (A) (A) (A) (A) (A) (A) (A)
                 (A) (A) (A) (A) (A) (A) (A) (A) (A) (A) (A) (A)
                 (A) (A) (A)
       Virtual   (A) (A) (A) (A) (A) (A) (A) (A) (A) (A) (A) (A)
                 (A) (A) (A) (A) (A) (A) (A) (A) (A) (A) (A) (A)
                 (A) (A) (A) (A) (A) (A) (A) (A) (A) (A) (A) (A)
                 (A) (A) (A) (A) (A) (A) (A) (A) (A) (A) (A) (A)
                 (A) (A) (A) (A) (A) (A) (A) (A) (A) (A) (A) (A)
                 (A) (A) (A) (A) (A) (A) (A) (A) (A) (A) (A) (A)
                 (A) (A) (A) (A) (A) (A) (A) (A) (A) (A) (A) (A)
                 (A) (A) (A) (A) (A) (A) (A) (A) (A) (A) (A) (A)
                 (A) (A) (A) (A) (A) (A) (A) (A) (A) (A) (A) (A)
                 (A) (A) (A) (A) (A) (A) (A) (A) (A) (A) (A) (A)
                 (A) (A) (A) (A) (A) (A) (A) (A) (A) (A) (A) (A)
                 (A) (A) (A)
 The electronic state is 1-A.
 Alpha  occ. eigenvalues --  -20.53295 -20.52734 -15.59655 -15.59162 -11.35882
 Alpha  occ. eigenvalues --  -11.34864 -11.28370 -11.26248 -11.24027 -11.21755
 Alpha  occ. eigenvalues --   -1.40208  -1.39606  -1.25579  -1.22948  -1.05989
 Alpha  occ. eigenvalues --   -0.99692  -0.96297  -0.88570  -0.79803  -0.77941
 Alpha  occ. eigenvalues --   -0.73587  -0.69034  -0.67416  -0.63416  -0.63168
 Alpha  occ. eigenvalues --   -0.62563  -0.60270  -0.59782  -0.57271  -0.56097
 Alpha  occ. eigenvalues --   -0.55872  -0.54212  -0.53178  -0.51859  -0.50395
 Alpha  occ. eigenvalues --   -0.43461  -0.41557  -0.40178  -0.39352
 Alpha virt. eigenvalues --    0.18627   0.19581   0.21063   0.24004   0.26920
 Alpha virt. eigenvalues --    0.27221   0.28461   0.29491   0.29866   0.31762
 Alpha virt. eigenvalues --    0.32855   0.33469   0.33891   0.36142   0.36634
 Alpha virt. eigenvalues --    0.38555   0.39800   0.41913   0.46583   0.48646
 Alpha virt. eigenvalues --    0.54575   0.58723   0.61034   0.70813   0.72723
 Alpha virt. eigenvalues --    0.73683   0.74563   0.75990   0.76463   0.77294
 Alpha virt. eigenvalues --    0.79143   0.82322   0.83370   0.86563   0.90501
 Alpha virt. eigenvalues --    0.92442   0.93829   0.95447   0.98420   0.99726
 Alpha virt. eigenvalues --    1.00485   1.00870   1.03723   1.06073   1.08313
 Alpha virt. eigenvalues --    1.10759   1.12872   1.13841   1.14476   1.15760
 Alpha virt. eigenvalues --    1.16314   1.17712   1.18880   1.20147   1.21437
 Alpha virt. eigenvalues --    1.21962   1.22192   1.24272   1.25518   1.26844
 Alpha virt. eigenvalues --    1.31791   1.34812   1.35854   1.38128   1.39410
 Alpha virt. eigenvalues --    1.45242   1.45652   1.52997   1.60004   1.60448
 Alpha virt. eigenvalues --    1.64523   1.66015   1.69928   1.72177   1.75440
 Alpha virt. eigenvalues --    1.77539   1.83049   1.89509   1.94361   1.97359
 Alpha virt. eigenvalues --    2.01356   2.03655   2.07282   2.10682   2.11841
 Alpha virt. eigenvalues --    2.13484   2.14451   2.17602   2.19982   2.20956
 Alpha virt. eigenvalues --    2.21639   2.24874   2.29744   2.31625   2.33094
 Alpha virt. eigenvalues --    2.34763   2.37031   2.43070   2.44130   2.47528
 Alpha virt. eigenvalues --    2.52072   2.55699   2.57770   2.63783   2.64128
 Alpha virt. eigenvalues --    2.66129   2.69844   2.71139   2.73352   2.75905
 Alpha virt. eigenvalues --    2.79415   2.81943   2.86209   2.90690   2.99380
 Alpha virt. eigenvalues --    3.02885   3.06090   3.06585   3.11447   3.24209
 Alpha virt. eigenvalues --    3.31650   3.36590   3.41160   3.52359   3.58428
 Alpha virt. eigenvalues --    4.37968   4.39969   4.47811   4.56670   4.62506
 Alpha virt. eigenvalues --    4.67064   4.71196   4.81039   4.91336   5.11857
          Condensed to atoms (all electrons):
              1          2          3          4          5          6
     1  H    0.458050   0.384999  -0.017052  -0.020564  -0.031564   0.003197
     2  C    0.384999   5.275010   0.374846   0.375636   0.376269  -0.071586
     3  H   -0.017052   0.374846   0.493625  -0.024923  -0.026774   0.000310
     4  H   -0.020564   0.375636  -0.024923   0.523883  -0.037842   0.002064
     5  C   -0.031564   0.376269  -0.026774  -0.037842   4.148059   0.619472
     6  O    0.003197  -0.071586   0.000310   0.002064   0.619472   8.130158
     7  N    0.004236  -0.126628   0.000907   0.005984   0.243052  -0.100618
     8  H    0.000103  -0.000309   0.000092  -0.000181  -0.020279   0.002388
     9  C   -0.000059   0.003143  -0.000220   0.000179  -0.021489   0.006939
    10  H   -0.000002  -0.000124   0.000032   0.000005  -0.001561   0.000659
    11  C    0.000006  -0.000143   0.000001  -0.000020  -0.004472  -0.008156
    12  H    0.000000  -0.000056   0.000001   0.000003  -0.000041  -0.000463
    13  H    0.000000   0.000009   0.000000   0.000000   0.000254   0.000420
    14  H    0.000000   0.000102  -0.000004  -0.000003   0.000126   0.004935
    15  C    0.000001  -0.000042  -0.000004  -0.000009   0.002538   0.000137
    16  O    0.000000   0.000000   0.000000   0.000000  -0.000053   0.000000
    17  N    0.000000  -0.000042   0.000000  -0.000002  -0.000032   0.000002
    18  H   -0.000003  -0.000020   0.000002   0.000075  -0.000133  -0.000029
    19  C    0.000000   0.000000   0.000000   0.000000   0.000009   0.000000
    20  H    0.000000   0.000000   0.000000   0.000000   0.000000   0.000000
    21  H    0.000000   0.000000   0.000000   0.000000   0.000000   0.000000
    22  H    0.000000   0.000000   0.000000   0.000000   0.000000   0.000000
              7          8          9         10         11         12
     1  H    0.004236   0.000103  -0.000059  -0.000002   0.000006   0.000000
     2  C   -0.126628  -0.000309   0.003143  -0.000124  -0.000143  -0.000056
     3  H    0.000907   0.000092  -0.000220   0.000032   0.000001   0.000001
     4  H    0.005984  -0.000181   0.000179   0.000005  -0.000020   0.000003
     5  C    0.243052  -0.020279  -0.021489  -0.001561  -0.004472  -0.000041
     6  O   -0.100618   0.002388   0.006939   0.000659  -0.008156  -0.000463
     7  N    7.499978   0.322929   0.133689  -0.047972  -0.046664   0.000177
     8  H    0.322929   0.334523  -0.031218   0.000200   0.003714  -0.000075
     9  C    0.133689  -0.031218   5.049050   0.415113   0.339550  -0.039876
    10  H   -0.047972   0.000200   0.415113   0.490080  -0.032535   0.004099
    11  C   -0.046664   0.003714   0.339550  -0.032535   5.147679   0.387246
    12  H    0.000177  -0.000075  -0.039876   0.004099   0.387246   0.537873
    13  H    0.003885  -0.000071  -0.041890  -0.000337   0.382890  -0.024689
    14  H   -0.002031  -0.000153  -0.027869  -0.003224   0.391085  -0.021448
    15  C   -0.043434  -0.004261   0.399836  -0.051548  -0.050716  -0.006251
    16  O    0.002004  -0.000044  -0.069013   0.005324  -0.003749   0.000174
    17  N   -0.006372   0.007862  -0.120708   0.004367   0.001770   0.002102
    18  H    0.009465  -0.001284  -0.000982   0.000384  -0.000089   0.000949
    19  C    0.000050  -0.000200   0.004104  -0.000098  -0.000274  -0.000083
    20  H   -0.000034  -0.000039   0.000225   0.000007  -0.000005   0.000001
    21  H    0.000003   0.000017  -0.000297  -0.000008   0.000061  -0.000016
    22  H   -0.000007  -0.000013   0.000047   0.000002  -0.000004   0.000002
             13         14         15         16         17         18
     1  H    0.000000   0.000000   0.000001   0.000000   0.000000  -0.000003
     2  C    0.000009   0.000102  -0.000042   0.000000  -0.000042  -0.000020
     3  H    0.000000  -0.000004  -0.000004   0.000000   0.000000   0.000002
     4  H    0.000000  -0.000003  -0.000009   0.000000  -0.000002   0.000075
     5  C    0.000254   0.000126   0.002538  -0.000053  -0.000032  -0.000133
     6  O    0.000420   0.004935   0.000137   0.000000   0.000002  -0.000029
     7  N    0.003885  -0.002031  -0.043434   0.002004  -0.006372   0.009465
     8  H   -0.000071  -0.000153  -0.004261  -0.000044   0.007862  -0.001284
     9  C   -0.041890  -0.027869   0.399836  -0.069013  -0.120708  -0.000982
    10  H   -0.000337  -0.003224  -0.051548   0.005324   0.004367   0.000384
    11  C    0.382890   0.391085  -0.050716  -0.003749   0.001770  -0.000089
    12  H   -0.024689  -0.021448  -0.006251   0.000174   0.002102   0.000949
    13  H    0.506615  -0.020693  -0.002185   0.003894   0.000537  -0.000052
    14  H   -0.020693   0.441768   0.004140  -0.000048  -0.000090  -0.000009
    15  C   -0.002185   0.004140   4.206932   0.602776   0.266381  -0.023960
    16  O    0.003894  -0.000048   0.602776   8.160699  -0.106034   0.002566
    17  N    0.000537  -0.000090   0.266381  -0.106034   7.342795   0.322207
    18  H   -0.000052  -0.000009  -0.023960   0.002566   0.322207   0.320912
    19  C   -0.000018   0.000004  -0.029692   0.007320   0.199036  -0.022833
    20  H   -0.000004   0.000000  -0.003911   0.003885  -0.037817   0.002814
    21  H    0.000019  -0.000001  -0.001964   0.001362  -0.047636   0.000327
    22  H    0.000000   0.000000   0.004192   0.000364  -0.039143  -0.003618
             19         20         21         22
     1  H    0.000000   0.000000   0.000000   0.000000
     2  C    0.000000   0.000000   0.000000   0.000000
     3  H    0.000000   0.000000   0.000000   0.000000
     4  H    0.000000   0.000000   0.000000   0.000000
     5  C    0.000009   0.000000   0.000000   0.000000
     6  O    0.000000   0.000000   0.000000   0.000000
     7  N    0.000050  -0.000034   0.000003  -0.000007
     8  H   -0.000200  -0.000039   0.000017  -0.000013
     9  C    0.004104   0.000225  -0.000297   0.000047
    10  H   -0.000098   0.000007  -0.000008   0.000002
    11  C   -0.000274  -0.000005   0.000061  -0.000004
    12  H   -0.000083   0.000001  -0.000016   0.000002
    13  H   -0.000018  -0.000004   0.000019   0.000000
    14  H    0.000004   0.000000  -0.000001   0.000000
    15  C   -0.029692  -0.003911  -0.001964   0.004192
    16  O    0.007320   0.003885   0.001362   0.000364
    17  N    0.199036  -0.037817  -0.047636  -0.039143
    18  H   -0.022833   0.002814   0.000327  -0.003618
    19  C    4.911189   0.403340   0.405611   0.398380
    20  H    0.403340   0.481024  -0.031687  -0.024595
    21  H    0.405611  -0.031687   0.527870  -0.032481
    22  H    0.398380  -0.024595  -0.032481   0.528086
 Mulliken atomic charges:
              1
     1  H    0.218651
     2  C   -0.591066
     3  H    0.199162
     4  H    0.175713
     5  C    0.754460
     6  O   -0.589828
     7  N   -0.852600
     8  H    0.386300
     9  C    0.001746
    10  H    0.217139
    11  C   -0.507175
    12  H    0.160370
    13  H    0.191417
    14  H    0.233412
    15  C    0.731045
    16  O   -0.611426
    17  N   -0.789187
    18  H    0.393309
    19  C   -0.275845
    20  H    0.206797
    21  H    0.178818
    22  H    0.168788
 Sum of Mulliken atomic charges =   0.00000
 Mulliken charges with hydrogens summed into heavy atoms:
              1
     2  C    0.002460
     5  C    0.754460
     6  O   -0.589828
     7  N   -0.466300
     9  C    0.218885
    11  C    0.078024
    15  C    0.731045
    16  O   -0.611426
    17  N   -0.395878
    19  C    0.278559
 Sum of Mulliken charges with hydrogens summed into heavy atoms =   0.00000
 Electronic spatial extent (au):  <R**2>=           1869.2951
 Charge=              0.0000 electrons
 Dipole moment (field-independent basis, Debye):
    X=             -0.1847    Y=             -4.6403    Z=              0.7684  Tot=              4.7071
 Quadrupole moment (field-independent basis, Debye-Ang):
   XX=            -70.8790   YY=            -58.3270   ZZ=            -60.0847
   XY=              0.9883   XZ=              8.9843   YZ=              0.6619
 Traceless Quadrupole moment (field-independent basis, Debye-Ang):
   XX=             -7.7821   YY=              4.7699   ZZ=              3.0122
   XY=              0.9883   XZ=              8.9843   YZ=              0.6619
 Octapole moment (field-independent basis, Debye-Ang**2):
  XXX=              9.6635  YYY=             -2.1999  ZZZ=             -1.1007  XYY=             -0.2079
  XXY=            -41.0355  XXZ=              6.2951  XZZ=             -4.3530  YZZ=             -4.1419
  YYZ=              2.4452  XYZ=              4.4576
 Hexadecapole moment (field-independent basis, Debye-Ang**3):
 XXXX=          -1729.6893 YYYY=           -523.1679 ZZZZ=           -178.4597 XXXY=              8.4981
 XXXZ=             49.5586 YYYX=             -9.8188 YYYZ=             -5.1202 ZZZX=              1.4144
 ZZZY=             -0.9627 XXYY=           -373.8247 XXZZ=           -315.5952 YYZZ=           -117.8965
 XXYZ=              4.0291 YYXZ=              9.4259 ZZXY=             -5.3621
 N-N= 5.561897820990D+02 E-N=-2.267491113788D+03  KE= 4.921163155672D+02
 1\1\GINC-RODAN\FOpt\RHF\6-31G(d)\C6H12N2O2\STEBOSS\10-Feb-2017\0\\# HF
 /6-31G* Opt=(ModRedundant) geom=nocrowd\\Phi Psi fixed scan\\0,1\H,1.7
 136614466,1.2835716716,-0.7187948532\C,1.9251661137,2.1491837747,-0.10
 83768323\H,1.8584663841,1.8579398193,0.9358104752\H,1.1840219941,2.918
 3979149,-0.2942165629\C,3.3348750583,2.6224544019,-0.4054692747\O,4.15
 34459355,1.8921329199,-0.8839320652\N,3.5668304327,3.9255249581,-0.069
 7284565\H,2.8743377437,4.3398703666,0.5145937674\C,4.8646802736,4.5932
 904464,-0.0432105277\H,5.4104633785,4.3319745296,0.8556136918\C,5.7448
 306166,4.2933474606,-1.2646882117\H,5.2090920775,4.5016898407,-2.18509
 70006\H,6.6195415451,4.9308863693,-1.2187607355\H,6.053880408,3.261833
 4129,-1.2790627644\C,4.6739612917,6.1097137842,0.0156649059\O,5.498593
 5964,6.8020424771,0.5453545901\N,3.5609516088,6.6072038687,-0.56943744
 44\H,3.0377860573,5.9983283983,-1.1559743005\C,3.3834852262,8.03591300
 86,-0.728771766\H,3.5723560787,8.5297952087,0.2124858242\H,4.056768306
 9,8.4488390671,-1.4725483121\H,2.3622044261,8.2284663008,-1.030154147\
 \Version=EM64L-G09RevA.02\State=1-A\HF=-492.850536\RMSD=4.514e-09\RMSF
 =5.921e-04\Dipole=-1.8138003,0.3420827,-0.1507027\Quadrupole=3.1014415
 ,-5.0625615,1.96112,-1.7464707,-2.1104062,-6.6243515\PG=C01 [X(C6H12N2
 O2)]\\@


 THE FIRST AND LAST THING REQUIRED OF GENIUS IS THE LOVE OF TRUTH.

                          -- GOETHE
 Job cpu time:  0 days  0 hours 21 minutes 32.5 seconds.
 File lengths (MBytes):  RWF=     25 Int=      0 D2E=      0 Chk=      3 Scr=      1
 Normal termination of Gaussian 09 at Fri Feb 10 05:31:17 2017.
