 Entering Gaussian System, Link 0=g09
 Initial command:
 /home/steboss/Software/g09/l1.exe /tmp/Gau-23630.inp -scrdir=/tmp/
 Entering Link 1 = /home/steboss/Software/g09/l1.exe PID=     23632.
  
 Copyright (c) 1988,1990,1992,1993,1995,1998,2003,2009, Gaussian, Inc.
                  All Rights Reserved.
  
 This is part of the Gaussian(R) 09 program.  It is based on
 the Gaussian(R) 03 system (copyright 2003, Gaussian, Inc.),
 the Gaussian(R) 98 system (copyright 1998, Gaussian, Inc.),
 the Gaussian(R) 94 system (copyright 1995, Gaussian, Inc.),
 the Gaussian 92(TM) system (copyright 1992, Gaussian, Inc.),
 the Gaussian 90(TM) system (copyright 1990, Gaussian, Inc.),
 the Gaussian 88(TM) system (copyright 1988, Gaussian, Inc.),
 the Gaussian 86(TM) system (copyright 1986, Carnegie Mellon
 University), and the Gaussian 82(TM) system (copyright 1983,
 Carnegie Mellon University). Gaussian is a federally registered
 trademark of Gaussian, Inc.
  
 This software contains proprietary and confidential information,
 including trade secrets, belonging to Gaussian, Inc.
  
 This software is provided under written license and may be
 used, copied, transmitted, or stored only in accord with that
 written license.
  
 The following legend is applicable only to US Government
 contracts under FAR:
  
                    RESTRICTED RIGHTS LEGEND
  
 Use, reproduction and disclosure by the US Government is
 subject to restrictions as set forth in subparagraphs (a)
 and (c) of the Commercial Computer Software - Restricted
 Rights clause in FAR 52.227-19.
  
 Gaussian, Inc.
 340 Quinnipiac St., Bldg. 40, Wallingford CT 06492
  
  
 ---------------------------------------------------------------
 Warning -- This program may not be used in any manner that
 competes with the business of Gaussian, Inc. or will provide
 assistance to any competitor of Gaussian, Inc.  The licensee
 of this program is prohibited from giving any competitor of
 Gaussian, Inc. access to this program.  By using this program,
 the user acknowledges that Gaussian, Inc. is engaged in the
 business of creating and licensing software in the field of
 computational chemistry and represents and warrants to the
 licensee that it is not a competitor of Gaussian, Inc. and that
 it will not use this program in any manner prohibited above.
 ---------------------------------------------------------------
  

 Cite this work as:
 Gaussian 09, Revision A.02,
 M. J. Frisch, G. W. Trucks, H. B. Schlegel, G. E. Scuseria, 
 M. A. Robb, J. R. Cheeseman, G. Scalmani, V. Barone, B. Mennucci, 
 G. A. Petersson, H. Nakatsuji, M. Caricato, X. Li, H. P. Hratchian, 
 A. F. Izmaylov, J. Bloino, G. Zheng, J. L. Sonnenberg, M. Hada, 
 M. Ehara, K. Toyota, R. Fukuda, J. Hasegawa, M. Ishida, T. Nakajima, 
 Y. Honda, O. Kitao, H. Nakai, T. Vreven, J. A. Montgomery, Jr., 
 J. E. Peralta, F. Ogliaro, M. Bearpark, J. J. Heyd, E. Brothers, 
 K. N. Kudin, V. N. Staroverov, R. Kobayashi, J. Normand, 
 K. Raghavachari, A. Rendell, J. C. Burant, S. S. Iyengar, J. Tomasi, 
 M. Cossi, N. Rega, J. M. Millam, M. Klene, J. E. Knox, J. B. Cross, 
 V. Bakken, C. Adamo, J. Jaramillo, R. Gomperts, R. E. Stratmann, 
 O. Yazyev, A. J. Austin, R. Cammi, C. Pomelli, J. W. Ochterski, 
 R. L. Martin, K. Morokuma, V. G. Zakrzewski, G. A. Voth, 
 P. Salvador, J. J. Dannenberg, S. Dapprich, A. D. Daniels, 
 O. Farkas, J. B. Foresman, J. V. Ortiz, J. Cioslowski, 
 and D. J. Fox, Gaussian, Inc., Wallingford CT, 2009.
 
 ******************************************
 Gaussian 09:  EM64L-G09RevA.02 11-Jun-2009
                10-Feb-2017 
 ******************************************
 %chk=structure_30.chk
 %NProcShared=8
 Will use up to    8 processors via shared memory.
 -------------------------------------------
 # HF/6-31G* Opt=(ModRedundant) geom=nocrowd
 -------------------------------------------
 1/18=120,19=15,38=1/1,3;
 2/9=110,12=1,17=6,18=5,40=1/2;
 3/5=1,6=6,7=1,11=9,16=1,25=1,30=1,71=1/1,2,3;
 4//1;
 5/5=2,38=5/2;
 6/7=2,8=2,9=2,10=2,28=1/1;
 7//1,2,3,16;
 1/18=20,19=15/3(2);
 2/9=110,12=1/2;
 99//99;
 2/9=110,12=1/2;
 3/5=1,6=6,7=1,11=9,16=1,25=1,30=1,71=1/1,2,3;
 4/5=5,16=3/1;
 5/5=2,38=5/2;
 7//1,2,3,16;
 1/18=20,19=15/3(-5);
 2/9=110,12=1/2;
 6/7=2,8=2,9=2,10=2,19=2,28=1/1;
 99/9=1/99;
 ------------------
 Phi Psi fixed scan
 ------------------
 Symbolic Z-matrix:
 Charge =  0 Multiplicity = 1
 H                     1.9702    1.0601   -0.5095 
 C                     1.985     2.1203   -0.2568 
 H                     1.582     2.2609    0.7462 
 H                     1.3772    2.6735   -0.9728 
 C                     3.4103    2.6754   -0.2933 
 O                     4.3566    1.9459   -0.5812 
 N                     3.5554    3.9697    0. 
 H                     2.7466    4.529     0.2306 
 C                     4.8533    4.6139    0. 
 H                     5.4076    4.3155    0.8898 
 C                     5.6613    4.2208   -1.2322 
 H                     5.1233    4.5214   -2.1312 
 H                     6.6305    4.7189   -1.2058 
 H                     5.8085    3.1409   -1.2414 
 C                     4.7127    6.1294    0. 
 O                     5.5682    6.8352   -0.5295 
 N                     3.6281    6.6291    0.5969 
 H                     2.9524    6.0081    1.0185 
 C                     3.3794    8.0551    0.6638 
 H                     4.1904    8.5895    0.169 
 H                     2.4372    8.2838    0.1658 
 H                     3.3233    8.366     1.707 
 
 The following ModRedundant input section has been read:
 D    5    7    9   15 F                                                       
 D    7    9   15   17 F                                                       

 GradGradGradGradGradGradGradGradGradGradGradGradGradGradGradGradGradGrad
 Berny optimization.
 Initialization pass.
                           ----------------------------
                           !    Initial Parameters    !
                           ! (Angstroms and Degrees)  !
 --------------------------                            --------------------------
 ! Name  Definition              Value          Derivative Info.                !
 --------------------------------------------------------------------------------
 ! R1    R(1,2)                  1.09           estimate D2E/DX2                !
 ! R2    R(2,3)                  1.09           estimate D2E/DX2                !
 ! R3    R(2,4)                  1.09           estimate D2E/DX2                !
 ! R4    R(2,5)                  1.53           estimate D2E/DX2                !
 ! R5    R(5,6)                  1.229          estimate D2E/DX2                !
 ! R6    R(5,7)                  1.335          estimate D2E/DX2                !
 ! R7    R(7,8)                  1.01           estimate D2E/DX2                !
 ! R8    R(7,9)                  1.449          estimate D2E/DX2                !
 ! R9    R(9,10)                 1.09           estimate D2E/DX2                !
 ! R10   R(9,11)                 1.525          estimate D2E/DX2                !
 ! R11   R(9,15)                 1.522          estimate D2E/DX2                !
 ! R12   R(11,12)                1.09           estimate D2E/DX2                !
 ! R13   R(11,13)                1.09           estimate D2E/DX2                !
 ! R14   R(11,14)                1.0899         estimate D2E/DX2                !
 ! R15   R(15,16)                1.229          estimate D2E/DX2                !
 ! R16   R(15,17)                1.335          estimate D2E/DX2                !
 ! R17   R(17,18)                1.0099         estimate D2E/DX2                !
 ! R18   R(17,19)                1.4491         estimate D2E/DX2                !
 ! R19   R(19,20)                1.09           estimate D2E/DX2                !
 ! R20   R(19,21)                1.09           estimate D2E/DX2                !
 ! R21   R(19,22)                1.09           estimate D2E/DX2                !
 ! A1    A(1,2,3)              109.4973         estimate D2E/DX2                !
 ! A2    A(1,2,4)              109.4988         estimate D2E/DX2                !
 ! A3    A(1,2,5)              111.1006         estimate D2E/DX2                !
 ! A4    A(3,2,4)              109.4393         estimate D2E/DX2                !
 ! A5    A(3,2,5)              108.6364         estimate D2E/DX2                !
 ! A6    A(4,2,5)              108.6416         estimate D2E/DX2                !
 ! A7    A(2,5,6)              120.4973         estimate D2E/DX2                !
 ! A8    A(2,5,7)              116.5992         estimate D2E/DX2                !
 ! A9    A(6,5,7)              122.9035         estimate D2E/DX2                !
 ! A10   A(5,7,8)              119.9988         estimate D2E/DX2                !
 ! A11   A(5,7,9)              121.8962         estimate D2E/DX2                !
 ! A12   A(8,7,9)              118.105          estimate D2E/DX2                !
 ! A13   A(7,9,10)             109.5            estimate D2E/DX2                !
 ! A14   A(7,9,11)             111.0992         estimate D2E/DX2                !
 ! A15   A(7,9,15)             111.0966         estimate D2E/DX2                !
 ! A16   A(10,9,11)            108.6382         estimate D2E/DX2                !
 ! A17   A(10,9,15)            108.6373         estimate D2E/DX2                !
 ! A18   A(11,9,15)            107.7947         estimate D2E/DX2                !
 ! A19   A(9,11,12)            109.5007         estimate D2E/DX2                !
 ! A20   A(9,11,13)            109.4959         estimate D2E/DX2                !
 ! A21   A(9,11,14)            109.4978         estimate D2E/DX2                !
 ! A22   A(12,11,13)           109.441          estimate D2E/DX2                !
 ! A23   A(12,11,14)           109.4482         estimate D2E/DX2                !
 ! A24   A(13,11,14)           109.4436         estimate D2E/DX2                !
 ! A25   A(9,15,16)            120.4998         estimate D2E/DX2                !
 ! A26   A(9,15,17)            116.5989         estimate D2E/DX2                !
 ! A27   A(16,15,17)           122.9013         estimate D2E/DX2                !
 ! A28   A(15,17,18)           120.0026         estimate D2E/DX2                !
 ! A29   A(15,17,19)           121.898          estimate D2E/DX2                !
 ! A30   A(18,17,19)           118.0995         estimate D2E/DX2                !
 ! A31   A(17,19,20)           109.5002         estimate D2E/DX2                !
 ! A32   A(17,19,21)           109.4963         estimate D2E/DX2                !
 ! A33   A(17,19,22)           109.4942         estimate D2E/DX2                !
 ! A34   A(20,19,21)           109.4439         estimate D2E/DX2                !
 ! A35   A(20,19,22)           109.4453         estimate D2E/DX2                !
 ! A36   A(21,19,22)           109.4473         estimate D2E/DX2                !
 ! D1    D(1,2,5,6)              0.0063         estimate D2E/DX2                !
 ! D2    D(1,2,5,7)            179.9967         estimate D2E/DX2                !
 ! D3    D(3,2,5,6)            120.5158         estimate D2E/DX2                !
 ! D4    D(3,2,5,7)            -59.4937         estimate D2E/DX2                !
 ! D5    D(4,2,5,6)           -120.5085         estimate D2E/DX2                !
 ! D6    D(4,2,5,7)             59.482          estimate D2E/DX2                !
 ! D7    D(2,5,7,8)              0.006          estimate D2E/DX2                !
 ! D8    D(2,5,7,9)           -179.9978         estimate D2E/DX2                !
 ! D9    D(6,5,7,8)            179.9962         estimate D2E/DX2                !
 ! D10   D(6,5,7,9)             -0.0076         estimate D2E/DX2                !
 ! D11   D(5,7,9,10)           -74.9972         estimate D2E/DX2                !
 ! D12   D(5,7,9,11)            45.0054         estimate D2E/DX2                !
 ! D13   D(5,7,9,15)           165.003          Frozen                          !
 ! D14   D(8,7,9,10)           104.9991         estimate D2E/DX2                !
 ! D15   D(8,7,9,11)          -134.9983         estimate D2E/DX2                !
 ! D16   D(8,7,9,15)           -15.0007         estimate D2E/DX2                !
 ! D17   D(7,9,11,12)           60.0024         estimate D2E/DX2                !
 ! D18   D(7,9,11,13)          179.9986         estimate D2E/DX2                !
 ! D19   D(7,9,11,14)          -60.0038         estimate D2E/DX2                !
 ! D20   D(10,9,11,12)        -179.4843         estimate D2E/DX2                !
 ! D21   D(10,9,11,13)         -59.4881         estimate D2E/DX2                !
 ! D22   D(10,9,11,14)          60.5095         estimate D2E/DX2                !
 ! D23   D(15,9,11,12)         -61.938          estimate D2E/DX2                !
 ! D24   D(15,9,11,13)          58.0582         estimate D2E/DX2                !
 ! D25   D(15,9,11,14)         178.0558         estimate D2E/DX2                !
 ! D26   D(7,9,15,16)         -149.9979         estimate D2E/DX2                !
 ! D27   D(7,9,15,17)           30.0014         Frozen                          !
 ! D28   D(10,9,15,16)          89.491          estimate D2E/DX2                !
 ! D29   D(10,9,15,17)         -90.5096         estimate D2E/DX2                !
 ! D30   D(11,9,15,16)         -28.0559         estimate D2E/DX2                !
 ! D31   D(11,9,15,17)         151.9435         estimate D2E/DX2                !
 ! D32   D(9,15,17,18)           0.0004         estimate D2E/DX2                !
 ! D33   D(9,15,17,19)        -179.9991         estimate D2E/DX2                !
 ! D34   D(16,15,17,18)        179.9997         estimate D2E/DX2                !
 ! D35   D(16,15,17,19)          0.0002         estimate D2E/DX2                !
 ! D36   D(15,17,19,20)          0.0012         estimate D2E/DX2                !
 ! D37   D(15,17,19,21)        120.0009         estimate D2E/DX2                !
 ! D38   D(15,17,19,22)       -119.9989         estimate D2E/DX2                !
 ! D39   D(18,17,19,20)       -179.9983         estimate D2E/DX2                !
 ! D40   D(18,17,19,21)        -59.9986         estimate D2E/DX2                !
 ! D41   D(18,17,19,22)         60.0016         estimate D2E/DX2                !
 --------------------------------------------------------------------------------
 Trust Radius=3.00D-01 FncErr=1.00D-07 GrdErr=1.00D-07
 Number of steps in this run= 108 maximum allowed number of steps= 132.
 GradGradGradGradGradGradGradGradGradGradGradGradGradGradGradGradGradGrad

                          Input orientation:                          
 ---------------------------------------------------------------------
 Center     Atomic      Atomic             Coordinates (Angstroms)
 Number     Number       Type             X           Y           Z
 ---------------------------------------------------------------------
      1          1           0        1.970200    1.060100   -0.509500
      2          6           0        1.985000    2.120300   -0.256800
      3          1           0        1.582000    2.260900    0.746200
      4          1           0        1.377200    2.673500   -0.972800
      5          6           0        3.410300    2.675400   -0.293300
      6          8           0        4.356600    1.945900   -0.581200
      7          7           0        3.555400    3.969700    0.000000
      8          1           0        2.746600    4.529000    0.230600
      9          6           0        4.853300    4.613900    0.000000
     10          1           0        5.407600    4.315500    0.889800
     11          6           0        5.661300    4.220800   -1.232200
     12          1           0        5.123300    4.521400   -2.131200
     13          1           0        6.630500    4.718900   -1.205800
     14          1           0        5.808500    3.140900   -1.241400
     15          6           0        4.712700    6.129400    0.000000
     16          8           0        5.568200    6.835200   -0.529500
     17          7           0        3.628100    6.629100    0.596900
     18          1           0        2.952400    6.008100    1.018500
     19          6           0        3.379400    8.055100    0.663800
     20          1           0        4.190400    8.589500    0.169000
     21          1           0        2.437200    8.283800    0.165800
     22          1           0        3.323300    8.366000    1.707000
 ---------------------------------------------------------------------
                    Distance matrix (angstroms):
                    1          2          3          4          5
     1  H    0.000000
     2  C    1.090000   0.000000
     3  H    1.780282   1.090040   0.000000
     4  H    1.780268   1.090003   1.779647   0.000000
     5  C    2.174816   1.530016   2.143607   2.143646   0.000000
     6  O    2.546505   2.400029   3.091864   3.091857   1.229040
     7  N    3.352346   2.439751   2.714981   2.714964   1.335025
     8  H    3.630952   2.572825   2.601233   2.601213   2.037352
     9  C    4.604492   3.809348   4.098149   4.098141   2.434349
    10  H    4.936739   4.224664   4.344792   4.733874   2.842334
    11  C    4.912895   4.344961   4.939227   4.562339   2.887351
    12  H    4.955053   4.373509   5.092160   4.334731   3.117685
    13  H    5.965739   5.406847   5.944697   5.642261   3.921509
    14  H    4.426958   4.078016   4.752710   4.463970   2.620486
    15  C    5.786078   4.855839   5.032235   4.900525   3.703024
    16  O    6.804247   5.928235   6.200115   5.922900   4.692149
    17  N    5.914940   4.874203   4.825970   4.814279   4.058526
    18  H    5.270883   4.204431   3.999206   4.191192   3.610731
    19  C    7.231356   6.165526   6.067140   5.970669   5.464263
    20  H    7.879182   6.848039   6.869359   6.649576   5.983215
    21  H    7.270211   6.194498   6.110937   5.821982   5.710678
    22  H    7.753704   6.682539   6.420865   6.585832   6.032553
                    6          7          8          9         10
     6  O    0.000000
     7  N    2.252883   0.000000
     8  H    3.150163   1.010025   0.000000
     9  C    2.775379   1.448978   2.120983   0.000000
    10  H    2.980511   2.083739   2.749736   1.089970   0.000000
    11  C    2.702076   2.452791   3.275706   1.525027   2.139209
    12  H    3.102181   2.702720   3.350651   2.150225   3.041326
    13  H    3.640093   3.386959   4.145357   2.150214   2.459625
    14  H    1.992963   2.702673   3.669991   2.150165   2.466256
    15  C    4.238664   2.450234   2.545586   1.522008   2.136554
    16  O    5.037450   3.541585   3.722598   2.392828   2.896393
    17  N    4.883748   2.726533   2.306868   2.432784   2.933455
    18  H    4.586097   2.357122   1.688454   2.567987   2.984873
    19  C    6.310885   4.142716   3.608529   3.801956   4.260197
    20  H    6.687888   4.666298   4.309990   4.034029   4.502022
    21  H    6.664164   4.459744   3.768083   4.396953   5.009477
    22  H    6.893566   4.721776   4.151495   4.396931   4.628031
                   11         12         13         14         15
    11  C    0.000000
    12  H    1.089957   0.000000
    13  H    1.090023   1.779613   0.000000
    14  H    1.089925   1.779613   1.779617   0.000000
    15  C    2.461892   2.701161   2.668599   3.416575   0.000000
    16  O    2.708790   2.849044   2.462639   3.769933   1.228985
    17  N    3.644094   3.757732   3.989110   4.505666   1.335046
    18  H    3.949460   4.104107   4.487535   4.635223   2.037330
    19  C    4.848066   4.831175   5.019491   5.803419   2.434469
    20  H    4.817930   4.765570   4.777626   5.856169   2.520605
    21  H    5.371889   5.162073   5.672174   6.308351   3.137966
    22  H    5.593552   5.723000   5.720430   6.493917   3.137939
                   16         17         18         19         20
    16  O    0.000000
    17  N    2.252830   0.000000
    18  H    3.150049   1.009930   0.000000
    19  C    2.775422   1.449070   2.120931   0.000000
    20  H    2.337478   2.083854   2.986289   1.090014   0.000000
    21  H    3.519239   2.083776   2.484218   1.089976   1.779655
    22  H    3.519213   2.083758   2.484208   1.089987   1.779679
                   21         22
    21  H    0.000000
    22  H    1.779671   0.000000
 Stoichiometry    C6H12N2O2
 Framework group  C1[X(C6H12N2O2)]
 Deg. of freedom    60
 Full point group                 C1      NOp   1
 Largest Abelian subgroup         C1      NOp   1
 Largest concise Abelian subgroup C1      NOp   1
                         Standard orientation:                         
 ---------------------------------------------------------------------
 Center     Atomic      Atomic             Coordinates (Angstroms)
 Number     Number       Type             X           Y           Z
 ---------------------------------------------------------------------
      1          1           0       -4.011966   -1.361178    0.345452
      2          6           0       -2.942435   -1.568259    0.309114
      3          1           0       -2.744403   -2.327717   -0.447321
      4          1           0       -2.608512   -1.929375    1.281841
      5          6           0       -2.149128   -0.308397   -0.043533
      6          8           0       -2.727633    0.757378   -0.243528
      7          7           0       -0.822537   -0.438559   -0.117727
      8          1           0       -0.392717   -1.336047    0.055251
      9          6           0        0.039473    0.679748   -0.443099
     10          1           0       -0.032627    0.896673   -1.508829
     11          6           0       -0.362091    1.927419    0.336498
     12          1           0       -0.286132    1.728651    1.405482
     13          1           0        0.301743    2.750689    0.072491
     14          1           0       -1.389113    2.195931    0.089387
     15          6           0        1.490951    0.368480   -0.107192
     16          8           0        2.262539    1.267934    0.218443
     17          7           0        1.861761   -0.911540   -0.187157
     18          1           0        1.190870   -1.615589   -0.459515
     19          6           0        3.215432   -1.336421    0.107551
     20          1           0        3.816588   -0.470251    0.384123
     21          1           0        3.201850   -2.047370    0.933635
     22          1           0        3.647388   -1.811639   -0.773162
 ---------------------------------------------------------------------
 Rotational constants (GHZ):      2.4287845      0.7668705      0.6046723
 Standard basis: 6-31G(d) (6D, 7F)
 There are   174 symmetry adapted basis functions of A   symmetry.
 Integral buffers will be    131072 words long.
 Raffenetti 1 integral format.
 Two-electron integral symmetry is turned on.
   174 basis functions,   328 primitive gaussians,   174 cartesian basis functions
    39 alpha electrons       39 beta electrons
       nuclear repulsion energy       558.3070424338 Hartrees.
 NAtoms=   22 NActive=   22 NUniq=   22 SFac= 7.50D-01 NAtFMM=   80 NAOKFM=F Big=F
 One-electron integrals computed using PRISM.
 NBasis=   174 RedAO= T  NBF=   174
 NBsUse=   174 1.00D-06 NBFU=   174
 Harris functional with IExCor=  205 diagonalized for initial guess.
 ExpMin= 1.61D-01 ExpMax= 5.48D+03 ExpMxC= 8.25D+02 IAcc=1 IRadAn=         1 AccDes= 0.00D+00
 HarFok:  IExCor=  205 AccDes= 0.00D+00 IRadAn=         1 IDoV= 1
 ScaDFX=  1.000000  1.000000  1.000000  1.000000
 FoFCou: FMM=F IPFlag=           0 FMFlag=      100000 FMFlg1=           0
         NFxFlg=           0 DoJE=T BraDBF=F KetDBF=T FulRan=T
         Omega=  0.000000  0.000000  1.000000  0.000000  0.000000 ICntrl=     500 IOpCl=  0
         NMat0=    1 NMatS0=    1 NMatT0=    0 NMatD0=    1 NMtDS0=    0 NMtDT0=    0
         I1Cent=           4 NGrid=           0.
 Petite list used in FoFCou.
 Initial guess orbital symmetries:
       Occupied  (A) (A) (A) (A) (A) (A) (A) (A) (A) (A) (A) (A)
                 (A) (A) (A) (A) (A) (A) (A) (A) (A) (A) (A) (A)
                 (A) (A) (A) (A) (A) (A) (A) (A) (A) (A) (A) (A)
                 (A) (A) (A)
       Virtual   (A) (A) (A) (A) (A) (A) (A) (A) (A) (A) (A) (A)
                 (A) (A) (A) (A) (A) (A) (A) (A) (A) (A) (A) (A)
                 (A) (A) (A) (A) (A) (A) (A) (A) (A) (A) (A) (A)
                 (A) (A) (A) (A) (A) (A) (A) (A) (A) (A) (A) (A)
                 (A) (A) (A) (A) (A) (A) (A) (A) (A) (A) (A) (A)
                 (A) (A) (A) (A) (A) (A) (A) (A) (A) (A) (A) (A)
                 (A) (A) (A) (A) (A) (A) (A) (A) (A) (A) (A) (A)
                 (A) (A) (A) (A) (A) (A) (A) (A) (A) (A) (A) (A)
                 (A) (A) (A) (A) (A) (A) (A) (A) (A) (A) (A) (A)
                 (A) (A) (A) (A) (A) (A) (A) (A) (A) (A) (A) (A)
                 (A) (A) (A) (A) (A) (A) (A) (A) (A) (A) (A) (A)
                 (A) (A) (A)
 The electronic state of the initial guess is 1-A.
 Requested convergence on RMS density matrix=1.00D-08 within 128 cycles.
 Requested convergence on MAX density matrix=1.00D-06.
 Requested convergence on             energy=1.00D-06.
 No special actions if energy rises.
 Integral accuracy reduced to 1.0D-05 until final iterations.
 Initial convergence to 1.0D-05 achieved.  Increase integral accuracy.
 SCF Done:  E(RHF) =  -492.828038974     A.U. after   15 cycles
             Convg  =    0.6330D-08             -V/T =  2.0018

 **********************************************************************

            Population analysis using the SCF density.

 **********************************************************************

 Orbital symmetries:
       Occupied  (A) (A) (A) (A) (A) (A) (A) (A) (A) (A) (A) (A)
                 (A) (A) (A) (A) (A) (A) (A) (A) (A) (A) (A) (A)
                 (A) (A) (A) (A) (A) (A) (A) (A) (A) (A) (A) (A)
                 (A) (A) (A)
       Virtual   (A) (A) (A) (A) (A) (A) (A) (A) (A) (A) (A) (A)
                 (A) (A) (A) (A) (A) (A) (A) (A) (A) (A) (A) (A)
                 (A) (A) (A) (A) (A) (A) (A) (A) (A) (A) (A) (A)
                 (A) (A) (A) (A) (A) (A) (A) (A) (A) (A) (A) (A)
                 (A) (A) (A) (A) (A) (A) (A) (A) (A) (A) (A) (A)
                 (A) (A) (A) (A) (A) (A) (A) (A) (A) (A) (A) (A)
                 (A) (A) (A) (A) (A) (A) (A) (A) (A) (A) (A) (A)
                 (A) (A) (A) (A) (A) (A) (A) (A) (A) (A) (A) (A)
                 (A) (A) (A) (A) (A) (A) (A) (A) (A) (A) (A) (A)
                 (A) (A) (A) (A) (A) (A) (A) (A) (A) (A) (A) (A)
                 (A) (A) (A) (A) (A) (A) (A) (A) (A) (A) (A) (A)
                 (A) (A) (A)
 The electronic state is 1-A.
 Alpha  occ. eigenvalues --  -20.52450 -20.52262 -15.60855 -15.60574 -11.35895
 Alpha  occ. eigenvalues --  -11.35669 -11.28252 -11.27073 -11.24482 -11.19315
 Alpha  occ. eigenvalues --   -1.38730  -1.37897  -1.26337  -1.23799  -1.05741
 Alpha  occ. eigenvalues --   -0.99150  -0.97110  -0.87446  -0.82304  -0.78461
 Alpha  occ. eigenvalues --   -0.74467  -0.68181  -0.66646  -0.65247  -0.63262
 Alpha  occ. eigenvalues --   -0.62200  -0.60004  -0.58253  -0.57048  -0.56296
 Alpha  occ. eigenvalues --   -0.54790  -0.53852  -0.51347  -0.51171  -0.49278
 Alpha  occ. eigenvalues --   -0.42641  -0.40667  -0.40275  -0.39334
 Alpha virt. eigenvalues --    0.17683   0.18488   0.20252   0.24074   0.25928
 Alpha virt. eigenvalues --    0.27574   0.29593   0.30014   0.30687   0.31651
 Alpha virt. eigenvalues --    0.31894   0.33533   0.34464   0.35228   0.38436
 Alpha virt. eigenvalues --    0.38953   0.42816   0.44433   0.46955   0.48693
 Alpha virt. eigenvalues --    0.54969   0.60104   0.61150   0.70842   0.71692
 Alpha virt. eigenvalues --    0.72715   0.74353   0.76103   0.78212   0.79296
 Alpha virt. eigenvalues --    0.79527   0.82237   0.83752   0.88344   0.89142
 Alpha virt. eigenvalues --    0.91573   0.93720   0.94433   0.97770   0.98265
 Alpha virt. eigenvalues --    1.00453   1.01192   1.04010   1.05145   1.08490
 Alpha virt. eigenvalues --    1.10138   1.12638   1.13649   1.14332   1.14732
 Alpha virt. eigenvalues --    1.15005   1.16501   1.18971   1.20401   1.20942
 Alpha virt. eigenvalues --    1.21419   1.22464   1.23096   1.26164   1.29370
 Alpha virt. eigenvalues --    1.30529   1.34375   1.36554   1.38997   1.45371
 Alpha virt. eigenvalues --    1.48126   1.53526   1.54964   1.58247   1.61561
 Alpha virt. eigenvalues --    1.62556   1.65418   1.67012   1.71454   1.72473
 Alpha virt. eigenvalues --    1.76643   1.81975   1.89747   1.93278   1.94629
 Alpha virt. eigenvalues --    2.04001   2.04679   2.10095   2.11752   2.13116
 Alpha virt. eigenvalues --    2.13356   2.15323   2.16674   2.18149   2.21497
 Alpha virt. eigenvalues --    2.22460   2.24018   2.30379   2.32321   2.34984
 Alpha virt. eigenvalues --    2.35270   2.38087   2.40891   2.45575   2.50171
 Alpha virt. eigenvalues --    2.51346   2.57484   2.60323   2.61731   2.62719
 Alpha virt. eigenvalues --    2.64478   2.65140   2.71735   2.71878   2.74926
 Alpha virt. eigenvalues --    2.75885   2.81047   2.87494   2.89273   3.00179
 Alpha virt. eigenvalues --    3.01358   3.03942   3.06597   3.08644   3.22364
 Alpha virt. eigenvalues --    3.29911   3.34048   3.42185   3.51425   3.59972
 Alpha virt. eigenvalues --    4.37715   4.40239   4.46232   4.54536   4.61112
 Alpha virt. eigenvalues --    4.65554   4.70254   4.81059   4.90655   5.08499
          Condensed to atoms (all electrons):
              1          2          3          4          5          6
     1  H    0.447710   0.385823  -0.018208  -0.017789  -0.029825   0.003626
     2  C    0.385823   5.254627   0.373516   0.374245   0.377244  -0.066039
     3  H   -0.018208   0.373516   0.519925  -0.024884  -0.035650   0.001182
     4  H   -0.017789   0.374245  -0.024884   0.514422  -0.036391   0.001099
     5  C   -0.029825   0.377244  -0.035650  -0.036391   4.185296   0.592570
     6  O    0.003626  -0.066039   0.001182   0.001099   0.592570   8.213738
     7  N    0.003860  -0.123139   0.003903   0.004049   0.236538  -0.104921
     8  H   -0.000021  -0.001259   0.000786   0.000577  -0.017849   0.002362
     9  C   -0.000059   0.003455  -0.000237  -0.000012  -0.027952   0.011768
    10  H    0.000002  -0.000125   0.000006   0.000000  -0.002606   0.001286
    11  C    0.000008  -0.000576   0.000013   0.000015  -0.006388  -0.030909
    12  H    0.000000  -0.000080   0.000000   0.000006   0.000097  -0.000304
    13  H    0.000000   0.000010   0.000000  -0.000001   0.000447   0.000816
    14  H    0.000005   0.000283  -0.000009  -0.000008  -0.002760   0.002066
    15  C    0.000000   0.000038  -0.000007  -0.000002   0.003113   0.000422
    16  O    0.000000   0.000000   0.000000   0.000000  -0.000071   0.000000
    17  N    0.000000  -0.000057  -0.000001   0.000000   0.000218  -0.000005
    18  H    0.000000   0.000028  -0.000006  -0.000007   0.000105   0.000003
    19  C    0.000000   0.000000   0.000000   0.000000   0.000006   0.000000
    20  H    0.000000   0.000000   0.000000   0.000000   0.000000   0.000000
    21  H    0.000000   0.000000   0.000000   0.000000  -0.000001   0.000000
    22  H    0.000000   0.000000   0.000000   0.000000   0.000000   0.000000
              7          8          9         10         11         12
     1  H    0.003860  -0.000021  -0.000059   0.000002   0.000008   0.000000
     2  C   -0.123139  -0.001259   0.003455  -0.000125  -0.000576  -0.000080
     3  H    0.003903   0.000786  -0.000237   0.000006   0.000013   0.000000
     4  H    0.004049   0.000577  -0.000012   0.000000   0.000015   0.000006
     5  C    0.236538  -0.017849  -0.027952  -0.002606  -0.006388   0.000097
     6  O   -0.104921   0.002362   0.011768   0.001286  -0.030909  -0.000304
     7  N    7.511311   0.314632   0.128433  -0.046893  -0.058607   0.001236
     8  H    0.314632   0.336143  -0.027432   0.002977   0.002741   0.000164
     9  C    0.128433  -0.027432   5.096987   0.401504   0.355915  -0.045092
    10  H   -0.046893   0.002977   0.401504   0.496370  -0.036488   0.004313
    11  C   -0.058607   0.002741   0.355915  -0.036488   5.176920   0.390407
    12  H    0.001236   0.000164  -0.045092   0.004313   0.390407   0.539202
    13  H    0.003955  -0.000072  -0.032543  -0.000449   0.382851  -0.019727
    14  H   -0.001955  -0.000213  -0.032919  -0.002475   0.389965  -0.021436
    15  C   -0.032783  -0.008416   0.373546  -0.031859  -0.056769  -0.004238
    16  O    0.001846  -0.000057  -0.077285   0.000679  -0.003550   0.000527
    17  N   -0.007288   0.010542  -0.119531  -0.000823   0.003106  -0.000060
    18  H    0.000850   0.004722   0.001369  -0.000467   0.000254  -0.000025
    19  C    0.000042  -0.000352   0.004149  -0.000168  -0.000109  -0.000013
    20  H   -0.000030  -0.000013   0.000645  -0.000016  -0.000014  -0.000004
    21  H    0.000011  -0.000092  -0.000017  -0.000002   0.000008   0.000000
    22  H   -0.000005   0.000058  -0.000131   0.000017  -0.000002   0.000000
             13         14         15         16         17         18
     1  H    0.000000   0.000005   0.000000   0.000000   0.000000   0.000000
     2  C    0.000010   0.000283   0.000038   0.000000  -0.000057   0.000028
     3  H    0.000000  -0.000009  -0.000007   0.000000  -0.000001  -0.000006
     4  H   -0.000001  -0.000008  -0.000002   0.000000   0.000000  -0.000007
     5  C    0.000447  -0.002760   0.003113  -0.000071   0.000218   0.000105
     6  O    0.000816   0.002066   0.000422   0.000000  -0.000005   0.000003
     7  N    0.003955  -0.001955  -0.032783   0.001846  -0.007288   0.000850
     8  H   -0.000072  -0.000213  -0.008416  -0.000057   0.010542   0.004722
     9  C   -0.032543  -0.032919   0.373546  -0.077285  -0.119531   0.001369
    10  H   -0.000449  -0.002475  -0.031859   0.000679  -0.000823  -0.000467
    11  C    0.382851   0.389965  -0.056769  -0.003550   0.003106   0.000254
    12  H   -0.019727  -0.021436  -0.004238   0.000527  -0.000060  -0.000025
    13  H    0.496076  -0.021777  -0.005845   0.004388   0.000196  -0.000018
    14  H   -0.021777   0.435538   0.004580   0.000441  -0.000039  -0.000007
    15  C   -0.005845   0.004580   4.134067   0.593924   0.289489  -0.023376
    16  O    0.004388   0.000441   0.593924   8.200823  -0.095393   0.002521
    17  N    0.000196  -0.000039   0.289489  -0.095393   7.355274   0.319085
    18  H   -0.000018  -0.000007  -0.023376   0.002521   0.319085   0.338613
    19  C   -0.000003   0.000002  -0.025043  -0.004796   0.179887  -0.021264
    20  H   -0.000002   0.000000  -0.002070   0.010720  -0.031318   0.002370
    21  H    0.000000   0.000000   0.000534   0.000378  -0.048109  -0.000105
    22  H    0.000000   0.000000   0.001204   0.000341  -0.046630  -0.002122
             19         20         21         22
     1  H    0.000000   0.000000   0.000000   0.000000
     2  C    0.000000   0.000000   0.000000   0.000000
     3  H    0.000000   0.000000   0.000000   0.000000
     4  H    0.000000   0.000000   0.000000   0.000000
     5  C    0.000006   0.000000  -0.000001   0.000000
     6  O    0.000000   0.000000   0.000000   0.000000
     7  N    0.000042  -0.000030   0.000011  -0.000005
     8  H   -0.000352  -0.000013  -0.000092   0.000058
     9  C    0.004149   0.000645  -0.000017  -0.000131
    10  H   -0.000168  -0.000016  -0.000002   0.000017
    11  C   -0.000109  -0.000014   0.000008  -0.000002
    12  H   -0.000013  -0.000004   0.000000   0.000000
    13  H   -0.000003  -0.000002   0.000000   0.000000
    14  H    0.000002   0.000000   0.000000   0.000000
    15  C   -0.025043  -0.002070   0.000534   0.001204
    16  O   -0.004796   0.010720   0.000378   0.000341
    17  N    0.179887  -0.031318  -0.048109  -0.046630
    18  H   -0.021264   0.002370  -0.000105  -0.002122
    19  C    4.958510   0.396552   0.402594   0.402592
    20  H    0.396552   0.422936  -0.022042  -0.021834
    21  H    0.402594  -0.022042   0.532413  -0.036274
    22  H    0.402592  -0.021834  -0.036274   0.528677
 Mulliken atomic charges:
              1
     1  H    0.224869
     2  C   -0.577996
     3  H    0.179670
     4  H    0.184682
     5  C    0.763859
     6  O   -0.628760
     7  N   -0.835047
     8  H    0.380073
     9  C   -0.014562
    10  H    0.215217
    11  C   -0.508792
    12  H    0.155027
    13  H    0.191698
    14  H    0.250720
    15  C    0.789492
    16  O   -0.635435
    17  N   -0.808542
    18  H    0.377478
    19  C   -0.292584
    20  H    0.244119
    21  H    0.170706
    22  H    0.174108
 Sum of Mulliken atomic charges =   0.00000
 Mulliken charges with hydrogens summed into heavy atoms:
              1
     2  C    0.011225
     5  C    0.763859
     6  O   -0.628760
     7  N   -0.454974
     9  C    0.200656
    11  C    0.088653
    15  C    0.789492
    16  O   -0.635435
    17  N   -0.431064
    19  C    0.296349
 Sum of Mulliken charges with hydrogens summed into heavy atoms =   0.00000
 Electronic spatial extent (au):  <R**2>=           1872.7817
 Charge=              0.0000 electrons
 Dipole moment (field-independent basis, Debye):
    X=              0.7540    Y=             -6.4342    Z=             -0.4010  Tot=              6.4907
 Quadrupole moment (field-independent basis, Debye-Ang):
   XX=            -69.3638   YY=            -59.1110   ZZ=            -60.1396
   XY=             -1.1690   XZ=             -3.1325   YZ=             -0.8123
 Traceless Quadrupole moment (field-independent basis, Debye-Ang):
   XX=             -6.4923   YY=              3.7604   ZZ=              2.7319
   XY=             -1.1690   XZ=             -3.1325   YZ=             -0.8123
 Octapole moment (field-independent basis, Debye-Ang**2):
  XXX=             22.2538  YYY=            -11.3723  ZZZ=             -0.9572  XYY=             -3.3676
  XXY=            -44.0092  XXZ=              4.7186  XZZ=              0.0836  YZZ=              0.1915
  YYZ=             -3.0547  XYZ=             -2.5891
 Hexadecapole moment (field-independent basis, Debye-Ang**3):
 XXXX=          -1704.6308 YYYY=           -587.9298 ZZZZ=           -105.5679 XXXY=              5.5189
 XXXZ=            -14.9818 YYYX=            -17.5820 YYYZ=              0.0309 ZZZX=              1.9262
 ZZZY=             -2.2021 XXYY=           -397.5109 XXZZ=           -303.4219 YYZZ=           -115.6348
 XXYZ=             -1.2462 YYXZ=             -2.6941 ZZXY=             -0.1050
 N-N= 5.583070424338D+02 E-N=-2.271613216480D+03  KE= 4.919182621597D+02
 Calling FoFJK, ICntrl=      2127 FMM=F ISym2X=0 I1Cent= 0 IOpClX= 0 NMat=1 NMatS=1 NMatT=0.
 ***** Axes restored to original set *****
 -------------------------------------------------------------------
 Center     Atomic                   Forces (Hartrees/Bohr)
 Number     Number              X              Y              Z
 -------------------------------------------------------------------
      1        1           0.004151592    0.008528111    0.001589749
      2        6           0.005666806    0.007883770    0.000548832
      3        1          -0.002688080   -0.000864574   -0.004170996
      4        1          -0.001803828   -0.002753908    0.003920920
      5        6           0.021262808   -0.056187796   -0.014736993
      6        8          -0.042898844    0.017652320    0.018447532
      7        7          -0.014968172    0.019729116    0.008541958
      8        1           0.010718577   -0.020194918   -0.010329365
      9        6           0.012463674   -0.000439174   -0.009910973
     10        1          -0.002036338    0.003094075   -0.000088747
     11        6           0.015357041   -0.007402078   -0.004756168
     12        1           0.004015333   -0.000829654    0.002155794
     13        1          -0.007925879   -0.000280095   -0.001660191
     14        1           0.001691194    0.016264029   -0.003168598
     15        6           0.037568563    0.020280274   -0.021458796
     16        8          -0.032963357   -0.024561107    0.024048009
     17        7          -0.015457791    0.001635750    0.008389163
     18        1           0.014807368    0.017562546   -0.001540935
     19        6          -0.003526876    0.004542057    0.002168729
     20        1          -0.006754609   -0.007110898    0.004248452
     21        1           0.003759000    0.002012070    0.002713220
     22        1          -0.000438181    0.001440083   -0.004950596
 -------------------------------------------------------------------
 Cartesian Forces:  Max     0.056187796 RMS     0.014779114

 GradGradGradGradGradGradGradGradGradGradGradGradGradGradGradGradGradGrad
 Berny optimization.
 Internal  Forces:  Max     0.047828849 RMS     0.012333475
 Search for a local minimum.
 Step number   1 out of a maximum of  108
 All quantities printed in internal units (Hartrees-Bohrs-Radians)
 Mixed Optimization -- RFO/linear search
 Second derivative matrix not updated -- first step.
     Eigenvalues ---    0.00369   0.00435   0.00999   0.01043   0.01269
     Eigenvalues ---    0.01422   0.01659   0.02551   0.02551   0.03503
     Eigenvalues ---    0.05232   0.05841   0.05844   0.05844   0.07165
     Eigenvalues ---    0.07463   0.07685   0.07686   0.15421   0.16000
     Eigenvalues ---    0.16000   0.16000   0.16000   0.16000   0.16000
     Eigenvalues ---    0.16000   0.16000   0.16000   0.16000   0.16000
     Eigenvalues ---    0.16180   0.22000   0.22000   0.25000   0.25000
     Eigenvalues ---    0.25000   0.25000   0.29422   0.29887   0.30174
     Eigenvalues ---    0.34808   0.34810   0.34811   0.34812   0.34813
     Eigenvalues ---    0.34814   0.34815   0.34816   0.34818   0.34821
     Eigenvalues ---    0.38367   0.38379   0.45968   0.45984   0.58330
     Eigenvalues ---    0.58334   0.91487   0.915111000.000001000.00000
     Eigenvalues --- 1000.000001000.000001000.000001000.000001000.00000
     Eigenvalues --- 1000.000001000.000001000.000001000.000001000.00000
     Eigenvalues --- 1000.000001000.000001000.000001000.000001000.00000
     Eigenvalues --- 1000.000001000.000001000.000001000.000001000.00000
     Eigenvalues --- 1000.000001000.000001000.000001000.000001000.00000
     Eigenvalues --- 1000.000001000.000001000.000001000.000001000.00000
     Eigenvalues --- 1000.000001000.000001000.000001000.000001000.00000
     Eigenvalues --- 1000.000001000.000001000.00000
 RFO step:  Lambda=-4.17479325D-02 EMin= 3.68895939D-03
 Linear search not attempted -- first point.
 Maximum step size (   0.300) exceeded in Quadratic search.
    -- Step size scaled by   0.673
 Iteration  1 RMS(Cart)=  0.11850344 RMS(Int)=  0.00422545
 Iteration  2 RMS(Cart)=  0.00671347 RMS(Int)=  0.00029251
 Iteration  3 RMS(Cart)=  0.00001262 RMS(Int)=  0.00029242
 Iteration  4 RMS(Cart)=  0.00000000 RMS(Int)=  0.00029242
 Iteration  1 RMS(Cart)=  0.00002941 RMS(Int)=  0.00001129
 Iteration  2 RMS(Cart)=  0.00001601 RMS(Int)=  0.00001257
 Iteration  3 RMS(Cart)=  0.00000897 RMS(Int)=  0.00001422
 Iteration  4 RMS(Cart)=  0.00000521 RMS(Int)=  0.00001538
 Iteration  5 RMS(Cart)=  0.00000314 RMS(Int)=  0.00001612
 Iteration  6 RMS(Cart)=  0.00000197 RMS(Int)=  0.00001658
 Iteration  7 RMS(Cart)=  0.00000127 RMS(Int)=  0.00001687
 Iteration  8 RMS(Cart)=  0.00000083 RMS(Int)=  0.00001706
 Variable       Old X    -DE/DX   Delta X   Delta X   Delta X     New X
                                 (Linear)    (Quad)   (Total)
    R1        2.05980  -0.00872   0.00000  -0.01506  -0.01506   2.04474
    R2        2.05988  -0.00296   0.00000  -0.00511  -0.00511   2.05477
    R3        2.05981  -0.00297   0.00000  -0.00513  -0.00513   2.05468
    R4        2.89131  -0.00956   0.00000  -0.01916  -0.01916   2.87215
    R5        2.32255  -0.04783   0.00000  -0.03367  -0.03367   2.28888
    R6        2.52283   0.02550   0.00000   0.02747   0.02747   2.55030
    R7        1.90867  -0.02212   0.00000  -0.02971  -0.02971   1.87896
    R8        2.73817   0.03007   0.00000   0.04758   0.04758   2.78576
    R9        2.05975  -0.00196   0.00000  -0.00338  -0.00338   2.05637
   R10        2.88188   0.01097   0.00000   0.02168   0.02168   2.90356
   R11        2.87618   0.01601   0.00000   0.03139   0.03139   2.90757
   R12        2.05972  -0.00399   0.00000  -0.00689  -0.00689   2.05283
   R13        2.05984  -0.00722   0.00000  -0.01246  -0.01246   2.04738
   R14        2.05966  -0.01586   0.00000  -0.02739  -0.02739   2.03227
   R15        2.32245  -0.04741   0.00000  -0.03337  -0.03337   2.28908
   R16        2.52287   0.01863   0.00000   0.02007   0.02007   2.54294
   R17        1.90849  -0.02135   0.00000  -0.02866  -0.02866   1.87983
   R18        2.73835   0.00226   0.00000   0.00357   0.00357   2.74192
   R19        2.05983  -0.01044   0.00000  -0.01803  -0.01803   2.04179
   R20        2.05976  -0.00407   0.00000  -0.00702  -0.00702   2.05273
   R21        2.05978  -0.00430   0.00000  -0.00744  -0.00744   2.05234
    A1        1.91109   0.00029   0.00000  -0.00024  -0.00012   1.91097
    A2        1.91111   0.00033   0.00000   0.00009   0.00021   1.91133
    A3        1.93907  -0.00804   0.00000  -0.02797  -0.02784   1.91123
    A4        1.91008  -0.00456   0.00000  -0.01287  -0.01314   1.89693
    A5        1.89606   0.00594   0.00000   0.02032   0.02024   1.91630
    A6        1.89615   0.00609   0.00000   0.02092   0.02084   1.91700
    A7        2.10307  -0.00390   0.00000  -0.00900  -0.00922   2.09385
    A8        2.03504  -0.01841   0.00000  -0.04250  -0.04274   1.99230
    A9        2.14507   0.02232   0.00000   0.05151   0.05124   2.19631
   A10        2.09437  -0.03311   0.00000  -0.09329  -0.09360   2.00078
   A11        2.12749   0.04501   0.00000   0.11579   0.11546   2.24295
   A12        2.06132  -0.01190   0.00000  -0.02250  -0.02287   2.03845
   A13        1.91114  -0.00391   0.00000  -0.00872  -0.00928   1.90186
   A14        1.93905   0.01565   0.00000   0.06230   0.06224   2.00129
   A15        1.93900  -0.00060   0.00000   0.00352   0.00425   1.94326
   A16        1.89609   0.00028   0.00000   0.00205   0.00106   1.89715
   A17        1.89608  -0.00292   0.00000  -0.01639  -0.01680   1.87928
   A18        1.88137  -0.00887   0.00000  -0.04464  -0.04487   1.83651
   A19        1.91115   0.00174   0.00000   0.00477   0.00462   1.91577
   A20        1.91106  -0.00274   0.00000  -0.01168  -0.01168   1.89939
   A21        1.91110   0.00768   0.00000   0.02917   0.02907   1.94017
   A22        1.91011  -0.00212   0.00000  -0.01416  -0.01421   1.89590
   A23        1.91023  -0.00284   0.00000  -0.00445  -0.00469   1.90554
   A24        1.91015  -0.00171   0.00000  -0.00368  -0.00363   1.90652
   A25        2.10312  -0.00651   0.00000  -0.01503  -0.01509   2.08803
   A26        2.03504   0.02017   0.00000   0.04657   0.04652   2.08155
   A27        2.14503  -0.01366   0.00000  -0.03153  -0.03159   2.11345
   A28        2.09444   0.00298   0.00000   0.01150   0.01138   2.10582
   A29        2.12752   0.00402   0.00000   0.01033   0.01022   2.13774
   A30        2.06122  -0.00700   0.00000  -0.02183  -0.02194   2.03929
   A31        1.91114  -0.00506   0.00000  -0.01820  -0.01814   1.89300
   A32        1.91107   0.00448   0.00000   0.01565   0.01559   1.92666
   A33        1.91103   0.00425   0.00000   0.01479   0.01473   1.92577
   A34        1.91016  -0.00037   0.00000  -0.00246  -0.00240   1.90776
   A35        1.91018  -0.00033   0.00000  -0.00246  -0.00240   1.90778
   A36        1.91022  -0.00298   0.00000  -0.00733  -0.00750   1.90271
    D1        0.00011  -0.00157   0.00000  -0.01978  -0.01944  -0.01933
    D2        3.14154   0.00161   0.00000   0.01963   0.01928  -3.12237
    D3        2.10340  -0.00234   0.00000  -0.02425  -0.02407   2.07933
    D4       -1.03836   0.00084   0.00000   0.01516   0.01466  -1.02370
    D5       -2.10327  -0.00093   0.00000  -0.01610  -0.01560  -2.11887
    D6        1.03816   0.00225   0.00000   0.02330   0.02313   1.06128
    D7        0.00010   0.00428   0.00000  -0.00027  -0.00014  -0.00003
    D8       -3.14155   0.00160   0.00000   0.05137   0.05030  -3.09126
    D9        3.14153   0.00754   0.00000   0.04017   0.04124  -3.10042
   D10       -0.00013   0.00487   0.00000   0.09180   0.09168   0.09154
   D11       -1.30895   0.00417   0.00000  -0.02384  -0.02413  -1.33307
   D12        0.78549   0.01187   0.00000   0.01240   0.01187   0.79736
   D13        2.87985   0.01072   0.00000   0.00000   0.00000   2.87984
   D14        1.83258   0.00154   0.00000   0.02686   0.02723   1.85981
   D15       -2.35616   0.00924   0.00000   0.06310   0.06323  -2.29294
   D16       -0.26181   0.00810   0.00000   0.05070   0.05136  -0.21046
   D17        1.04724   0.00032   0.00000  -0.00572  -0.00609   1.04115
   D18        3.14157  -0.00289   0.00000  -0.02731  -0.02771   3.11386
   D19       -1.04726  -0.00197   0.00000  -0.02109  -0.02159  -1.06885
   D20       -3.13259   0.00535   0.00000   0.02338   0.02355  -3.10904
   D21       -1.03826   0.00213   0.00000   0.00178   0.00193  -1.03633
   D22        1.05609   0.00306   0.00000   0.00800   0.00804   1.06413
   D23       -1.08102  -0.00282   0.00000  -0.01939  -0.01904  -1.10006
   D24        1.01331  -0.00603   0.00000  -0.04099  -0.04066   0.97265
   D25        3.10766  -0.00510   0.00000  -0.03477  -0.03454   3.07312
   D26       -2.61796  -0.00562   0.00000  -0.01866  -0.01874  -2.63670
   D27        0.52362  -0.00136   0.00000   0.00000   0.00000   0.52362
   D28        1.56191   0.00148   0.00000   0.00055   0.00081   1.56273
   D29       -1.57969   0.00574   0.00000   0.01922   0.01956  -1.56014
   D30       -0.48967   0.00757   0.00000   0.03139   0.03108  -0.45859
   D31        2.65191   0.01184   0.00000   0.05006   0.04982   2.70173
   D32        0.00001   0.00173   0.00000   0.03154   0.03176   0.03176
   D33       -3.14158  -0.00073   0.00000   0.00312   0.00303  -3.13854
   D34        3.14159   0.00610   0.00000   0.05070   0.05078  -3.09082
   D35        0.00000   0.00364   0.00000   0.02227   0.02206   0.02206
   D36        0.00002   0.00120   0.00000   0.01411   0.01401   0.01403
   D37        2.09441   0.00040   0.00000   0.00953   0.00933   2.10374
   D38       -2.09438   0.00210   0.00000   0.01921   0.01920  -2.07517
   D39       -3.14156  -0.00121   0.00000  -0.01379  -0.01369   3.12794
   D40       -1.04717  -0.00202   0.00000  -0.01837  -0.01836  -1.06553
   D41        1.04722  -0.00031   0.00000  -0.00869  -0.00849   1.03873
         Item               Value     Threshold  Converged?
 Maximum Force            0.047829     0.000450     NO 
 RMS     Force            0.012341     0.000300     NO 
 Maximum Displacement     0.435433     0.001800     NO 
 RMS     Displacement     0.117705     0.001200     NO 
 Predicted change in Energy=-2.052909D-02
 GradGradGradGradGradGradGradGradGradGradGradGradGradGradGradGradGradGrad

                          Input orientation:                          
 ---------------------------------------------------------------------
 Center     Atomic      Atomic             Coordinates (Angstroms)
 Number     Number       Type             X           Y           Z
 ---------------------------------------------------------------------
      1          1           0        1.801229    1.120304   -0.443189
      2          6           0        1.906975    2.175462   -0.228137
      3          1           0        1.507775    2.385869    0.761141
      4          1           0        1.347216    2.753058   -0.959747
      5          6           0        3.376470    2.559699   -0.282645
      6          8           0        4.213808    1.717079   -0.519112
      7          7           0        3.618440    3.857854   -0.004144
      8          1           0        2.807756    4.395947    0.200508
      9          6           0        4.905587    4.576218   -0.022866
     10          1           0        5.471429    4.311430    0.868118
     11          6           0        5.775706    4.300784   -1.258931
     12          1           0        5.239015    4.590387   -2.157911
     13          1           0        6.679679    4.893917   -1.189365
     14          1           0        6.038921    3.260117   -1.324383
     15          6           0        4.696380    6.100471   -0.007548
     16          8           0        5.518186    6.823106   -0.526919
     17          7           0        3.610907    6.609356    0.603686
     18          1           0        2.962392    6.012787    1.065296
     19          6           0        3.342883    8.034354    0.656884
     20          1           0        4.131733    8.550800    0.129231
     21          1           0        2.389758    8.258002    0.186253
     22          1           0        3.317255    8.375400    1.687680
 ---------------------------------------------------------------------
                    Distance matrix (angstroms):
                    1          2          3          4          5
     1  H    0.000000
     2  C    1.082030   0.000000
     3  H    1.771492   1.087338   0.000000
     4  H    1.771679   1.087291   1.766936   0.000000
     5  C    2.139864   1.519877   2.147493   2.147959   0.000000
     6  O    2.486451   2.369864   3.067400   3.079734   1.211223
     7  N    3.314996   2.410338   2.684643   2.700409   1.349562
     8  H    3.486729   2.434276   2.458592   2.485649   1.982089
     9  C    4.664445   3.846744   4.117939   4.106539   2.544018
    10  H    5.037180   4.297612   4.407923   4.772708   2.963388
    11  C    5.155323   4.532837   5.095373   4.700691   3.121032
    12  H    5.176883   4.545149   5.225219   4.467378   3.333074
    13  H    6.212585   5.576079   6.069874   5.750753   4.145106
    14  H    4.828389   4.410353   5.064090   4.733093   2.943544
    15  C    5.777002   4.820284   4.955437   4.829985   3.788787
    16  O    6.807697   5.893277   6.118134   5.843768   4.777369
    17  N    5.873719   4.822316   4.720784   4.737051   4.152140
    18  H    5.249783   4.184727   3.919560   4.163583   3.729909
    19  C    7.168748   6.096861   5.940023   5.872671   5.554790
    20  H    7.808404   6.761819   6.729846   6.523282   6.052549
    21  H    7.189527   6.115725   5.965763   5.718794   5.802079
    22  H    7.712027   6.640669   6.325123   6.519252   6.140689
                    6          7          8          9         10
     6  O    0.000000
     7  N    2.280916   0.000000
     8  H    3.109850   0.994301   0.000000
     9  C    2.983202   1.474159   2.117377   0.000000
    10  H    3.199481   2.097651   2.747363   1.088183   0.000000
    11  C    3.108439   2.534655   3.308738   1.536500   2.148729
    12  H    3.463035   2.793131   3.392781   2.160971   3.047735
    13  H    4.077016   3.442290   4.143852   2.146872   2.456094
    14  H    2.521997   2.821179   3.749111   2.170373   2.496872
    15  C    4.439449   2.488232   2.552566   1.538620   2.137326
    16  O    5.270008   3.560203   3.710348   2.382825   2.873471
    17  N    5.055546   2.817849   2.388888   2.490464   2.968490
    18  H    4.746525   2.493558   1.840093   2.650251   3.037888
    19  C    6.484554   4.237457   3.705759   3.855231   4.293657
    20  H    6.864898   4.722816   4.361284   4.052071   4.506994
    21  H    6.827032   4.572440   3.884635   4.464152   5.053421
    22  H    7.071562   4.833343   4.278705   4.458985   4.672045
                   11         12         13         14         15
    11  C    0.000000
    12  H    1.086311   0.000000
    13  H    1.083427   1.762307   0.000000
    14  H    1.075432   1.761884   1.760142   0.000000
    15  C    2.443313   2.683071   2.604984   3.406477   0.000000
    16  O    2.638990   2.779048   2.347269   3.688089   1.211327
    17  N    3.672220   3.788587   3.946534   4.564001   1.345668
    18  H    4.030846   4.194674   4.489275   4.769988   2.040930
    19  C    4.850621   4.835214   4.940161   5.829870   2.452208
    20  H    4.763641   4.705525   4.647959   5.808759   2.518262
    21  H    5.404884   5.202381   5.622528   6.370029   3.164333
    22  H    5.597231   5.727832   5.630632   6.530399   3.154534
                   16         17         18         19         20
    16  O    0.000000
    17  N    2.227481   0.000000
    18  H    3.118308   0.994761   0.000000
    19  C    2.756892   1.450960   2.097214   0.000000
    20  H    2.310349   2.065325   2.947046   1.080471   0.000000
    21  H    3.514912   2.093678   2.478228   1.086259   1.767331
    22  H    3.486856   2.092890   2.468853   1.086053   1.767173
                   21         22
    21  H    0.000000
    22  H    1.768705   0.000000
 Stoichiometry    C6H12N2O2
 Framework group  C1[X(C6H12N2O2)]
 Deg. of freedom    60
 Full point group                 C1      NOp   1
 Largest Abelian subgroup         C1      NOp   1
 Largest concise Abelian subgroup C1      NOp   1
                         Standard orientation:                         
 ---------------------------------------------------------------------
 Center     Atomic      Atomic             Coordinates (Angstroms)
 Number     Number       Type             X           Y           Z
 ---------------------------------------------------------------------
      1          1           0       -3.955850   -1.484305    0.390744
      2          6           0       -2.881820   -1.608077    0.346846
      3          1           0       -2.634090   -2.368732   -0.389589
      4          1           0       -2.513406   -1.930158    1.317792
      5          6           0       -2.234215   -0.288198   -0.038581
      6          8           0       -2.924185    0.682197   -0.260695
      7          7           0       -0.889872   -0.342742   -0.143871
      8          1           0       -0.495363   -1.236013    0.043385
      9          6           0        0.052866    0.751399   -0.439238
     10          1           0        0.009521    0.978242   -1.502632
     11          6           0       -0.198184    2.044962    0.351015
     12          1           0       -0.126071    1.844548    1.416241
     13          1           0        0.560181    2.770949    0.083362
     14          1           0       -1.169899    2.450833    0.132855
     15          6           0        1.500028    0.348812   -0.106075
     16          8           0        2.298254    1.199346    0.220636
     17          7           0        1.862556   -0.943372   -0.204329
     18          1           0        1.213222   -1.630139   -0.514597
     19          6           0        3.206357   -1.400715    0.096209
     20          1           0        3.796415   -0.549759    0.404629
     21          1           0        3.186331   -2.133403    0.897912
     22          1           0        3.657479   -1.850706   -0.783284
 ---------------------------------------------------------------------
 Rotational constants (GHZ):      2.3268667      0.7447085      0.5856654
 Standard basis: 6-31G(d) (6D, 7F)
 There are   174 symmetry adapted basis functions of A   symmetry.
 Integral buffers will be    131072 words long.
 Raffenetti 1 integral format.
 Two-electron integral symmetry is turned on.
   174 basis functions,   328 primitive gaussians,   174 cartesian basis functions
    39 alpha electrons       39 beta electrons
       nuclear repulsion energy       552.4065386025 Hartrees.
 NAtoms=   22 NActive=   22 NUniq=   22 SFac= 7.50D-01 NAtFMM=   80 NAOKFM=F Big=F
 One-electron integrals computed using PRISM.
 NBasis=   174 RedAO= T  NBF=   174
 NBsUse=   174 1.00D-06 NBFU=   174
 Initial guess read from the read-write file.
 B after Tr=     0.000000    0.000000    0.000000
         Rot=    1.000000    0.000000    0.000000    0.000000 Ang=   0.00 deg.
 Initial guess orbital symmetries:
       Occupied  (A) (A) (A) (A) (A) (A) (A) (A) (A) (A) (A) (A)
                 (A) (A) (A) (A) (A) (A) (A) (A) (A) (A) (A) (A)
                 (A) (A) (A) (A) (A) (A) (A) (A) (A) (A) (A) (A)
                 (A) (A) (A)
       Virtual   (A) (A) (A) (A) (A) (A) (A) (A) (A) (A) (A) (A)
                 (A) (A) (A) (A) (A) (A) (A) (A) (A) (A) (A) (A)
                 (A) (A) (A) (A) (A) (A) (A) (A) (A) (A) (A) (A)
                 (A) (A) (A) (A) (A) (A) (A) (A) (A) (A) (A) (A)
                 (A) (A) (A) (A) (A) (A) (A) (A) (A) (A) (A) (A)
                 (A) (A) (A) (A) (A) (A) (A) (A) (A) (A) (A) (A)
                 (A) (A) (A) (A) (A) (A) (A) (A) (A) (A) (A) (A)
                 (A) (A) (A) (A) (A) (A) (A) (A) (A) (A) (A) (A)
                 (A) (A) (A) (A) (A) (A) (A) (A) (A) (A) (A) (A)
                 (A) (A) (A) (A) (A) (A) (A) (A) (A) (A) (A) (A)
                 (A) (A) (A) (A) (A) (A) (A) (A) (A) (A) (A) (A)
                 (A) (A) (A)
 Harris functional with IExCor=  205 diagonalized for initial guess.
 ExpMin= 1.61D-01 ExpMax= 5.48D+03 ExpMxC= 8.25D+02 IAcc=1 IRadAn=         1 AccDes= 0.00D+00
 HarFok:  IExCor=  205 AccDes= 0.00D+00 IRadAn=         1 IDoV= 1
 ScaDFX=  1.000000  1.000000  1.000000  1.000000
 FoFCou: FMM=F IPFlag=           0 FMFlag=      100000 FMFlg1=           0
         NFxFlg=           0 DoJE=T BraDBF=F KetDBF=T FulRan=T
         Omega=  0.000000  0.000000  1.000000  0.000000  0.000000 ICntrl=     500 IOpCl=  0
         NMat0=    1 NMatS0=    1 NMatT0=    0 NMatD0=    1 NMtDS0=    0 NMtDT0=    0
         I1Cent=           4 NGrid=           0.
 Petite list used in FoFCou.
 Requested convergence on RMS density matrix=1.00D-08 within 128 cycles.
 Requested convergence on MAX density matrix=1.00D-06.
 Requested convergence on             energy=1.00D-06.
 No special actions if energy rises.
 Integral accuracy reduced to 1.0D-05 until final iterations.
 Initial convergence to 1.0D-05 achieved.  Increase integral accuracy.
 SCF Done:  E(RHF) =  -492.838111026     A.U. after   14 cycles
             Convg  =    0.4363D-08             -V/T =  2.0018
 Calling FoFJK, ICntrl=      2127 FMM=F ISym2X=0 I1Cent= 0 IOpClX= 0 NMat=1 NMatS=1 NMatT=0.
 ***** Axes restored to original set *****
 -------------------------------------------------------------------
 Center     Atomic                   Forces (Hartrees/Bohr)
 Number     Number              X              Y              Z
 -------------------------------------------------------------------
      1        1           0.001579890    0.002436629    0.000465614
      2        6           0.000460488    0.005126146   -0.000758332
      3        1          -0.001583067   -0.000579958   -0.001577706
      4        1          -0.001593896   -0.001266980    0.001665453
      5        6           0.011968598   -0.032899249   -0.000729016
      6        8          -0.008220300    0.022171986    0.003605199
      7        7           0.003481514    0.015981554   -0.001214573
      8        1           0.001867893   -0.002359499   -0.005378152
      9        6           0.001253753   -0.002480459   -0.008352499
     10        1          -0.001653434    0.001632834   -0.000340668
     11        6          -0.001959023   -0.005032249    0.000949105
     12        1           0.001917920   -0.000845120    0.000863965
     13        1          -0.003707815   -0.001906445   -0.000619344
     14        1          -0.001310197   -0.003813908    0.000403815
     15        6           0.015049289    0.013911411   -0.005316232
     16        8          -0.012024232   -0.011053593    0.009645167
     17        7          -0.008931887   -0.001149696    0.003343190
     18        1           0.004424495    0.002556520    0.001969647
     19        6          -0.000008033    0.000777735    0.000530471
     20        1          -0.002304893   -0.001568997    0.001628142
     21        1           0.001286345    0.000144763    0.000825726
     22        1           0.000006592    0.000216577   -0.001608971
 -------------------------------------------------------------------
 Cartesian Forces:  Max     0.032899249 RMS     0.007019772

 GradGradGradGradGradGradGradGradGradGradGradGradGradGradGradGradGradGrad
 Berny optimization.
 Using GEDIIS/GDIIS optimizer.
 Internal  Forces:  Max     0.021811225 RMS     0.005383354
 Search for a local minimum.
 Step number   2 out of a maximum of  108
 All quantities printed in internal units (Hartrees-Bohrs-Radians)
 Mixed Optimization -- RFO/linear search
 Update second derivatives using D2CorX and points    1    2
 DE= -1.01D-02 DEPred=-2.05D-02 R= 4.91D-01
 Trust test= 4.91D-01 RLast= 3.00D-01 DXMaxT set to 3.00D-01
 Use linear search instead of GDIIS.
     Eigenvalues ---    0.00369   0.00438   0.00991   0.01043   0.01333
     Eigenvalues ---    0.01430   0.01674   0.02545   0.02633   0.03395
     Eigenvalues ---    0.05077   0.05647   0.05914   0.06157   0.07264
     Eigenvalues ---    0.07268   0.07537   0.07742   0.15205   0.15845
     Eigenvalues ---    0.15992   0.15997   0.16000   0.16000   0.16000
     Eigenvalues ---    0.16000   0.16000   0.16000   0.16000   0.16145
     Eigenvalues ---    0.17552   0.21962   0.23869   0.24715   0.24996
     Eigenvalues ---    0.24998   0.29200   0.29678   0.29965   0.33349
     Eigenvalues ---    0.34481   0.34808   0.34811   0.34812   0.34812
     Eigenvalues ---    0.34814   0.34815   0.34816   0.34817   0.35915
     Eigenvalues ---    0.38366   0.44468   0.45976   0.53852   0.57698
     Eigenvalues ---    0.59933   0.84438   0.915351000.000001000.00000
     Eigenvalues --- 1000.000001000.000001000.000001000.000001000.00000
     Eigenvalues --- 1000.000001000.000001000.000001000.000001000.00000
     Eigenvalues --- 1000.000001000.000001000.000001000.000001000.00000
     Eigenvalues --- 1000.000001000.000001000.000001000.000001000.00000
     Eigenvalues --- 1000.000001000.000001000.000001000.000001000.00000
     Eigenvalues --- 1000.000001000.000001000.000001000.000001000.00000
     Eigenvalues --- 1000.000001000.000001000.000001000.000001000.00000
     Eigenvalues --- 1000.000001000.000001000.00000
 RFO step:  Lambda=-6.78235539D-03 EMin= 3.68895836D-03
 Quartic linear search produced a step of -0.16559.
 Iteration  1 RMS(Cart)=  0.07154618 RMS(Int)=  0.00191973
 Iteration  2 RMS(Cart)=  0.00334722 RMS(Int)=  0.00035231
 Iteration  3 RMS(Cart)=  0.00000453 RMS(Int)=  0.00035230
 Iteration  4 RMS(Cart)=  0.00000000 RMS(Int)=  0.00035230
 Iteration  1 RMS(Cart)=  0.00010103 RMS(Int)=  0.00004802
 Iteration  2 RMS(Cart)=  0.00006820 RMS(Int)=  0.00005302
 Iteration  3 RMS(Cart)=  0.00004606 RMS(Int)=  0.00006103
 Iteration  4 RMS(Cart)=  0.00003111 RMS(Int)=  0.00006785
 Iteration  5 RMS(Cart)=  0.00002101 RMS(Int)=  0.00007291
 Iteration  6 RMS(Cart)=  0.00001419 RMS(Int)=  0.00007650
 Iteration  7 RMS(Cart)=  0.00000959 RMS(Int)=  0.00007899
 Iteration  8 RMS(Cart)=  0.00000648 RMS(Int)=  0.00008070
 Iteration  9 RMS(Cart)=  0.00000438 RMS(Int)=  0.00008187
 Iteration 10 RMS(Cart)=  0.00000296 RMS(Int)=  0.00008266
 Iteration 11 RMS(Cart)=  0.00000200 RMS(Int)=  0.00008320
 Iteration 12 RMS(Cart)=  0.00000135 RMS(Int)=  0.00008356
 Iteration 13 RMS(Cart)=  0.00000091 RMS(Int)=  0.00008381
 Variable       Old X    -DE/DX   Delta X   Delta X   Delta X     New X
                                 (Linear)    (Quad)   (Total)
    R1        2.04474  -0.00262   0.00249  -0.01319  -0.01070   2.03404
    R2        2.05477  -0.00097   0.00085  -0.00465  -0.00381   2.05096
    R3        2.05468  -0.00097   0.00085  -0.00468  -0.00383   2.05085
    R4        2.87215  -0.00035   0.00317  -0.00983  -0.00666   2.86549
    R5        2.28888  -0.02181   0.00558  -0.03616  -0.03059   2.25829
    R6        2.55030   0.00380  -0.00455   0.01862   0.01407   2.56437
    R7        1.87896  -0.00391   0.00492  -0.02113  -0.01621   1.86274
    R8        2.78576  -0.01120  -0.00788  -0.00132  -0.00920   2.77655
    R9        2.05637  -0.00154   0.00056  -0.00517  -0.00461   2.05175
   R10        2.90356  -0.00207  -0.00359   0.00441   0.00082   2.90439
   R11        2.90757   0.00425  -0.00520   0.02597   0.02077   2.92834
   R12        2.05283  -0.00189   0.00114  -0.00764  -0.00650   2.04633
   R13        2.04738  -0.00418   0.00206  -0.01561  -0.01355   2.03383
   R14        2.03227   0.00335   0.00454  -0.00502  -0.00048   2.03179
   R15        2.28908  -0.01889   0.00553  -0.03338  -0.02785   2.26122
   R16        2.54294   0.00787  -0.00332   0.02076   0.01743   2.56038
   R17        1.87983  -0.00350   0.00475  -0.01991  -0.01517   1.86466
   R18        2.74192  -0.00018  -0.00059   0.00130   0.00071   2.74262
   R19        2.04179  -0.00323   0.00299  -0.01600  -0.01301   2.02878
   R20        2.05273  -0.00146   0.00116  -0.00670  -0.00553   2.04720
   R21        2.05234  -0.00146   0.00123  -0.00690  -0.00567   2.04668
    A1        1.91097  -0.00037   0.00002  -0.00387  -0.00377   1.90720
    A2        1.91133  -0.00040  -0.00004  -0.00263  -0.00255   1.90878
    A3        1.91123  -0.00310   0.00461  -0.02874  -0.02403   1.88720
    A4        1.89693  -0.00245   0.00218  -0.01512  -0.01321   1.88372
    A5        1.91630   0.00284  -0.00335   0.02316   0.01971   1.93601
    A6        1.91700   0.00349  -0.00345   0.02728   0.02374   1.94073
    A7        2.09385   0.01051   0.00153   0.03045   0.03136   2.12521
    A8        1.99230   0.00121   0.00708  -0.01476  -0.00829   1.98401
    A9        2.19631  -0.01167  -0.00849  -0.01356  -0.02263   2.17368
   A10        2.00078   0.00585   0.01550  -0.02339  -0.00885   1.99193
   A11        2.24295  -0.01429  -0.01912  -0.00132  -0.02145   2.22150
   A12        2.03845   0.00841   0.00379   0.02081   0.02351   2.06197
   A13        1.90186   0.00547   0.00154  -0.01629  -0.01507   1.88679
   A14        2.00129  -0.01492  -0.01031  -0.02747  -0.03886   1.96243
   A15        1.94326  -0.00227  -0.00070   0.00399   0.00360   1.94685
   A16        1.89715   0.00003  -0.00018  -0.00140  -0.00191   1.89524
   A17        1.87928  -0.00744   0.00278  -0.02769  -0.02535   1.85393
   A18        1.83651   0.01949   0.00743   0.07010   0.07797   1.91447
   A19        1.91577   0.00206  -0.00077   0.01163   0.01089   1.92666
   A20        1.89939   0.00049   0.00193  -0.00008   0.00185   1.90123
   A21        1.94017  -0.00286  -0.00481  -0.00376  -0.00854   1.93163
   A22        1.89590  -0.00088   0.00235  -0.00652  -0.00418   1.89172
   A23        1.90554  -0.00018   0.00078  -0.00773  -0.00689   1.89865
   A24        1.90652   0.00140   0.00060   0.00639   0.00699   1.91351
   A25        2.08803   0.00323   0.00250   0.00347   0.00595   2.09398
   A26        2.08155  -0.00608  -0.00770   0.00150  -0.00623   2.07532
   A27        2.11345   0.00280   0.00523  -0.00527  -0.00007   2.11337
   A28        2.10582  -0.00094  -0.00188   0.00103  -0.00123   2.10459
   A29        2.13774   0.00209  -0.00169   0.01198   0.00992   2.14766
   A30        2.03929  -0.00118   0.00363  -0.01436  -0.01109   2.02819
   A31        1.89300  -0.00036   0.00300  -0.00973  -0.00673   1.88628
   A32        1.92666   0.00058  -0.00258   0.00967   0.00708   1.93374
   A33        1.92577   0.00094  -0.00244   0.01102   0.00857   1.93434
   A34        1.90776  -0.00017   0.00040  -0.00195  -0.00155   1.90620
   A35        1.90778  -0.00040   0.00040  -0.00328  -0.00288   1.90490
   A36        1.90271  -0.00060   0.00124  -0.00590  -0.00467   1.89804
    D1       -0.01933   0.00060   0.00322   0.02784   0.03144   0.01211
    D2       -3.12237  -0.00040  -0.00319  -0.02823  -0.03183   3.12899
    D3        2.07933  -0.00003   0.00399   0.01952   0.02376   2.10309
    D4       -1.02370  -0.00102  -0.00243  -0.03654  -0.03951  -1.06321
    D5       -2.11887   0.00086   0.00258   0.03208   0.03522  -2.08365
    D6        1.06128  -0.00014  -0.00383  -0.02398  -0.02806   1.03323
    D7       -0.00003   0.00068   0.00002  -0.01242  -0.01247  -0.01250
    D8       -3.09126   0.00101  -0.00833   0.08411   0.07468  -3.01657
    D9       -3.10042  -0.00098  -0.00683  -0.07346  -0.07919   3.10358
   D10        0.09154  -0.00065  -0.01518   0.02307   0.00796   0.09951
   D11       -1.33307   0.00181   0.00400  -0.04202  -0.03820  -1.37127
   D12        0.79736  -0.00436  -0.00197  -0.07522  -0.07668   0.72068
   D13        2.87984   0.00890   0.00000   0.00000   0.00000   2.87984
   D14        1.85981   0.00222  -0.00451   0.05738   0.05287   1.91269
   D15       -2.29294  -0.00394  -0.01047   0.02417   0.01439  -2.27854
   D16       -0.21046   0.00931  -0.00850   0.09939   0.09107  -0.11938
   D17        1.04115   0.00152   0.00101   0.04907   0.04984   1.09099
   D18        3.11386   0.00196   0.00459   0.04793   0.05230  -3.11702
   D19       -1.06885   0.00224   0.00358   0.05346   0.05683  -1.01202
   D20       -3.10904  -0.00164  -0.00390   0.00791   0.00389  -3.10515
   D21       -1.03633  -0.00120  -0.00032   0.00677   0.00636  -1.02998
   D22        1.06413  -0.00092  -0.00133   0.01230   0.01089   1.07502
   D23       -1.10006  -0.00042   0.00315   0.01053   0.01398  -1.08608
   D24        0.97265   0.00001   0.00673   0.00939   0.01645   0.98910
   D25        3.07312   0.00029   0.00572   0.01492   0.02098   3.09409
   D26       -2.63670   0.00307   0.00310  -0.01808  -0.01524  -2.65194
   D27        0.52362   0.00535   0.00000   0.00000   0.00000   0.52362
   D28        1.56273   0.00239  -0.00013   0.01690   0.01652   1.57925
   D29       -1.56014   0.00467  -0.00324   0.03498   0.03177  -1.52837
   D30       -0.45859  -0.00371  -0.00515  -0.00290  -0.00729  -0.46588
   D31        2.70173  -0.00144  -0.00825   0.01518   0.00795   2.70968
   D32        0.03176   0.00113  -0.00526   0.06014   0.05480   0.08656
   D33       -3.13854  -0.00055  -0.00050   0.00162   0.00095  -3.13759
   D34       -3.09082   0.00344  -0.00841   0.07839   0.07015  -3.02067
   D35        0.02206   0.00175  -0.00365   0.01988   0.01630   0.03836
   D36        0.01403   0.00084  -0.00232   0.03008   0.02772   0.04175
   D37        2.10374   0.00075  -0.00155   0.02744   0.02585   2.12959
   D38       -2.07517   0.00099  -0.00318   0.03352   0.03031  -2.04486
   D39        3.12794  -0.00078   0.00227  -0.02611  -0.02381   3.10413
   D40       -1.06553  -0.00087   0.00304  -0.02875  -0.02568  -1.09121
   D41        1.03873  -0.00063   0.00141  -0.02267  -0.02121   1.01752
         Item               Value     Threshold  Converged?
 Maximum Force            0.021811     0.000450     NO 
 RMS     Force            0.005118     0.000300     NO 
 Maximum Displacement     0.267939     0.001800     NO 
 RMS     Displacement     0.072187     0.001200     NO 
 Predicted change in Energy=-4.240994D-03
 GradGradGradGradGradGradGradGradGradGradGradGradGradGradGradGradGradGrad

                          Input orientation:                          
 ---------------------------------------------------------------------
 Center     Atomic      Atomic             Coordinates (Angstroms)
 Number     Number       Type             X           Y           Z
 ---------------------------------------------------------------------
      1          1           0        1.875803    1.135139   -0.502036
      2          6           0        1.943952    2.182825   -0.264805
      3          1           0        1.489460    2.360958    0.704541
      4          1           0        1.391845    2.755595   -1.002986
      5          6           0        3.410023    2.569947   -0.254917
      6          8           0        4.271542    1.777696   -0.496233
      7          7           0        3.625462    3.881457    0.018934
      8          1           0        2.801875    4.403713    0.162462
      9          6           0        4.903346    4.604343   -0.038112
     10          1           0        5.465346    4.367537    0.860172
     11          6           0        5.746148    4.210326   -1.261471
     12          1           0        5.227050    4.468255   -2.176139
     13          1           0        6.675687    4.752130   -1.234296
     14          1           0        5.943829    3.153480   -1.261793
     15          6           0        4.690123    6.139146   -0.023351
     16          8           0        5.490282    6.858970   -0.546247
     17          7           0        3.611236    6.644317    0.622049
     18          1           0        3.011644    6.053113    1.136456
     19          6           0        3.322007    8.064996    0.688264
     20          1           0        4.069313    8.583988    0.118385
     21          1           0        2.344607    8.278297    0.272574
     22          1           0        3.348920    8.416172    1.712451
 ---------------------------------------------------------------------
                    Distance matrix (angstroms):
                    1          2          3          4          5
     1  H    0.000000
     2  C    1.076368   0.000000
     3  H    1.762873   1.085323   0.000000
     4  H    1.763815   1.085265   1.755254   0.000000
     5  C    2.115082   1.516353   2.157034   2.160350   0.000000
     6  O    2.480418   2.373892   3.085779   3.083137   1.195036
     7  N    3.297723   2.406935   2.710070   2.702023   1.357006
     8  H    3.461609   2.418870   2.487796   2.462264   1.976548
     9  C    4.627809   3.830556   4.151979   4.084053   2.532940
    10  H    5.018847   4.294038   4.456260   4.760580   2.949425
    11  C    5.001308   4.422759   5.040313   4.598153   3.026793
    12  H    5.014293   4.433410   5.168037   4.360996   3.255189
    13  H    6.054561   5.470883   6.031065   5.653197   4.047922
    14  H    4.604320   4.234995   4.933150   4.576664   2.788277
    15  C    5.761043   4.822057   5.004875   4.825633   3.798876
    16  O    6.769686   5.875542   6.148427   5.817514   4.775779
    17  N    5.884414   4.844714   4.780785   4.763253   4.172534
    18  H    5.306718   4.252368   4.016915   4.251421   3.771879
    19  C    7.178526   6.116152   5.991206   5.897083   5.576101
    20  H    7.789850   6.755656   6.762051   6.511257   6.061576
    21  H    7.200312   6.132217   5.994395   5.747612   5.830833
    22  H    7.751610   6.688654   6.413976   6.576159   6.168680
                    6          7          8          9         10
     6  O    0.000000
     7  N    2.260227   0.000000
     8  H    3.080546   0.985721   0.000000
     9  C    2.932403   1.469288   2.120533   0.000000
    10  H    3.157892   2.080656   2.753577   1.085741   0.000000
    11  C    2.945800   2.498980   3.276236   1.536936   2.145910
    12  H    3.312731   2.779886   3.369673   2.166672   3.047313
    13  H    3.895113   3.410650   4.132644   2.143337   2.449415
    14  H    2.296826   2.746824   3.669259   2.164488   2.491107
    15  C    4.406935   2.496488   2.571330   1.549613   2.126072
    16  O    5.225627   3.558450   3.709190   2.384541   2.861096
    17  N    5.036919   2.827957   2.426230   2.503368   2.945870
    18  H    4.746810   2.518277   1.926964   2.656516   2.989675
    19  C    6.467982   4.247598   3.735238   3.873548   4.277226
    20  H    6.836978   4.724478   4.368415   4.069112   4.503068
    21  H    6.823632   4.586624   3.903027   4.487940   5.037690
    22  H    7.056832   4.848517   4.336076   4.473337   4.647266
                   11         12         13         14         15
    11  C    0.000000
    12  H    1.082870   0.000000
    13  H    1.076259   1.751058   0.000000
    14  H    1.075175   1.754547   1.758423   0.000000
    15  C    2.523584   2.777529   2.707890   3.466946   0.000000
    16  O    2.755418   2.905401   2.513438   3.801101   1.196587
    17  N    3.745638   3.895633   4.051821   4.601716   1.354894
    18  H    4.077184   4.288716   4.553925   4.770449   2.042020
    19  C    4.953424   4.977002   5.091021   5.899125   2.467193
    20  H    4.883104   4.852264   4.827637   5.908394   2.526410
    21  H    5.520159   5.368528   5.784701   6.447669   3.188257
    22  H    5.681553   5.851030   5.759852   6.578420   3.161753
                   16         17         18         19         20
    16  O    0.000000
    17  N    2.223017   0.000000
[...]
    13  H    6.026807   5.339551   5.890943   5.354927   4.024303
    14  H    4.592778   4.112697   4.869677   4.214793   2.786378
    15  C    5.722565   4.771730   4.817382   4.904928   3.742646
    16  O    6.723303   5.775415   5.902897   5.775208   4.724505
    17  N    5.800676   4.804981   4.542513   5.013141   4.067598
    18  H    5.303088   4.371530   3.982474   4.766528   3.699601
    19  C    7.143003   6.124133   5.751459   6.256314   5.498611
    20  H    7.535390   6.477405   6.185748   6.432154   5.903554
    21  H    7.252451   6.248550   5.699681   6.412829   5.838970
    22  H    7.875528   6.897989   6.559234   7.115978   6.112164
                    6          7          8          9         10
     6  O    0.000000
     7  N    2.260867   0.000000
     8  H    3.076094   0.997363   0.000000
     9  C    2.862373   1.468482   2.076530   0.000000
    10  H    2.978645   2.078057   2.861094   1.085503   0.000000
    11  C    3.006052   2.521170   3.064866   1.529705   2.143696
    12  H    3.429436   2.779947   3.015588   2.163450   3.048209
    13  H    3.948750   3.432029   3.941779   2.146069   2.477605
    14  H    2.397736   2.808704   3.533413   2.158223   2.468058
    15  C    4.337684   2.445983   2.470823   1.535461   2.124120
    16  O    5.203687   3.520187   3.525844   2.392627   2.901904
    17  N    4.888593   2.702131   2.391801   2.457820   2.902010
    18  H    4.545885   2.416648   2.188149   2.562859   2.810273
    19  C    6.338317   4.140880   3.715789   3.811456   4.177620
    20  H    6.757361   4.573899   4.056789   4.161791   4.705361
    21  H    6.778944   4.545678   3.994185   4.523774   4.877479
    22  H    6.822259   4.746016   4.502790   4.182028   4.312738
                   11         12         13         14         15
    11  C    0.000000
    12  H    1.085536   0.000000
    13  H    1.080510   1.750621   0.000000
    14  H    1.078481   1.762791   1.762964   0.000000
    15  C    2.498507   2.772214   2.673434   3.443854   0.000000
    16  O    2.748275   2.906041   2.494204   3.795055   1.197338
    17  N    3.707076   3.877792   4.017304   4.559676   1.359408
    18  H    4.012658   4.295798   4.467607   4.691940   2.017861
    19  C    4.914678   4.998364   5.026741   5.854646   2.433928
    20  H    4.993132   4.884446   5.033869   6.012303   2.682039
    21  H    5.735680   5.777656   5.969139   6.618051   3.310509
    22  H    5.273193   5.519708   5.203162   6.199354   2.813347
                   16         17         18         19         20
    16  O    0.000000
    17  N    2.239666   0.000000
    18  H    3.085208   0.995417   0.000000
    19  C    2.738629   1.450147   2.101866   0.000000
    20  H    2.618178   2.076894   2.927849   1.079504   0.000000
    21  H    3.775944   2.067985   2.327639   1.081988   1.759923
    22  H    2.912473   2.112739   2.650626   1.084828   1.754765
                   21         22
    21  H    0.000000
    22  H    1.766124   0.000000
 Stoichiometry    C6H12N2O2
 Framework group  C1[X(C6H12N2O2)]
 Deg. of freedom    60
 Full point group                 C1      NOp   1
 Largest Abelian subgroup         C1      NOp   1
 Largest concise Abelian subgroup C1      NOp   1
                         Standard orientation:                         
 ---------------------------------------------------------------------
 Center     Atomic      Atomic             Coordinates (Angstroms)
 Number     Number       Type             X           Y           Z
 ---------------------------------------------------------------------
      1          1           0       -3.899757   -1.510041    0.331333
      2          6           0       -2.855929   -1.485309    0.607055
      3          1           0       -2.394104   -2.439469    0.378319
      4          1           0       -2.782024   -1.322038    1.678431
      5          6           0       -2.181146   -0.345164   -0.126842
      6          8           0       -2.802045    0.535074   -0.646372
      7          7           0       -0.812800   -0.431755   -0.177688
      8          1           0       -0.438437   -1.075515    0.485755
      9          6           0        0.041743    0.742482   -0.395320
     10          1           0        0.030839    0.972624   -1.456090
     11          6           0       -0.381261    1.987220    0.386789
     12          1           0       -0.392719    1.780576    1.452413
     13          1           0        0.330773    2.780711    0.211059
     14          1           0       -1.363216    2.310453    0.079533
     15          6           0        1.488667    0.382943   -0.028189
     16          8           0        2.252232    1.201327    0.397057
     17          7           0        1.845315   -0.916600   -0.207021
     18          1           0        1.277667   -1.463042   -0.815324
     19          6           0        3.230370   -1.317038   -0.051469
     20          1           0        3.595199   -0.987002    0.909418
     21          1           0        3.285500   -2.396629   -0.097739
     22          1           0        3.866518   -0.894161   -0.821757
 ---------------------------------------------------------------------
 Rotational constants (GHZ):      2.3738724      0.7515520      0.6097304

 **********************************************************************

            Population analysis using the SCF density.

 **********************************************************************

 Orbital symmetries:
       Occupied  (A) (A) (A) (A) (A) (A) (A) (A) (A) (A) (A) (A)
                 (A) (A) (A) (A) (A) (A) (A) (A) (A) (A) (A) (A)
                 (A) (A) (A) (A) (A) (A) (A) (A) (A) (A) (A) (A)
                 (A) (A) (A)
       Virtual   (A) (A) (A) (A) (A) (A) (A) (A) (A) (A) (A) (A)
                 (A) (A) (A) (A) (A) (A) (A) (A) (A) (A) (A) (A)
                 (A) (A) (A) (A) (A) (A) (A) (A) (A) (A) (A) (A)
                 (A) (A) (A) (A) (A) (A) (A) (A) (A) (A) (A) (A)
                 (A) (A) (A) (A) (A) (A) (A) (A) (A) (A) (A) (A)
                 (A) (A) (A) (A) (A) (A) (A) (A) (A) (A) (A) (A)
                 (A) (A) (A) (A) (A) (A) (A) (A) (A) (A) (A) (A)
                 (A) (A) (A) (A) (A) (A) (A) (A) (A) (A) (A) (A)
                 (A) (A) (A) (A) (A) (A) (A) (A) (A) (A) (A) (A)
                 (A) (A) (A) (A) (A) (A) (A) (A) (A) (A) (A) (A)
                 (A) (A) (A) (A) (A) (A) (A) (A) (A) (A) (A) (A)
                 (A) (A) (A)
 The electronic state is 1-A.
 Alpha  occ. eigenvalues --  -20.53553 -20.53458 -15.59448 -15.59278 -11.35603
 Alpha  occ. eigenvalues --  -11.35469 -11.28466 -11.26412 -11.23949 -11.20727
 Alpha  occ. eigenvalues --   -1.40611  -1.40048  -1.25605  -1.22918  -1.05458
 Alpha  occ. eigenvalues --   -0.99441  -0.96709  -0.87849  -0.79790  -0.78264
 Alpha  occ. eigenvalues --   -0.73659  -0.67501  -0.66250  -0.65452  -0.63151
 Alpha  occ. eigenvalues --   -0.62785  -0.60394  -0.59437  -0.57569  -0.56226
 Alpha  occ. eigenvalues --   -0.55719  -0.54148  -0.52543  -0.51754  -0.49980
 Alpha  occ. eigenvalues --   -0.43526  -0.42057  -0.40265  -0.40072
 Alpha virt. eigenvalues --    0.17905   0.19551   0.21785   0.23852   0.27131
 Alpha virt. eigenvalues --    0.27310   0.28442   0.29557   0.30153   0.30977
 Alpha virt. eigenvalues --    0.32941   0.33335   0.33761   0.35402   0.36955
 Alpha virt. eigenvalues --    0.38591   0.42707   0.42972   0.46062   0.48726
 Alpha virt. eigenvalues --    0.54531   0.59142   0.59980   0.70945   0.71861
 Alpha virt. eigenvalues --    0.73338   0.75071   0.75474   0.77135   0.78867
 Alpha virt. eigenvalues --    0.79959   0.83244   0.84939   0.88935   0.89449
 Alpha virt. eigenvalues --    0.92776   0.93660   0.96801   0.97981   0.98651
 Alpha virt. eigenvalues --    1.01431   1.01884   1.03312   1.06326   1.09805
 Alpha virt. eigenvalues --    1.10483   1.10722   1.12779   1.14252   1.15190
 Alpha virt. eigenvalues --    1.16863   1.17457   1.18950   1.20042   1.20873
 Alpha virt. eigenvalues --    1.21654   1.21825   1.23477   1.24666   1.27468
 Alpha virt. eigenvalues --    1.28699   1.32118   1.34322   1.39028   1.40329
 Alpha virt. eigenvalues --    1.44930   1.49809   1.53049   1.55645   1.59814
 Alpha virt. eigenvalues --    1.63219   1.64971   1.70840   1.72677   1.73740
 Alpha virt. eigenvalues --    1.75824   1.81574   1.89729   1.94044   1.99189
 Alpha virt. eigenvalues --    2.03044   2.06217   2.09328   2.10445   2.11158
 Alpha virt. eigenvalues --    2.14315   2.15017   2.15952   2.20616   2.21503
 Alpha virt. eigenvalues --    2.23447   2.23663   2.30960   2.31667   2.34388
 Alpha virt. eigenvalues --    2.35490   2.36687   2.39285   2.42561   2.50693
 Alpha virt. eigenvalues --    2.53481   2.57109   2.57868   2.61787   2.63622
 Alpha virt. eigenvalues --    2.66924   2.70679   2.71606   2.73996   2.76816
 Alpha virt. eigenvalues --    2.78156   2.83489   2.87871   2.89456   2.96740
 Alpha virt. eigenvalues --    3.00319   3.03722   3.08452   3.09898   3.23685
 Alpha virt. eigenvalues --    3.31169   3.36929   3.41470   3.50847   3.56598
 Alpha virt. eigenvalues --    4.37742   4.38663   4.47620   4.51589   4.63387
 Alpha virt. eigenvalues --    4.66078   4.71334   4.83642   4.89213   5.06391
          Condensed to atoms (all electrons):
              1          2          3          4          5          6
     1  H    0.457873   0.383828  -0.019876  -0.017177  -0.031865   0.003667
     2  C    0.383828   5.278215   0.377379   0.373965   0.374263  -0.071012
     3  H   -0.019876   0.377379   0.514724  -0.025218  -0.036426   0.001735
     4  H   -0.017177   0.373965  -0.025218   0.499885  -0.027999   0.000513
     5  C   -0.031865   0.374263  -0.036426  -0.027999   4.151858   0.616856
     6  O    0.003667  -0.071012   0.001735   0.000513   0.616856   8.123251
     7  N    0.004434  -0.125145   0.005071   0.001124   0.251391  -0.103543
     8  H    0.000138  -0.001255  -0.000340   0.000129  -0.021628   0.002593
     9  C   -0.000111   0.004908   0.000075  -0.000205  -0.023607   0.012450
    10  H    0.000005  -0.000105  -0.000012  -0.000002  -0.003382   0.001278
    11  C    0.000005  -0.000576   0.000014   0.000088  -0.004847  -0.009720
    12  H    0.000002  -0.000131  -0.000002   0.000023  -0.000483  -0.000091
    13  H    0.000000   0.000005   0.000000  -0.000002   0.000278   0.000125
    14  H    0.000000   0.000285  -0.000005  -0.000025   0.000789   0.006162
    15  C    0.000000   0.000052  -0.000026  -0.000004   0.003235   0.000350
    16  O    0.000000   0.000000   0.000000   0.000000  -0.000061   0.000000
    17  N    0.000000  -0.000081   0.000004   0.000000   0.000083  -0.000005
    18  H   -0.000001   0.000012   0.000023   0.000001  -0.000088  -0.000006
    19  C    0.000000   0.000000   0.000000   0.000000   0.000009   0.000000
    20  H    0.000000   0.000000   0.000000   0.000000  -0.000001   0.000000
    21  H    0.000000   0.000000   0.000000   0.000000   0.000000   0.000000
    22  H    0.000000   0.000000   0.000000   0.000000   0.000000   0.000000
              7          8          9         10         11         12
     1  H    0.004434   0.000138  -0.000111   0.000005   0.000005   0.000002
     2  C   -0.125145  -0.001255   0.004908  -0.000105  -0.000576  -0.000131
     3  H    0.005071  -0.000340   0.000075  -0.000012   0.000014  -0.000002
     4  H    0.001124   0.000129  -0.000205  -0.000002   0.000088   0.000023
     5  C    0.251391  -0.021628  -0.023607  -0.003382  -0.004847  -0.000483
     6  O   -0.103543   0.002593   0.012450   0.001278  -0.009720  -0.000091
     7  N    7.459944   0.315017   0.163219  -0.040381  -0.057231   0.001114
     8  H    0.315017   0.347928  -0.035837   0.004083   0.001539   0.001026
     9  C    0.163219  -0.035837   5.056730   0.398873   0.354240  -0.041884
    10  H   -0.040381   0.004083   0.398873   0.490055  -0.037400   0.004088
    11  C   -0.057231   0.001539   0.354240  -0.037400   5.144793   0.389895
    12  H    0.001114   0.001026  -0.041884   0.004088   0.389895   0.539743
    13  H    0.003904  -0.000069  -0.031822  -0.000143   0.386156  -0.021620
    14  H   -0.003986  -0.000200  -0.031935  -0.003255   0.390874  -0.024756
    15  C   -0.037065  -0.005711   0.389186  -0.033277  -0.056449  -0.004363
    16  O    0.001602  -0.000152  -0.074767   0.000709  -0.000764   0.001023
    17  N   -0.009774   0.012960  -0.122188  -0.000230   0.003901  -0.000081
    18  H    0.005535  -0.002976   0.001564  -0.000739   0.000332  -0.000016
    19  C    0.000117  -0.000348   0.004328  -0.000221  -0.000116  -0.000011
    20  H   -0.000016  -0.000082   0.000172  -0.000005   0.000010  -0.000001
    21  H   -0.000003  -0.000027   0.000040  -0.000001   0.000001   0.000000
    22  H   -0.000004   0.000038  -0.000211   0.000032  -0.000010   0.000000
             13         14         15         16         17         18
     1  H    0.000000   0.000000   0.000000   0.000000   0.000000  -0.000001
     2  C    0.000005   0.000285   0.000052   0.000000  -0.000081   0.000012
     3  H    0.000000  -0.000005  -0.000026   0.000000   0.000004   0.000023
     4  H   -0.000002  -0.000025  -0.000004   0.000000   0.000000   0.000001
     5  C    0.000278   0.000789   0.003235  -0.000061   0.000083  -0.000088
     6  O    0.000125   0.006162   0.000350   0.000000  -0.000005  -0.000006
     7  N    0.003904  -0.003986  -0.037065   0.001602  -0.009774   0.005535
     8  H   -0.000069  -0.000200  -0.005711  -0.000152   0.012960  -0.002976
     9  C   -0.031822  -0.031935   0.389186  -0.074767  -0.122188   0.001564
    10  H   -0.000143  -0.003255  -0.033277   0.000709  -0.000230  -0.000739
    11  C    0.386156   0.390874  -0.056449  -0.000764   0.003901   0.000332
    12  H   -0.021620  -0.024756  -0.004363   0.001023  -0.000081  -0.000016
    13  H    0.486137  -0.022610  -0.004732   0.004634   0.000172  -0.000022
    14  H   -0.022610   0.464713   0.004435   0.000320  -0.000032  -0.000004
    15  C   -0.004732   0.004435   4.162951   0.608257   0.288290  -0.023887
    16  O    0.004634   0.000320   0.608257   8.144846  -0.104131   0.002507
    17  N    0.000172  -0.000032   0.288290  -0.104131   7.332805   0.321586
    18  H   -0.000022  -0.000004  -0.023887   0.002507   0.321586   0.326686
    19  C   -0.000006   0.000001  -0.030953   0.007326   0.201541  -0.022860
    20  H   -0.000001   0.000000  -0.004059   0.003417  -0.037600   0.003043
    21  H    0.000000   0.000000   0.004142   0.000383  -0.038952  -0.003700
    22  H    0.000001   0.000000  -0.001996   0.001617  -0.047848  -0.000022
             19         20         21         22
     1  H    0.000000   0.000000   0.000000   0.000000
     2  C    0.000000   0.000000   0.000000   0.000000
     3  H    0.000000   0.000000   0.000000   0.000000
     4  H    0.000000   0.000000   0.000000   0.000000
     5  C    0.000009  -0.000001   0.000000   0.000000
     6  O    0.000000   0.000000   0.000000   0.000000
     7  N    0.000117  -0.000016  -0.000003  -0.000004
     8  H   -0.000348  -0.000082  -0.000027   0.000038
     9  C    0.004328   0.000172   0.000040  -0.000211
    10  H   -0.000221  -0.000005  -0.000001   0.000032
    11  C   -0.000116   0.000010   0.000001  -0.000010
    12  H   -0.000011  -0.000001   0.000000   0.000000
    13  H   -0.000006  -0.000001   0.000000   0.000001
    14  H    0.000001   0.000000   0.000000   0.000000
    15  C   -0.030953  -0.004059   0.004142  -0.001996
    16  O    0.007326   0.003417   0.000383   0.001617
    17  N    0.201541  -0.037600  -0.038952  -0.047848
    18  H   -0.022860   0.003043  -0.003700  -0.000022
    19  C    4.910740   0.403628   0.398446   0.405512
    20  H    0.403628   0.482033  -0.024739  -0.031732
    21  H    0.398446  -0.024739   0.526479  -0.032223
    22  H    0.405512  -0.031732  -0.032223   0.527845
 Mulliken atomic charges:
              1
     1  H    0.219077
     2  C   -0.594608
     3  H    0.182882
     4  H    0.194904
     5  C    0.751625
     6  O   -0.584600
     7  N   -0.835324
     8  H    0.383173
     9  C   -0.023215
    10  H    0.220030
    11  C   -0.504735
    12  H    0.156525
    13  H    0.199617
    14  H    0.219228
    15  C    0.741623
    16  O   -0.596766
    17  N   -0.800421
    18  H    0.393034
    19  C   -0.277134
    20  H    0.205934
    21  H    0.170152
    22  H    0.179001
 Sum of Mulliken atomic charges =   0.00000
 Mulliken charges with hydrogens summed into heavy atoms:
              1
     2  C    0.002254
     5  C    0.751625
     6  O   -0.584600
     7  N   -0.452151
     9  C    0.196815
    11  C    0.070634
    15  C    0.741623
    16  O   -0.596766
    17  N   -0.407387
    19  C    0.277953
 Sum of Mulliken charges with hydrogens summed into heavy atoms =   0.00000
 Electronic spatial extent (au):  <R**2>=           1881.6195
 Charge=              0.0000 electrons
 Dipole moment (field-independent basis, Debye):
    X=              0.7896    Y=             -4.7097    Z=              0.4156  Tot=              4.7935
 Quadrupole moment (field-independent basis, Debye-Ang):
   XX=            -69.4184   YY=            -58.9870   ZZ=            -59.8256
   XY=             -1.8674   XZ=             -8.1060   YZ=             -0.7874
 Traceless Quadrupole moment (field-independent basis, Debye-Ang):
   XX=             -6.6748   YY=              3.7567   ZZ=              2.9181
   XY=             -1.8674   XZ=             -8.1060   YZ=             -0.7874
 Octapole moment (field-independent basis, Debye-Ang**2):
  XXX=             22.1615  YYY=             -7.0892  ZZZ=             -0.5301  XYY=             -3.7166
  XXY=            -40.1927  XXZ=              7.9269  XZZ=              2.7516  YZZ=             -0.7671
  YYZ=             -4.0338  XYZ=             -3.2239
 Hexadecapole moment (field-independent basis, Debye-Ang**3):
 XXXX=          -1732.1084 YYYY=           -560.1630 ZZZZ=           -133.6649 XXXY=             -3.3185
 XXXZ=            -40.8021 YYYX=            -15.7307 YYYZ=              1.4306 ZZZX=              2.0269
 ZZZY=             -1.0008 XXYY=           -381.8353 XXZZ=           -310.3480 YYZZ=           -120.9702
 XXYZ=             -0.1154 YYXZ=             -6.2991 ZZXY=              1.0638
 N-N= 5.560910267373D+02 E-N=-2.267278631463D+03  KE= 4.921102383082D+02
 1\1\GINC-RODAN\FOpt\RHF\6-31G(d)\C6H12N2O2\STEBOSS\10-Feb-2017\0\\# HF
 /6-31G* Opt=(ModRedundant) geom=nocrowd\\Phi Psi fixed scan\\0,1\H,1.8
 933047282,1.1248970034,-0.293668991\C,1.9917296688,2.1896625778,-0.444
 6584772\H,1.2607584284,2.7144104945,0.1606049924\H,1.790318993,2.41397
 1205,-1.4882511375\C,3.4069825557,2.6055046848,-0.1011444319\O,4.29833
 68675,1.8141582283,-0.0036465889\N,3.5660926279,3.9492406927,0.1258126
 311\H,2.804787961,4.4948666436,-0.2168821784\C,4.8663851979,4.61959855
 33,-0.0018549461\H,5.43878805,4.4141589141,0.8972931521\C,5.684458737,
 4.1879595446,-1.2202318826\H,5.1285401153,4.3695746217,-2.1347583906\H
 ,6.5947224214,4.7683817786,-1.2653133733\H,5.9290903048,3.1394103794,-
 1.1584138255\C,4.6431883852,6.1378007393,-0.0555800524\O,5.3803371403,
 6.8614894402,-0.6609768825\N,3.5582746031,6.6064901619,0.6161954715\H,
 3.167084696,6.0150112084,1.3147504193\C,3.3591655402,8.035013099,0.766
 5377486\H,3.3970171183,8.5081710534,-0.2030070291\H,2.3839367757,8.204
 1274932,1.2036038214\H,4.1161990842,8.4885014829,1.3974899504\\Version
 =EM64L-G09RevA.02\State=1-A\HF=-492.8486165\RMSD=7.056e-09\RMSF=2.062e
 -03\Dipole=-1.7214311,0.5407684,0.5484893\Quadrupole=3.1339831,-6.2321
 267,3.0981436,-0.6886381,1.1678047,5.1175805\PG=C01 [X(C6H12N2O2)]\\@


 THE FIRST MORNING OF CREATION WROTE WHAT THE LAST DAWN OF
 RECKONING SHALL READ. -- OMAR KHAYYAM
 Job cpu time:  0 days  0 hours 18 minutes 34.3 seconds.
 File lengths (MBytes):  RWF=     25 Int=      0 D2E=      0 Chk=      3 Scr=      1
 Normal termination of Gaussian 09 at Fri Feb 10 04:02:50 2017.
