 Entering Gaussian System, Link 0=g09
 Initial command:
 /home/steboss/Software/g09/l1.exe /home/steboss/projects/phi_psi_scan/alanine/MP2/330/5605/Gau-17089.inp -scrdir=/home/steboss/projects/phi_psi_scan/alanine/MP2/330/5605/
 Entering Link 1 = /home/steboss/Software/g09/l1.exe PID=     17091.
  
 Copyright (c) 1988,1990,1992,1993,1995,1998,2003,2009, Gaussian, Inc.
                  All Rights Reserved.
  
 This is part of the Gaussian(R) 09 program.  It is based on
 the Gaussian(R) 03 system (copyright 2003, Gaussian, Inc.),
 the Gaussian(R) 98 system (copyright 1998, Gaussian, Inc.),
 the Gaussian(R) 94 system (copyright 1995, Gaussian, Inc.),
 the Gaussian 92(TM) system (copyright 1992, Gaussian, Inc.),
 the Gaussian 90(TM) system (copyright 1990, Gaussian, Inc.),
 the Gaussian 88(TM) system (copyright 1988, Gaussian, Inc.),
 the Gaussian 86(TM) system (copyright 1986, Carnegie Mellon
 University), and the Gaussian 82(TM) system (copyright 1983,
 Carnegie Mellon University). Gaussian is a federally registered
 trademark of Gaussian, Inc.
  
 This software contains proprietary and confidential information,
 including trade secrets, belonging to Gaussian, Inc.
  
 This software is provided under written license and may be
 used, copied, transmitted, or stored only in accord with that
 written license.
  
 The following legend is applicable only to US Government
 contracts under FAR:
  
                    RESTRICTED RIGHTS LEGEND
  
 Use, reproduction and disclosure by the US Government is
 subject to restrictions as set forth in subparagraphs (a)
 and (c) of the Commercial Computer Software - Restricted
 Rights clause in FAR 52.227-19.
  
 Gaussian, Inc.
 340 Quinnipiac St., Bldg. 40, Wallingford CT 06492
  
  
 ---------------------------------------------------------------
 Warning -- This program may not be used in any manner that
 competes with the business of Gaussian, Inc. or will provide
 assistance to any competitor of Gaussian, Inc.  The licensee
 of this program is prohibited from giving any competitor of
 Gaussian, Inc. access to this program.  By using this program,
 the user acknowledges that Gaussian, Inc. is engaged in the
 business of creating and licensing software in the field of
 computational chemistry and represents and warrants to the
 licensee that it is not a competitor of Gaussian, Inc. and that
 it will not use this program in any manner prohibited above.
 ---------------------------------------------------------------
  

 Cite this work as:
 Gaussian 09, Revision A.02,
 M. J. Frisch, G. W. Trucks, H. B. Schlegel, G. E. Scuseria, 
 M. A. Robb, J. R. Cheeseman, G. Scalmani, V. Barone, B. Mennucci, 
 G. A. Petersson, H. Nakatsuji, M. Caricato, X. Li, H. P. Hratchian, 
 A. F. Izmaylov, J. Bloino, G. Zheng, J. L. Sonnenberg, M. Hada, 
 M. Ehara, K. Toyota, R. Fukuda, J. Hasegawa, M. Ishida, T. Nakajima, 
 Y. Honda, O. Kitao, H. Nakai, T. Vreven, J. A. Montgomery, Jr., 
 J. E. Peralta, F. Ogliaro, M. Bearpark, J. J. Heyd, E. Brothers, 
 K. N. Kudin, V. N. Staroverov, R. Kobayashi, J. Normand, 
 K. Raghavachari, A. Rendell, J. C. Burant, S. S. Iyengar, J. Tomasi, 
 M. Cossi, N. Rega, J. M. Millam, M. Klene, J. E. Knox, J. B. Cross, 
 V. Bakken, C. Adamo, J. Jaramillo, R. Gomperts, R. E. Stratmann, 
 O. Yazyev, A. J. Austin, R. Cammi, C. Pomelli, J. W. Ochterski, 
 R. L. Martin, K. Morokuma, V. G. Zakrzewski, G. A. Voth, 
 P. Salvador, J. J. Dannenberg, S. Dapprich, A. D. Daniels, 
 O. Farkas, J. B. Foresman, J. V. Ortiz, J. Cioslowski, 
 and D. J. Fox, Gaussian, Inc., Wallingford CT, 2009.
 
 ******************************************
 Gaussian 09:  EM64L-G09RevA.02 11-Jun-2009
                13-Feb-2017 
 ******************************************
 %chk=structure_330.chk
 %NProcShared=8
 Will use up to    8 processors via shared memory.
 -------------------
 #SP MP2/aug-cc-pVDZ
 -------------------
 1/38=1/1;
 2/12=2,17=6,18=5,40=1/2;
 3/5=16,7=10,11=9,16=1,25=1,30=1/1,2,3;
 4//1;
 5/5=2,38=5/2;
 8/10=1/1;
 9/16=-3/6;
 6/7=2,8=2,9=2,10=2/1;
 99/5=1,9=1/99;
 -------------------------------
 Single Point calculation at MP2
 -------------------------------
 Symbolic Z-matrix:
 Charge =  0 Multiplicity = 1
 H                    -3.9047   -0.6324   -0.734 
 C                    -3.3368   -0.4827    0.1904 
 H                    -3.5262   -1.3473    0.8322 
 H                    -3.7052    0.4208    0.6861 
 C                    -1.853    -0.4476   -0.1531 
 O                    -1.2758   -1.4528   -0.564 
 N                    -1.248     0.7604    0.0271 
 H                    -1.8344    1.4987    0.3922 
 C                     0.1156    1.2022   -0.31 
 H                     0.1073    1.5862   -1.3375 
 C                     0.4976    2.3551    0.6327 
 H                     0.5498    2.0053    1.669 
 H                     1.4733    2.7496    0.3414 
 H                    -0.2347    3.1702    0.5714 
 C                     1.2915    0.196    -0.3137 
 O                     2.2884    0.5189   -0.9496 
 N                     1.2508   -0.8726    0.5331 
 H                     0.3353   -1.3041    0.612 
 C                     2.3828   -1.7925    0.5387 
 H                     3.3061   -1.2234    0.6607 
 H                     2.2694   -2.4835    1.3781 
 H                     2.4574   -2.3667   -0.394 
 
                          Input orientation:                          
 ---------------------------------------------------------------------
 Center     Atomic      Atomic             Coordinates (Angstroms)
 Number     Number       Type             X           Y           Z
 ---------------------------------------------------------------------
      1          1           0       -3.904700   -0.632400   -0.734000
      2          6           0       -3.336800   -0.482700    0.190400
      3          1           0       -3.526200   -1.347300    0.832200
      4          1           0       -3.705200    0.420800    0.686100
      5          6           0       -1.853000   -0.447600   -0.153100
      6          8           0       -1.275800   -1.452800   -0.564000
      7          7           0       -1.248000    0.760400    0.027100
      8          1           0       -1.834400    1.498700    0.392200
      9          6           0        0.115600    1.202200   -0.310000
     10          1           0        0.107300    1.586200   -1.337500
     11          6           0        0.497600    2.355100    0.632700
     12          1           0        0.549800    2.005300    1.669000
     13          1           0        1.473300    2.749600    0.341400
     14          1           0       -0.234700    3.170200    0.571400
     15          6           0        1.291500    0.196000   -0.313700
     16          8           0        2.288400    0.518900   -0.949600
     17          7           0        1.250800   -0.872600    0.533100
     18          1           0        0.335300   -1.304100    0.612000
     19          6           0        2.382800   -1.792500    0.538700
     20          1           0        3.306100   -1.223400    0.660700
     21          1           0        2.269400   -2.483500    1.378100
     22          1           0        2.457400   -2.366700   -0.394000
 ---------------------------------------------------------------------
                    Distance matrix (angstroms):
                    1          2          3          4          5
     1  H    0.000000
     2  C    1.095188   0.000000
     3  H    1.762761   1.093304   0.000000
     4  H    1.779245   1.094417   1.783133   0.000000
     5  C    2.140343   1.523446   2.140064   2.211113   0.000000
     6  O    2.759179   2.399570   2.650435   3.312871   1.229807
     7  N    3.094708   2.436196   3.206366   2.566601   1.362997
     8  H    3.177429   2.494770   3.339986   2.179022   2.021332
     9  C    4.439408   3.874062   4.589910   4.025086   2.573294
    10  H    4.624126   4.298447   5.149305   4.470824   3.062992
    11  C    5.493020   4.790758   5.471612   4.626867   3.741381
    12  H    5.707402   4.845829   5.343588   4.645617   3.887186
    13  H    6.443391   5.797208   6.482320   5.688496   4.640139
    14  H    5.443596   4.807480   5.595516   4.429077   4.028929
    15  C    5.278579   4.704882   5.187012   5.100701   3.213704
    16  O    6.302893   5.826292   6.361375   6.213564   4.326630
    17  N    5.314360   4.616875   4.809837   5.124278   3.207034
    18  H    4.498944   3.786392   3.868015   4.393906   2.471361
    19  C    6.519068   5.877985   5.933012   6.479519   4.497704
    20  H    7.368182   6.700592   6.835575   7.201553   5.280194
    21  H    6.782850   6.069869   5.931099   6.679047   4.845993
    22  H    6.603008   6.120762   6.192432   6.849410   4.724460
                    6          7          8          9         10
     6  O    0.000000
     7  N    2.290944   0.000000
     8  H    3.152413   1.011064   0.000000
     9  C    3.008244   1.472491   2.093680   0.000000
    10  H    3.427359   2.093064   2.601868   1.096942   0.000000
    11  C    4.367739   2.440684   2.495894   1.537461   2.150635
    12  H    4.503061   2.734538   2.751594   2.179436   3.067653
    13  H    5.102692   3.385436   3.536695   2.159194   2.457267
    14  H    4.872900   2.670239   2.320574   2.184628   2.503981
    15  C    3.061408   2.623691   3.459273   1.547641   2.093598
    16  O    4.091431   3.676736   4.444988   2.365808   2.459023
    17  N    2.814954   3.027660   3.893761   2.510835   3.294303
    18  H    2.000183   2.666666   3.551281   2.679532   3.493761
    19  C    3.836235   4.467856   5.351470   3.850807   4.484823
    20  H    4.748297   5.007668   5.822943   4.123722   4.703082
    21  H    4.171635   4.971940   5.802680   4.590525   5.348983
    22  H    3.847193   4.866834   5.829149   4.269441   4.694527
                   11         12         13         14         15
    11  C    0.000000
    12  H    1.094990   0.000000
    13  H    1.092006   1.780269   0.000000
    14  H    1.097456   1.782458   1.773998   0.000000
    15  C    2.487501   2.784741   2.642552   3.458114   0.000000
    16  O    3.013680   3.476950   2.703163   3.963441   1.225742
    17  N    3.315913   3.172377   3.634087   4.307251   1.364050
    18  H    3.662856   3.480717   4.219094   4.510644   2.005378
    19  C    4.556907   4.365862   4.636463   5.610772   2.423150
    20  H    4.549079   4.363297   4.387008   5.643488   2.650050
    21  H    5.206433   4.815701   5.393872   6.235832   3.316353
    22  H    5.214434   5.197046   5.261729   6.231907   2.816594
                   16         17         18         19         20
    16  O    0.000000
    17  N    2.282824   0.000000
    18  H    3.094596   1.015164   0.000000
    19  C    2.750730   1.458654   2.106220   0.000000
    20  H    2.581548   2.088923   2.972295   1.091440   0.000000
    21  H    3.799073   2.084843   2.391367   1.093130   1.782487
    22  H    2.943457   2.132541   2.577686   1.097816   1.771953
                   21         22
    21  H    0.000000
    22  H    1.785868   0.000000
 Stoichiometry    C6H12N2O2
 Framework group  C1[X(C6H12N2O2)]
 Deg. of freedom    60
 Full point group                 C1      NOp   1
 Largest Abelian subgroup         C1      NOp   1
 Largest concise Abelian subgroup C1      NOp   1
                         Standard orientation:                         
 ---------------------------------------------------------------------
 Center     Atomic      Atomic             Coordinates (Angstroms)
 Number     Number       Type             X           Y           Z
 ---------------------------------------------------------------------
      1          1           0       -3.904698   -0.632411   -0.734003
      2          6           0       -3.336798   -0.482709    0.190397
      3          1           0       -3.526195   -1.347310    0.832197
      4          1           0       -3.705201    0.420789    0.686097
      5          6           0       -1.852998   -0.447604   -0.153103
      6          8           0       -1.275795   -1.452802   -0.564003
      7          7           0       -1.248003    0.760398    0.027097
      8          1           0       -1.834405    1.498696    0.392197
      9          6           0        0.115596    1.202203   -0.310003
     10          1           0        0.107294    1.586203   -1.337503
     11          6           0        0.497592    2.355104    0.632697
     12          1           0        0.549793    2.005305    1.668997
     13          1           0        1.473290    2.749608    0.341397
     14          1           0       -0.234711    3.170202    0.571397
     15          6           0        1.291499    0.196007   -0.313703
     16          8           0        2.288398    0.518911   -0.949603
     17          7           0        1.250803   -0.872593    0.533097
     18          1           0        0.335305   -1.304096    0.611997
     19          6           0        2.382806   -1.792489    0.538697
     20          1           0        3.306104   -1.223386    0.660697
     21          1           0        2.269409   -2.483489    1.378097
     22          1           0        2.457408   -2.366689   -0.394003
 ---------------------------------------------------------------------
 Rotational constants (GHZ):      1.8496311      0.9456562      0.7032151
 Standard basis: Aug-CC-pVDZ (5D, 7F)
 There are   338 symmetry adapted basis functions of A   symmetry.
 Integral buffers will be    131072 words long.
 Raffenetti 1 integral format.
 Two-electron integral symmetry is turned on.
   338 basis functions,   562 primitive gaussians,   358 cartesian basis functions
    39 alpha electrons       39 beta electrons
       nuclear repulsion energy       560.5457541678 Hartrees.
 NAtoms=   22 NActive=   22 NUniq=   22 SFac= 7.50D-01 NAtFMM=   80 NAOKFM=F Big=F
 One-electron integrals computed using PRISM.
 NBasis=   338 RedAO= T  NBF=   338
 NBsUse=   338 1.00D-06 NBFU=   338
 Harris functional with IExCor=  205 diagonalized for initial guess.
 ExpMin= 2.97D-02 ExpMax= 1.17D+04 ExpMxC= 4.01D+02 IAcc=3 IRadAn=         0 AccDes= 0.00D+00
 HarFok:  IExCor=  205 AccDes= 0.00D+00 IRadAn=         0 IDoV= 1
 ScaDFX=  1.000000  1.000000  1.000000  1.000000
 FoFCou: FMM=F IPFlag=           0 FMFlag=      100000 FMFlg1=           0
         NFxFlg=           0 DoJE=T BraDBF=F KetDBF=T FulRan=T
         Omega=  0.000000  0.000000  1.000000  0.000000  0.000000 ICntrl=     500 IOpCl=  0
         NMat0=    1 NMatS0=    1 NMatT0=    0 NMatD0=    1 NMtDS0=    0 NMtDT0=    0
         I1Cent=           4 NGrid=           0.
 Petite list used in FoFCou.
 Initial guess orbital symmetries:
       Occupied  (A) (A) (A) (A) (A) (A) (A) (A) (A) (A) (A) (A)
                 (A) (A) (A) (A) (A) (A) (A) (A) (A) (A) (A) (A)
                 (A) (A) (A) (A) (A) (A) (A) (A) (A) (A) (A) (A)
                 (A) (A) (A)
       Virtual   (A) (A) (A) (A) (A) (A) (A) (A) (A) (A) (A) (A)
                 (A) (A) (A) (A) (A) (A) (A) (A) (A) (A) (A) (A)
                 (A) (A) (A) (A) (A) (A) (A) (A) (A) (A) (A) (A)
                 (A) (A) (A) (A) (A) (A) (A) (A) (A) (A) (A) (A)
                 (A) (A) (A) (A) (A) (A) (A) (A) (A) (A) (A) (A)
                 (A) (A) (A) (A) (A) (A) (A) (A) (A) (A) (A) (A)
                 (A) (A) (A) (A) (A) (A) (A) (A) (A) (A) (A) (A)
                 (A) (A) (A) (A) (A) (A) (A) (A) (A) (A) (A) (A)
                 (A) (A) (A) (A) (A) (A) (A) (A) (A) (A) (A) (A)
                 (A) (A) (A) (A) (A) (A) (A) (A) (A) (A) (A) (A)
                 (A) (A) (A) (A) (A) (A) (A) (A) (A) (A) (A) (A)
                 (A) (A) (A) (A) (A) (A) (A) (A) (A) (A) (A) (A)
                 (A) (A) (A) (A) (A) (A) (A) (A) (A) (A) (A) (A)
                 (A) (A) (A) (A) (A) (A) (A) (A) (A) (A) (A) (A)
                 (A) (A) (A) (A) (A) (A) (A) (A) (A) (A) (A) (A)
                 (A) (A) (A) (A) (A) (A) (A) (A) (A) (A) (A) (A)
                 (A) (A) (A) (A) (A) (A) (A) (A) (A) (A) (A) (A)
                 (A) (A) (A) (A) (A) (A) (A) (A) (A) (A) (A) (A)
                 (A) (A) (A) (A) (A) (A) (A) (A) (A) (A) (A) (A)
                 (A) (A) (A) (A) (A) (A) (A) (A) (A) (A) (A) (A)
                 (A) (A) (A) (A) (A) (A) (A) (A) (A) (A) (A) (A)
                 (A) (A) (A) (A) (A) (A) (A) (A) (A) (A) (A) (A)
                 (A) (A) (A) (A) (A) (A) (A) (A) (A) (A) (A) (A)
                 (A) (A) (A) (A) (A) (A) (A) (A) (A) (A) (A) (A)
                 (A) (A) (A) (A) (A) (A) (A) (A) (A) (A) (A)
 The electronic state of the initial guess is 1-A.
 Requested convergence on RMS density matrix=1.00D-08 within 128 cycles.
 Requested convergence on MAX density matrix=1.00D-06.
 Requested convergence on             energy=1.00D-06.
 No special actions if energy rises.
 Initial convergence to 1.0D-05 achieved.  Increase integral accuracy.
 SCF Done:  E(RHF) =  -492.916006778     A.U. after   14 cycles
             Convg  =    0.7176D-08             -V/T =  2.0017
 ExpMin= 2.97D-02 ExpMax= 1.17D+04 ExpMxC= 4.01D+02 IAcc=3 IRadAn=         5 AccDes= 0.00D+00
 HarFok:  IExCor=  205 AccDes= 0.00D+00 IRadAn=         5 IDoV=-2
 ScaDFX=  1.000000  1.000000  1.000000  1.000000
 Range of M.O.s used for correlation:    11   338
 NBasis=   338 NAE=    39 NBE=    39 NFC=    10 NFV=     0
 NROrb=    328 NOA=    29 NOB=    29 NVA=   299 NVB=   299

 **** Warning!!: The largest alpha MO coefficient is  0.64890628D+02

 Disk-based method using OVN memory for 29 occupieds at a time.
 Estimated scratch disk usage=  1388343810 words.
 Actual    scratch disk usage=  1375221725 words.
 JobTyp=1 Pass  1:  I=   1 to  29 NPSUse=  8 ParTrn=T ParDer=T DoDerP=F.
 Spin components of T(2) and E(2):
     alpha-alpha T2 =       0.6811446124D-01 E2=     -0.2061327635D+00
     alpha-beta  T2 =       0.3771880636D+00 E2=     -0.1191196101D+01
     beta-beta   T2 =       0.6811446124D-01 E2=     -0.2061327635D+00
 ANorm=    0.1230210139D+01
 E2 =    -0.1603461628D+01 EUMP2 =    -0.49451946840598D+03

 **********************************************************************

            Population analysis using the SCF density.

 **********************************************************************

 Orbital symmetries:
       Occupied  (A) (A) (A) (A) (A) (A) (A) (A) (A) (A) (A) (A)
                 (A) (A) (A) (A) (A) (A) (A) (A) (A) (A) (A) (A)
                 (A) (A) (A) (A) (A) (A) (A) (A) (A) (A) (A) (A)
                 (A) (A) (A)
       Virtual   (A) (A) (A) (A) (A) (A) (A) (A) (A) (A) (A) (A)
                 (A) (A) (A) (A) (A) (A) (A) (A) (A) (A) (A) (A)
                 (A) (A) (A) (A) (A) (A) (A) (A) (A) (A) (A) (A)
                 (A) (A) (A) (A) (A) (A) (A) (A) (A) (A) (A) (A)
                 (A) (A) (A) (A) (A) (A) (A) (A) (A) (A) (A) (A)
                 (A) (A) (A) (A) (A) (A) (A) (A) (A) (A) (A) (A)
                 (A) (A) (A) (A) (A) (A) (A) (A) (A) (A) (A) (A)
                 (A) (A) (A) (A) (A) (A) (A) (A) (A) (A) (A) (A)
                 (A) (A) (A) (A) (A) (A) (A) (A) (A) (A) (A) (A)
                 (A) (A) (A) (A) (A) (A) (A) (A) (A) (A) (A) (A)
                 (A) (A) (A) (A) (A) (A) (A) (A) (A) (A) (A) (A)
                 (A) (A) (A) (A) (A) (A) (A) (A) (A) (A) (A) (A)
                 (A) (A) (A) (A) (A) (A) (A) (A) (A) (A) (A) (A)
                 (A) (A) (A) (A) (A) (A) (A) (A) (A) (A) (A) (A)
                 (A) (A) (A) (A) (A) (A) (A) (A) (A) (A) (A) (A)
                 (A) (A) (A) (A) (A) (A) (A) (A) (A) (A) (A) (A)
                 (A) (A) (A) (A) (A) (A) (A) (A) (A) (A) (A) (A)
                 (A) (A) (A) (A) (A) (A) (A) (A) (A) (A) (A) (A)
                 (A) (A) (A) (A) (A) (A) (A) (A) (A) (A) (A) (A)
                 (A) (A) (A) (A) (A) (A) (A) (A) (A) (A) (A) (A)
                 (A) (A) (A) (A) (A) (A) (A) (A) (A) (A) (A) (A)
                 (A) (A) (A) (A) (A) (A) (A) (A) (A) (A) (A) (A)
                 (A) (A) (A) (A) (A) (A) (A) (A) (A) (A) (A) (A)
                 (A) (A) (A) (A) (A) (A) (A) (A) (A) (A) (A) (A)
                 (A) (A) (A) (A) (A) (A) (A) (A) (A) (A) (A)
 The electronic state is 1-A.
 Alpha  occ. eigenvalues --  -20.54373 -20.52735 -15.61538 -15.57593 -11.38080
 Alpha  occ. eigenvalues --  -11.35550 -11.30095 -11.25980 -11.25394 -11.24673
 Alpha  occ. eigenvalues --   -1.39934  -1.37972  -1.25401  -1.21724  -1.06483
 Alpha  occ. eigenvalues --   -1.00212  -0.94579  -0.88114  -0.82033  -0.76746
 Alpha  occ. eigenvalues --   -0.70923  -0.70139  -0.67181  -0.63004  -0.62687
 Alpha  occ. eigenvalues --   -0.62103  -0.59867  -0.58501  -0.57841  -0.56156
 Alpha  occ. eigenvalues --   -0.54904  -0.53744  -0.53380  -0.51834  -0.49853
 Alpha  occ. eigenvalues --   -0.44133  -0.42305  -0.40899  -0.38373
 Alpha virt. eigenvalues --    0.02319   0.03949   0.04158   0.04643   0.05757
 Alpha virt. eigenvalues --    0.06069   0.06323   0.06928   0.07160   0.08012
 Alpha virt. eigenvalues --    0.08766   0.10370   0.11510   0.11676   0.12273
 Alpha virt. eigenvalues --    0.13512   0.13754   0.14175   0.15022   0.15303
 Alpha virt. eigenvalues --    0.15644   0.16386   0.16686   0.16992   0.17433
 Alpha virt. eigenvalues --    0.17713   0.18173   0.18610   0.18860   0.19008
 Alpha virt. eigenvalues --    0.19720   0.20154   0.20474   0.22051   0.22331
 Alpha virt. eigenvalues --    0.23348   0.23551   0.25024   0.25684   0.25817
 Alpha virt. eigenvalues --    0.26822   0.28555   0.29332   0.30498   0.30785
 Alpha virt. eigenvalues --    0.31661   0.31946   0.32930   0.33185   0.33459
 Alpha virt. eigenvalues --    0.34416   0.35262   0.35440   0.36408   0.36648
 Alpha virt. eigenvalues --    0.36848   0.37979   0.39035   0.39400   0.39823
 Alpha virt. eigenvalues --    0.40102   0.41443   0.41807   0.42319   0.42949
 Alpha virt. eigenvalues --    0.43701   0.44051   0.44851   0.45235   0.45776
 Alpha virt. eigenvalues --    0.46434   0.47001   0.48030   0.48398   0.49242
 Alpha virt. eigenvalues --    0.49867   0.50152   0.51074   0.51764   0.52668
 Alpha virt. eigenvalues --    0.52806   0.54475   0.54553   0.55391   0.56100
 Alpha virt. eigenvalues --    0.57108   0.57569   0.57758   0.58005   0.58720
 Alpha virt. eigenvalues --    0.58888   0.59643   0.60897   0.61690   0.62038
 Alpha virt. eigenvalues --    0.62785   0.62999   0.63379   0.64842   0.64954
 Alpha virt. eigenvalues --    0.66199   0.66857   0.66958   0.68218   0.68938
 Alpha virt. eigenvalues --    0.69246   0.69861   0.70161   0.70402   0.72058
 Alpha virt. eigenvalues --    0.72748   0.73472   0.74138   0.74480   0.74821
 Alpha virt. eigenvalues --    0.76181   0.76605   0.77160   0.78088   0.78636
 Alpha virt. eigenvalues --    0.80074   0.80894   0.82006   0.82938   0.83870
 Alpha virt. eigenvalues --    0.84306   0.85507   0.86405   0.87089   0.88899
 Alpha virt. eigenvalues --    0.90223   0.91355   0.92628   0.93250   0.94571
 Alpha virt. eigenvalues --    0.95523   0.95558   0.96126   0.97345   1.00178
 Alpha virt. eigenvalues --    1.00638   1.02060   1.03308   1.03759   1.05309
 Alpha virt. eigenvalues --    1.07204   1.07527   1.08531   1.10308   1.11116
 Alpha virt. eigenvalues --    1.12405   1.12796   1.15171   1.15833   1.15938
 Alpha virt. eigenvalues --    1.17436   1.18339   1.19491   1.20710   1.23693
 Alpha virt. eigenvalues --    1.24240   1.25447   1.27138   1.27930   1.30375
 Alpha virt. eigenvalues --    1.30701   1.34667   1.35820   1.36416   1.38588
 Alpha virt. eigenvalues --    1.39810   1.40397   1.44173   1.44878   1.46444
 Alpha virt. eigenvalues --    1.47265   1.48476   1.49572   1.52729   1.54529
 Alpha virt. eigenvalues --    1.56012   1.57035   1.57685   1.58969   1.62400
 Alpha virt. eigenvalues --    1.66181   1.68628   1.70788   1.70998   1.72994
 Alpha virt. eigenvalues --    1.74601   1.76069   1.78630   1.80646   1.81053
 Alpha virt. eigenvalues --    1.82166   1.85715   1.86404   1.87089   1.87907
 Alpha virt. eigenvalues --    1.88641   1.90914   1.91852   1.92592   1.93755
 Alpha virt. eigenvalues --    1.94880   1.95910   1.99188   1.99970   2.00820
 Alpha virt. eigenvalues --    2.02896   2.04026   2.08609   2.08860   2.09858
 Alpha virt. eigenvalues --    2.11571   2.12267   2.13027   2.15490   2.16878
 Alpha virt. eigenvalues --    2.19245   2.20264   2.20832   2.23640   2.23789
 Alpha virt. eigenvalues --    2.25214   2.26117   2.27140   2.27875   2.29866
 Alpha virt. eigenvalues --    2.30773   2.32973   2.35821   2.35949   2.37216
 Alpha virt. eigenvalues --    2.37937   2.38767   2.42102   2.43071   2.44637
 Alpha virt. eigenvalues --    2.46602   2.48475   2.50253   2.51559   2.52072
 Alpha virt. eigenvalues --    2.55011   2.56048   2.58453   2.59190   2.59587
 Alpha virt. eigenvalues --    2.62479   2.64912   2.67366   2.68386   2.69528
 Alpha virt. eigenvalues --    2.70224   2.71257   2.73974   2.76530   2.79361
 Alpha virt. eigenvalues --    2.80581   2.83834   2.85422   2.85622   2.88380
 Alpha virt. eigenvalues --    2.89284   2.91684   2.94089   2.96351   2.96614
 Alpha virt. eigenvalues --    2.99595   3.02510   3.06251   3.09110   3.11395
 Alpha virt. eigenvalues --    3.13030   3.16094   3.18216   3.18714   3.26291
 Alpha virt. eigenvalues --    3.29368   3.39164   3.43270   3.45203   3.48653
 Alpha virt. eigenvalues --    3.62078   3.66196   3.73263   3.83851   3.84352
 Alpha virt. eigenvalues --    3.86374   3.88339   3.92224   3.96712   3.97633
 Alpha virt. eigenvalues --    4.05217   4.11641   4.21477   4.23121
          Condensed to atoms (all electrons):
              1          2          3          4          5          6
     1  H    0.714192   0.394248  -0.043763  -0.064157  -0.110927   0.009757
     2  C    0.394248   4.550169   0.320137   0.325694   0.204136  -0.048526
     3  H   -0.043763   0.320137   0.736130  -0.086503  -0.044142   0.021807
     4  H   -0.064157   0.325694  -0.086503   1.104769   0.174208  -0.012900
     5  C   -0.110927   0.204136  -0.044142   0.174208   5.557292   0.136776
     6  O    0.009757  -0.048526   0.021807  -0.012900   0.136776   8.774018
     7  N    0.052431  -0.054021   0.050978  -0.212737  -0.021565  -0.089771
     8  H   -0.007675  -0.057105  -0.001263   0.003054  -0.108948  -0.009922
     9  C   -0.007793  -0.030392   0.015905  -0.046565  -0.181292   0.072122
    10  H   -0.004100  -0.009330   0.000434  -0.000077  -0.036295   0.012883
    11  C    0.004047  -0.022726  -0.000693  -0.006502  -0.024423   0.000207
    12  H   -0.000083  -0.007928  -0.000261  -0.001918  -0.010418   0.000254
    13  H    0.000271   0.003344   0.000180   0.000519   0.010319  -0.000427
    14  H    0.000197  -0.006008  -0.000489  -0.000690  -0.017104   0.000444
    15  C    0.001467   0.004736  -0.003614   0.000242  -0.051222  -0.002511
    16  O    0.000037   0.003317   0.000167   0.000126   0.016196  -0.000179
    17  N    0.001069  -0.006316   0.002347  -0.001557   0.020808  -0.021872
    18  H   -0.001073   0.011338   0.000843  -0.001114   0.018560   0.020678
    19  C    0.000033   0.001790  -0.000609   0.000108   0.004424  -0.002659
    20  H    0.000009   0.000373   0.000129  -0.000036  -0.003453  -0.002352
    21  H    0.000094   0.000900  -0.000479   0.000236   0.007187   0.002823
    22  H   -0.000059  -0.000074   0.000023   0.000059   0.002496   0.003642
              7          8          9         10         11         12
     1  H    0.052431  -0.007675  -0.007793  -0.004100   0.004047  -0.000083
     2  C   -0.054021  -0.057105  -0.030392  -0.009330  -0.022726  -0.007928
     3  H    0.050978  -0.001263   0.015905   0.000434  -0.000693  -0.000261
     4  H   -0.212737   0.003054  -0.046565  -0.000077  -0.006502  -0.001918
     5  C   -0.021565  -0.108948  -0.181292  -0.036295  -0.024423  -0.010418
     6  O   -0.089771  -0.009922   0.072122   0.012883   0.000207   0.000254
     7  N    7.614950   0.399587  -0.216305  -0.061573   0.024078  -0.037021
     8  H    0.399587   1.005155  -0.251289   0.003440   0.006245   0.002182
     9  C   -0.216305  -0.251289   6.766366  -0.112617   0.205717  -0.188744
    10  H   -0.061573   0.003440  -0.112617   1.155005   0.017253   0.073329
    11  C    0.024078   0.006245   0.205717   0.017253   4.353276   0.439270
    12  H   -0.037021   0.002182  -0.188744   0.073329   0.439270   1.063070
    13  H    0.059531  -0.000194  -0.007279  -0.066800   0.297484  -0.131278
    14  H   -0.061167   0.006507   0.106424  -0.009789   0.254357  -0.191904
    15  C    0.003539   0.030394  -0.299400   0.039772  -0.115364  -0.036748
    16  O    0.014654  -0.003923  -0.125620   0.041614   0.047596   0.007567
    17  N   -0.008606   0.012732  -0.075827   0.037622   0.045341   0.021476
    18  H    0.013267  -0.002771  -0.054216   0.001048  -0.010257  -0.001316
    19  C   -0.008811   0.003353  -0.072752   0.012549   0.003451   0.006130
    20  H   -0.001010   0.000524   0.008456   0.000074  -0.004033  -0.000549
    21  H   -0.002166  -0.000339  -0.017833   0.000208   0.002053  -0.000363
    22  H    0.001031   0.000212  -0.001769  -0.000123  -0.002771   0.000019
             13         14         15         16         17         18
     1  H    0.000271   0.000197   0.001467   0.000037   0.001069  -0.001073
     2  C    0.003344  -0.006008   0.004736   0.003317  -0.006316   0.011338
     3  H    0.000180  -0.000489  -0.003614   0.000167   0.002347   0.000843
     4  H    0.000519  -0.000690   0.000242   0.000126  -0.001557  -0.001114
     5  C    0.010319  -0.017104  -0.051222   0.016196   0.020808   0.018560
     6  O   -0.000427   0.000444  -0.002511  -0.000179  -0.021872   0.020678
     7  N    0.059531  -0.061167   0.003539   0.014654  -0.008606   0.013267
     8  H   -0.000194   0.006507   0.030394  -0.003923   0.012732  -0.002771
     9  C   -0.007279   0.106424  -0.299400  -0.125620  -0.075827  -0.054216
    10  H   -0.066800  -0.009789   0.039772   0.041614   0.037622   0.001048
    11  C    0.297484   0.254357  -0.115364   0.047596   0.045341  -0.010257
    12  H   -0.131278  -0.191904  -0.036748   0.007567   0.021476  -0.001316
    13  H    1.039980  -0.184367   0.030652   0.008075  -0.007266   0.000487
    14  H   -0.184367   1.165055   0.048427  -0.002533  -0.003711   0.000457
    15  C    0.030652   0.048427   5.203196   0.156841   0.222893  -0.000476
    16  O    0.008075  -0.002533   0.156841   8.834679  -0.116351   0.003479
    17  N   -0.007266  -0.003711   0.222893  -0.116351   7.054881   0.267417
    18  H    0.000487   0.000457  -0.000476   0.003479   0.267417   0.884933
    19  C   -0.001307   0.001910  -0.103893   0.025068   0.149294  -0.118338
    20  H    0.002151  -0.000543   0.067093  -0.024510  -0.059497   0.005202
    21  H   -0.000241   0.000384  -0.055529   0.012896  -0.162815   0.010544
    22  H   -0.000641   0.000100   0.004041   0.003255   0.130632  -0.021170
             19         20         21         22
     1  H    0.000033   0.000009   0.000094  -0.000059
     2  C    0.001790   0.000373   0.000900  -0.000074
     3  H   -0.000609   0.000129  -0.000479   0.000023
     4  H    0.000108  -0.000036   0.000236   0.000059
     5  C    0.004424  -0.003453   0.007187   0.002496
     6  O   -0.002659  -0.002352   0.002823   0.003642
     7  N   -0.008811  -0.001010  -0.002166   0.001031
     8  H    0.003353   0.000524  -0.000339   0.000212
     9  C   -0.072752   0.008456  -0.017833  -0.001769
    10  H    0.012549   0.000074   0.000208  -0.000123
    11  C    0.003451  -0.004033   0.002053  -0.002771
    12  H    0.006130  -0.000549  -0.000363   0.000019
    13  H   -0.001307   0.002151  -0.000241  -0.000641
    14  H    0.001910  -0.000543   0.000384   0.000100
    15  C   -0.103893   0.067093  -0.055529   0.004041
    16  O    0.025068  -0.024510   0.012896   0.003255
    17  N    0.149294  -0.059497  -0.162815   0.130632
    18  H   -0.118338   0.005202   0.010544  -0.021170
    19  C    4.188374   0.405186   0.497814   0.248823
    20  H    0.405186   1.032213  -0.206996  -0.095092
    21  H    0.497814  -0.206996   1.277482  -0.169205
    22  H    0.248823  -0.095092  -0.169205   0.948440
 Mulliken atomic charges:
              1
     1  H    0.061778
     2  C    0.422243
     3  H    0.032737
     4  H   -0.174259
     5  C    0.457389
     6  O   -0.864290
     7  N   -0.459293
     8  H   -0.029956
     9  C    0.514704
    10  H   -0.094527
    11  C    0.486394
    12  H   -0.004767
    13  H   -0.053193
    14  H   -0.105957
    15  C    0.855463
    16  O   -0.902450
    17  N   -0.502693
    18  H   -0.027519
    19  C    0.760061
    20  H   -0.123339
    21  H   -0.196656
    22  H   -0.051870
 Sum of Mulliken atomic charges =   0.00000
 Mulliken charges with hydrogens summed into heavy atoms:
              1
     2  C    0.342499
     5  C    0.457389
     6  O   -0.864290
     7  N   -0.489249
     9  C    0.420177
    11  C    0.322477
    15  C    0.855463
    16  O   -0.902450
    17  N   -0.530212
    19  C    0.388195
 Sum of Mulliken charges with hydrogens summed into heavy atoms =   0.00000
 Electronic spatial extent (au):  <R**2>=           1716.7642
 Charge=              0.0000 electrons
 Dipole moment (field-independent basis, Debye):
    X=             -4.4162    Y=              1.9712    Z=              2.8937  Tot=              5.6358
 Quadrupole moment (field-independent basis, Debye-Ang):
   XX=            -59.4156   YY=            -58.9575   ZZ=            -64.1095
   XY=             -7.4786   XZ=              2.9267   YZ=             -1.4779
 Traceless Quadrupole moment (field-independent basis, Debye-Ang):
   XX=              1.4120   YY=              1.8700   ZZ=             -3.2820
   XY=             -7.4786   XZ=              2.9267   YZ=             -1.4779
 Octapole moment (field-independent basis, Debye-Ang**2):
  XXX=            -47.0074  YYY=              8.4458  ZZZ=             -2.3973  XYY=              6.4259
  XXY=             -9.2667  XXZ=             15.3707  XZZ=             -6.4047  YZZ=             -2.0931
  YYZ=              7.1331  XYZ=              4.0922
 Hexadecapole moment (field-independent basis, Debye-Ang**3):
 XXXX=          -1322.3800 YYYY=           -694.0601 ZZZZ=           -187.5977 XXXY=            -16.0903
 XXXZ=             31.6867 YYYX=            -21.1554 YYYZ=            -10.9922 ZZZX=              3.1666
 ZZZY=             -2.3713 XXYY=           -332.3094 XXZZ=           -270.5214 YYZZ=           -146.5216
 XXYZ=              5.7620 YYXZ=             -7.0039 ZZXY=             -3.4817
 N-N= 5.605457541678D+02 E-N=-2.276241468375D+03  KE= 4.920586886686D+02
 1\1\GINC-NODE012\SP\RMP2-FC\Aug-CC-pVDZ\C6H12N2O2\MANAGER\13-Feb-2017\
 0\\#SP MP2/aug-cc-pVDZ\\Single Point calculation at MP2\\0,1\H,0,-3.90
 47,-0.6324,-0.734\C,0,-3.3368,-0.4827,0.1904\H,0,-3.5262,-1.3473,0.832
 2\H,0,-3.7052,0.4208,0.6861\C,0,-1.853,-0.4476,-0.1531\O,0,-1.2758,-1.
 4528,-0.564\N,0,-1.248,0.7604,0.0271\H,0,-1.8344,1.4987,0.3922\C,0,0.1
 156,1.2022,-0.31\H,0,0.1073,1.5862,-1.3375\C,0,0.4976,2.3551,0.6327\H,
 0,0.5498,2.0053,1.669\H,0,1.4733,2.7496,0.3414\H,0,-0.2347,3.1702,0.57
 14\C,0,1.2915,0.196,-0.3137\O,0,2.2884,0.5189,-0.9496\N,0,1.2508,-0.87
 26,0.5331\H,0,0.3353,-1.3041,0.612\C,0,2.3828,-1.7925,0.5387\H,0,3.306
 1,-1.2234,0.6607\H,0,2.2694,-2.4835,1.3781\H,0,2.4574,-2.3667,-0.394\\
 Version=EM64L-G09RevA.02\State=1-A\HF=-492.9160068\MP2=-494.5194684\RM
 SD=7.176e-09\PG=C01 [X(C6H12N2O2)]\\@


 SEE YOU NOW,
 YOUR BAIT OF FALSEHOOD TAKES THIS CARP OF TRUTH.
 AND THUS DO WE OF WISDOM AND OF REACH...
 BY INDIRECTIONS FIND DIRECTIONS OUT.    -- HAMLET, II, 1
 Job cpu time:  0 days 10 hours 58 minutes 23.5 seconds.
 File lengths (MBytes):  RWF=  10609 Int=      0 D2E=      0 Chk=      7 Scr=      2
 Normal termination of Gaussian 09 at Mon Feb 13 21:23:11 2017.
