 Entering Gaussian System, Link 0=g09
 Initial command:
 /home/steboss/Software/g09/l1.exe /tmp/Gau-20113.inp -scrdir=/tmp/
 Entering Link 1 = /home/steboss/Software/g09/l1.exe PID=     20115.
  
 Copyright (c) 1988,1990,1992,1993,1995,1998,2003,2009, Gaussian, Inc.
                  All Rights Reserved.
  
 This is part of the Gaussian(R) 09 program.  It is based on
 the Gaussian(R) 03 system (copyright 2003, Gaussian, Inc.),
 the Gaussian(R) 98 system (copyright 1998, Gaussian, Inc.),
 the Gaussian(R) 94 system (copyright 1995, Gaussian, Inc.),
 the Gaussian 92(TM) system (copyright 1992, Gaussian, Inc.),
 the Gaussian 90(TM) system (copyright 1990, Gaussian, Inc.),
 the Gaussian 88(TM) system (copyright 1988, Gaussian, Inc.),
 the Gaussian 86(TM) system (copyright 1986, Carnegie Mellon
 University), and the Gaussian 82(TM) system (copyright 1983,
 Carnegie Mellon University). Gaussian is a federally registered
 trademark of Gaussian, Inc.
  
 This software contains proprietary and confidential information,
 including trade secrets, belonging to Gaussian, Inc.
  
 This software is provided under written license and may be
 used, copied, transmitted, or stored only in accord with that
 written license.
  
 The following legend is applicable only to US Government
 contracts under FAR:
  
                    RESTRICTED RIGHTS LEGEND
  
 Use, reproduction and disclosure by the US Government is
 subject to restrictions as set forth in subparagraphs (a)
 and (c) of the Commercial Computer Software - Restricted
 Rights clause in FAR 52.227-19.
  
 Gaussian, Inc.
 340 Quinnipiac St., Bldg. 40, Wallingford CT 06492
  
  
 ---------------------------------------------------------------
 Warning -- This program may not be used in any manner that
 competes with the business of Gaussian, Inc. or will provide
 assistance to any competitor of Gaussian, Inc.  The licensee
 of this program is prohibited from giving any competitor of
 Gaussian, Inc. access to this program.  By using this program,
 the user acknowledges that Gaussian, Inc. is engaged in the
 business of creating and licensing software in the field of
 computational chemistry and represents and warrants to the
 licensee that it is not a competitor of Gaussian, Inc. and that
 it will not use this program in any manner prohibited above.
 ---------------------------------------------------------------
  

 Cite this work as:
 Gaussian 09, Revision A.02,
 M. J. Frisch, G. W. Trucks, H. B. Schlegel, G. E. Scuseria, 
 M. A. Robb, J. R. Cheeseman, G. Scalmani, V. Barone, B. Mennucci, 
 G. A. Petersson, H. Nakatsuji, M. Caricato, X. Li, H. P. Hratchian, 
 A. F. Izmaylov, J. Bloino, G. Zheng, J. L. Sonnenberg, M. Hada, 
 M. Ehara, K. Toyota, R. Fukuda, J. Hasegawa, M. Ishida, T. Nakajima, 
 Y. Honda, O. Kitao, H. Nakai, T. Vreven, J. A. Montgomery, Jr., 
 J. E. Peralta, F. Ogliaro, M. Bearpark, J. J. Heyd, E. Brothers, 
 K. N. Kudin, V. N. Staroverov, R. Kobayashi, J. Normand, 
 K. Raghavachari, A. Rendell, J. C. Burant, S. S. Iyengar, J. Tomasi, 
 M. Cossi, N. Rega, J. M. Millam, M. Klene, J. E. Knox, J. B. Cross, 
 V. Bakken, C. Adamo, J. Jaramillo, R. Gomperts, R. E. Stratmann, 
 O. Yazyev, A. J. Austin, R. Cammi, C. Pomelli, J. W. Ochterski, 
 R. L. Martin, K. Morokuma, V. G. Zakrzewski, G. A. Voth, 
 P. Salvador, J. J. Dannenberg, S. Dapprich, A. D. Daniels, 
 O. Farkas, J. B. Foresman, J. V. Ortiz, J. Cioslowski, 
 and D. J. Fox, Gaussian, Inc., Wallingford CT, 2009.
 
 ******************************************
 Gaussian 09:  EM64L-G09RevA.02 11-Jun-2009
                29-Dec-2016 
 ******************************************
 %chk=structure_0.chk
 ----------------------------------------------------------------------
 # b3lyp/6-31G* Opt=(ModRedundant, maxcycles=1000, calcfc) geom=nocrowd
 ----------------------------------------------------------------------
 1/6=1000,10=4,14=-1,18=120,19=15,26=3,38=1/1,3;
 2/9=110,12=1,17=6,18=5,40=1/2;
 3/5=1,6=6,7=1,11=2,16=1,25=1,30=1,71=2,74=-5/1,2,3;
 4//1;
 5/5=2,38=5/2;
 8/6=4,10=90,11=11/1;
 11/6=1,8=1,9=11,15=111,16=1/1,2,10;
 10/6=1,7=6,13=1/2;
 6/7=2,8=2,9=2,10=2,28=1/1;
 7/10=1,18=20,25=1/1,2,3,16;
 1/6=1000,10=4,14=-1,18=20,19=15/3(2);
 2/9=110,12=1/2;
 99//99;
 2/9=110,12=1/2;
 3/5=1,6=6,7=1,11=2,16=1,25=1,30=1,71=1,74=-5/1,2,3;
 4/5=5,16=3/1;
 5/5=2,38=5/2;
 7//1,2,3,16;
 1/6=1000,14=-1,18=20,19=15/3(-5);
 2/9=110,12=1/2;
 6/7=2,8=2,9=2,10=2,19=2,28=1/1;
 99/9=1/99;
 ------------------
 Phi Psi fixed scan
 ------------------
 Symbolic Z-matrix:
 Charge =  0 Multiplicity = 1
 H                     3.923     1.       -3.3308 
 C                     3.923     2.09     -3.3308 
 H                     2.8955    2.4539   -3.3308 
 H                     4.4367    2.4539   -4.2206 
 C                     4.6367    2.6408   -2.0946 
 O                     5.1183    1.8774   -1.2605 
 N                     4.7007    3.9697   -1.9838 
 H                     4.2896    4.5562   -2.6959 
 C                     5.3497    4.6139   -0.8598 
 H                     4.8562    4.3155    0.0652 
 C                     6.8208    4.2208   -0.7761 
 H                     7.3303    4.5214   -1.6916 
 H                     7.2825    4.7189    0.0764 
 H                     6.9024    3.1409   -0.6532 
 C                     5.2794    6.1294   -0.9815 
 O                     4.7233    6.6527   -1.9446 
 N                     5.846     6.8349    0. 
 H                     6.2915    6.3592    0.7716 
 C                     5.8461    8.2839    0. 
 H                     5.3323    8.6477   -0.8898 
 C                     5.1347    8.8329    1.2322 
 H                     5.6431    8.4846    2.1312 
 H                     5.1499    9.9224    1.2058 
 H                     4.1019    8.4846    1.2414 
 C                     7.266     8.8318    0. 
 O                     7.4667    10.0443   0. 
 N                     8.2534    7.9333    0. 
 H                     8.0383    6.9465    0. 
 C                     9.6477    8.3279    0. 
 H                     9.8579    8.9213   -0.8898 
 C                     9.9822    9.1618    1.2321 
 H                     9.7855    8.5778    2.1312 
 H                     11.0348   9.4439    1.2058 
 H                     9.3659    10.0608   1.2414 
 C                     10.5615   7.1107    0. 
 O                     10.0892   5.9761    0. 
 N                     11.875    7.3494    0. 
 H                     12.2155   8.3003    0. 
 C                     12.8483   6.276     0. 
 H                     12.3316   5.3163    0. 
 H                     13.4733   6.3516   -0.8899 
 H                     13.4733   6.3516    0.8898 
 
 The following ModRedundant input section has been read:
 D   15   17   19   25 F                                                       
 D   17   19   25   27 F                                                       

 GradGradGradGradGradGradGradGradGradGradGradGradGradGradGradGradGradGrad
 Berny optimization.
 Initialization pass.
                           ----------------------------
                           !    Initial Parameters    !
                           ! (Angstroms and Degrees)  !
 --------------------------                            --------------------------
 ! Name  Definition              Value          Derivative Info.                !
 --------------------------------------------------------------------------------
 ! R1    R(1,2)                  1.09           calculate D2E/DX2 analytically  !
 ! R2    R(2,3)                  1.09           calculate D2E/DX2 analytically  !
 ! R3    R(2,4)                  1.09           calculate D2E/DX2 analytically  !
 ! R4    R(2,5)                  1.53           calculate D2E/DX2 analytically  !
 ! R5    R(5,6)                  1.229          calculate D2E/DX2 analytically  !
 ! R6    R(5,7)                  1.335          calculate D2E/DX2 analytically  !
 ! R7    R(7,8)                  1.01           calculate D2E/DX2 analytically  !
 ! R8    R(7,9)                  1.449          calculate D2E/DX2 analytically  !
 ! R9    R(9,10)                 1.0901         calculate D2E/DX2 analytically  !
 ! R10   R(9,11)                 1.525          calculate D2E/DX2 analytically  !
 ! R11   R(9,15)                 1.522          calculate D2E/DX2 analytically  !
 ! R12   R(11,12)                1.09           calculate D2E/DX2 analytically  !
 ! R13   R(11,13)                1.09           calculate D2E/DX2 analytically  !
 ! R14   R(11,14)                1.0899         calculate D2E/DX2 analytically  !
 ! R15   R(15,16)                1.2291         calculate D2E/DX2 analytically  !
 ! R16   R(15,17)                1.335          calculate D2E/DX2 analytically  !
 ! R17   R(17,18)                1.01           calculate D2E/DX2 analytically  !
 ! R18   R(17,19)                1.449          calculate D2E/DX2 analytically  !
 ! R19   R(19,20)                1.09           calculate D2E/DX2 analytically  !
 ! R20   R(19,21)                1.5251         calculate D2E/DX2 analytically  !
 ! R21   R(19,25)                1.5219         calculate D2E/DX2 analytically  !
 ! R22   R(21,22)                1.0899         calculate D2E/DX2 analytically  !
 ! R23   R(21,23)                1.0899         calculate D2E/DX2 analytically  !
 ! R24   R(21,24)                1.09           calculate D2E/DX2 analytically  !
 ! R25   R(25,26)                1.229          calculate D2E/DX2 analytically  !
 ! R26   R(25,27)                1.335          calculate D2E/DX2 analytically  !
 ! R27   R(27,28)                1.01           calculate D2E/DX2 analytically  !
 ! R28   R(27,29)                1.4491         calculate D2E/DX2 analytically  !
 ! R29   R(29,30)                1.09           calculate D2E/DX2 analytically  !
 ! R30   R(29,31)                1.5249         calculate D2E/DX2 analytically  !
 ! R31   R(29,35)                1.522          calculate D2E/DX2 analytically  !
 ! R32   R(31,32)                1.09           calculate D2E/DX2 analytically  !
 ! R33   R(31,33)                1.0901         calculate D2E/DX2 analytically  !
 ! R34   R(31,34)                1.09           calculate D2E/DX2 analytically  !
 ! R35   R(35,36)                1.229          calculate D2E/DX2 analytically  !
 ! R36   R(35,37)                1.335          calculate D2E/DX2 analytically  !
 ! R37   R(37,38)                1.01           calculate D2E/DX2 analytically  !
 ! R38   R(37,39)                1.449          calculate D2E/DX2 analytically  !
 ! R39   R(39,40)                1.09           calculate D2E/DX2 analytically  !
 ! R40   R(39,41)                1.0901         calculate D2E/DX2 analytically  !
 ! R41   R(39,42)                1.09           calculate D2E/DX2 analytically  !
 ! A1    A(1,2,3)              109.5021         calculate D2E/DX2 analytically  !
 ! A2    A(1,2,4)              109.5032         calculate D2E/DX2 analytically  !
 ! A3    A(1,2,5)              111.1            calculate D2E/DX2 analytically  !
 ! A4    A(3,2,4)              109.4387         calculate D2E/DX2 analytically  !
 ! A5    A(3,2,5)              108.6341         calculate D2E/DX2 analytically  !
 ! A6    A(4,2,5)              108.6357         calculate D2E/DX2 analytically  !
 ! A7    A(2,5,6)              120.4994         calculate D2E/DX2 analytically  !
 ! A8    A(2,5,7)              116.5999         calculate D2E/DX2 analytically  !
 ! A9    A(6,5,7)              122.9007         calculate D2E/DX2 analytically  !
 ! A10   A(5,7,8)              120.0            calculate D2E/DX2 analytically  !
 ! A11   A(5,7,9)              121.8967         calculate D2E/DX2 analytically  !
 ! A12   A(8,7,9)              118.1033         calculate D2E/DX2 analytically  !
 ! A13   A(7,9,10)             109.4981         calculate D2E/DX2 analytically  !
 ! A14   A(7,9,11)             111.1026         calculate D2E/DX2 analytically  !
 ! A15   A(7,9,15)             111.0985         calculate D2E/DX2 analytically  !
 ! A16   A(10,9,11)            108.638          calculate D2E/DX2 analytically  !
 ! A17   A(10,9,15)            108.634          calculate D2E/DX2 analytically  !
 ! A18   A(11,9,15)            107.795          calculate D2E/DX2 analytically  !
 ! A19   A(9,11,12)            109.4948         calculate D2E/DX2 analytically  !
 ! A20   A(9,11,13)            109.4963         calculate D2E/DX2 analytically  !
 ! A21   A(9,11,14)            109.4999         calculate D2E/DX2 analytically  !
 ! A22   A(12,11,13)           109.4446         calculate D2E/DX2 analytically  !
 ! A23   A(12,11,14)           109.4483         calculate D2E/DX2 analytically  !
 ! A24   A(13,11,14)           109.4434         calculate D2E/DX2 analytically  !
 ! A25   A(9,15,16)            120.4974         calculate D2E/DX2 analytically  !
 ! A26   A(9,15,17)            116.6046         calculate D2E/DX2 analytically  !
 ! A27   A(16,15,17)           122.8981         calculate D2E/DX2 analytically  !
 ! A28   A(15,17,18)           119.9989         calculate D2E/DX2 analytically  !
 ! A29   A(15,17,19)           121.9049         calculate D2E/DX2 analytically  !
 ! A30   A(18,17,19)           118.0962         calculate D2E/DX2 analytically  !
 ! A31   A(17,19,20)           109.4954         calculate D2E/DX2 analytically  !
 ! A32   A(17,19,21)           111.0974         calculate D2E/DX2 analytically  !
 ! A33   A(17,19,25)           111.1042         calculate D2E/DX2 analytically  !
 ! A34   A(20,19,21)           108.6349         calculate D2E/DX2 analytically  !
 ! A35   A(20,19,25)           108.6399         calculate D2E/DX2 analytically  !
 ! A36   A(21,19,25)           107.7944         calculate D2E/DX2 analytically  !
 ! A37   A(19,21,22)           109.4996         calculate D2E/DX2 analytically  !
 ! A38   A(19,21,23)           109.4977         calculate D2E/DX2 analytically  !
 ! A39   A(19,21,24)           109.4988         calculate D2E/DX2 analytically  !
 ! A40   A(22,21,23)           109.4452         calculate D2E/DX2 analytically  !
 ! A41   A(22,21,24)           109.4447         calculate D2E/DX2 analytically  !
 ! A42   A(23,21,24)           109.4412         calculate D2E/DX2 analytically  !
 ! A43   A(19,25,26)           120.4989         calculate D2E/DX2 analytically  !
 ! A44   A(19,25,27)           116.5987         calculate D2E/DX2 analytically  !
 ! A45   A(26,25,27)           122.9024         calculate D2E/DX2 analytically  !
 ! A46   A(25,27,28)           120.0043         calculate D2E/DX2 analytically  !
 ! A47   A(25,27,29)           121.8969         calculate D2E/DX2 analytically  !
 ! A48   A(28,27,29)           118.0988         calculate D2E/DX2 analytically  !
 ! A49   A(27,29,30)           109.5003         calculate D2E/DX2 analytically  !
 ! A50   A(27,29,31)           111.0991         calculate D2E/DX2 analytically  !
 ! A51   A(27,29,35)           111.095          calculate D2E/DX2 analytically  !
 ! A52   A(30,29,31)           108.6373         calculate D2E/DX2 analytically  !
 ! A53   A(30,29,35)           108.6385         calculate D2E/DX2 analytically  !
 ! A54   A(31,29,35)           107.796          calculate D2E/DX2 analytically  !
 ! A55   A(29,31,32)           109.5052         calculate D2E/DX2 analytically  !
 ! A56   A(29,31,33)           109.5023         calculate D2E/DX2 analytically  !
 ! A57   A(29,31,34)           109.5052         calculate D2E/DX2 analytically  !
 ! A58   A(32,31,33)           109.4394         calculate D2E/DX2 analytically  !
 ! A59   A(32,31,34)           109.4399         calculate D2E/DX2 analytically  !
 ! A60   A(33,31,34)           109.4352         calculate D2E/DX2 analytically  !
 ! A61   A(29,35,36)           120.5025         calculate D2E/DX2 analytically  !
 ! A62   A(29,35,37)           116.5971         calculate D2E/DX2 analytically  !
 ! A63   A(36,35,37)           122.9004         calculate D2E/DX2 analytically  !
 ! A64   A(35,37,38)           120.0014         calculate D2E/DX2 analytically  !
 ! A65   A(35,37,39)           121.9002         calculate D2E/DX2 analytically  !
 ! A66   A(38,37,39)           118.0985         calculate D2E/DX2 analytically  !
 ! A67   A(37,39,40)           109.5021         calculate D2E/DX2 analytically  !
 ! A68   A(37,39,41)           109.497          calculate D2E/DX2 analytically  !
 ! A69   A(37,39,42)           109.4985         calculate D2E/DX2 analytically  !
 ! A70   A(40,39,41)           109.4429         calculate D2E/DX2 analytically  !
 ! A71   A(40,39,42)           109.4444         calculate D2E/DX2 analytically  !
 ! A72   A(41,39,42)           109.4423         calculate D2E/DX2 analytically  !
 ! D1    D(1,2,5,6)              0.0022         calculate D2E/DX2 analytically  !
 ! D2    D(1,2,5,7)            179.9987         calculate D2E/DX2 analytically  !
 ! D3    D(3,2,5,6)            120.5158         calculate D2E/DX2 analytically  !
 ! D4    D(3,2,5,7)            -59.4876         calculate D2E/DX2 analytically  !
 ! D5    D(4,2,5,6)           -120.5139         calculate D2E/DX2 analytically  !
 ! D6    D(4,2,5,7)             59.4827         calculate D2E/DX2 analytically  !
 ! D7    D(2,5,7,8)              0.0002         calculate D2E/DX2 analytically  !
 ! D8    D(2,5,7,9)           -179.997          calculate D2E/DX2 analytically  !
 ! D9    D(6,5,7,8)            179.9966         calculate D2E/DX2 analytically  !
 ! D10   D(6,5,7,9)             -0.0006         calculate D2E/DX2 analytically  !
 ! D11   D(5,7,9,10)           -60.0024         calculate D2E/DX2 analytically  !
 ! D12   D(5,7,9,11)            60.0008         calculate D2E/DX2 analytically  !
 ! D13   D(5,7,9,15)          -179.9979         calculate D2E/DX2 analytically  !
 ! D14   D(8,7,9,10)           120.0004         calculate D2E/DX2 analytically  !
 ! D15   D(8,7,9,11)          -119.9965         calculate D2E/DX2 analytically  !
 ! D16   D(8,7,9,15)             0.0048         calculate D2E/DX2 analytically  !
 ! D17   D(7,9,11,12)           60.0011         calculate D2E/DX2 analytically  !
 ! D18   D(7,9,11,13)          179.9983         calculate D2E/DX2 analytically  !
 ! D19   D(7,9,11,14)          -60.0028         calculate D2E/DX2 analytically  !
 ! D20   D(10,9,11,12)        -179.4861         calculate D2E/DX2 analytically  !
 ! D21   D(10,9,11,13)         -59.4889         calculate D2E/DX2 analytically  !
 ! D22   D(10,9,11,14)          60.5099         calculate D2E/DX2 analytically  !
 ! D23   D(15,9,11,12)         -61.9438         calculate D2E/DX2 analytically  !
 ! D24   D(15,9,11,13)          58.0534         calculate D2E/DX2 analytically  !
 ! D25   D(15,9,11,14)         178.0523         calculate D2E/DX2 analytically  !
 ! D26   D(7,9,15,16)           -0.0008         calculate D2E/DX2 analytically  !
 ! D27   D(7,9,15,17)          179.9951         calculate D2E/DX2 analytically  !
 ! D28   D(10,9,15,16)        -120.5084         calculate D2E/DX2 analytically  !
 ! D29   D(10,9,15,17)          59.4875         calculate D2E/DX2 analytically  !
 ! D30   D(11,9,15,16)         121.9467         calculate D2E/DX2 analytically  !
 ! D31   D(11,9,15,17)         -58.0575         calculate D2E/DX2 analytically  !
 ! D32   D(9,15,17,18)           0.0024         calculate D2E/DX2 analytically  !
 ! D33   D(9,15,17,19)         179.9943         calculate D2E/DX2 analytically  !
 ! D34   D(16,15,17,18)        179.9982         calculate D2E/DX2 analytically  !
 ! D35   D(16,15,17,19)         -0.0099         calculate D2E/DX2 analytically  !
 ! D36   D(15,17,19,20)          0.0099         calculate D2E/DX2 analytically  !
 ! D37   D(15,17,19,21)        120.0042         calculate D2E/DX2 analytically  !
 ! D38   D(15,17,19,25)       -119.9948         frozen, calculate D2E/DX2 analyt!
 ! D39   D(18,17,19,20)       -179.998          calculate D2E/DX2 analytically  !
 ! D40   D(18,17,19,21)        -60.0037         calculate D2E/DX2 analytically  !
 ! D41   D(18,17,19,25)         59.9973         calculate D2E/DX2 analytically  !
 ! D42   D(17,19,21,22)         60.0039         calculate D2E/DX2 analytically  !
 ! D43   D(17,19,21,23)       -179.9943         calculate D2E/DX2 analytically  !
 ! D44   D(17,19,21,24)        -59.998          calculate D2E/DX2 analytically  !
 ! D45   D(20,19,21,22)       -179.4919         calculate D2E/DX2 analytically  !
 ! D46   D(20,19,21,23)        -59.4901         calculate D2E/DX2 analytically  !
 ! D47   D(20,19,21,24)         60.5062         calculate D2E/DX2 analytically  !
 ! D48   D(25,19,21,22)        -61.9445         calculate D2E/DX2 analytically  !
 ! D49   D(25,19,21,23)         58.0573         calculate D2E/DX2 analytically  !
 ! D50   D(25,19,21,24)        178.0536         calculate D2E/DX2 analytically  !
 ! D51   D(17,19,25,26)        180.0            calculate D2E/DX2 analytically  !
 ! D52   D(17,19,25,27)          0.0            frozen, calculate D2E/DX2 analyt!
 ! D53   D(20,19,25,26)         59.4883         calculate D2E/DX2 analytically  !
 ! D54   D(20,19,25,27)       -120.5117         calculate D2E/DX2 analytically  !
 ! D55   D(21,19,25,26)        -58.0558         calculate D2E/DX2 analytically  !
 ! D56   D(21,19,25,27)        121.9442         calculate D2E/DX2 analytically  !
 ! D57   D(19,25,27,28)          0.0            calculate D2E/DX2 analytically  !
 ! D58   D(19,25,27,29)        180.0            calculate D2E/DX2 analytically  !
 ! D59   D(26,25,27,28)        180.0            calculate D2E/DX2 analytically  !
 ! D60   D(26,25,27,29)          0.0            calculate D2E/DX2 analytically  !
 ! D61   D(25,27,29,30)        -59.9996         calculate D2E/DX2 analytically  !
 ! D62   D(25,27,29,31)         60.002          calculate D2E/DX2 analytically  !
 ! D63   D(25,27,29,35)        180.0            calculate D2E/DX2 analytically  !
 ! D64   D(28,27,29,30)        120.0004         calculate D2E/DX2 analytically  !
 ! D65   D(28,27,29,31)       -119.998          calculate D2E/DX2 analytically  !
 ! D66   D(28,27,29,35)          0.0            calculate D2E/DX2 analytically  !
 ! D67   D(27,29,31,32)         59.9983         calculate D2E/DX2 analytically  !
 ! D68   D(27,29,31,33)        179.9992         calculate D2E/DX2 analytically  !
 ! D69   D(27,29,31,34)        -60.005          calculate D2E/DX2 analytically  !
 ! D70   D(30,29,31,32)       -179.4887         calculate D2E/DX2 analytically  !
 ! D71   D(30,29,31,33)        -59.4878         calculate D2E/DX2 analytically  !
 ! D72   D(30,29,31,34)         60.5079         calculate D2E/DX2 analytically  !
 ! D73   D(35,29,31,32)        -61.9409         calculate D2E/DX2 analytically  !
 ! D74   D(35,29,31,33)         58.0601         calculate D2E/DX2 analytically  !
 ! D75   D(35,29,31,34)        178.0558         calculate D2E/DX2 analytically  !
 ! D76   D(27,29,35,36)          0.0            calculate D2E/DX2 analytically  !
 ! D77   D(27,29,35,37)        180.0            calculate D2E/DX2 analytically  !
 ! D78   D(30,29,35,36)       -120.5111         calculate D2E/DX2 analytically  !
 ! D79   D(30,29,35,37)         59.4889         calculate D2E/DX2 analytically  !
 ! D80   D(31,29,35,36)        121.9417         calculate D2E/DX2 analytically  !
 ! D81   D(31,29,35,37)        -58.0583         calculate D2E/DX2 analytically  !
 ! D82   D(29,35,37,38)          0.0            calculate D2E/DX2 analytically  !
 ! D83   D(29,35,37,39)        180.0            calculate D2E/DX2 analytically  !
 ! D84   D(36,35,37,38)        180.0            calculate D2E/DX2 analytically  !
 ! D85   D(36,35,37,39)          0.0            calculate D2E/DX2 analytically  !
 ! D86   D(35,37,39,40)          0.0            calculate D2E/DX2 analytically  !
 ! D87   D(35,37,39,41)        120.0            calculate D2E/DX2 analytically  !
 ! D88   D(35,37,39,42)       -120.0028         calculate D2E/DX2 analytically  !
 ! D89   D(38,37,39,40)        180.0            calculate D2E/DX2 analytically  !
 ! D90   D(38,37,39,41)        -60.0            calculate D2E/DX2 analytically  !
 ! D91   D(38,37,39,42)         59.9972         calculate D2E/DX2 analytically  !
 --------------------------------------------------------------------------------
 Trust Radius=3.00D-01 FncErr=1.00D-07 GrdErr=1.00D-06
 Number of steps in this run= 252 maximum allowed number of steps= 252.
 GradGradGradGradGradGradGradGradGradGradGradGradGradGradGradGradGradGrad

                          Input orientation:                          
 ---------------------------------------------------------------------
 Center     Atomic      Atomic             Coordinates (Angstroms)
 Number     Number       Type             X           Y           Z
 ---------------------------------------------------------------------
      1          1           0        3.923000    1.000000   -3.330800
      2          6           0        3.923000    2.090000   -3.330800
      3          1           0        2.895500    2.453900   -3.330800
      4          1           0        4.436700    2.453900   -4.220600
      5          6           0        4.636700    2.640800   -2.094600
      6          8           0        5.118300    1.877400   -1.260500
      7          7           0        4.700700    3.969700   -1.983800
      8          1           0        4.289600    4.556200   -2.695900
      9          6           0        5.349700    4.613900   -0.859800
     10          1           0        4.856200    4.315500    0.065200
     11          6           0        6.820800    4.220800   -0.776100
     12          1           0        7.330300    4.521400   -1.691600
     13          1           0        7.282500    4.718900    0.076400
     14          1           0        6.902400    3.140900   -0.653200
     15          6           0        5.279400    6.129400   -0.981500
     16          8           0        4.723300    6.652700   -1.944600
     17          7           0        5.846000    6.834900    0.000000
     18          1           0        6.291500    6.359200    0.771600
     19          6           0        5.846100    8.283900    0.000000
     20          1           0        5.332300    8.647700   -0.889800
     21          6           0        5.134700    8.832900    1.232200
     22          1           0        5.643100    8.484600    2.131200
     23          1           0        5.149900    9.922400    1.205800
     24          1           0        4.101900    8.484600    1.241400
     25          6           0        7.266000    8.831800    0.000000
     26          8           0        7.466700   10.044300    0.000000
     27          7           0        8.253400    7.933300    0.000000
     28          1           0        8.038300    6.946500    0.000000
     29          6           0        9.647700    8.327900    0.000000
     30          1           0        9.857900    8.921300   -0.889800
     31          6           0        9.982200    9.161800    1.232100
     32          1           0        9.785500    8.577800    2.131200
     33          1           0       11.034800    9.443900    1.205800
     34          1           0        9.365900   10.060800    1.241400
     35          6           0       10.561500    7.110700    0.000000
     36          8           0       10.089200    5.976100    0.000000
     37          7           0       11.875000    7.349400    0.000000
     38          1           0       12.215500    8.300300    0.000000
     39          6           0       12.848300    6.276000    0.000000
     40          1           0       12.331600    5.316300    0.000000
     41          1           0       13.473300    6.351600   -0.889900
     42          1           0       13.473300    6.351600    0.889800
 ---------------------------------------------------------------------
                    Distance matrix (angstroms):
                    1          2          3          4          5
     1  H    0.000000
     2  C    1.090000   0.000000
     3  H    1.780332   1.090036   0.000000
     4  H    1.780297   1.089979   1.779618   0.000000
     5  C    2.174806   1.530013   2.143572   2.143550   0.000000
     6  O    2.546510   2.400017   3.091817   3.091783   1.229000
     7  N    3.352364   2.439774   2.714923   2.714889   1.335046
     8  H    3.630985   2.572865   2.601207   2.601156   2.037351
     9  C    4.604518   3.809381   4.098114   4.098066   2.434384
    10  H    4.836964   4.166117   4.340820   4.691441   2.741813
    11  C    5.029641   4.411808   5.005638   4.546477   3.000856
    12  H    5.166907   4.495373   5.160328   4.363865   3.309765
    13  H    6.060154   5.459521   5.998750   5.629655   4.003998
    14  H    4.542006   4.141347   4.867932   4.390671   2.731507
    15  C    5.802566   4.865777   4.971065   4.971037   3.717847
    16  O    5.874951   4.835314   4.784592   4.784583   4.015637
    17  N    6.988434   6.107883   6.244425   6.244418   4.841511
    18  H    7.152657   6.376954   6.604080   6.604068   4.977948
    19  C    8.236974   7.290881   7.334110   7.334083   6.139591
    20  H    8.150578   7.137789   7.089403   7.089393   6.165894
    21  C    9.145682   8.231396   8.156386   8.420919   7.046822
    22  H    9.423981   8.583886   8.587904   8.841386   7.281499
    23  H   10.084406   9.134140   9.024497   9.259210   8.011099
    24  H    8.772471   7.863074   7.663534   8.143395   6.750178
    25  C    9.143685   8.229322   8.418617   8.154509   7.044789
    26  O   10.268953   9.323247   9.465953   9.198290   8.198052
    27  N    8.827074   7.999422   8.356144   7.899651   6.743769
    28  H    7.961833   7.184394   7.597768   7.139219   5.873439
    29  C    9.877476   9.098231   9.549362   8.914699   7.863878
    30  H   10.194533   9.372736   9.811257   9.072536   8.255735
    31  C   11.142214  10.370358  10.772061  10.270367   9.064477
    32  H   11.028391  10.309893  10.714835  10.317809   8.922752
    33  H   11.935572  11.190991  11.648564  11.038154   9.905074
    34  H   11.516435  10.680067  10.983443  10.582787   9.410134
    35  C    9.617929   8.965006   9.568049   8.775672   7.711719
    36  O    8.595221   8.013615   8.674644   7.884803   6.726168
    37  N   10.707166  10.099001  10.756002   9.854323   8.885452
    38  H   11.539245  10.882445  11.495087  10.606771   9.687905
    39  C   10.889967  10.405662  11.169642  10.157604   9.221302
    40  H   10.021438   9.602489  10.408052   9.398736   8.411726
    41  H   11.216320  10.739062  11.534293  10.389695   9.659546
    42  H   11.732916  11.277541  12.037250  11.089111  10.038037
                    6          7          8          9         10
     6  O    0.000000
     7  N    2.252836   0.000000
     8  H    3.150093   1.009986   0.000000
     9  C    2.775345   1.448990   2.120944   0.000000
    10  H    2.787563   2.083785   2.828895   1.090050   0.000000
    11  C    2.936779   2.452838   3.194542   1.525014   2.139254
    12  H    3.474123   2.702693   3.202450   2.150168   3.041367
    13  H    3.813815   3.386948   4.082838   2.150165   2.459632
    14  H    2.268977   2.702756   3.605887   2.150184   2.466317
    15  C    4.264188   2.450266   2.528602   1.522003   2.136566
    16  O    4.840197   2.683382   2.268890   2.392880   3.085363
    17  N    5.166741   3.668316   3.857814   2.432778   2.707643
    18  H    5.058889   3.979018   4.391124   2.567981   2.595341
    19  C    6.569764   4.884642   4.856575   3.801916   4.090520
    20  H    6.783817   4.845559   4.592341   4.033949   4.461687
    21  C    7.388694   5.846514   5.868077   4.714091   4.674008
    22  H    7.445410   6.181073   6.369080   4.900457   4.719000
    23  H    8.414610   6.768306   6.690253   5.699719   5.729272
    24  H    7.137763   5.580753   5.565060   4.577594   4.397023
    25  C    7.386823   5.844334   5.865798   4.711915   5.119409
    26  O    8.590815   6.963260   6.890652   5.891535   6.295880
    27  N    6.934813   5.680428   5.863821   4.493233   4.963234
    28  H    5.984232   4.892481   5.199439   3.661809   4.129428
    29  C    7.982060   6.884924   7.085396   5.745072   6.249966
    30  H    8.498103   7.232696   7.302196   6.235260   6.866034
    31  C    9.106759   8.074290   8.309418   6.820520   7.150116
    32  H    8.842044   8.001437   8.347399   6.658446   6.836195
    33  H    9.916629   8.958864   9.198402   7.740540   8.110275
    34  H    9.553515   8.322710   8.460010   7.086157   7.397926
    35  C    7.655372   6.939043   7.289038   5.842613   6.353569
    36  O    6.564910   6.082519   6.551286   5.005767   5.490549
    37  N    8.785479   8.174865   8.521041   7.127535   7.646722
    38  H    9.654675   8.897290   9.170935   7.840154   8.369121
    39  C    8.982730   8.697003   9.136571   7.728573   8.229306
    40  H    8.089907   7.998714   8.515832   7.069622   7.542377
    41  H    9.484821   9.155795   9.530238   8.307429   8.905747
    42  H    9.718451   9.533600  10.021030   8.489616   8.892698
                   11         12         13         14         15
    11  C    0.000000
    12  H    1.089996   0.000000
    13  H    1.089966   1.779639   0.000000
    14  H    1.089930   1.779650   1.779572   0.000000
    15  C    2.461881   2.701129   2.668534   3.416583   0.000000
    16  O    3.417460   3.376818   3.791244   4.330003   1.229086
    17  N    2.895874   3.227528   2.558676   3.897215   1.334956
    18  H    2.692265   3.244067   2.038619   3.572213   2.037281
    19  C    4.249842   4.384149   3.844256   5.290831   2.434412
    20  H    4.671831   4.654164   4.491357   5.731146   2.520524
    21  C    5.305438   5.653167   4.782668   6.251269   3.497187
    22  H    5.293332   5.759114   4.592421   6.155798   3.920223
    23  H    6.263232   6.505373   5.735847   7.246784   4.380400
    24  H    5.444512   5.893387   5.064972   6.323562   3.445977
    25  C    4.697005   4.630896   4.113643   5.739793   3.494694
    26  O    5.910387   5.777763   5.329132   6.957157   4.590650
    27  N    4.054298   3.918506   3.358698   5.021849   3.614149
    28  H    3.084490   3.040376   2.353566   4.024864   3.040152
    29  C    5.045985   4.766686   4.315656   5.904940   4.987864
    30  H    5.597464   5.137194   5.022588   6.496459   5.363374
    31  C    6.200064   6.092118   5.325728   7.020738   6.017624
    32  H    6.018745   6.090664   5.037690   6.754630   5.999042
    33  H    6.997607   6.808029   6.138479   7.762759   6.992483
    34  H    6.682323   6.590228   5.850955   7.585734   6.090704
    35  C    4.790270   4.472878   4.059358   5.438290   5.461398
    36  O    3.790231   3.548125   3.076354   4.315174   4.911315
    37  N    5.994615   5.613679   5.293054   6.547129   6.778914
    38  H    6.807895   6.403653   6.096454   7.434723   7.333869
    39  C    6.415367   6.032284   5.780011   6.753462   7.633681
    40  H    5.671981   5.339136   5.084893   5.885172   7.166450
    41  H    6.986345   6.459784   6.474986   7.317195   8.197424
    42  H    7.181315   6.910116   6.453939   7.474368   8.407802
                   16         17         18         19         20
    16  O    0.000000
    17  N    2.252803   0.000000
    18  H    3.150101   1.010014   0.000000
    19  C    2.775421   1.449000   2.120900   0.000000
    20  H    2.337415   2.083717   2.986226   1.089993   0.000000
    21  C    3.874865   2.452808   2.769392   1.525060   2.139212
    22  H    4.562240   2.702719   2.605045   2.150233   3.041322
    23  H    4.560476   3.386911   3.766719   2.150193   2.459608
    24  H    3.727277   2.702678   3.087456   2.150253   2.466272
    25  C    3.872373   2.450308   2.767448   1.521943   2.136547
    26  O    4.776051   3.595402   3.944163   2.392771   2.701462
    27  N    4.228831   2.646140   2.631009   2.432697   3.136070
    28  H    3.854480   2.195139   1.997898   2.567952   3.317870
    29  C    5.553150   4.084357   3.966765   3.801855   4.417770
    30  H    5.711678   4.608704   4.695084   4.158433   4.533863
    31  C    6.636493   4.903130   4.657026   4.404101   5.136957
    32  H    6.778202   4.806181   4.356459   4.488570   5.381665
    33  H    7.586228   5.931651   5.674751   5.451803   6.127314
    34  H    6.581753   4.933275   4.834717   4.133696   4.775855
    35  C    6.170560   4.723559   4.403751   4.859156   5.522558
    36  O    5.747359   4.329236   3.894183   4.830097   5.527865
    37  N    7.444036   6.050913   5.722878   6.100895   6.729357
    38  H    7.913856   6.535895   6.281482   6.369421   6.949163
    39  C    8.362954   7.024569   6.602569   7.284399   7.931391
    40  H    7.965781   6.661017   6.177849   7.132206   7.802575
    41  H    8.818478   7.694232   7.371492   7.918326   8.458602
    42  H    9.202553   7.694220   7.182777   7.918315   8.643780
                   21         22         23         24         25
    21  C    0.000000
    22  H    1.089947   0.000000
    23  H    1.089926   1.779573   0.000000
    24  H    1.089988   1.779618   1.779562   0.000000
    25  C    2.461861   2.701179   2.668565   3.416599   0.000000
    26  O    2.902418   3.209392   2.614646   3.910961   1.228998
    27  N    3.471871   3.414617   3.878426   4.368061   1.335013
    28  H    3.675284   3.555945   4.318887   4.404778   2.037352
    29  C    4.705370   4.539096   4.922051   5.685202   2.434422
    30  H    5.178737   5.204007   5.249667   6.153394   2.741842
    31  C    4.858645   4.482719   4.891863   5.919173   3.000785
    32  H    4.743756   4.143448   4.914581   5.753585   3.309745
    33  H    5.931711   5.554012   5.904321   6.999045   4.004057
    34  H    4.405778   4.139492   4.218421   5.494916   2.731500
    35  C    5.825328   5.533559   6.216512   6.719755   3.717863
    36  O    5.850358   5.531943   6.436142   6.609191   4.015654
    37  N    7.010758   6.683358   7.300771   7.953039   4.841528
    38  H    7.206921   6.911760   7.349004   8.210088   4.977956
    39  C    8.219226   7.831656   8.603229   9.105960   6.139559
    40  H    8.104330   7.701699   8.616666   8.905457   6.165958
    41  H    8.955021   8.659605   9.296320   9.844555   6.743433
    42  H    8.706683   8.209921   9.062530   9.617507   6.743420
                   26         27         28         29         30
    26  O    0.000000
    27  N    2.252824   0.000000
    28  H    3.150094   1.009971   0.000000
    29  C    2.775390   1.449062   2.120951   0.000000
    30  H    2.787599   2.083821   2.828873   1.089978   0.000000
    31  C    2.936770   2.452760   3.194428   1.524910   2.139100
    32  H    3.474114   2.702725   3.202477   2.150221   3.041328
    33  H    3.813892   3.387042   4.082888   2.150222   2.459623
    34  H    2.268988   2.702774   3.605892   2.150216   2.466280
    35  C    4.264246   2.450305   2.528537   1.522040   2.136602
    36  O    4.840223   2.683429   2.268891   2.392882   3.085360
    37  N    5.166778   3.668368   3.857797   2.432761   2.707638
    38  H    5.058917   3.979061   4.391102   2.567948   2.595316
    39  C    6.569757   4.884644   4.856508   3.801859   4.090458
    40  H    6.783895   4.845658   4.592382   4.033987   4.461722
    41  H    7.106842   5.526396   5.539409   4.396919   4.435592
    42  H    7.106829   5.526380   5.539393   4.396899   4.779273
                   31         32         33         34         35
    31  C    0.000000
    32  H    1.090013   0.000000
    33  H    1.090064   1.779675   0.000000
    34  H    1.090006   1.779634   1.779624   0.000000
    35  C    2.461843   2.701217   2.668668   3.416668   0.000000
    36  O    3.417339   3.376846   3.791273   4.330013   1.228977
    37  N    2.895782   3.227536   2.558675   3.897223   1.335013
    38  H    2.692189   3.244059   2.038585   3.572206   2.037367
    39  C    4.249758   4.384181   3.844259   5.290831   2.434374
    40  H    4.671790   4.654248   4.491406   5.731207   2.520541
    41  H    4.958617   5.261452   4.461004   5.930543   3.137951
    42  H    4.494683   4.482958   3.950754   5.545496   3.137922
                   36         37         38         39         40
    36  O    0.000000
    37  N    2.252784   0.000000
    38  H    3.150088   1.010025   0.000000
    39  C    2.775351   1.448965   2.120902   0.000000
    40  H    2.337455   2.083742   2.986258   1.089955   0.000000
    41  H    3.519241   2.083768   2.484233   1.090074   1.779676
    42  H    3.519215   2.083725   2.484197   1.089993   1.779626
                   41         42
    41  H    0.000000
    42  H    1.779700   0.000000
 Stoichiometry    C12H22N4O4
 Framework group  C1[X(C12H22N4O4)]
 Deg. of freedom   120
 Full point group                 C1      NOp   1
 Largest Abelian subgroup         C1      NOp   1
 Largest concise Abelian subgroup C1      NOp   1
                         Standard orientation:                         
 ---------------------------------------------------------------------
 Center     Atomic      Atomic             Coordinates (Angstroms)
 Number     Number       Type             X           Y           Z
 ---------------------------------------------------------------------
      1          1           0       -6.570866   -2.127110   -0.491464
      2          6           0       -5.912627   -1.336957   -0.852685
      3          1           0       -6.452021   -0.389777   -0.861777
      4          1           0       -5.579452   -1.574374   -1.862974
      5          6           0       -4.682983   -1.190690    0.045936
      6          8           0       -4.538711   -1.914832    1.028404
      7          7           0       -3.800052   -0.250055   -0.297556
      8          1           0       -3.962577    0.320838   -1.114709
      9          6           0       -2.595364   -0.013167    0.471977
     10          1           0       -2.863532    0.264608    1.491357
     11          6           0       -1.720825   -1.261543    0.521052
     12          1           0       -1.436666   -1.546662   -0.491890
     13          1           0       -0.823947   -1.054676    1.104870
     14          1           0       -2.275920   -2.076608    0.985257
     15          6           0       -1.768508    1.110368   -0.136685
     16          8           0       -2.151397    1.686878   -1.152404
     17          7           0       -0.630299    1.420944    0.487920
     18          1           0       -0.357652    0.918162    1.320386
     19          6           0        0.244810    2.471273    0.007716
     20          1           0       -0.181225    2.917170   -0.891036
     21          6           0        0.419262    3.563346    1.057836
     22          1           0        0.853419    3.133927    1.960660
     23          1           0        1.080534    4.338293    0.670388
     24          1           0       -0.551386    3.999420    1.293962
     25          6           0        1.624747    1.924082   -0.327942
     26          8           0        2.505246    2.669552   -0.751539
     27          7           0        1.811675    0.616035   -0.137334
     28          1           0        1.056835    0.043755    0.213030
     29          6           0        3.080122   -0.025258   -0.419411
     30          1           0        3.327654    0.105549   -1.472819
     31          6           0        4.199336    0.577701    0.422700
     32          1           0        3.970236    0.446397    1.480244
     33          1           0        5.139521    0.077403    0.190337
     34          1           0        4.289672    1.640961    0.200372
     35          6           0        3.020212   -1.515383   -0.115201
     36          8           0        1.986090   -2.023742    0.312054
     37          7           0        4.134815   -2.215950   -0.336845
     38          1           0        4.960625   -1.753098   -0.688920
     39          6           0        4.205706   -3.641406   -0.086746
     40          1           0        3.244399   -3.993448    0.287366
     41          1           0        4.446981   -4.161857   -1.013665
     42          1           0        4.979247   -3.842736    0.654323
 ---------------------------------------------------------------------
 Rotational constants (GHZ):      0.4361723      0.1685804      0.1286702
 Standard basis: 6-31G(d) (6D, 7F)
 There are   344 symmetry adapted basis functions of A   symmetry.
 Integral buffers will be    131072 words long.
 Raffenetti 2 integral format.
 Two-electron integral symmetry is turned on.
   344 basis functions,   648 primitive gaussians,   344 cartesian basis functions
    77 alpha electrons       77 beta electrons
       nuclear repulsion energy      1640.8053641834 Hartrees.
 NAtoms=   42 NActive=   42 NUniq=   42 SFac= 7.50D-01 NAtFMM=   80 NAOKFM=F Big=F
 One-electron integrals computed using PRISM.
 NBasis=   344 RedAO= T  NBF=   344
 NBsUse=   344 1.00D-06 NBFU=   344
 Harris functional with IExCor=  402 diagonalized for initial guess.
 ExpMin= 1.61D-01 ExpMax= 5.48D+03 ExpMxC= 8.25D+02 IAcc=1 IRadAn=         1 AccDes= 0.00D+00
 HarFok:  IExCor=  402 AccDes= 0.00D+00 IRadAn=         1 IDoV= 1
 ScaDFX=  1.000000  1.000000  1.000000  1.000000
 FoFCou: FMM=F IPFlag=           0 FMFlag=      100000 FMFlg1=           0
         NFxFlg=           0 DoJE=T BraDBF=F KetDBF=T FulRan=T
         Omega=  0.000000  0.000000  1.000000  0.000000  0.000000 ICntrl=     500 IOpCl=  0
         NMat0=    1 NMatS0=    1 NMatT0=    0 NMatD0=    1 NMtDS0=    0 NMtDT0=    0
         I1Cent=           4 NGrid=           0.
 Petite list used in FoFCou.
 Initial guess orbital symmetries:
       Occupied  (A) (A) (A) (A) (A) (A) (A) (A) (A) (A) (A) (A)
                 (A) (A) (A) (A) (A) (A) (A) (A) (A) (A) (A) (A)
                 (A) (A) (A) (A) (A) (A) (A) (A) (A) (A) (A) (A)
                 (A) (A) (A) (A) (A) (A) (A) (A) (A) (A) (A) (A)
                 (A) (A) (A) (A) (A) (A) (A) (A) (A) (A) (A) (A)
                 (A) (A) (A) (A) (A) (A) (A) (A) (A) (A) (A) (A)
                 (A) (A) (A) (A) (A)
       Virtual   (A) (A) (A) (A) (A) (A) (A) (A) (A) (A) (A) (A)
                 (A) (A) (A) (A) (A) (A) (A) (A) (A) (A) (A) (A)
                 (A) (A) (A) (A) (A) (A) (A) (A) (A) (A) (A) (A)
                 (A) (A) (A) (A) (A) (A) (A) (A) (A) (A) (A) (A)
                 (A) (A) (A) (A) (A) (A) (A) (A) (A) (A) (A) (A)
                 (A) (A) (A) (A) (A) (A) (A) (A) (A) (A) (A) (A)
                 (A) (A) (A) (A) (A) (A) (A) (A) (A) (A) (A) (A)
                 (A) (A) (A) (A) (A) (A) (A) (A) (A) (A) (A) (A)
                 (A) (A) (A) (A) (A) (A) (A) (A) (A) (A) (A) (A)
                 (A) (A) (A) (A) (A) (A) (A) (A) (A) (A) (A) (A)
                 (A) (A) (A) (A) (A) (A) (A) (A) (A) (A) (A) (A)
                 (A) (A) (A) (A) (A) (A) (A) (A) (A) (A) (A) (A)
                 (A) (A) (A) (A) (A) (A) (A) (A) (A) (A) (A) (A)
                 (A) (A) (A) (A) (A) (A) (A) (A) (A) (A) (A) (A)
                 (A) (A) (A) (A) (A) (A) (A) (A) (A) (A) (A) (A)
                 (A) (A) (A) (A) (A) (A) (A) (A) (A) (A) (A) (A)
                 (A) (A) (A) (A) (A) (A) (A) (A) (A) (A) (A) (A)
                 (A) (A) (A) (A) (A) (A) (A) (A) (A) (A) (A) (A)
                 (A) (A) (A) (A) (A) (A) (A) (A) (A) (A) (A) (A)
                 (A) (A) (A) (A) (A) (A) (A) (A) (A) (A) (A) (A)
                 (A) (A) (A) (A) (A) (A) (A) (A) (A) (A) (A) (A)
                 (A) (A) (A) (A) (A) (A) (A) (A) (A) (A) (A) (A)
                 (A) (A) (A)
 The electronic state of the initial guess is 1-A.
 Requested convergence on RMS density matrix=1.00D-08 within 128 cycles.
 Requested convergence on MAX density matrix=1.00D-06.
 Requested convergence on             energy=1.00D-06.
 No special actions if energy rises.
 Integral accuracy reduced to 1.0D-05 until final iterations.
 Initial convergence to 1.0D-05 achieved.  Increase integral accuracy.
 SCF Done:  E(RB3LYP) =  -990.487958080     A.U. after   14 cycles
             Convg  =    0.9994D-08             -V/T =  2.0086
 Range of M.O.s used for correlation:     1   344
 NBasis=   344 NAE=    77 NBE=    77 NFC=     0 NFV=     0
 NROrb=    344 NOA=    77 NOB=    77 NVA=   267 NVB=   267
 Symmetrizing basis deriv contribution to polar:
 IMax=3 JMax=2 DiffMx= 0.00D+00
 G2DrvN: will do    43 centers at a time, making    1 passes doing MaxLOS=2.
 Calling FoFCou, ICntrl=  3107 FMM=F I1Cent=   0 AccDes= 0.00D+00.
 FoFDir/FoFCou used for L=0 through L=2.
 End of G2Drv Frequency-dependent properties file   721 does not exist.
 End of G2Drv Frequency-dependent properties file   722 does not exist.
          IDoAtm=111111111111111111111111111111111111111111
          Differentiating once with respect to nuclear coordinates.
          There are   129 degrees of freedom in the 1st order CPHF.  IDoFFX=5.
    123 vectors produced by pass  0 Test12= 2.06D-10 1.00D-07 XBig12= 1.83D-01 8.27D-02.
 AX will form   123 AO Fock derivatives at one time.
    123 vectors produced by pass  1 Test12= 2.06D-10 1.00D-07 XBig12= 3.20D-02 6.09D-02.
    123 vectors produced by pass  2 Test12= 2.06D-10 1.00D-07 XBig12= 5.68D-05 1.35D-03.
    123 vectors produced by pass  3 Test12= 2.06D-10 1.00D-07 XBig12= 1.01D-07 3.49D-05.
     65 vectors produced by pass  4 Test12= 2.06D-10 1.00D-07 XBig12= 8.62D-11 1.15D-06.
 Inverted reduced A of dimension   557 with in-core refinement.
 End of Minotr Frequency-dependent properties file   721 does not exist.
 End of Minotr Frequency-dependent properties file   722 does not exist.

 **********************************************************************

            Population analysis using the SCF density.

 **********************************************************************

 Orbital symmetries:
       Occupied  (A) (A) (A) (A) (A) (A) (A) (A) (A) (A) (A) (A)
                 (A) (A) (A) (A) (A) (A) (A) (A) (A) (A) (A) (A)
                 (A) (A) (A) (A) (A) (A) (A) (A) (A) (A) (A) (A)
                 (A) (A) (A) (A) (A) (A) (A) (A) (A) (A) (A) (A)
                 (A) (A) (A) (A) (A) (A) (A) (A) (A) (A) (A) (A)
                 (A) (A) (A) (A) (A) (A) (A) (A) (A) (A) (A) (A)
                 (A) (A) (A) (A) (A)
       Virtual   (A) (A) (A) (A) (A) (A) (A) (A) (A) (A) (A) (A)
                 (A) (A) (A) (A) (A) (A) (A) (A) (A) (A) (A) (A)
                 (A) (A) (A) (A) (A) (A) (A) (A) (A) (A) (A) (A)
                 (A) (A) (A) (A) (A) (A) (A) (A) (A) (A) (A) (A)
                 (A) (A) (A) (A) (A) (A) (A) (A) (A) (A) (A) (A)
                 (A) (A) (A) (A) (A) (A) (A) (A) (A) (A) (A) (A)
                 (A) (A) (A) (A) (A) (A) (A) (A) (A) (A) (A) (A)
                 (A) (A) (A) (A) (A) (A) (A) (A) (A) (A) (A) (A)
                 (A) (A) (A) (A) (A) (A) (A) (A) (A) (A) (A) (A)
                 (A) (A) (A) (A) (A) (A) (A) (A) (A) (A) (A) (A)
                 (A) (A) (A) (A) (A) (A) (A) (A) (A) (A) (A) (A)
                 (A) (A) (A) (A) (A) (A) (A) (A) (A) (A) (A) (A)
                 (A) (A) (A) (A) (A) (A) (A) (A) (A) (A) (A) (A)
                 (A) (A) (A) (A) (A) (A) (A) (A) (A) (A) (A) (A)
                 (A) (A) (A) (A) (A) (A) (A) (A) (A) (A) (A) (A)
                 (A) (A) (A) (A) (A) (A) (A) (A) (A) (A) (A) (A)
                 (A) (A) (A) (A) (A) (A) (A) (A) (A) (A) (A) (A)
                 (A) (A) (A) (A) (A) (A) (A) (A) (A) (A) (A) (A)
                 (A) (A) (A) (A) (A) (A) (A) (A) (A) (A) (A) (A)
                 (A) (A) (A) (A) (A) (A) (A) (A) (A) (A) (A) (A)
                 (A) (A) (A) (A) (A) (A) (A) (A) (A) (A) (A) (A)
                 (A) (A) (A) (A) (A) (A) (A) (A) (A) (A) (A) (A)
                 (A) (A) (A)
 The electronic state is 1-A.
 Alpha  occ. eigenvalues --  -19.12570 -19.12315 -19.10908 -19.09520 -14.38033
 Alpha  occ. eigenvalues --  -14.37861 -14.36523 -14.35233 -10.29902 -10.29662
 Alpha  occ. eigenvalues --  -10.28469 -10.27500 -10.24452 -10.23786 -10.23608
 Alpha  occ. eigenvalues --  -10.22991 -10.18715 -10.18688 -10.18209 -10.17553
 Alpha  occ. eigenvalues --   -1.05297  -1.05011  -1.03494  -1.02037  -0.95245
 Alpha  occ. eigenvalues --   -0.94303  -0.92810  -0.91986  -0.80629  -0.78779
 Alpha  occ. eigenvalues --   -0.76479  -0.72204  -0.72004  -0.67817  -0.65999
 Alpha  occ. eigenvalues --   -0.64167  -0.61615  -0.60926  -0.58380  -0.57442
 Alpha  occ. eigenvalues --   -0.57103  -0.53366  -0.50341  -0.50091  -0.49322
 Alpha  occ. eigenvalues --   -0.47683  -0.46924  -0.46464  -0.45214  -0.44695
 Alpha  occ. eigenvalues --   -0.44197  -0.44021  -0.43284  -0.42466  -0.41212
 Alpha  occ. eigenvalues --   -0.40908  -0.40829  -0.40555  -0.40005  -0.39601
 Alpha  occ. eigenvalues --   -0.38757  -0.38165  -0.37890  -0.37520  -0.37203
 Alpha  occ. eigenvalues --   -0.36784  -0.36700  -0.34875  -0.34078  -0.28456
 Alpha  occ. eigenvalues --   -0.27211  -0.26658  -0.26228  -0.25761  -0.24896
 Alpha  occ. eigenvalues --   -0.23950  -0.23261
 Alpha virt. eigenvalues --    0.01536   0.01853   0.02684   0.04004   0.05322
 Alpha virt. eigenvalues --    0.05802   0.09938   0.10987   0.11621   0.12713
 Alpha virt. eigenvalues --    0.12967   0.13598   0.14085   0.14238   0.14760
 Alpha virt. eigenvalues --    0.15066   0.15658   0.15861   0.16279   0.16800
 Alpha virt. eigenvalues --    0.17122   0.17646   0.18185   0.18572   0.18979
 Alpha virt. eigenvalues --    0.19552   0.20263   0.20700   0.21537   0.22363
 Alpha virt. eigenvalues --    0.22797   0.24006   0.24821   0.25385   0.26151
 Alpha virt. eigenvalues --    0.28596   0.30138   0.33192   0.33775   0.34525
 Alpha virt. eigenvalues --    0.36478   0.39881   0.40486   0.42820   0.45904
 Alpha virt. eigenvalues --    0.49423   0.49891   0.50289   0.51763   0.52277
 Alpha virt. eigenvalues --    0.52562   0.52932   0.53755   0.54147   0.54615
 Alpha virt. eigenvalues --    0.55526   0.55969   0.56578   0.57071   0.57707
 Alpha virt. eigenvalues --    0.58870   0.60194   0.61228   0.61650   0.63033
 Alpha virt. eigenvalues --    0.64008   0.64554   0.66083   0.67082   0.68412
 Alpha virt. eigenvalues --    0.68670   0.69414   0.70949   0.72129   0.72490
 Alpha virt. eigenvalues --    0.73153   0.73569   0.74969   0.75644   0.76527
 Alpha virt. eigenvalues --    0.77810   0.78231   0.79498   0.80838   0.82211
 Alpha virt. eigenvalues --    0.82708   0.84075   0.84360   0.85226   0.85600
 Alpha virt. eigenvalues --    0.86001   0.86660   0.87496   0.87677   0.87834
 Alpha virt. eigenvalues --    0.88458   0.88999   0.89500   0.90054   0.90319
 Alpha virt. eigenvalues --    0.91029   0.91757   0.92397   0.92838   0.93574
 Alpha virt. eigenvalues --    0.94271   0.95391   0.96006   0.96352   0.96582
 Alpha virt. eigenvalues --    0.97847   0.99279   1.00012   1.00466   1.00933
 Alpha virt. eigenvalues --    1.04608   1.06662   1.07913   1.08556   1.09412
 Alpha virt. eigenvalues --    1.10953   1.13140   1.13276   1.15694   1.17131
 Alpha virt. eigenvalues --    1.19259   1.20140   1.21049   1.23933   1.27255
 Alpha virt. eigenvalues --    1.27950   1.28953   1.31990   1.32892   1.33010
 Alpha virt. eigenvalues --    1.34978   1.36206   1.38037   1.38860   1.41462
 Alpha virt. eigenvalues --    1.42765   1.45147   1.46767   1.47105   1.48811
 Alpha virt. eigenvalues --    1.49872   1.51056   1.51996   1.56505   1.58519
 Alpha virt. eigenvalues --    1.63165   1.65082   1.65944   1.67872   1.70395
 Alpha virt. eigenvalues --    1.71356   1.71855   1.74314   1.75731   1.75870
 Alpha virt. eigenvalues --    1.77593   1.78425   1.78561   1.81027   1.82828
 Alpha virt. eigenvalues --    1.83191   1.83459   1.84162   1.84275   1.85070
 Alpha virt. eigenvalues --    1.85643   1.86779   1.87026   1.88079   1.91103
 Alpha virt. eigenvalues --    1.91416   1.92266   1.93668   1.94436   1.94839
 Alpha virt. eigenvalues --    1.95239   1.96646   1.99117   1.99968   2.02338
 Alpha virt. eigenvalues --    2.03205   2.04651   2.04972   2.06250   2.06793
 Alpha virt. eigenvalues --    2.08220   2.09652   2.11901   2.12938   2.13982
 Alpha virt. eigenvalues --    2.17535   2.17960   2.19506   2.20526   2.24373
 Alpha virt. eigenvalues --    2.24791   2.24956   2.27482   2.28487   2.29067
 Alpha virt. eigenvalues --    2.30356   2.30413   2.31782   2.31986   2.33691
 Alpha virt. eigenvalues --    2.34577   2.36410   2.40189   2.40559   2.43125
 Alpha virt. eigenvalues --    2.44334   2.44681   2.45940   2.47812   2.50739
 Alpha virt. eigenvalues --    2.53535   2.56260   2.57679   2.58903   2.60456
 Alpha virt. eigenvalues --    2.61604   2.65634   2.66173   2.69058   2.71219
 Alpha virt. eigenvalues --    2.72897   2.74152   2.76249   2.82062   2.84287
 Alpha virt. eigenvalues --    2.86317   2.90646   2.93637   2.96044   2.96936
 Alpha virt. eigenvalues --    2.99193   3.01000   3.04939   3.14332   3.16229
 Alpha virt. eigenvalues --    3.23488   3.24944   3.96087   4.00906   4.02745
 Alpha virt. eigenvalues --    4.05878   4.08223   4.10116   4.11360   4.17636
 Alpha virt. eigenvalues --    4.20772   4.21350   4.22901   4.28224   4.30133
 Alpha virt. eigenvalues --    4.38186   4.42317   4.44510   4.45919   4.60672
 Alpha virt. eigenvalues --    4.63294   4.73074
          Condensed to atoms (all electrons):
              1          2          3          4          5          6
     1  H    0.505665   0.360415  -0.021660  -0.021558  -0.018230   0.005052
     2  C    0.360415   5.326115   0.351050   0.351755   0.357576  -0.079356
     3  H   -0.021660   0.351050   0.550404  -0.026626  -0.025082   0.001468
     4  H   -0.021558   0.351755  -0.026626   0.551062  -0.026602   0.001288
     5  C   -0.018230   0.357576  -0.025082  -0.026602   4.337222   0.593413
     6  O    0.005052  -0.079356   0.001468   0.001288   0.593413   8.083855
     7  N    0.004594  -0.135134   0.004204   0.004610   0.226888  -0.107980
     8  H   -0.000144  -0.001227   0.001157   0.000858  -0.015800   0.003099
     9  C   -0.000146   0.007419  -0.000277   0.000008  -0.021555   0.013357
    10  H    0.000002   0.000150  -0.000020  -0.000002  -0.001473   0.005048
    11  C    0.000014  -0.000756   0.000017   0.000031  -0.005862  -0.018488
    12  H    0.000000  -0.000004  -0.000001   0.000002   0.000832  -0.000166
    13  H    0.000000   0.000007   0.000000  -0.000001   0.000297   0.000319
    14  H    0.000000   0.000613  -0.000008  -0.000054   0.003129   0.023492
    15  C    0.000000  -0.000050  -0.000017  -0.000014   0.006618   0.000788
    16  O    0.000000  -0.000050   0.000000  -0.000001   0.000525  -0.000005
    17  N    0.000000   0.000001   0.000000   0.000000  -0.000072  -0.000002
    18  H    0.000000   0.000000   0.000000   0.000000   0.000003   0.000003
    19  C    0.000000   0.000000   0.000000   0.000000   0.000001   0.000000
    20  H    0.000000   0.000000   0.000000   0.000000   0.000000   0.000000
    21  C    0.000000   0.000000   0.000000   0.000000   0.000000   0.000000
    22  H    0.000000   0.000000   0.000000   0.000000   0.000000   0.000000
    23  H    0.000000   0.000000   0.000000   0.000000   0.000000   0.000000
    24  H    0.000000   0.000000   0.000000   0.000000   0.000000   0.000000
    25  C    0.000000   0.000000   0.000000   0.000000   0.000000   0.000000
    26  O    0.000000   0.000000   0.000000   0.000000   0.000000   0.000000
    27  N    0.000000   0.000000   0.000000   0.000000   0.000000   0.000000
    28  H    0.000000   0.000000   0.000000   0.000000   0.000001   0.000000
    29  C    0.000000   0.000000   0.000000   0.000000   0.000000   0.000000
    30  H    0.000000   0.000000   0.000000   0.000000   0.000000   0.000000
    31  C    0.000000   0.000000   0.000000   0.000000   0.000000   0.000000
    32  H    0.000000   0.000000   0.000000   0.000000   0.000000   0.000000
    33  H    0.000000   0.000000   0.000000   0.000000   0.000000   0.000000
    34  H    0.000000   0.000000   0.000000   0.000000   0.000000   0.000000
    35  C    0.000000   0.000000   0.000000   0.000000   0.000000   0.000000
    36  O    0.000000   0.000000   0.000000   0.000000   0.000000   0.000000
    37  N    0.000000   0.000000   0.000000   0.000000   0.000000   0.000000
    38  H    0.000000   0.000000   0.000000   0.000000   0.000000   0.000000
    39  C    0.000000   0.000000   0.000000   0.000000   0.000000   0.000000
    40  H    0.000000   0.000000   0.000000   0.000000   0.000000   0.000000
    41  H    0.000000   0.000000   0.000000   0.000000   0.000000   0.000000
    42  H    0.000000   0.000000   0.000000   0.000000   0.000000   0.000000
              7          8          9         10         11         12
     1  H    0.004594  -0.000144  -0.000146   0.000002   0.000014   0.000000
     2  C   -0.135134  -0.001227   0.007419   0.000150  -0.000756  -0.000004
     3  H    0.004204   0.001157  -0.000277  -0.000020   0.000017  -0.000001
     4  H    0.004610   0.000858   0.000008  -0.000002   0.000031   0.000002
     5  C    0.226888  -0.015800  -0.021555  -0.001473  -0.005862   0.000832
     6  O   -0.107980   0.003099   0.013357   0.005048  -0.018488  -0.000166
     7  N    7.199571   0.291655   0.244375  -0.048938  -0.054509   0.000124
     8  H    0.291655   0.387163  -0.050915   0.004123   0.004374   0.000619
     9  C    0.244375  -0.050915   5.109795   0.368810   0.337681  -0.038325
    10  H   -0.048938   0.004123   0.368810   0.583421  -0.049257   0.006199
    11  C   -0.054509   0.004374   0.337681  -0.049257   5.210879   0.370890
    12  H    0.000124   0.000619  -0.038325   0.006199   0.370890   0.554318
    13  H    0.005195  -0.000119  -0.035984  -0.000387   0.350627  -0.028009
    14  H   -0.010596  -0.000290  -0.020514  -0.006090   0.359804  -0.024989
    15  C   -0.025526   0.000009   0.308000  -0.034890  -0.045500  -0.002767
    16  O   -0.008785   0.030333  -0.087892   0.001296  -0.000576   0.000949
    17  N    0.003414   0.001253  -0.120630   0.000682   0.003559  -0.000642
    18  H    0.000041  -0.000042   0.000857   0.001215   0.001277  -0.000226
    19  C   -0.000046  -0.000019   0.005853  -0.000394   0.000057  -0.000079
    20  H   -0.000005  -0.000030   0.001244  -0.000037  -0.000076  -0.000010
    21  C    0.000001   0.000000  -0.000301   0.000049   0.000000   0.000002
    22  H    0.000000   0.000000  -0.000002   0.000001  -0.000002   0.000000
    23  H    0.000000   0.000000   0.000005   0.000000   0.000000   0.000000
    24  H    0.000000   0.000000  -0.000021   0.000001   0.000000   0.000000
    25  C    0.000001   0.000000  -0.000124  -0.000006  -0.000030   0.000017
    26  O    0.000000   0.000000   0.000000   0.000000   0.000000   0.000000
    27  N    0.000000   0.000000  -0.000028  -0.000001  -0.000393  -0.000061
    28  H    0.000005   0.000000  -0.000692   0.000017   0.001452   0.000740
    29  C    0.000000   0.000000  -0.000002   0.000000   0.000038  -0.000004
    30  H    0.000000   0.000000   0.000000   0.000000  -0.000001  -0.000001
    31  C    0.000000   0.000000   0.000000   0.000000   0.000000   0.000000
    32  H    0.000000   0.000000   0.000000   0.000000   0.000000   0.000000
    33  H    0.000000   0.000000   0.000000   0.000000   0.000000   0.000000
    34  H    0.000000   0.000000   0.000000   0.000000   0.000000   0.000000
    35  C    0.000000   0.000000   0.000001   0.000000   0.000005   0.000029
    36  O    0.000000   0.000000   0.000028   0.000000  -0.000641   0.000300
    37  N    0.000000   0.000000   0.000000   0.000000  -0.000001   0.000000
    38  H    0.000000   0.000000   0.000000   0.000000   0.000000   0.000000
    39  C    0.000000   0.000000   0.000000   0.000000   0.000000   0.000000
    40  H    0.000000   0.000000   0.000000   0.000000   0.000000   0.000000
    41  H    0.000000   0.000000   0.000000   0.000000   0.000000   0.000000
    42  H    0.000000   0.000000   0.000000   0.000000   0.000000   0.000000
             13         14         15         16         17         18
     1  H    0.000000   0.000000   0.000000   0.000000   0.000000   0.000000
     2  C    0.000007   0.000613  -0.000050  -0.000050   0.000001   0.000000
     3  H    0.000000  -0.000008  -0.000017   0.000000   0.000000   0.000000
     4  H   -0.000001  -0.000054  -0.000014  -0.000001   0.000000   0.000000
     5  C    0.000297   0.003129   0.006618   0.000525  -0.000072   0.000003
     6  O    0.000319   0.023492   0.000788  -0.000005  -0.000002   0.000003
     7  N    0.005195  -0.010596  -0.025526  -0.008785   0.003414   0.000041
     8  H   -0.000119  -0.000290   0.000009   0.030333   0.001253  -0.000042
     9  C   -0.035984  -0.020514   0.308000  -0.087892  -0.120630   0.000857
    10  H   -0.000387  -0.006090  -0.034890   0.001296   0.000682   0.001215
    11  C    0.350627   0.359804  -0.045500  -0.000576   0.003559   0.001277
    12  H   -0.028009  -0.024989  -0.002767   0.000949  -0.000642  -0.000226
    13  H    0.589918  -0.019830  -0.008724   0.000007   0.001244   0.006973
    14  H   -0.019830   0.479021   0.003934  -0.000086   0.000170  -0.000248
    15  C   -0.008724   0.003934   4.379875   0.597363   0.244351  -0.021405
    16  O    0.000007  -0.000086   0.597363   8.083209  -0.106401   0.003388
    17  N    0.001244   0.000170   0.244351  -0.106401   7.263931   0.289140
    18  H    0.006973  -0.000248  -0.021405   0.003388   0.289140   0.404384
    19  C    0.000379   0.000005  -0.015716  -0.001628   0.174025  -0.025484
    20  H   -0.000010   0.000001  -0.000696   0.020740  -0.042299   0.004516
    21  C   -0.000016   0.000000   0.001206   0.000243  -0.056041  -0.003064
    22  H   -0.000010   0.000000  -0.000107  -0.000014  -0.004209   0.004630
    23  H    0.000000   0.000000  -0.000059  -0.000012   0.004786  -0.000086
    24  H    0.000001   0.000000   0.001026   0.000170  -0.000808  -0.000075
    25  C   -0.000035  -0.000001  -0.000108   0.000178  -0.043072  -0.002510
    26  O    0.000000   0.000000  -0.000005  -0.000001   0.002617  -0.000097
    27  N   -0.000698   0.000004   0.001683   0.000006  -0.008103   0.004533
    28  H    0.004896   0.000005   0.000023  -0.000185   0.020052  -0.000379
    29  C   -0.000117   0.000000  -0.000005   0.000000   0.000665  -0.000103
    30  H    0.000001   0.000000  -0.000002   0.000000  -0.000042   0.000022
    31  C   -0.000001   0.000000   0.000001   0.000000   0.000005  -0.000040
    32  H    0.000000   0.000000   0.000000   0.000000  -0.000016   0.000031
    33  H    0.000000   0.000000   0.000000   0.000000   0.000000   0.000001
    34  H    0.000000   0.000000   0.000000   0.000000  -0.000019  -0.000002
    35  C    0.000117  -0.000001  -0.000004   0.000000  -0.000142  -0.000020
    36  O    0.002953   0.000013  -0.000002   0.000000  -0.000089  -0.000133
    37  N    0.000006   0.000000   0.000000   0.000000   0.000000   0.000000
    38  H    0.000000   0.000000   0.000000   0.000000   0.000000   0.000000
    39  C    0.000000   0.000000   0.000000   0.000000   0.000000   0.000000
    40  H   -0.000002   0.000000   0.000000   0.000000   0.000000   0.000000
    41  H    0.000000   0.000000   0.000000   0.000000   0.000000   0.000000
    42  H    0.000000   0.000000   0.000000   0.000000   0.000000   0.000000
             19         20         21         22         23         24
     1  H    0.000000   0.000000   0.000000   0.000000   0.000000   0.000000
     2  C    0.000000   0.000000   0.000000   0.000000   0.000000   0.000000
     3  H    0.000000   0.000000   0.000000   0.000000   0.000000   0.000000
     4  H    0.000000   0.000000   0.000000   0.000000   0.000000   0.000000
     5  C    0.000001   0.000000   0.000000   0.000000   0.000000   0.000000
     6  O    0.000000   0.000000   0.000000   0.000000   0.000000   0.000000
     7  N   -0.000046  -0.000005   0.000001   0.000000   0.000000   0.000000
     8  H   -0.000019  -0.000030   0.000000   0.000000   0.000000   0.000000
     9  C    0.005853   0.001244  -0.000301  -0.000002   0.000005  -0.000021
    10  H   -0.000394  -0.000037   0.000049   0.000001   0.000000   0.000001
    11  C    0.000057  -0.000076   0.000000  -0.000002   0.000000   0.000000
    12  H   -0.000079  -0.000010   0.000002   0.000000   0.000000   0.000000
    13  H    0.000379  -0.000010  -0.000016  -0.000010   0.000000   0.000001
    14  H    0.000005   0.000001   0.000000   0.000000   0.000000   0.000000
    15  C   -0.015716  -0.000696   0.001206  -0.000107  -0.000059   0.001026
    16  O   -0.001628   0.020740   0.000243  -0.000014  -0.000012   0.000170
    17  N    0.174025  -0.042299  -0.056041  -0.004209   0.004786  -0.000808
    18  H   -0.025484   0.004516  -0.003064   0.004630  -0.000086  -0.000075
    19  C    5.154464   0.368328   0.353243  -0.034315  -0.031614  -0.033396
    20  H    0.368328   0.488109  -0.033027   0.004791  -0.001258  -0.004314
    21  C    0.353243  -0.033027   5.117700   0.370075   0.368056   0.370444
    22  H   -0.034315   0.004791   0.370075   0.580509  -0.023472  -0.031149
    23  H   -0.031614  -0.001258   0.368056  -0.023472   0.511362  -0.023870
    24  H   -0.033396  -0.004314   0.370444  -0.031149  -0.023870   0.556491
    25  C    0.347604  -0.026818  -0.042395  -0.006881  -0.002212   0.005361
    26  O   -0.079367   0.000917  -0.001395  -0.000162   0.009634   0.000196
    27  N   -0.121398   0.001294  -0.000943   0.001666   0.000607  -0.000102
    28  H   -0.009009   0.000015   0.000728  -0.000065  -0.000065  -0.000023
    29  C    0.007349  -0.000165  -0.000104  -0.000108  -0.000021   0.000002
    30  H    0.000108   0.000035  -0.000026   0.000003  -0.000001   0.000000
    31  C   -0.000941  -0.000006   0.000067   0.000030   0.000017   0.000000
    32  H    0.000066   0.000002  -0.000029   0.000052  -0.000002   0.000000
    33  H    0.000011   0.000000  -0.000001   0.000000   0.000000   0.000000
    34  H    0.000414  -0.000005   0.000014  -0.000010  -0.000009   0.000001
    35  C    0.000082  -0.000001  -0.000001  -0.000002   0.000000   0.000000
    36  O   -0.000020   0.000000   0.000000   0.000000   0.000000   0.000000
    37  N    0.000001   0.000000   0.000000   0.000000   0.000000   0.000000
    38  H    0.000000   0.000000   0.000000   0.000000   0.000000   0.000000
    39  C    0.000000   0.000000   0.000000   0.000000   0.000000   0.000000
    40  H    0.000000   0.000000   0.000000   0.000000   0.000000   0.000000
    41  H    0.000000   0.000000   0.000000   0.000000   0.000000   0.000000
    42  H    0.000000   0.000000   0.000000   0.000000   0.000000   0.000000
             25         26         27         28         29         30
     1  H    0.000000   0.000000   0.000000   0.000000   0.000000   0.000000
     2  C    0.000000   0.000000   0.000000   0.000000   0.000000   0.000000
     3  H    0.000000   0.000000   0.000000   0.000000   0.000000   0.000000
     4  H    0.000000   0.000000   0.000000   0.000000   0.000000   0.000000
     5  C    0.000000   0.000000   0.000000   0.000001   0.000000   0.000000
     6  O    0.000000   0.000000   0.000000   0.000000   0.000000   0.000000
     7  N    0.000001   0.000000   0.000000   0.000005   0.000000   0.000000
     8  H    0.000000   0.000000   0.000000   0.000000   0.000000   0.000000
     9  C   -0.000124   0.000000  -0.000028  -0.000692  -0.000002   0.000000
    10  H   -0.000006   0.000000  -0.000001   0.000017   0.000000   0.000000
    11  C   -0.000030   0.000000  -0.000393   0.001452   0.000038  -0.000001
    12  H    0.000017   0.000000  -0.000061   0.000740  -0.000004  -0.000001
    13  H   -0.000035   0.000000  -0.000698   0.004896  -0.000117   0.000001
    14  H   -0.000001   0.000000   0.000004   0.000005   0.000000   0.000000
    15  C   -0.000108  -0.000005   0.001683   0.000023  -0.000005  -0.000002
    16  O    0.000178  -0.000001   0.000006  -0.000185   0.000000   0.000000
    17  N   -0.043072   0.002617  -0.008103   0.020052   0.000665  -0.000042
    18  H   -0.002510  -0.000097   0.004533  -0.000379  -0.000103   0.000022
    19  C    0.347604  -0.079367  -0.121398  -0.009009   0.007349   0.000108
    20  H   -0.026818   0.000917   0.001294   0.000015  -0.000165   0.000035
    21  C   -0.042395  -0.001395  -0.000943   0.000728  -0.000104  -0.000026
    22  H   -0.006881  -0.000162   0.001666  -0.000065  -0.000108   0.000003
    23  H   -0.002212   0.009634   0.000607  -0.000065  -0.000021  -0.000001
    24  H    0.005361   0.000196  -0.000102  -0.000023   0.000002   0.000000
    25  C    4.343425   0.549962   0.289156  -0.016535  -0.027955  -0.000731
    26  O    0.549962   8.139369  -0.100919   0.003102   0.011661   0.004707
    27  N    0.289156  -0.100919   7.185976   0.269430   0.248553  -0.047792
    28  H   -0.016535   0.003102   0.269430   0.379804  -0.050236   0.003689
    29  C   -0.027955   0.011661   0.248553  -0.050236   5.094050   0.370967
    30  H   -0.000731   0.004707  -0.047792   0.003689   0.370967   0.572448
    31  C   -0.005315  -0.017055  -0.055191   0.004537   0.348293  -0.048517
    32  H    0.000739  -0.000176   0.000170   0.000586  -0.038091   0.006179
    33  H    0.000324   0.000297   0.005170  -0.000126  -0.035992  -0.000261
    34  H    0.003198   0.021984  -0.009861  -0.000348  -0.021675  -0.005972
    35  C    0.005664   0.000667  -0.024919   0.000618   0.310432  -0.033370
    36  O    0.000679  -0.000004  -0.008727   0.031174  -0.088807   0.001268
    37  N   -0.000057  -0.000001   0.003257   0.001200  -0.121772   0.000881
    38  H   -0.000001   0.000003   0.000075  -0.000048   0.000825   0.001036
    39  C    0.000001   0.000000  -0.000067  -0.000012   0.005775  -0.000265
    40  H    0.000000   0.000000   0.000000  -0.000032   0.001177  -0.000034
    41  H    0.000000   0.000000   0.000000   0.000000  -0.000196   0.000020
    42  H    0.000000   0.000000   0.000001   0.000000  -0.000031  -0.000006
             31         32         33         34         35         36
     1  H    0.000000   0.000000   0.000000   0.000000   0.000000   0.000000
     2  C    0.000000   0.000000   0.000000   0.000000   0.000000   0.000000
     3  H    0.000000   0.000000   0.000000   0.000000   0.000000   0.000000
     4  H    0.000000   0.000000   0.000000   0.000000   0.000000   0.000000
     5  C    0.000000   0.000000   0.000000   0.000000   0.000000   0.000000
     6  O    0.000000   0.000000   0.000000   0.000000   0.000000   0.000000
     7  N    0.000000   0.000000   0.000000   0.000000   0.000000   0.000000
     8  H    0.000000   0.000000   0.000000   0.000000   0.000000   0.000000
     9  C    0.000000   0.000000   0.000000   0.000000   0.000001   0.000028
    10  H    0.000000   0.000000   0.000000   0.000000   0.000000   0.000000
    11  C    0.000000   0.000000   0.000000   0.000000   0.000005  -0.000641
    12  H    0.000000   0.000000   0.000000   0.000000   0.000029   0.000300
    13  H   -0.000001   0.000000   0.000000   0.000000   0.000117   0.002953
    14  H    0.000000   0.000000   0.000000   0.000000  -0.000001   0.000013
    15  C    0.000001   0.000000   0.000000   0.000000  -0.000004  -0.000002
    16  O    0.000000   0.000000   0.000000   0.000000   0.000000   0.000000
    17  N    0.000005  -0.000016   0.000000  -0.000019  -0.000142  -0.000089
    18  H   -0.000040   0.000031   0.000001  -0.000002  -0.000020  -0.000133
    19  C   -0.000941   0.000066   0.000011   0.000414   0.000082  -0.000020
    20  H   -0.000006   0.000002   0.000000  -0.000005  -0.000001   0.000000
    21  C    0.000067  -0.000029  -0.000001   0.000014  -0.000001   0.000000
    22  H    0.000030   0.000052   0.000000  -0.000010  -0.000002   0.000000
    23  H    0.000017  -0.000002   0.000000  -0.000009   0.000000   0.000000
    24  H    0.000000   0.000000   0.000000   0.000001   0.000000   0.000000
    25  C   -0.005315   0.000739   0.000324   0.003198   0.005664   0.000679
    26  O   -0.017055  -0.000176   0.000297   0.021984   0.000667  -0.000004
    27  N   -0.055191   0.000170   0.005170  -0.009861  -0.024919  -0.008727
    28  H    0.004537   0.000586  -0.000126  -0.000348   0.000618   0.031174
    29  C    0.348293  -0.038091  -0.035992  -0.021675   0.310432  -0.088807
    30  H   -0.048517   0.006179  -0.000261  -0.005972  -0.033370   0.001268
    31  C    5.194314   0.368204   0.353790   0.361955  -0.045072  -0.000648
    32  H    0.368204   0.565016  -0.026606  -0.026221  -0.002916   0.000992
    33  H    0.353790  -0.026606   0.597189  -0.021445  -0.008048  -0.000024
    34  H    0.361955  -0.026221  -0.021445   0.482758   0.003758  -0.000090
    35  C   -0.045072  -0.002916  -0.008048   0.003758   4.366684   0.592597
    36  O   -0.000648   0.000992  -0.000024  -0.000090   0.592597   8.093105
    37  N    0.002588  -0.000427   0.003452   0.000225   0.273067  -0.100733
    38  H    0.000689  -0.000111   0.006987  -0.000191  -0.021634   0.003547
    39  C    0.000017  -0.000073   0.000074   0.000005  -0.024550  -0.008919
    40  H   -0.000070  -0.000007  -0.000005   0.000001  -0.001377   0.020590
    41  H   -0.000004   0.000001   0.000004   0.000000   0.001311   0.000564
    42  H    0.000011   0.000002   0.000001  -0.000002   0.001353   0.000568
             37         38         39         40         41         42
     1  H    0.000000   0.000000   0.000000   0.000000   0.000000   0.000000
     2  C    0.000000   0.000000   0.000000   0.000000   0.000000   0.000000
     3  H    0.000000   0.000000   0.000000   0.000000   0.000000   0.000000
     4  H    0.000000   0.000000   0.000000   0.000000   0.000000   0.000000
     5  C    0.000000   0.000000   0.000000   0.000000   0.000000   0.000000
     6  O    0.000000   0.000000   0.000000   0.000000   0.000000   0.000000
     7  N    0.000000   0.000000   0.000000   0.000000   0.000000   0.000000
     8  H    0.000000   0.000000   0.000000   0.000000   0.000000   0.000000
     9  C    0.000000   0.000000   0.000000   0.000000   0.000000   0.000000
    10  H    0.000000   0.000000   0.000000   0.000000   0.000000   0.000000
    11  C   -0.000001   0.000000   0.000000   0.000000   0.000000   0.000000
    12  H    0.000000   0.000000   0.000000   0.000000   0.000000   0.000000
    13  H    0.000006   0.000000   0.000000  -0.000002   0.000000   0.000000
    14  H    0.000000   0.000000   0.000000   0.000000   0.000000   0.000000
    15  C    0.000000   0.000000   0.000000   0.000000   0.000000   0.000000
    16  O    0.000000   0.000000   0.000000   0.000000   0.000000   0.000000
    17  N    0.000000   0.000000   0.000000   0.000000   0.000000   0.000000
    18  H    0.000000   0.000000   0.000000   0.000000   0.000000   0.000000
    19  C    0.000001   0.000000   0.000000   0.000000   0.000000   0.000000
    20  H    0.000000   0.000000   0.000000   0.000000   0.000000   0.000000
    21  C    0.000000   0.000000   0.000000   0.000000   0.000000   0.000000
    22  H    0.000000   0.000000   0.000000   0.000000   0.000000   0.000000
    23  H    0.000000   0.000000   0.000000   0.000000   0.000000   0.000000
    24  H    0.000000   0.000000   0.000000   0.000000   0.000000   0.000000
    25  C   -0.000057  -0.000001   0.000001   0.000000   0.000000   0.000000
    26  O   -0.000001   0.000003   0.000000   0.000000   0.000000   0.000000
    27  N    0.003257   0.000075  -0.000067   0.000000   0.000000   0.000001
    28  H    0.001200  -0.000048  -0.000012  -0.000032   0.000000   0.000000
    29  C   -0.121772   0.000825   0.005775   0.001177  -0.000196  -0.000031
    30  H    0.000881   0.001036  -0.000265  -0.000034   0.000020  -0.000006
    31  C    0.002588   0.000689   0.000017  -0.000070  -0.000004   0.000011
    32  H   -0.000427  -0.000111  -0.000073  -0.000007   0.000001   0.000002
    33  H    0.003452   0.006987   0.000074  -0.000005   0.000004   0.000001
    34  H    0.000225  -0.000191   0.000005   0.000001   0.000000  -0.000002
    35  C    0.273067  -0.021634  -0.024550  -0.001377   0.001311   0.001353
    36  O   -0.100733   0.003547  -0.008919   0.020590   0.000564   0.000568
    37  N    7.081716   0.303645   0.264902  -0.036426  -0.043008  -0.044137
    38  H    0.303645   0.399858  -0.030473   0.003649  -0.001465  -0.000247
[...]
    30  H    0.000000   0.000000  -0.000001   0.000000  -0.000044   0.000005
    31  C    0.000000   0.000000   0.000000   0.000000  -0.000002  -0.000008
    32  H    0.000000   0.000000   0.000000   0.000000  -0.000006   0.000009
    33  H    0.000000   0.000000   0.000000   0.000000   0.000000   0.000000
    34  H    0.000000   0.000000   0.000000   0.000000  -0.000010   0.000000
    35  C   -0.000012   0.000000  -0.000001   0.000000  -0.000143   0.000000
    36  O    0.004747   0.000010   0.000001   0.000000  -0.000132  -0.000006
    37  N    0.000007   0.000000   0.000000   0.000000   0.000000   0.000000
    38  H    0.000000   0.000000   0.000000   0.000000   0.000000   0.000000
    39  C    0.000000   0.000000   0.000000   0.000000   0.000000   0.000000
    40  H   -0.000003   0.000000   0.000000   0.000000   0.000000   0.000000
    41  H    0.000000   0.000000   0.000000   0.000000   0.000000   0.000000
    42  H    0.000000   0.000000   0.000000   0.000000   0.000000   0.000000
             19         20         21         22         23         24
     1  H    0.000000   0.000000   0.000000   0.000000   0.000000   0.000000
     2  C    0.000000   0.000000   0.000000   0.000000   0.000000   0.000000
     3  H    0.000000   0.000000   0.000000   0.000000   0.000000   0.000000
     4  H    0.000000   0.000000   0.000000   0.000000   0.000000   0.000000
     5  C    0.000002   0.000000   0.000000   0.000000   0.000000   0.000000
     6  O    0.000000   0.000000   0.000000   0.000000   0.000000   0.000000
     7  N   -0.000083   0.000004   0.000005   0.000000   0.000000   0.000000
     8  H   -0.000015  -0.000041   0.000001   0.000000   0.000000  -0.000001
     9  C    0.005081   0.001184  -0.000223  -0.000007   0.000004  -0.000020
    10  H   -0.000162  -0.000045   0.000019   0.000000   0.000000  -0.000001
    11  C   -0.000172  -0.000039  -0.000004   0.000000   0.000000   0.000001
    12  H   -0.000005  -0.000009   0.000000   0.000000   0.000000   0.000000
    13  H   -0.000023  -0.000001   0.000001   0.000000   0.000000   0.000000
    14  H    0.000004   0.000001   0.000000   0.000000   0.000000   0.000000
    15  C   -0.014923  -0.001297   0.000708  -0.000122  -0.000056   0.001069
    16  O   -0.002764   0.021060   0.000204  -0.000010  -0.000009   0.000168
    17  N    0.180271  -0.047950  -0.051217  -0.004428   0.004446  -0.000253
    18  H   -0.027889   0.004879  -0.002013   0.004682  -0.000097  -0.000120
    19  C    5.135529   0.367371   0.355426  -0.033823  -0.032085  -0.031248
    20  H    0.367371   0.502849  -0.030472   0.004385  -0.000979  -0.004902
    21  C    0.355426  -0.030472   5.113287   0.370181   0.367260   0.370611
    22  H   -0.033823   0.004385   0.370181   0.578732  -0.024507  -0.032590
    23  H   -0.032085  -0.000979   0.367260  -0.024507   0.509963  -0.023785
    24  H   -0.031248  -0.004902   0.370611  -0.032590  -0.023785   0.556844
    25  C    0.339382  -0.030354  -0.038046  -0.004927  -0.002105   0.004529
    26  O   -0.077574   0.001178  -0.002762   0.000145   0.010958   0.000165
    27  N   -0.111672   0.001211   0.000317   0.000935   0.000557  -0.000094
    28  H   -0.007685   0.000164   0.000534  -0.000028  -0.000048  -0.000011
    29  C    0.006926  -0.000175  -0.000094  -0.000051  -0.000020   0.000002
    30  H    0.000401   0.000029  -0.000028   0.000001  -0.000002   0.000000
    31  C   -0.000491  -0.000004   0.000033   0.000009   0.000006   0.000000
    32  H    0.000023   0.000001  -0.000006   0.000004   0.000000   0.000000
    33  H    0.000006   0.000000  -0.000001   0.000000   0.000000   0.000000
    34  H    0.000132  -0.000001   0.000009   0.000001  -0.000008   0.000000
    35  C    0.000060  -0.000001   0.000000   0.000000   0.000000   0.000000
    36  O   -0.000025   0.000000   0.000000   0.000000   0.000000   0.000000
    37  N    0.000002   0.000000   0.000000   0.000000   0.000000   0.000000
    38  H    0.000000   0.000000   0.000000   0.000000   0.000000   0.000000
    39  C    0.000000   0.000000   0.000000   0.000000   0.000000   0.000000
    40  H    0.000000   0.000000   0.000000   0.000000   0.000000   0.000000
    41  H    0.000000   0.000000   0.000000   0.000000   0.000000   0.000000
    42  H    0.000000   0.000000   0.000000   0.000000   0.000000   0.000000
             25         26         27         28         29         30
     1  H    0.000000   0.000000   0.000000   0.000000   0.000000   0.000000
     2  C    0.000000   0.000000   0.000000   0.000000   0.000000   0.000000
     3  H    0.000000   0.000000   0.000000   0.000000   0.000000   0.000000
     4  H    0.000000   0.000000   0.000000   0.000000   0.000000   0.000000
     5  C    0.000000   0.000000   0.000000   0.000000   0.000000   0.000000
     6  O    0.000000   0.000000   0.000000   0.000000   0.000000   0.000000
     7  N    0.000000   0.000000   0.000000   0.000007   0.000000   0.000000
     8  H    0.000000   0.000000   0.000000   0.000000   0.000000   0.000000
     9  C   -0.000139   0.000000  -0.000054  -0.000085   0.000001   0.000000
    10  H   -0.000009   0.000000   0.000004  -0.000019   0.000000   0.000000
    11  C    0.000033   0.000000  -0.000052   0.000257   0.000009   0.000000
    12  H   -0.000001   0.000000   0.000002   0.000004   0.000000   0.000000
    13  H   -0.000002   0.000000  -0.000397   0.003224  -0.000050   0.000000
    14  H   -0.000001   0.000000   0.000001  -0.000005   0.000000   0.000000
    15  C    0.000257  -0.000008   0.000981   0.000112  -0.000005  -0.000001
    16  O    0.000094  -0.000001   0.000014  -0.000188   0.000000   0.000000
    17  N   -0.037258   0.002320  -0.005915   0.019657   0.000343  -0.000044
    18  H   -0.001438  -0.000043   0.002065  -0.000099  -0.000079   0.000005
    19  C    0.339382  -0.077574  -0.111672  -0.007685   0.006926   0.000401
    20  H   -0.030354   0.001178   0.001211   0.000164  -0.000175   0.000029
    21  C   -0.038046  -0.002762   0.000317   0.000534  -0.000094  -0.000028
    22  H   -0.004927   0.000145   0.000935  -0.000028  -0.000051   0.000001
    23  H   -0.002105   0.010958   0.000557  -0.000048  -0.000020  -0.000002
    24  H    0.004529   0.000165  -0.000094  -0.000011   0.000002   0.000000
    25  C    4.351030   0.551788   0.285313  -0.014493  -0.023460   0.000759
    26  O    0.551788   8.122689  -0.096290   0.002549   0.008831   0.009081
    27  N    0.285313  -0.096290   7.178441   0.270245   0.253391  -0.052726
    28  H   -0.014493   0.002549   0.270245   0.369157  -0.052544   0.003768
    29  C   -0.023460   0.008831   0.253391  -0.052544   5.078210   0.372097
    30  H    0.000759   0.009081  -0.052726   0.003768   0.372097   0.573114
    31  C   -0.004849  -0.006042  -0.052948   0.004015   0.348783  -0.047888
    32  H    0.000461  -0.000026  -0.000067   0.000619  -0.034363   0.005483
    33  H    0.000081   0.000022   0.004728  -0.000118  -0.030018  -0.000011
    34  H    0.003913   0.009697  -0.008997  -0.000225  -0.022539  -0.004919
    35  C    0.005269   0.000523  -0.028270  -0.001897   0.307123  -0.035338
    36  O    0.000763  -0.000005  -0.014863   0.038281  -0.081682   0.001807
    37  N   -0.000051  -0.000001   0.002759   0.001610  -0.111241   0.001373
    38  H   -0.000006   0.000002   0.000080  -0.000068   0.001566   0.001875
    39  C    0.000001   0.000000  -0.000089  -0.000017   0.005630  -0.000120
    40  H    0.000000   0.000000   0.000007  -0.000045   0.001064  -0.000033
    41  H    0.000000   0.000000   0.000002   0.000000  -0.000154   0.000007
    42  H    0.000000   0.000000   0.000000   0.000000  -0.000088  -0.000006
             31         32         33         34         35         36
     1  H    0.000000   0.000000   0.000000   0.000000   0.000000   0.000000
     2  C    0.000000   0.000000   0.000000   0.000000   0.000000   0.000000
     3  H    0.000000   0.000000   0.000000   0.000000   0.000000   0.000000
     4  H    0.000000   0.000000   0.000000   0.000000   0.000000   0.000000
     5  C    0.000000   0.000000   0.000000   0.000000   0.000000   0.000000
     6  O    0.000000   0.000000   0.000000   0.000000   0.000000   0.000000
     7  N    0.000000   0.000000   0.000000   0.000000   0.000000   0.000000
     8  H    0.000000   0.000000   0.000000   0.000000   0.000000   0.000000
     9  C    0.000000   0.000000   0.000000   0.000000  -0.000002   0.000007
    10  H    0.000000   0.000000   0.000000   0.000000   0.000000  -0.000001
    11  C    0.000000   0.000000   0.000000   0.000000   0.000026  -0.000967
    12  H    0.000000   0.000000   0.000000   0.000000   0.000005   0.000012
    13  H    0.000000   0.000000   0.000000   0.000000  -0.000012   0.004747
    14  H    0.000000   0.000000   0.000000   0.000000   0.000000   0.000010
    15  C    0.000000   0.000000   0.000000   0.000000  -0.000001   0.000001
    16  O    0.000000   0.000000   0.000000   0.000000   0.000000   0.000000
    17  N   -0.000002  -0.000006   0.000000  -0.000010  -0.000143  -0.000132
    18  H   -0.000008   0.000009   0.000000   0.000000   0.000000  -0.000006
    19  C   -0.000491   0.000023   0.000006   0.000132   0.000060  -0.000025
    20  H   -0.000004   0.000001   0.000000  -0.000001  -0.000001   0.000000
    21  C    0.000033  -0.000006  -0.000001   0.000009   0.000000   0.000000
    22  H    0.000009   0.000004   0.000000   0.000001   0.000000   0.000000
    23  H    0.000006   0.000000   0.000000  -0.000008   0.000000   0.000000
    24  H    0.000000   0.000000   0.000000   0.000000   0.000000   0.000000
    25  C   -0.004849   0.000461   0.000081   0.003913   0.005269   0.000763
    26  O   -0.006042  -0.000026   0.000022   0.009697   0.000523  -0.000005
    27  N   -0.052948  -0.000067   0.004728  -0.008997  -0.028270  -0.014863
    28  H    0.004015   0.000619  -0.000118  -0.000225  -0.001897   0.038281
    29  C    0.348783  -0.034363  -0.030018  -0.022539   0.307123  -0.081682
    30  H   -0.047888   0.005483  -0.000011  -0.004919  -0.035338   0.001807
    31  C    5.143977   0.370113   0.356187   0.369105  -0.034559  -0.001474
    32  H    0.370113   0.556869  -0.027589  -0.027093  -0.004012   0.001385
    33  H    0.356187  -0.027589   0.584298  -0.025502  -0.003748  -0.000014
    34  H    0.369105  -0.027093  -0.025502   0.510128   0.003627  -0.000082
    35  C   -0.034559  -0.004012  -0.003748   0.003627   4.375996   0.568913
    36  O   -0.001474   0.001385  -0.000014  -0.000082   0.568913   8.090840
    37  N    0.000890  -0.000004   0.003238   0.000046   0.285692  -0.091699
    38  H    0.000391  -0.000031   0.002584  -0.000091  -0.022354   0.003261
    39  C   -0.000216  -0.000010  -0.000049   0.000005  -0.022868  -0.007523
    40  H   -0.000041  -0.000007  -0.000001   0.000001  -0.001462   0.019415
    41  H   -0.000005   0.000000   0.000004   0.000000   0.000798   0.000427
    42  H    0.000031  -0.000001  -0.000011  -0.000001   0.001417   0.000442
             37         38         39         40         41         42
     1  H    0.000000   0.000000   0.000000   0.000000   0.000000   0.000000
     2  C    0.000000   0.000000   0.000000   0.000000   0.000000   0.000000
     3  H    0.000000   0.000000   0.000000   0.000000   0.000000   0.000000
     4  H    0.000000   0.000000   0.000000   0.000000   0.000000   0.000000
     5  C    0.000000   0.000000   0.000000   0.000000   0.000000   0.000000
     6  O    0.000000   0.000000   0.000000   0.000000   0.000000   0.000000
     7  N    0.000000   0.000000   0.000000   0.000000   0.000000   0.000000
     8  H    0.000000   0.000000   0.000000   0.000000   0.000000   0.000000
     9  C    0.000000   0.000000   0.000000   0.000000   0.000000   0.000000
    10  H    0.000000   0.000000   0.000000   0.000000   0.000000   0.000000
    11  C   -0.000001   0.000000   0.000000   0.000001   0.000000   0.000000
    12  H    0.000000   0.000000   0.000000   0.000000   0.000000   0.000000
    13  H    0.000007   0.000000   0.000000  -0.000003   0.000000   0.000000
    14  H    0.000000   0.000000   0.000000   0.000000   0.000000   0.000000
    15  C    0.000000   0.000000   0.000000   0.000000   0.000000   0.000000
    16  O    0.000000   0.000000   0.000000   0.000000   0.000000   0.000000
    17  N    0.000000   0.000000   0.000000   0.000000   0.000000   0.000000
    18  H    0.000000   0.000000   0.000000   0.000000   0.000000   0.000000
    19  C    0.000002   0.000000   0.000000   0.000000   0.000000   0.000000
    20  H    0.000000   0.000000   0.000000   0.000000   0.000000   0.000000
    21  C    0.000000   0.000000   0.000000   0.000000   0.000000   0.000000
    22  H    0.000000   0.000000   0.000000   0.000000   0.000000   0.000000
    23  H    0.000000   0.000000   0.000000   0.000000   0.000000   0.000000
    24  H    0.000000   0.000000   0.000000   0.000000   0.000000   0.000000
    25  C   -0.000051  -0.000006   0.000001   0.000000   0.000000   0.000000
    26  O   -0.000001   0.000002   0.000000   0.000000   0.000000   0.000000
    27  N    0.002759   0.000080  -0.000089   0.000007   0.000002   0.000000
    28  H    0.001610  -0.000068  -0.000017  -0.000045   0.000000   0.000000
    29  C   -0.111241   0.001566   0.005630   0.001064  -0.000154  -0.000088
    30  H    0.001373   0.001875  -0.000120  -0.000033   0.000007  -0.000006
    31  C    0.000890   0.000391  -0.000216  -0.000041  -0.000005   0.000031
    32  H   -0.000004  -0.000031  -0.000010  -0.000007   0.000000  -0.000001
    33  H    0.003238   0.002584  -0.000049  -0.000001   0.000004  -0.000011
    34  H    0.000046  -0.000091   0.000005   0.000001   0.000000  -0.000001
    35  C    0.285692  -0.022354  -0.022868  -0.001462   0.000798   0.001417
    36  O   -0.091699   0.003261  -0.007523   0.019415   0.000427   0.000442
    37  N    7.047963   0.306598   0.264872  -0.038732  -0.040262  -0.041112
    38  H    0.306598   0.402380  -0.031412   0.003964  -0.001108  -0.000673
    39  C    0.264872  -0.031412   4.963859   0.378393   0.382432   0.381421
    40  H   -0.038732   0.003964   0.378393   0.477135  -0.024002  -0.024389
    41  H   -0.040262  -0.001108   0.382432  -0.024002   0.555565  -0.039158
    42  H   -0.041112  -0.000673   0.381421  -0.024389  -0.039158   0.558015
 Mulliken atomic charges:
              1
     1  H    0.182594
     2  C   -0.533140
     3  H    0.182251
     4  H    0.147672
     5  C    0.597432
     6  O   -0.524207
     7  N   -0.602608
     8  H    0.344400
     9  C   -0.034191
    10  H    0.165805
    11  C   -0.452464
    12  H    0.158775
    13  H    0.162986
    14  H    0.184560
    15  C    0.605616
    16  O   -0.520854
    17  N   -0.633068
    18  H    0.333293
    19  C   -0.049976
    20  H    0.211953
    21  C   -0.453731
    22  H    0.141419
    23  H    0.190507
    24  H    0.159636
    25  C    0.613465
    26  O   -0.537194
    27  N   -0.628619
    28  H    0.363368
    29  C   -0.027414
    30  H    0.171313
    31  C   -0.445015
    32  H    0.158251
    33  H    0.135913
    34  H    0.192806
    35  C    0.605217
    36  O   -0.531839
    37  N   -0.591948
    38  H    0.333041
    39  C   -0.314309
    40  H    0.208734
    41  H    0.165453
    42  H    0.164114
 Sum of Mulliken atomic charges =   0.00000
 Mulliken charges with hydrogens summed into heavy atoms:
              1
     2  C   -0.020623
     5  C    0.597432
     6  O   -0.524207
     7  N   -0.258208
     9  C    0.131615
    11  C    0.053858
    15  C    0.605616
    16  O   -0.520854
    17  N   -0.299775
    19  C    0.161977
    21  C    0.037831
    25  C    0.613465
    26  O   -0.537194
    27  N   -0.265251
    29  C    0.143900
    31  C    0.041955
    35  C    0.605217
    36  O   -0.531839
    37  N   -0.258907
    39  C    0.223993
 Sum of Mulliken charges with hydrogens summed into heavy atoms =   0.00000
 Electronic spatial extent (au):  <R**2>=           8587.5984
 Charge=              0.0000 electrons
 Dipole moment (field-independent basis, Debye):
    X=              4.4010    Y=             -1.3790    Z=             -0.2238  Tot=              4.6174
 Quadrupole moment (field-independent basis, Debye-Ang):
   XX=           -101.5595   YY=           -123.7418   ZZ=           -123.5908
   XY=            -20.9523   XZ=              8.4263   YZ=             12.5221
 Traceless Quadrupole moment (field-independent basis, Debye-Ang):
   XX=             14.7379   YY=             -7.4444   ZZ=             -7.2934
   XY=            -20.9523   XZ=              8.4263   YZ=             12.5221
 Octapole moment (field-independent basis, Debye-Ang**2):
  XXX=            137.1997  YYY=            -36.0177  ZZZ=             -1.2540  XYY=              6.2505
  XXY=            -51.8154  XXZ=            -82.3010  XZZ=             24.7892  YZZ=              1.3979
  YYZ=             -0.8758  XYZ=             -7.5292
 Hexadecapole moment (field-independent basis, Debye-Ang**3):
 XXXX=          -7124.1458 YYYY=          -2518.3013 ZZZZ=           -483.5742 XXXY=           -438.5641
 XXXZ=            243.2294 YYYX=           -199.0811 YYYZ=             36.7863 ZZZX=              7.4749
 ZZZY=              7.9301 XXYY=          -1751.8332 XXZZ=          -1513.5098 YYZZ=           -521.8329
 XXYZ=            173.9387 YYXZ=             22.4124 ZZXY=            -34.6155
 N-N= 1.618095997297D+03 E-N=-5.545410595879D+03  KE= 9.813311405249D+02
 1\1\GINC-NODE006\FOpt\RB3LYP\6-31G(d)\C12H22N4O4\MANAGER\29-Dec-2016\0
 \\# b3lyp/6-31G* Opt=(ModRedundant, maxcycles=1000, calcfc) geom=nocro
 wd\\Phi Psi fixed scan\\0,1\H,3.6586589581,1.2191979788,-3.2754925531\
 C,3.2922423779,2.1867801465,-2.9185566697\H,2.2890085814,2.0249375885,
 -2.5122478925\H,3.2280250194,2.8773651035,-3.7650494108\C,4.20152511,2
 .673536487,-1.7998213477\O,4.3779156827,2.0240677087,-0.7727551263\N,4
 .8055165954,3.8758330659,-2.0154371565\H,4.631338542,4.428378505,-2.84
 59662389\C,5.674597042,4.4887948263,-1.0291592707\H,5.2636999631,4.265
 3106385,-0.0371647882\C,7.1134139991,3.9376693199,-1.1034926301\H,7.53
 83682921,4.1253198764,-2.0948895966\H,7.7685321009,4.3988018685,-0.356
 2495114\H,7.0843864016,2.8592772821,-0.9266063591\C,5.6556149624,6.000
 5772505,-1.2924627317\O,5.4056126263,6.4543319093,-2.4047452929\N,5.99
 23207179,6.7814752187,-0.2205247236\H,6.0094684322,6.3416772615,0.6915
 691956\C,5.978622427,8.2416968569,-0.2692286871\H,5.7344047896,8.49397
 91294,-1.3054820629\C,4.9149220181,8.8382288403,0.6612438286\H,5.08478
 33622,8.533548667,1.7017911509\H,4.964584078,9.9283919664,0.6160573009
 \H,3.9161008931,8.5075079767,0.3610733602\C,7.3529177474,8.8813185962,
 0.0182433019\O,7.4773172853,10.1032645378,0.0357074444\N,8.3703444568,
 8.0221750389,0.2727178561\H,8.2604361763,7.0270600759,0.1118884456\C,9
 .7365905743,8.4698570164,0.4586143807\H,9.9473467422,9.2661351946,-0.2
 678384744\C,9.9684581757,9.0284959537,1.8758559279\H,9.7882363204,8.25
 26823758,2.6271586137\H,10.9924918567,9.3991580197,1.9978890547\H,9.27
 80969693,9.8584778199,2.0447616209\C,10.6369299819,7.2537937436,0.1739
 937065\O,10.1762205465,6.1150513939,0.1129499726\N,11.9562661657,7.537
 4602797,0.0225002293\H,12.2469173955,8.5042881145,0.0600691659\C,12.96
 53584452,6.5173122215,-0.2126070885\H,12.4571631353,5.5529026057,-0.23
 57356542\H,13.4715226851,6.6794738208,-1.1709036947\H,13.7134223684,6.
 5114077196,0.5883324052\\Version=EM64L-G09RevA.02\State=1-A\HF=-990.50
 76732\RMSD=4.587e-09\RMSF=2.328e-04\Dipole=1.6683524,0.6398268,0.32768
 29\Quadrupole=19.3387481,-19.9834208,0.6446727,3.4840418,3.0087739,7.1
 111584\PG=C01 [X(C12H22N4O4)]\\@


 THERE IS NOTHING NOBLE IN BEING SUPERIOR TO SOME OTHER MAN.
 TRUE NOBILITY IS BEING SUPERIOR TO YOUR FORMER SELF.

                                                   -- HINDU PROVERB
 Job cpu time:  0 days  3 hours  8 minutes 41.4 seconds.
 File lengths (MBytes):  RWF=    608 Int=      0 D2E=      0 Chk=     11 Scr=      1
 Normal termination of Gaussian 09 at Thu Dec 29 14:32:21 2016.
