 Entering Gaussian System, Link 0=g09
 Initial command:
 /home/steboss/Software/g09/l1.exe /tmp/Gau-29596.inp -scrdir=/tmp/
 Entering Link 1 = /home/steboss/Software/g09/l1.exe PID=     29602.
  
 Copyright (c) 1988,1990,1992,1993,1995,1998,2003,2009, Gaussian, Inc.
                  All Rights Reserved.
  
 This is part of the Gaussian(R) 09 program.  It is based on
 the Gaussian(R) 03 system (copyright 2003, Gaussian, Inc.),
 the Gaussian(R) 98 system (copyright 1998, Gaussian, Inc.),
 the Gaussian(R) 94 system (copyright 1995, Gaussian, Inc.),
 the Gaussian 92(TM) system (copyright 1992, Gaussian, Inc.),
 the Gaussian 90(TM) system (copyright 1990, Gaussian, Inc.),
 the Gaussian 88(TM) system (copyright 1988, Gaussian, Inc.),
 the Gaussian 86(TM) system (copyright 1986, Carnegie Mellon
 University), and the Gaussian 82(TM) system (copyright 1983,
 Carnegie Mellon University). Gaussian is a federally registered
 trademark of Gaussian, Inc.
  
 This software contains proprietary and confidential information,
 including trade secrets, belonging to Gaussian, Inc.
  
 This software is provided under written license and may be
 used, copied, transmitted, or stored only in accord with that
 written license.
  
 The following legend is applicable only to US Government
 contracts under FAR:
  
                    RESTRICTED RIGHTS LEGEND
  
 Use, reproduction and disclosure by the US Government is
 subject to restrictions as set forth in subparagraphs (a)
 and (c) of the Commercial Computer Software - Restricted
 Rights clause in FAR 52.227-19.
  
 Gaussian, Inc.
 340 Quinnipiac St., Bldg. 40, Wallingford CT 06492
  
  
 ---------------------------------------------------------------
 Warning -- This program may not be used in any manner that
 competes with the business of Gaussian, Inc. or will provide
 assistance to any competitor of Gaussian, Inc.  The licensee
 of this program is prohibited from giving any competitor of
 Gaussian, Inc. access to this program.  By using this program,
 the user acknowledges that Gaussian, Inc. is engaged in the
 business of creating and licensing software in the field of
 computational chemistry and represents and warrants to the
 licensee that it is not a competitor of Gaussian, Inc. and that
 it will not use this program in any manner prohibited above.
 ---------------------------------------------------------------
  

 Cite this work as:
 Gaussian 09, Revision A.02,
 M. J. Frisch, G. W. Trucks, H. B. Schlegel, G. E. Scuseria, 
 M. A. Robb, J. R. Cheeseman, G. Scalmani, V. Barone, B. Mennucci, 
 G. A. Petersson, H. Nakatsuji, M. Caricato, X. Li, H. P. Hratchian, 
 A. F. Izmaylov, J. Bloino, G. Zheng, J. L. Sonnenberg, M. Hada, 
 M. Ehara, K. Toyota, R. Fukuda, J. Hasegawa, M. Ishida, T. Nakajima, 
 Y. Honda, O. Kitao, H. Nakai, T. Vreven, J. A. Montgomery, Jr., 
 J. E. Peralta, F. Ogliaro, M. Bearpark, J. J. Heyd, E. Brothers, 
 K. N. Kudin, V. N. Staroverov, R. Kobayashi, J. Normand, 
 K. Raghavachari, A. Rendell, J. C. Burant, S. S. Iyengar, J. Tomasi, 
 M. Cossi, N. Rega, J. M. Millam, M. Klene, J. E. Knox, J. B. Cross, 
 V. Bakken, C. Adamo, J. Jaramillo, R. Gomperts, R. E. Stratmann, 
 O. Yazyev, A. J. Austin, R. Cammi, C. Pomelli, J. W. Ochterski, 
 R. L. Martin, K. Morokuma, V. G. Zakrzewski, G. A. Voth, 
 P. Salvador, J. J. Dannenberg, S. Dapprich, A. D. Daniels, 
 O. Farkas, J. B. Foresman, J. V. Ortiz, J. Cioslowski, 
 and D. J. Fox, Gaussian, Inc., Wallingford CT, 2009.
 
 ******************************************
 Gaussian 09:  EM64L-G09RevA.02 11-Jun-2009
                26-Dec-2016 
 ******************************************
 %chk=structure_240.chk
 -------------------------------------------------------------------
 # HF/6-31G* Opt=(ModRedundant, maxcycles=1000, calcfc) geom=nocrowd
 -------------------------------------------------------------------
 1/6=1000,10=4,18=120,19=15,38=1/1,3;
 2/9=110,12=1,17=6,18=5,40=1/2;
 3/5=1,6=6,7=1,11=9,16=1,25=1,30=1,71=2/1,2,3;
 4//1;
 5/5=2,38=5/2;
 8/6=4,10=90,11=11/1;
 11/6=1,8=1,9=11,15=111,16=1/1,2,10;
 10/6=1,7=6,13=1/2;
 6/7=2,8=2,9=2,10=2,28=1/1;
 7/10=1,18=20,25=1/1,2,3,16;
 1/6=1000,10=4,18=20,19=15/3(2);
 2/9=110,12=1/2;
 99//99;
 2/9=110,12=1/2;
 3/5=1,6=6,7=1,11=9,16=1,25=1,30=1,71=1/1,2,3;
 4/5=5,16=3/1;
 5/5=2,38=5/2;
 7//1,2,3,16;
 1/6=1000,18=20,19=15/3(-5);
 2/9=110,12=1/2;
 6/7=2,8=2,9=2,10=2,19=2,28=1/1;
 99/9=1/99;
 ------------------
 Phi Psi fixed scan
 ------------------
 Symbolic Z-matrix:
 Charge =  0 Multiplicity = 1
 H                     3.923     1.        3.3308 
 C                     3.923     2.09      3.3308 
 H                     4.4368    2.4538    4.2206 
 H                     2.8956    2.4538    3.3308 
 C                     4.6367    2.6408    2.0946 
 O                     5.1183    1.8774    1.2605 
 N                     4.7007    3.9696    1.9838 
 H                     4.2896    4.5561    2.6959 
 C                     5.3497    4.6139    0.8598 
 H                     6.3974    4.3155    0.8246 
 C                     4.6866    4.2208   -0.4561 
 H                     3.639     4.5214   -0.4396 
 H                     5.194     4.7189   -1.2822 
 H                     4.7522    3.1409   -0.5882 
 C                     5.2794    6.1294    0.9815 
 O                     4.7233    6.6527    1.9446 
 N                     5.846     6.8349    0. 
 H                     6.2915    6.3592   -0.7716 
 C                     5.8461    8.2839    0. 
 H                     5.3323    8.6477   -0.8898 
 C                     5.1347    8.8329    1.2322 
 H                     5.6431    8.4846    2.1312 
 H                     5.1499    9.9224    1.2058 
 H                     4.1019    8.4846    1.2414 
 C                     7.266     8.8318    0. 
 O                     8.0386    8.5624   -0.9171 
 N                     7.6088    9.6038    1.0338 
 H                     6.9383    9.797     1.764 
 C                     8.9308    10.1857   1.1497 
 H                     9.6765    9.3913    1.1807 
 C                     9.2363    11.0949  -0.0359 
 H                     8.5033    11.9006  -0.0749 
 H                     10.2346   11.5176   0.0776 
 H                     9.1898    10.5171  -0.959 
 C                     9.0538    11.018    2.418 
 O                     8.1017    11.1268   3.1875 
 N                     10.2322   11.6068   2.6346 
 H                     10.9856   11.4877   1.9725 
 C                     10.4756   12.4252   3.8053 
 H                     9.5758    12.4581   4.4197 
 H                     11.2946   11.998    4.3841 
 H                     10.7397   13.4359   3.4943 
 
 The following ModRedundant input section has been read:
 D   15   17   19   25 F                                                       
 D   17   19   25   27 F                                                       

 GradGradGradGradGradGradGradGradGradGradGradGradGradGradGradGradGradGrad
 Berny optimization.
 Initialization pass.
                           ----------------------------
                           !    Initial Parameters    !
                           ! (Angstroms and Degrees)  !
 --------------------------                            --------------------------
 ! Name  Definition              Value          Derivative Info.                !
 --------------------------------------------------------------------------------
 ! R1    R(1,2)                  1.09           calculate D2E/DX2 analytically  !
 ! R2    R(2,3)                  1.09           calculate D2E/DX2 analytically  !
 ! R3    R(2,4)                  1.0899         calculate D2E/DX2 analytically  !
 ! R4    R(2,5)                  1.53           calculate D2E/DX2 analytically  !
 ! R5    R(5,6)                  1.229          calculate D2E/DX2 analytically  !
 ! R6    R(5,7)                  1.3349         calculate D2E/DX2 analytically  !
 ! R7    R(7,8)                  1.01           calculate D2E/DX2 analytically  !
 ! R8    R(7,9)                  1.449          calculate D2E/DX2 analytically  !
 ! R9    R(9,10)                 1.0899         calculate D2E/DX2 analytically  !
 ! R10   R(9,11)                 1.5251         calculate D2E/DX2 analytically  !
 ! R11   R(9,15)                 1.522          calculate D2E/DX2 analytically  !
 ! R12   R(11,12)                1.09           calculate D2E/DX2 analytically  !
 ! R13   R(11,13)                1.09           calculate D2E/DX2 analytically  !
 ! R14   R(11,14)                1.0899         calculate D2E/DX2 analytically  !
 ! R15   R(15,16)                1.2291         calculate D2E/DX2 analytically  !
 ! R16   R(15,17)                1.335          calculate D2E/DX2 analytically  !
 ! R17   R(17,18)                1.01           calculate D2E/DX2 analytically  !
 ! R18   R(17,19)                1.449          calculate D2E/DX2 analytically  !
 ! R19   R(19,20)                1.09           calculate D2E/DX2 analytically  !
 ! R20   R(19,21)                1.5251         calculate D2E/DX2 analytically  !
 ! R21   R(19,25)                1.5219         calculate D2E/DX2 analytically  !
 ! R22   R(21,22)                1.0899         calculate D2E/DX2 analytically  !
 ! R23   R(21,23)                1.0899         calculate D2E/DX2 analytically  !
 ! R24   R(21,24)                1.09           calculate D2E/DX2 analytically  !
 ! R25   R(25,26)                1.229          calculate D2E/DX2 analytically  !
 ! R26   R(25,27)                1.335          calculate D2E/DX2 analytically  !
 ! R27   R(27,28)                1.01           calculate D2E/DX2 analytically  !
 ! R28   R(27,29)                1.449          calculate D2E/DX2 analytically  !
 ! R29   R(29,30)                1.09           calculate D2E/DX2 analytically  !
 ! R30   R(29,31)                1.525          calculate D2E/DX2 analytically  !
 ! R31   R(29,35)                1.522          calculate D2E/DX2 analytically  !
 ! R32   R(31,32)                1.0899         calculate D2E/DX2 analytically  !
 ! R33   R(31,33)                1.09           calculate D2E/DX2 analytically  !
 ! R34   R(31,34)                1.09           calculate D2E/DX2 analytically  !
 ! R35   R(35,36)                1.229          calculate D2E/DX2 analytically  !
 ! R36   R(35,37)                1.335          calculate D2E/DX2 analytically  !
 ! R37   R(37,38)                1.01           calculate D2E/DX2 analytically  !
 ! R38   R(37,39)                1.449          calculate D2E/DX2 analytically  !
 ! R39   R(39,40)                1.0901         calculate D2E/DX2 analytically  !
 ! R40   R(39,41)                1.0901         calculate D2E/DX2 analytically  !
 ! R41   R(39,42)                1.0899         calculate D2E/DX2 analytically  !
 ! A1    A(1,2,3)              109.4974         calculate D2E/DX2 analytically  !
 ! A2    A(1,2,4)              109.4989         calculate D2E/DX2 analytically  !
 ! A3    A(1,2,5)              111.1            calculate D2E/DX2 analytically  !
 ! A4    A(3,2,4)              109.4472         calculate D2E/DX2 analytically  !
 ! A5    A(3,2,5)              108.6348         calculate D2E/DX2 analytically  !
 ! A6    A(4,2,5)              108.6357         calculate D2E/DX2 analytically  !
 ! A7    A(2,5,6)              120.4994         calculate D2E/DX2 analytically  !
 ! A8    A(2,5,7)              116.6003         calculate D2E/DX2 analytically  !
 ! A9    A(6,5,7)              122.9003         calculate D2E/DX2 analytically  !
 ! A10   A(5,7,8)              119.9996         calculate D2E/DX2 analytically  !
 ! A11   A(5,7,9)              121.9007         calculate D2E/DX2 analytically  !
 ! A12   A(8,7,9)              118.0998         calculate D2E/DX2 analytically  !
 ! A13   A(7,9,10)             109.5025         calculate D2E/DX2 analytically  !
 ! A14   A(7,9,11)             111.0972         calculate D2E/DX2 analytically  !
 ! A15   A(7,9,15)             111.102          calculate D2E/DX2 analytically  !
 ! A16   A(10,9,11)            108.6338         calculate D2E/DX2 analytically  !
 ! A17   A(10,9,15)            108.6381         calculate D2E/DX2 analytically  !
 ! A18   A(11,9,15)            107.7924         calculate D2E/DX2 analytically  !
 ! A19   A(9,11,12)            109.496          calculate D2E/DX2 analytically  !
 ! A20   A(9,11,13)            109.4976         calculate D2E/DX2 analytically  !
 ! A21   A(9,11,14)            109.4994         calculate D2E/DX2 analytically  !
 ! A22   A(12,11,13)           109.4425         calculate D2E/DX2 analytically  !
 ! A23   A(12,11,14)           109.4464         calculate D2E/DX2 analytically  !
 ! A24   A(13,11,14)           109.4454         calculate D2E/DX2 analytically  !
 ! A25   A(9,15,16)            120.4974         calculate D2E/DX2 analytically  !
 ! A26   A(9,15,17)            116.6046         calculate D2E/DX2 analytically  !
 ! A27   A(16,15,17)           122.8981         calculate D2E/DX2 analytically  !
 ! A28   A(15,17,18)           119.9989         calculate D2E/DX2 analytically  !
 ! A29   A(15,17,19)           121.9049         calculate D2E/DX2 analytically  !
 ! A30   A(18,17,19)           118.0962         calculate D2E/DX2 analytically  !
 ! A31   A(17,19,20)           109.4954         calculate D2E/DX2 analytically  !
 ! A32   A(17,19,21)           111.0974         calculate D2E/DX2 analytically  !
 ! A33   A(17,19,25)           111.1042         calculate D2E/DX2 analytically  !
 ! A34   A(20,19,21)           108.6349         calculate D2E/DX2 analytically  !
 ! A35   A(20,19,25)           108.6399         calculate D2E/DX2 analytically  !
 ! A36   A(21,19,25)           107.7944         calculate D2E/DX2 analytically  !
 ! A37   A(19,21,22)           109.4996         calculate D2E/DX2 analytically  !
 ! A38   A(19,21,23)           109.4977         calculate D2E/DX2 analytically  !
 ! A39   A(19,21,24)           109.4988         calculate D2E/DX2 analytically  !
 ! A40   A(22,21,23)           109.4452         calculate D2E/DX2 analytically  !
 ! A41   A(22,21,24)           109.4447         calculate D2E/DX2 analytically  !
 ! A42   A(23,21,24)           109.4412         calculate D2E/DX2 analytically  !
 ! A43   A(19,25,26)           120.5014         calculate D2E/DX2 analytically  !
 ! A44   A(19,25,27)           116.5988         calculate D2E/DX2 analytically  !
 ! A45   A(26,25,27)           122.8998         calculate D2E/DX2 analytically  !
 ! A46   A(25,27,28)           120.0005         calculate D2E/DX2 analytically  !
 ! A47   A(25,27,29)           121.8991         calculate D2E/DX2 analytically  !
 ! A48   A(28,27,29)           118.1005         calculate D2E/DX2 analytically  !
 ! A49   A(27,29,30)           109.4967         calculate D2E/DX2 analytically  !
 ! A50   A(27,29,31)           111.1002         calculate D2E/DX2 analytically  !
 ! A51   A(27,29,35)           111.0992         calculate D2E/DX2 analytically  !
 ! A52   A(30,29,31)           108.6371         calculate D2E/DX2 analytically  !
 ! A53   A(30,29,35)           108.6364         calculate D2E/DX2 analytically  !
 ! A54   A(31,29,35)           107.7965         calculate D2E/DX2 analytically  !
 ! A55   A(29,31,32)           109.5004         calculate D2E/DX2 analytically  !
 ! A56   A(29,31,33)           109.4945         calculate D2E/DX2 analytically  !
 ! A57   A(29,31,34)           109.5003         calculate D2E/DX2 analytically  !
 ! A58   A(32,31,33)           109.4503         calculate D2E/DX2 analytically  !
 ! A59   A(32,31,34)           109.4422         calculate D2E/DX2 analytically  !
 ! A60   A(33,31,34)           109.4395         calculate D2E/DX2 analytically  !
 ! A61   A(29,35,36)           120.5013         calculate D2E/DX2 analytically  !
 ! A62   A(29,35,37)           116.598          calculate D2E/DX2 analytically  !
 ! A63   A(36,35,37)           122.9008         calculate D2E/DX2 analytically  !
 ! A64   A(35,37,38)           120.0034         calculate D2E/DX2 analytically  !
 ! A65   A(35,37,39)           121.9021         calculate D2E/DX2 analytically  !
 ! A66   A(38,37,39)           118.0945         calculate D2E/DX2 analytically  !
 ! A67   A(37,39,40)           109.4983         calculate D2E/DX2 analytically  !
 ! A68   A(37,39,41)           109.5029         calculate D2E/DX2 analytically  !
 ! A69   A(37,39,42)           109.5063         calculate D2E/DX2 analytically  !
 ! A70   A(40,39,41)           109.4352         calculate D2E/DX2 analytically  !
 ! A71   A(40,39,42)           109.4421         calculate D2E/DX2 analytically  !
 ! A72   A(41,39,42)           109.4425         calculate D2E/DX2 analytically  !
 ! D1    D(1,2,5,6)             -0.0022         calculate D2E/DX2 analytically  !
 ! D2    D(1,2,5,7)           -179.9987         calculate D2E/DX2 analytically  !
 ! D3    D(3,2,5,6)            120.5061         calculate D2E/DX2 analytically  !
 ! D4    D(3,2,5,7)            -59.4904         calculate D2E/DX2 analytically  !
 ! D5    D(4,2,5,6)           -120.5129         calculate D2E/DX2 analytically  !
 ! D6    D(4,2,5,7)             59.4905         calculate D2E/DX2 analytically  !
 ! D7    D(2,5,7,8)             -0.0002         calculate D2E/DX2 analytically  !
 ! D8    D(2,5,7,9)            179.997          calculate D2E/DX2 analytically  !
 ! D9    D(6,5,7,8)           -179.9966         calculate D2E/DX2 analytically  !
 ! D10   D(6,5,7,9)              0.0006         calculate D2E/DX2 analytically  !
 ! D11   D(5,7,9,10)           -59.9963         calculate D2E/DX2 analytically  !
 ! D12   D(5,7,9,11)            60.0011         calculate D2E/DX2 analytically  !
 ! D13   D(5,7,9,15)           179.9979         calculate D2E/DX2 analytically  !
 ! D14   D(8,7,9,10)           120.001          calculate D2E/DX2 analytically  !
 ! D15   D(8,7,9,11)          -120.0017         calculate D2E/DX2 analytically  !
 ! D16   D(8,7,9,15)            -0.0048         calculate D2E/DX2 analytically  !
 ! D17   D(7,9,11,12)           60.002          calculate D2E/DX2 analytically  !
 ! D18   D(7,9,11,13)          179.9982         calculate D2E/DX2 analytically  !
 ! D19   D(7,9,11,14)          -60.0            calculate D2E/DX2 analytically  !
 ! D20   D(10,9,11,12)        -179.4858         calculate D2E/DX2 analytically  !
 ! D21   D(10,9,11,13)         -59.4897         calculate D2E/DX2 analytically  !
 ! D22   D(10,9,11,14)          60.5122         calculate D2E/DX2 analytically  !
 ! D23   D(15,9,11,12)         -61.9422         calculate D2E/DX2 analytically  !
 ! D24   D(15,9,11,13)          58.0539         calculate D2E/DX2 analytically  !
 ! D25   D(15,9,11,14)         178.0557         calculate D2E/DX2 analytically  !
 ! D26   D(7,9,15,16)            0.0008         calculate D2E/DX2 analytically  !
 ! D27   D(7,9,15,17)         -179.9951         calculate D2E/DX2 analytically  !
 ! D28   D(10,9,15,16)        -120.5172         calculate D2E/DX2 analytically  !
 ! D29   D(10,9,15,17)          59.4869         calculate D2E/DX2 analytically  !
 ! D30   D(11,9,15,16)         121.9421         calculate D2E/DX2 analytically  !
 ! D31   D(11,9,15,17)         -58.0538         calculate D2E/DX2 analytically  !
 ! D32   D(9,15,17,18)          -0.0024         calculate D2E/DX2 analytically  !
 ! D33   D(9,15,17,19)        -179.9943         calculate D2E/DX2 analytically  !
 ! D34   D(16,15,17,18)       -179.9982         calculate D2E/DX2 analytically  !
 ! D35   D(16,15,17,19)          0.0099         calculate D2E/DX2 analytically  !
 ! D36   D(15,17,19,20)       -120.0004         calculate D2E/DX2 analytically  !
 ! D37   D(15,17,19,21)         -0.0061         calculate D2E/DX2 analytically  !
 ! D38   D(15,17,19,25)        119.9948         frozen, calculate D2E/DX2 analyt!
 ! D39   D(18,17,19,20)         60.0075         calculate D2E/DX2 analytically  !
 ! D40   D(18,17,19,21)       -179.9982         calculate D2E/DX2 analytically  !
 ! D41   D(18,17,19,25)        -59.9973         calculate D2E/DX2 analytically  !
 ! D42   D(17,19,21,22)         60.0039         calculate D2E/DX2 analytically  !
 ! D43   D(17,19,21,23)       -179.9943         calculate D2E/DX2 analytically  !
 ! D44   D(17,19,21,24)        -59.998          calculate D2E/DX2 analytically  !
 ! D45   D(20,19,21,22)       -179.4919         calculate D2E/DX2 analytically  !
 ! D46   D(20,19,21,23)        -59.4901         calculate D2E/DX2 analytically  !
 ! D47   D(20,19,21,24)         60.5062         calculate D2E/DX2 analytically  !
 ! D48   D(25,19,21,22)        -61.9445         calculate D2E/DX2 analytically  !
 ! D49   D(25,19,21,23)         58.0573         calculate D2E/DX2 analytically  !
 ! D50   D(25,19,21,24)        178.0536         calculate D2E/DX2 analytically  !
 ! D51   D(17,19,25,26)         60.0007         calculate D2E/DX2 analytically  !
 ! D52   D(17,19,25,27)       -119.9986         frozen, calculate D2E/DX2 analyt!
 ! D53   D(20,19,25,26)        -60.511          calculate D2E/DX2 analytically  !
 ! D54   D(20,19,25,27)        119.4897         calculate D2E/DX2 analytically  !
 ! D55   D(21,19,25,26)       -178.0552         calculate D2E/DX2 analytically  !
 ! D56   D(21,19,25,27)          1.9456         calculate D2E/DX2 analytically  !
 ! D57   D(19,25,27,28)         -0.0039         calculate D2E/DX2 analytically  !
 ! D58   D(19,25,27,29)       -179.9979         calculate D2E/DX2 analytically  !
 ! D59   D(26,25,27,28)        179.9968         calculate D2E/DX2 analytically  !
 ! D60   D(26,25,27,29)          0.0029         calculate D2E/DX2 analytically  !
 ! D61   D(25,27,29,30)        -60.0024         calculate D2E/DX2 analytically  !
 ! D62   D(25,27,29,31)         59.9972         calculate D2E/DX2 analytically  !
 ! D63   D(25,27,29,35)        179.9994         calculate D2E/DX2 analytically  !
 ! D64   D(28,27,29,30)        120.0035         calculate D2E/DX2 analytically  !
 ! D65   D(28,27,29,31)       -119.9968         calculate D2E/DX2 analytically  !
 ! D66   D(28,27,29,35)          0.0054         calculate D2E/DX2 analytically  !
 ! D67   D(27,29,31,32)         59.9986         calculate D2E/DX2 analytically  !
 ! D68   D(27,29,31,33)       -179.9949         calculate D2E/DX2 analytically  !
 ! D69   D(27,29,31,34)        -60.0016         calculate D2E/DX2 analytically  !
 ! D70   D(30,29,31,32)       -179.4924         calculate D2E/DX2 analytically  !
 ! D71   D(30,29,31,33)        -59.4859         calculate D2E/DX2 analytically  !
 ! D72   D(30,29,31,34)         60.5074         calculate D2E/DX2 analytically  !
 ! D73   D(35,29,31,32)        -61.9468         calculate D2E/DX2 analytically  !
 ! D74   D(35,29,31,33)         58.0597         calculate D2E/DX2 analytically  !
 ! D75   D(35,29,31,34)        178.053          calculate D2E/DX2 analytically  !
 ! D76   D(27,29,35,36)         -0.0026         calculate D2E/DX2 analytically  !
 ! D77   D(27,29,35,37)       -179.9999         calculate D2E/DX2 analytically  !
 ! D78   D(30,29,35,36)       -120.5105         calculate D2E/DX2 analytically  !
 ! D79   D(30,29,35,37)         59.4922         calculate D2E/DX2 analytically  !
 ! D80   D(31,29,35,36)        121.9434         calculate D2E/DX2 analytically  !
 ! D81   D(31,29,35,37)        -58.0539         calculate D2E/DX2 analytically  !
 ! D82   D(29,35,37,38)         -0.0074         calculate D2E/DX2 analytically  !
 ! D83   D(29,35,37,39)        179.9988         calculate D2E/DX2 analytically  !
 ! D84   D(36,35,37,38)        179.9954         calculate D2E/DX2 analytically  !
 ! D85   D(36,35,37,39)          0.0016         calculate D2E/DX2 analytically  !
 ! D86   D(35,37,39,40)          0.003          calculate D2E/DX2 analytically  !
 ! D87   D(35,37,39,41)        119.9949         calculate D2E/DX2 analytically  !
 ! D88   D(35,37,39,42)       -119.9995         calculate D2E/DX2 analytically  !
 ! D89   D(38,37,39,40)       -179.9909         calculate D2E/DX2 analytically  !
 ! D90   D(38,37,39,41)        -59.999          calculate D2E/DX2 analytically  !
 ! D91   D(38,37,39,42)         60.0067         calculate D2E/DX2 analytically  !
 --------------------------------------------------------------------------------
 Trust Radius=3.00D-01 FncErr=1.00D-07 GrdErr=1.00D-07
 Number of steps in this run= 252 maximum allowed number of steps= 252.
 GradGradGradGradGradGradGradGradGradGradGradGradGradGradGradGradGradGrad

                          Input orientation:                          
 ---------------------------------------------------------------------
 Center     Atomic      Atomic             Coordinates (Angstroms)
 Number     Number       Type             X           Y           Z
 ---------------------------------------------------------------------
      1          1           0        3.923000    1.000000    3.330800
      2          6           0        3.923000    2.090000    3.330800
      3          1           0        4.436800    2.453800    4.220600
      4          1           0        2.895600    2.453800    3.330800
      5          6           0        4.636700    2.640800    2.094600
      6          8           0        5.118300    1.877400    1.260500
      7          7           0        4.700700    3.969600    1.983800
      8          1           0        4.289600    4.556100    2.695900
      9          6           0        5.349700    4.613900    0.859800
     10          1           0        6.397400    4.315500    0.824600
     11          6           0        4.686600    4.220800   -0.456100
     12          1           0        3.639000    4.521400   -0.439600
     13          1           0        5.194000    4.718900   -1.282200
     14          1           0        4.752200    3.140900   -0.588200
     15          6           0        5.279400    6.129400    0.981500
     16          8           0        4.723300    6.652700    1.944600
     17          7           0        5.846000    6.834900    0.000000
     18          1           0        6.291500    6.359200   -0.771600
     19          6           0        5.846100    8.283900    0.000000
     20          1           0        5.332300    8.647700   -0.889800
     21          6           0        5.134700    8.832900    1.232200
     22          1           0        5.643100    8.484600    2.131200
     23          1           0        5.149900    9.922400    1.205800
     24          1           0        4.101900    8.484600    1.241400
     25          6           0        7.266000    8.831800    0.000000
     26          8           0        8.038600    8.562400   -0.917100
     27          7           0        7.608800    9.603800    1.033800
     28          1           0        6.938300    9.797000    1.764000
     29          6           0        8.930800   10.185700    1.149700
     30          1           0        9.676500    9.391300    1.180700
     31          6           0        9.236300   11.094900   -0.035900
     32          1           0        8.503300   11.900600   -0.074900
     33          1           0       10.234600   11.517600    0.077600
     34          1           0        9.189800   10.517100   -0.959000
     35          6           0        9.053800   11.018000    2.418000
     36          8           0        8.101700   11.126800    3.187500
     37          7           0       10.232200   11.606800    2.634600
     38          1           0       10.985600   11.487700    1.972500
     39          6           0       10.475600   12.425200    3.805300
     40          1           0        9.575800   12.458100    4.419700
     41          1           0       11.294600   11.998000    4.384100
     42          1           0       10.739700   13.435900    3.494300
 ---------------------------------------------------------------------
                    Distance matrix (angstroms):
                    1          2          3          4          5
     1  H    0.000000
     2  C    1.090000   0.000000
     3  H    1.780244   1.089993   0.000000
     4  H    1.780192   1.089909   1.779618   0.000000
     5  C    2.174806   1.530013   2.143550   2.143499   0.000000
     6  O    2.546510   2.400017   3.091742   3.091727   1.229000
     7  N    3.352275   2.439697   2.714879   2.714856   1.334946
     8  H    3.630887   2.572769   2.601162   2.601153   2.037257
     9  C    4.604518   3.809381   4.098097   4.098107   2.434384
    10  H    4.836965   4.166119   4.340817   4.691436   2.741821
    11  C    5.029637   4.411803   5.005618   4.546491   3.000827
    12  H    5.166898   4.495362   5.160322   4.363889   3.309718
    13  H    6.060151   5.459517   5.998736   5.629662   4.003981
    14  H    4.541980   4.141319   4.867868   4.390630   2.731457
    15  C    5.802566   4.865777   4.971094   4.971091   3.717847
    16  O    5.874951   4.835314   4.784665   4.784642   4.015637
    17  N    6.988434   6.107883   6.244465   6.244448   4.841511
    18  H    7.152657   6.376954   6.604099   6.604088   4.977948
    19  C    8.236974   7.290881   7.334143   7.334149   6.139591
    20  H    8.847989   7.924836   8.079759   7.881330   6.743393
    21  C    8.199187   7.165127   7.078878   7.078885   6.271670
    22  H    7.772839   6.729687   6.495483   6.734860   5.929939
    23  H    9.253655   8.207765   8.085636   8.085634   7.353573
    24  H    7.772827   6.729674   6.734860   6.495483   5.929921
    25  C    9.143685   8.229322   8.154552   8.418641   7.044789
    26  O    9.600662   8.767826   8.756935   9.044893   7.463820
    27  N    9.637775   8.678624   8.446288   8.866395   7.644740
    28  H    9.430488   8.422870   8.137258   8.527653   7.524484
    29  C   10.687017   9.766044   9.455620  10.048040   8.732562
    30  H   10.399020   9.541209   9.210014   9.936420   8.473727
    31  C   11.894235  10.984264  10.762044  11.234222   9.857340
    32  H   12.304512  11.350146  11.145841  11.501614  10.266510
    33  H   12.690135  11.802510  11.529588  12.107712  10.686550
    34  H   11.692594  10.823936  10.697480  11.092166   9.596421
    35  C   11.292415  10.337674   9.895028  10.587830   9.475908
    36  O   10.956010   9.957200   9.472049  10.116568   9.231081
    37  N   12.361024  11.439414  10.948948  11.751077  10.582551
    38  H   12.716806  11.833937  11.382095  12.202640  10.889953
    39  C   13.179412  12.246554  11.664836  12.534367  11.521881
    40  H   12.822945  11.859062  11.248777  12.078775  11.232995
    41  H   13.281789  12.394289  11.753634  12.757131  11.710108
    42  H   14.182586  13.237204  12.683082  13.496783  12.479581
                    6          7          8          9         10
     6  O    0.000000
     7  N    2.252744   0.000000
     8  H    3.150008   1.009986   0.000000
     9  C    2.775345   1.449034   2.120947   0.000000
    10  H    2.787550   2.083790   2.828864   1.089934   0.000000
    11  C    2.936768   2.452838   3.194548   1.525065   2.139158
    12  H    3.474105   2.702695   3.202475   2.150230   3.041277
    13  H    3.813814   3.386968   4.082857   2.150217   2.459575
    14  H    2.268954   2.702699   3.605843   2.150218   2.466247
    15  C    4.264188   2.450354   2.528665   1.522003   2.136533
    16  O    4.840197   2.683482   2.268982   2.392880   3.085371
    17  N    5.166741   3.668395   3.857873   2.432778   2.707653
    18  H    5.058889   3.979078   4.391165   2.567981   2.595338
    19  C    6.569764   4.884730   4.856651   3.801916   4.090488
    20  H    7.106796   5.526402   5.539464   4.396925   4.779285
    21  C    6.955577   4.940136   4.598655   4.240857   4.708232
    22  H    6.684955   4.614658   4.193323   4.084711   4.433685
    23  H    8.045248   6.020207   5.635396   5.323515   5.756639
    24  H    6.684948   4.614645   4.193318   4.084721   4.777493
    25  C    7.386823   5.844417   5.865871   4.711915   4.672408
    26  O    7.613102   6.375783   6.569567   5.096882   4.874753
    27  N    8.121037   6.411221   6.265696   5.480229   5.429307
    28  H    8.141620   6.246099   5.945678   5.495976   5.587655
    29  C    9.141952   7.565009   7.458141   6.629727   6.401801
    30  H    8.788757   7.402593   7.395518   6.453505   6.053350
    31  C   10.178452   8.684512   8.642250   7.609947   7.400005
    32  H   10.663304   9.033204   8.909224   7.994677   7.923235
    33  H   10.977670   9.551437   9.521607   8.493242   8.194654
    34  H    9.805494   8.466513   8.538371   7.273388   7.031257
    35  C   10.018909   8.295659   8.033118   7.560479   7.383691
    36  O    9.907846   8.015061   7.612350   7.443760   7.408221
    37  N   11.077064   9.452400   9.221205   8.711451   8.434740
    38  H   11.282288   9.799078   9.664719   8.958270   8.591258
    39  C   12.100940  10.400217  10.070755   9.796286   9.554241
    40  H   11.908025  10.087360   9.662143   9.595013   9.451397
    41  H   12.260918  10.662840  10.358664  10.113726   9.781279
    42  H   13.045648  11.329694  11.004185  10.668663  10.448185
                   11         12         13         14         15
    11  C    0.000000
    12  H    1.089999   0.000000
    13  H    1.089954   1.779608   0.000000
    14  H    1.089926   1.779628   1.779581   0.000000
    15  C    2.461881   2.701130   2.668547   3.416582   0.000000
    16  O    3.417433   3.376767   3.791224   4.329971   1.229086
    17  N    2.895817   3.227442   2.558632   3.897180   1.334956
    18  H    2.692211   3.243993   2.038579   3.572189   2.037281
    19  C    4.249853   4.384170   3.844281   5.290845   2.434412
    20  H    4.494716   4.482889   3.950769   5.545478   3.137897
    21  C    4.931797   4.860151   4.821900   5.988241   2.718952
    22  H    5.078288   5.131509   5.102302   6.061680   2.645951
    23  H    5.956912   5.844738   5.767885   7.026048   3.801832
    24  H    4.626378   4.329780   4.662803   5.685548   2.645944
    25  C    5.303080   5.650480   4.780499   6.249121   3.494694
    26  O    5.504354   5.992843   4.795575   6.348328   4.139729
    27  N    6.303629   6.615210   5.920926   7.249836   4.183335
    28  H    6.410382   6.600999   6.173250   7.390233   4.100676
    29  C    7.494789   7.912858   7.054340   8.373183   5.460273
    30  H    7.369687   7.924185   6.927482   8.151395   5.478518
    31  C    8.254065   8.643127   7.651590   9.147585   6.430268
    32  H    8.584395   8.845734   7.999116   9.542881   6.694495
    33  H    9.181962   9.628928   8.571991  10.033399   7.375889
    34  H    7.757262   8.187159   7.049113   8.616154   6.189401
    35  C    8.575244   8.927023   8.262457   9.465184   6.340981
    36  O    8.522415   8.758017   8.336313   9.447204   6.148644
    37  N    9.739564  10.154993   9.389779  10.587176   7.567356
    38  H    9.918837  10.407694   9.484322  10.727606   7.890132
    39  C   10.907989  11.279554  10.637905  11.758332   8.637791
    40  H   10.748526  11.038551  10.564424  11.625678   8.386460
    41  H   11.295045  11.737795  11.059366  12.082011   9.066465
    42  H   11.711693  12.056692  11.382259  12.589837   9.461183
                   16         17         18         19         20
    16  O    0.000000
    17  N    2.252803   0.000000
    18  H    3.150101   1.010014   0.000000
    19  C    2.775421   1.449000   2.120900   0.000000
    20  H    3.519194   2.083717   2.484204   1.089993   0.000000
    21  C    2.330244   2.452808   3.387122   1.525060   2.139212
    22  H    2.058327   2.702719   3.655680   2.150233   3.041322
    23  H    3.379164   3.386911   4.231992   2.150193   2.459608
    24  H    2.058273   2.702678   3.655659   2.150253   2.466272
    25  C    3.872373   2.450308   2.767448   1.521943   2.136547
    26  O    4.777813   2.938167   2.815603   2.392842   2.707782
    27  N    4.226660   3.441368   3.939819   2.432692   3.129987
    28  H    3.850385   3.616470   4.320427   2.567892   3.307987
    29  C    5.551307   4.697410   5.029851   3.801845   4.412959
    30  H    5.711188   4.754152   4.946042   4.158407   4.869495
    31  C    6.634960   5.444541   5.624941   4.404142   4.686059
    32  H    6.775488   5.720854   6.007043   4.488523   4.615264
    33  H    7.584680   6.418217   6.548150   5.451768   5.762355
    34  H    6.581345   5.065499   5.071824   4.133666   4.287161
    35  C    6.167105   5.799572   6.285560   4.859153   5.514474
    36  O    5.742470   5.802477   6.456106   4.830111   5.517236
    37  N    7.440913   6.996492   7.393823   6.100873   6.722104
    38  H    7.911663   7.207967   7.474368   6.369423   6.943930
    39  C    8.359002   8.195423   8.674737   7.284432   7.922563
    40  H    7.960876   8.066321   8.656374   7.132206   7.792126
    41  H    8.815065   8.692823   9.132815   7.918398   8.636409
    42  H    9.198393   8.929257   9.384246   7.918368   8.449093
                   21         22         23         24         25
    21  C    0.000000
    22  H    1.089947   0.000000
    23  H    1.089926   1.779573   0.000000
    24  H    1.089988   1.779618   1.779562   0.000000
    25  C    2.461861   2.701179   2.668565   3.416599   0.000000
    26  O    3.622885   3.877706   3.834174   4.490299   1.229048
    27  N    2.599004   2.514134   2.485413   3.687012   1.335005
    28  H    2.113119   1.880099   1.877681   3.168702   2.037325
    29  C    4.030788   3.829629   3.790472   5.120588   2.434423
    30  H    4.576288   4.241918   4.557719   5.648182   2.741825
    31  C    4.852612   4.941768   4.428910   5.899765   3.000832
    32  H    4.739911   4.971587   4.098629   5.724860   3.309691
    33  H    5.877899   5.873520   5.447171   6.939995   4.004014
    34  H    4.907313   5.124400   4.621777   5.904197   2.731469
    35  C    4.641134   4.258315   4.232045   5.685404   3.717852
    36  O    4.229452   3.760546   3.753776   5.173676   4.015666
    37  N    5.970406   5.573274   5.541520   7.019239   4.841496
    38  H    6.467537   6.130750   6.090434   7.545757   4.977950
    39  C    6.931859   6.456314   6.433078   7.919972   6.139574
    40  H    6.559390   6.040866   6.028890   7.473545   6.165953
    41  H    7.608988   7.025595   7.222676   8.599737   6.743499
    42  H    7.597416   7.235243   6.987688   8.582035   6.743475
                   26         27         28         29         30
    26  O    0.000000
    27  N    2.252832   0.000000
    28  H    3.150110   1.009994   0.000000
    29  C    2.775389   1.449043   2.120969   0.000000
    30  H    2.787572   2.083775   2.828882   1.090000   0.000000
    31  C    2.936759   2.452834   3.194525   1.524999   2.139193
    32  H    3.474022   2.702709   3.202485   2.150182   3.041302
    33  H    3.813797   3.387001   4.082892   2.150175   2.459564
    34  H    2.268892   2.702763   3.605901   2.150238   2.466297
    35  C    4.264211   2.450305   2.528616   1.521985   2.136544
    36  O    4.840235   2.683450   2.268969   2.392845   3.085320
    37  N    5.166704   3.668351   3.857862   2.432714   2.707594
    38  H    5.058851   3.979072   4.391193   2.567958   2.595300
    39  C    6.569723   4.884675   4.856628   3.801839   4.090432
    40  H    6.783870   4.845662   4.592451   4.033947   4.461673
    41  H    7.106870   5.526466   5.539555   4.396968   4.435640
    42  H    7.106855   5.526444   5.539510   4.396939   4.779323
                   31         32         33         34         35
    31  C    0.000000
    32  H    1.089937   0.000000
    33  H    1.090028   1.779704   0.000000
    34  H    1.090013   1.779603   1.779648   0.000000
    35  C    2.461878   2.701219   2.668588   3.416654   0.000000
    36  O    3.417403   3.376878   3.791235   4.330030   1.229009
    37  N    2.895760   3.227507   2.558557   3.897179   1.335001
    38  H    2.692213   3.244094   2.038514   3.572206   2.037385
    39  C    4.249751   4.384190   3.844160   5.290811   2.434405
    40  H    4.671825   4.654298   4.491368   5.731221   2.520551
    41  H    4.958688   5.261513   4.460978   5.930596   3.138014
    42  H    4.494753   4.483059   3.950802   5.545581   3.137980
                   36         37         38         39         40
    36  O    0.000000
    37  N    2.252805   0.000000
    38  H    3.150135   1.010036   0.000000
    39  C    2.775414   1.448986   2.120887   0.000000
    40  H    2.337445   2.083784   2.986302   1.090050   0.000000
    41  H    3.519297   2.083862   2.484291   1.090078   1.779672
    42  H    3.519249   2.083806   2.484316   1.089947   1.779641
                   41         42
    41  H    0.000000
    42  H    1.779667   0.000000
 Stoichiometry    C12H22N4O4
 Framework group  C1[X(C12H22N4O4)]
 Deg. of freedom   120
 Full point group                 C1      NOp   1
 Largest Abelian subgroup         C1      NOp   1
 Largest concise Abelian subgroup C1      NOp   1
                         Standard orientation:                         
 ---------------------------------------------------------------------
 Center     Atomic      Atomic             Coordinates (Angstroms)
 Number     Number       Type             X           Y           Z
 ---------------------------------------------------------------------
      1          1           0        6.961041    2.429689   -0.621410
      2          6           0        6.025207    2.309281   -0.075685
      3          1           0        5.408117    3.197479   -0.211292
      4          1           0        6.237331    2.173237    0.984691
      5          6           0        5.246966    1.091815   -0.578732
      6          8           0        5.696345    0.395744   -1.486468
      7          7           0        4.078723    0.841362    0.016720
      8          1           0        3.751056    1.442834    0.758972
      9          6           0        3.247881   -0.281448   -0.368894
     10          1           0        2.970924   -0.185565   -1.418684
     11          6           0        3.986673   -1.601962   -0.178494
     12          1           0        4.262583   -1.716582    0.869759
     13          1           0        3.339423   -2.427064   -0.475602
     14          1           0        4.886651   -1.607260   -0.793269
     15          6           0        1.976808   -0.334999    0.466569
     16          8           0        1.765445    0.508289    1.335386
     17          7           0        1.128686   -1.331255    0.201482
     18          1           0        1.346503   -2.000632   -0.522822
     19          6           0       -0.115423   -1.491312    0.926861
     20          1           0       -0.123025   -2.459886    1.426752
     21          6           0       -0.282414   -0.399081    1.978029
     22          1           0       -0.285803    0.576381    1.491770
     23          1           0       -1.224318   -0.544139    2.506907
     24          1           0        0.543411   -0.447862    2.687752
     25          6           0       -1.310664   -1.419361   -0.012571
     26          8           0       -1.430005   -2.224980   -0.933058
     27          7           0       -2.197797   -0.449722    0.222021
     28          1           0       -2.056236    0.188904    0.991570
     29          6           0       -3.377783   -0.275979   -0.600883
     30          1           0       -3.077886   -0.087976   -1.631813
     31          6           0       -4.257769   -1.521053   -0.568651
     32          1           0       -4.573469   -1.717035    0.455989
     33          1           0       -5.135714   -1.362299   -1.194886
     34          1           0       -3.693906   -2.374962   -0.944185
     35          6           0       -4.215674    0.898527   -0.116204
     36          8           0       -3.859773    1.559091    0.857168
     37          7           0       -5.333083    1.157752   -0.799158
     38          1           0       -5.583833    0.586058   -1.593175
     39          6           0       -6.215845    2.248452   -0.437679
     40          1           0       -5.814077    2.768810    0.431815
     41          1           0       -6.294770    2.944773   -1.272651
     42          1           0       -7.203573    1.853712   -0.199863
 ---------------------------------------------------------------------
 Rotational constants (GHZ):      0.6909354      0.1153439      0.1077229
 Standard basis: 6-31G(d) (6D, 7F)
 There are   344 symmetry adapted basis functions of A   symmetry.
 Integral buffers will be    131072 words long.
 Raffenetti 1 integral format.
 Two-electron integral symmetry is turned on.
   344 basis functions,   648 primitive gaussians,   344 cartesian basis functions
    77 alpha electrons       77 beta electrons
       nuclear repulsion energy      1607.1617022677 Hartrees.
 NAtoms=   42 NActive=   42 NUniq=   42 SFac= 7.50D-01 NAtFMM=   80 NAOKFM=F Big=F
 One-electron integrals computed using PRISM.
 NBasis=   344 RedAO= T  NBF=   344
 NBsUse=   344 1.00D-06 NBFU=   344
 Harris functional with IExCor=  205 diagonalized for initial guess.
 ExpMin= 1.61D-01 ExpMax= 5.48D+03 ExpMxC= 8.25D+02 IAcc=1 IRadAn=         1 AccDes= 0.00D+00
 HarFok:  IExCor=  205 AccDes= 0.00D+00 IRadAn=         1 IDoV= 1
 ScaDFX=  1.000000  1.000000  1.000000  1.000000
 FoFCou: FMM=F IPFlag=           0 FMFlag=      100000 FMFlg1=           0
         NFxFlg=           0 DoJE=T BraDBF=F KetDBF=T FulRan=T
         Omega=  0.000000  0.000000  1.000000  0.000000  0.000000 ICntrl=     500 IOpCl=  0
         NMat0=    1 NMatS0=    1 NMatT0=    0 NMatD0=    1 NMtDS0=    0 NMtDT0=    0
         I1Cent=           4 NGrid=           0.
 Petite list used in FoFCou.
 Initial guess orbital symmetries:
       Occupied  (A) (A) (A) (A) (A) (A) (A) (A) (A) (A) (A) (A)
                 (A) (A) (A) (A) (A) (A) (A) (A) (A) (A) (A) (A)
                 (A) (A) (A) (A) (A) (A) (A) (A) (A) (A) (A) (A)
                 (A) (A) (A) (A) (A) (A) (A) (A) (A) (A) (A) (A)
                 (A) (A) (A) (A) (A) (A) (A) (A) (A) (A) (A) (A)
                 (A) (A) (A) (A) (A) (A) (A) (A) (A) (A) (A) (A)
                 (A) (A) (A) (A) (A)
       Virtual   (A) (A) (A) (A) (A) (A) (A) (A) (A) (A) (A) (A)
                 (A) (A) (A) (A) (A) (A) (A) (A) (A) (A) (A) (A)
                 (A) (A) (A) (A) (A) (A) (A) (A) (A) (A) (A) (A)
                 (A) (A) (A) (A) (A) (A) (A) (A) (A) (A) (A) (A)
                 (A) (A) (A) (A) (A) (A) (A) (A) (A) (A) (A) (A)
                 (A) (A) (A) (A) (A) (A) (A) (A) (A) (A) (A) (A)
                 (A) (A) (A) (A) (A) (A) (A) (A) (A) (A) (A) (A)
                 (A) (A) (A) (A) (A) (A) (A) (A) (A) (A) (A) (A)
                 (A) (A) (A) (A) (A) (A) (A) (A) (A) (A) (A) (A)
                 (A) (A) (A) (A) (A) (A) (A) (A) (A) (A) (A) (A)
                 (A) (A) (A) (A) (A) (A) (A) (A) (A) (A) (A) (A)
                 (A) (A) (A) (A) (A) (A) (A) (A) (A) (A) (A) (A)
                 (A) (A) (A) (A) (A) (A) (A) (A) (A) (A) (A) (A)
                 (A) (A) (A) (A) (A) (A) (A) (A) (A) (A) (A) (A)
                 (A) (A) (A) (A) (A) (A) (A) (A) (A) (A) (A) (A)
                 (A) (A) (A) (A) (A) (A) (A) (A) (A) (A) (A) (A)
                 (A) (A) (A) (A) (A) (A) (A) (A) (A) (A) (A) (A)
                 (A) (A) (A) (A) (A) (A) (A) (A) (A) (A) (A) (A)
                 (A) (A) (A) (A) (A) (A) (A) (A) (A) (A) (A) (A)
                 (A) (A) (A) (A) (A) (A) (A) (A) (A) (A) (A) (A)
                 (A) (A) (A) (A) (A) (A) (A) (A) (A) (A) (A) (A)
                 (A) (A) (A) (A) (A) (A) (A) (A) (A) (A) (A) (A)
                 (A) (A) (A)
 The electronic state of the initial guess is 1-A.
 Requested convergence on RMS density matrix=1.00D-08 within 128 cycles.
 Requested convergence on MAX density matrix=1.00D-06.
 Requested convergence on             energy=1.00D-06.
 No special actions if energy rises.
 Integral accuracy reduced to 1.0D-05 until final iterations.
 Initial convergence to 1.0D-05 achieved.  Increase integral accuracy.
 SCF Done:  E(RHF) =  -984.507030398     A.U. after   15 cycles
             Convg  =    0.3663D-08             -V/T =  2.0017
 Range of M.O.s used for correlation:     1   344
 NBasis=   344 NAE=    77 NBE=    77 NFC=     0 NFV=     0
 NROrb=    344 NOA=    77 NOB=    77 NVA=   267 NVB=   267
 Symmetrizing basis deriv contribution to polar:
 IMax=3 JMax=2 DiffMx= 0.00D+00
 G2DrvN: will do    43 centers at a time, making    1 passes doing MaxLOS=2.
 Calling FoFCou, ICntrl=  3107 FMM=F I1Cent=   0 AccDes= 0.00D+00.
 FoFDir/FoFCou used for L=0 through L=2.
 End of G2Drv Frequency-dependent properties file   721 does not exist.
 End of G2Drv Frequency-dependent properties file   722 does not exist.
          IDoAtm=111111111111111111111111111111111111111111
          Differentiating once with respect to nuclear coordinates.
          There are   129 degrees of freedom in the 1st order CPHF.  IDoFFX=5.
    123 vectors produced by pass  0 Test12= 2.06D-10 1.00D-07 XBig12= 8.29D-02 5.05D-02.
 AX will form   123 AO Fock derivatives at one time.
    123 vectors produced by pass  1 Test12= 2.06D-10 1.00D-07 XBig12= 6.10D-03 2.63D-02.
    123 vectors produced by pass  2 Test12= 2.06D-10 1.00D-07 XBig12= 8.68D-05 1.63D-03.
    123 vectors produced by pass  3 Test12= 2.06D-10 1.00D-07 XBig12= 9.28D-07 1.26D-04.
    123 vectors produced by pass  4 Test12= 2.06D-10 1.00D-07 XBig12= 6.60D-09 1.00D-05.
     34 vectors produced by pass  5 Test12= 2.06D-10 1.00D-07 XBig12= 3.78D-11 4.74D-07.
 Inverted reduced A of dimension   649 with in-core refinement.
 End of Minotr Frequency-dependent properties file   721 does not exist.
 End of Minotr Frequency-dependent properties file   722 does not exist.

 **********************************************************************

            Population analysis using the SCF density.

 **********************************************************************

 Orbital symmetries:
       Occupied  (A) (A) (A) (A) (A) (A) (A) (A) (A) (A) (A) (A)
                 (A) (A) (A) (A) (A) (A) (A) (A) (A) (A) (A) (A)
                 (A) (A) (A) (A) (A) (A) (A) (A) (A) (A) (A) (A)
                 (A) (A) (A) (A) (A) (A) (A) (A) (A) (A) (A) (A)
                 (A) (A) (A) (A) (A) (A) (A) (A) (A) (A) (A) (A)
                 (A) (A) (A) (A) (A) (A) (A) (A) (A) (A) (A) (A)
                 (A) (A) (A) (A) (A)
       Virtual   (A) (A) (A) (A) (A) (A) (A) (A) (A) (A) (A) (A)
                 (A) (A) (A) (A) (A) (A) (A) (A) (A) (A) (A) (A)
                 (A) (A) (A) (A) (A) (A) (A) (A) (A) (A) (A) (A)
                 (A) (A) (A) (A) (A) (A) (A) (A) (A) (A) (A) (A)
                 (A) (A) (A) (A) (A) (A) (A) (A) (A) (A) (A) (A)
                 (A) (A) (A) (A) (A) (A) (A) (A) (A) (A) (A) (A)
                 (A) (A) (A) (A) (A) (A) (A) (A) (A) (A) (A) (A)
                 (A) (A) (A) (A) (A) (A) (A) (A) (A) (A) (A) (A)
                 (A) (A) (A) (A) (A) (A) (A) (A) (A) (A) (A) (A)
                 (A) (A) (A) (A) (A) (A) (A) (A) (A) (A) (A) (A)
                 (A) (A) (A) (A) (A) (A) (A) (A) (A) (A) (A) (A)
                 (A) (A) (A) (A) (A) (A) (A) (A) (A) (A) (A) (A)
                 (A) (A) (A) (A) (A) (A) (A) (A) (A) (A) (A) (A)
                 (A) (A) (A) (A) (A) (A) (A) (A) (A) (A) (A) (A)
                 (A) (A) (A) (A) (A) (A) (A) (A) (A) (A) (A) (A)
                 (A) (A) (A) (A) (A) (A) (A) (A) (A) (A) (A) (A)
                 (A) (A) (A) (A) (A) (A) (A) (A) (A) (A) (A) (A)
                 (A) (A) (A) (A) (A) (A) (A) (A) (A) (A) (A) (A)
                 (A) (A) (A) (A) (A) (A) (A) (A) (A) (A) (A) (A)
                 (A) (A) (A) (A) (A) (A) (A) (A) (A) (A) (A) (A)
                 (A) (A) (A) (A) (A) (A) (A) (A) (A) (A) (A) (A)
                 (A) (A) (A) (A) (A) (A) (A) (A) (A) (A) (A) (A)
                 (A) (A) (A)
 The electronic state is 1-A.
 Alpha  occ. eigenvalues --  -20.53421 -20.52997 -20.52429 -20.51299 -15.60894
 Alpha  occ. eigenvalues --  -15.60579 -15.59301 -15.58684 -11.36647 -11.36286
 Alpha  occ. eigenvalues --  -11.35207 -11.34632 -11.29036 -11.29021 -11.28667
 Alpha  occ. eigenvalues --  -11.27008 -11.23269 -11.22692 -11.22165 -11.21453
 Alpha  occ. eigenvalues --   -1.40137  -1.39368  -1.38120  -1.36973  -1.25697
 Alpha  occ. eigenvalues --   -1.24895  -1.24491  -1.23605  -1.08785  -1.05919
 Alpha  occ. eigenvalues --   -1.02482  -0.98346  -0.96447  -0.91084  -0.90201
 Alpha  occ. eigenvalues --   -0.88144  -0.81738  -0.79943  -0.78241  -0.77876
 Alpha  occ. eigenvalues --   -0.76511  -0.73718  -0.69105  -0.68019  -0.67381
 Alpha  occ. eigenvalues --   -0.66836  -0.64784  -0.64607  -0.63437  -0.62913
 Alpha  occ. eigenvalues --   -0.61979  -0.60741  -0.60337  -0.58621  -0.57651
 Alpha  occ. eigenvalues --   -0.57354  -0.56779  -0.55984  -0.55852  -0.55624
 Alpha  occ. eigenvalues --   -0.54629  -0.54376  -0.53587  -0.53264  -0.52795
 Alpha  occ. eigenvalues --   -0.52177  -0.52098  -0.50272  -0.49193  -0.43622
 Alpha  occ. eigenvalues --   -0.42874  -0.41152  -0.40727  -0.40374  -0.39401
 Alpha  occ. eigenvalues --   -0.38827  -0.38334
 Alpha virt. eigenvalues --    0.17019   0.18460   0.19664   0.20444   0.20625
 Alpha virt. eigenvalues --    0.22122   0.23958   0.25460   0.25934   0.28021
 Alpha virt. eigenvalues --    0.28166   0.28616   0.28911   0.29309   0.30269
 Alpha virt. eigenvalues --    0.30806   0.31272   0.31412   0.32015   0.32921
 Alpha virt. eigenvalues --    0.33290   0.33344   0.34550   0.35379   0.35505
 Alpha virt. eigenvalues --    0.35928   0.37017   0.37612   0.38011   0.39842
 Alpha virt. eigenvalues --    0.41121   0.41884   0.42885   0.43903   0.44648
 Alpha virt. eigenvalues --    0.47256   0.48487   0.52214   0.53226   0.54514
 Alpha virt. eigenvalues --    0.55512   0.59517   0.60269   0.61742   0.63074
 Alpha virt. eigenvalues --    0.70886   0.72073   0.72386   0.72704   0.73622
 Alpha virt. eigenvalues --    0.74093   0.75251   0.75971   0.76580   0.76776
 Alpha virt. eigenvalues --    0.77388   0.77997   0.79447   0.80564   0.81520
 Alpha virt. eigenvalues --    0.83197   0.83889   0.85693   0.86973   0.88394
 Alpha virt. eigenvalues --    0.89551   0.90604   0.91376   0.92230   0.92830
 Alpha virt. eigenvalues --    0.93704   0.94326   0.95226   0.97033   0.98047
 Alpha virt. eigenvalues --    0.98809   0.99420   0.99704   1.00048   1.02448
 Alpha virt. eigenvalues --    1.03247   1.03672   1.04861   1.06301   1.08417
 Alpha virt. eigenvalues --    1.08965   1.09473   1.10427   1.11035   1.11880
 Alpha virt. eigenvalues --    1.12004   1.13975   1.14124   1.14563   1.15173
 Alpha virt. eigenvalues --    1.15483   1.15993   1.16263   1.16719   1.18092
 Alpha virt. eigenvalues --    1.18327   1.18470   1.19404   1.19765   1.20139
 Alpha virt. eigenvalues --    1.20954   1.21386   1.21830   1.22152   1.22992
 Alpha virt. eigenvalues --    1.24061   1.25370   1.26700   1.27763   1.28106
 Alpha virt. eigenvalues --    1.29755   1.32191   1.33668   1.35272   1.36746
 Alpha virt. eigenvalues --    1.37185   1.38241   1.40283   1.41814   1.43452
 Alpha virt. eigenvalues --    1.46346   1.48155   1.50771   1.53754   1.53889
 Alpha virt. eigenvalues --    1.55483   1.56970   1.58502   1.59131   1.61225
 Alpha virt. eigenvalues --    1.61750   1.64350   1.66259   1.67614   1.70303
 Alpha virt. eigenvalues --    1.70657   1.72789   1.73863   1.74069   1.74909
 Alpha virt. eigenvalues --    1.76983   1.77327   1.79669   1.81417   1.82817
 Alpha virt. eigenvalues --    1.89923   1.92586   1.93104   1.96643   1.98712
 Alpha virt. eigenvalues --    1.99679   2.02620   2.03150   2.04276   2.06409
 Alpha virt. eigenvalues --    2.08151   2.09631   2.10606   2.11059   2.12743
 Alpha virt. eigenvalues --    2.13325   2.13705   2.14101   2.15353   2.15439
 Alpha virt. eigenvalues --    2.16099   2.16875   2.18321   2.19634   2.19941
 Alpha virt. eigenvalues --    2.21309   2.22007   2.23271   2.24496   2.26216
 Alpha virt. eigenvalues --    2.27902   2.28666   2.31471   2.32958   2.33915
 Alpha virt. eigenvalues --    2.34435   2.36491   2.36851   2.37631   2.38351
 Alpha virt. eigenvalues --    2.39796   2.41830   2.45344   2.47453   2.48729
 Alpha virt. eigenvalues --    2.49496   2.52237   2.53433   2.57062   2.58098
 Alpha virt. eigenvalues --    2.58544   2.61266   2.61986   2.62585   2.62954
 Alpha virt. eigenvalues --    2.63571   2.64269   2.65423   2.67391   2.68681
 Alpha virt. eigenvalues --    2.69999   2.72949   2.74016   2.75259   2.77129
 Alpha virt. eigenvalues --    2.78381   2.80036   2.80653   2.81967   2.84722
 Alpha virt. eigenvalues --    2.87425   2.89175   2.91551   2.94522   2.95235
 Alpha virt. eigenvalues --    2.97998   2.99399   3.00963   3.02760   3.06716
 Alpha virt. eigenvalues --    3.07604   3.08019   3.10649   3.14515   3.18398
 Alpha virt. eigenvalues --    3.23985   3.26827   3.30436   3.32429   3.34993
 Alpha virt. eigenvalues --    3.36567   3.39233   3.41179   3.53106   3.55270
 Alpha virt. eigenvalues --    3.60715   3.63131   4.39303   4.43580   4.43874
 Alpha virt. eigenvalues --    4.46839   4.49300   4.50934   4.53934   4.61850
 Alpha virt. eigenvalues --    4.63048   4.65341   4.67966   4.71253   4.72079
 Alpha virt. eigenvalues --    4.79650   4.85436   4.87363   4.93796   5.03370
 Alpha virt. eigenvalues --    5.06209   5.20080
          Condensed to atoms (all electrons):
              1          2          3          4          5          6
     1  H    0.458389   0.385679  -0.018762  -0.018789  -0.030772   0.003530
     2  C    0.385679   5.245101   0.374696   0.374795   0.377867  -0.067255
     3  H   -0.018762   0.374696   0.510669  -0.023663  -0.034536   0.001263
     4  H   -0.018789   0.374795  -0.023663   0.512550  -0.035436   0.001183
     5  C   -0.030772   0.377867  -0.034536  -0.035436   4.186720   0.587292
     6  O    0.003530  -0.067255   0.001263   0.001183   0.587292   8.210359
     7  N    0.003860  -0.120017   0.003491   0.003714   0.246961  -0.107623
     8  H   -0.000018  -0.001214   0.000645   0.000484  -0.017446   0.002014
     9  C   -0.000076   0.004569  -0.000241  -0.000091  -0.029969   0.014434
    10  H    0.000001  -0.000008  -0.000004  -0.000002  -0.001648   0.002897
    11  C    0.000006  -0.000506   0.000008   0.000030  -0.003921  -0.015840
    12  H    0.000000  -0.000042   0.000000   0.000002   0.000026  -0.000022
    13  H    0.000000   0.000007   0.000000  -0.000001   0.000283   0.000269
    14  H    0.000001   0.000300  -0.000005  -0.000025   0.000383   0.011172
    15  C    0.000000   0.000005  -0.000011  -0.000006   0.004079   0.000547
    16  O    0.000000  -0.000041  -0.000001  -0.000001   0.000287  -0.000003
    17  N    0.000000   0.000000   0.000000   0.000000  -0.000080  -0.000002
    18  H    0.000000   0.000000   0.000000   0.000000   0.000002   0.000001
    19  C    0.000000   0.000000   0.000000   0.000000   0.000001   0.000000
    20  H    0.000000   0.000000   0.000000   0.000000   0.000000   0.000000
    21  C    0.000000   0.000000   0.000000   0.000000   0.000000   0.000000
    22  H    0.000000   0.000000   0.000000   0.000000   0.000000   0.000000
    23  H    0.000000   0.000000   0.000000   0.000000   0.000000   0.000000
    24  H    0.000000   0.000000   0.000000   0.000000   0.000000   0.000000
    25  C    0.000000   0.000000   0.000000   0.000000   0.000000   0.000000
    26  O    0.000000   0.000000   0.000000   0.000000   0.000000   0.000000
    27  N    0.000000   0.000000   0.000000   0.000000   0.000000   0.000000
    28  H    0.000000   0.000000   0.000000   0.000000   0.000000   0.000000
    29  C    0.000000   0.000000   0.000000   0.000000   0.000000   0.000000
    30  H    0.000000   0.000000   0.000000   0.000000   0.000000   0.000000
    31  C    0.000000   0.000000   0.000000   0.000000   0.000000   0.000000
    32  H    0.000000   0.000000   0.000000   0.000000   0.000000   0.000000
    33  H    0.000000   0.000000   0.000000   0.000000   0.000000   0.000000
    34  H    0.000000   0.000000   0.000000   0.000000   0.000000   0.000000
    35  C    0.000000   0.000000   0.000000   0.000000   0.000000   0.000000
    36  O    0.000000   0.000000   0.000000   0.000000   0.000000   0.000000
    37  N    0.000000   0.000000   0.000000   0.000000   0.000000   0.000000
    38  H    0.000000   0.000000   0.000000   0.000000   0.000000   0.000000
    39  C    0.000000   0.000000   0.000000   0.000000   0.000000   0.000000
    40  H    0.000000   0.000000   0.000000   0.000000   0.000000   0.000000
    41  H    0.000000   0.000000   0.000000   0.000000   0.000000   0.000000
    42  H    0.000000   0.000000   0.000000   0.000000   0.000000   0.000000
              7          8          9         10         11         12
     1  H    0.003860  -0.000018  -0.000076   0.000001   0.000006   0.000000
     2  C   -0.120017  -0.001214   0.004569  -0.000008  -0.000506  -0.000042
     3  H    0.003491   0.000645  -0.000241  -0.000004   0.000008   0.000000
     4  H    0.003714   0.000484  -0.000091  -0.000002   0.000030   0.000002
     5  C    0.246961  -0.017446  -0.029969  -0.001648  -0.003921   0.000026
     6  O   -0.107623   0.002014   0.014434   0.002897  -0.015840  -0.000022
     7  N    7.419683   0.311310   0.197609  -0.041357  -0.063626   0.001634
     8  H    0.311310   0.288523  -0.026992   0.002352   0.003064   0.000245
     9  C    0.197609  -0.026992   5.013857   0.406708   0.336317  -0.042591
    10  H   -0.041357   0.002352   0.406708   0.493916  -0.045011   0.004479
    11  C   -0.063626   0.003064   0.336317  -0.045011   5.211063   0.385114
    12  H    0.001634   0.000245  -0.042591   0.004479   0.385114   0.527031
    13  H    0.004857  -0.000078  -0.041586   0.000233   0.378344  -0.024148
    14  H   -0.005508  -0.000199  -0.026744  -0.003943   0.387614  -0.020254
    15  C   -0.037771  -0.005368   0.379429  -0.039354  -0.065902  -0.003064
    16  O   -0.006499   0.020270  -0.069471   0.000828  -0.000158   0.000574
    17  N    0.002748   0.000718  -0.112593   0.002533   0.002508   0.000183
    18  H    0.000018  -0.000018   0.000947   0.000418   0.000245  -0.000015
    19  C   -0.000043  -0.000007   0.002173  -0.000155   0.000182  -0.000019
    20  H    0.000001   0.000000  -0.000046   0.000001   0.000025   0.000003
    21  C   -0.000002   0.000020  -0.000188   0.000012  -0.000033  -0.000001
    22  H   -0.000002   0.000029  -0.000305  -0.000001   0.000007   0.000000
    23  H    0.000000  -0.000001   0.000026  -0.000001  -0.000001   0.000000
    24  H   -0.000001   0.000026  -0.000225   0.000003  -0.000005   0.000011
    25  C    0.000000   0.000000  -0.000221   0.000022   0.000002   0.000001
    26  O    0.000000   0.000000  -0.000009   0.000000   0.000001   0.000000
    27  N    0.000000   0.000000   0.000002   0.000000   0.000000   0.000000
    28  H    0.000000   0.000000  -0.000001   0.000000   0.000000   0.000000
    29  C    0.000000   0.000000   0.000000   0.000000   0.000000   0.000000
    30  H    0.000000   0.000000   0.000000   0.000000   0.000000   0.000000
    31  C    0.000000   0.000000   0.000000   0.000000   0.000000   0.000000
    32  H    0.000000   0.000000   0.000000   0.000000   0.000000   0.000000
    33  H    0.000000   0.000000   0.000000   0.000000   0.000000   0.000000
    34  H    0.000000   0.000000   0.000000   0.000000   0.000000   0.000000
    35  C    0.000000   0.000000   0.000000   0.000000   0.000000   0.000000
    36  O    0.000000   0.000000   0.000000   0.000000   0.000000   0.000000
    37  N    0.000000   0.000000   0.000000   0.000000   0.000000   0.000000
    38  H    0.000000   0.000000   0.000000   0.000000   0.000000   0.000000
    39  C    0.000000   0.000000   0.000000   0.000000   0.000000   0.000000
    40  H    0.000000   0.000000   0.000000   0.000000   0.000000   0.000000
    41  H    0.000000   0.000000   0.000000   0.000000   0.000000   0.000000
    42  H    0.000000   0.000000   0.000000   0.000000   0.000000   0.000000
             13         14         15         16         17         18
     1  H    0.000000   0.000001   0.000000   0.000000   0.000000   0.000000
     2  C    0.000007   0.000300   0.000005  -0.000041   0.000000   0.000000
     3  H    0.000000  -0.000005  -0.000011  -0.000001   0.000000   0.000000
     4  H   -0.000001  -0.000025  -0.000006  -0.000001   0.000000   0.000000
     5  C    0.000283   0.000383   0.004079   0.000287  -0.000080   0.000002
     6  O    0.000269   0.011172   0.000547  -0.000003  -0.000002   0.000001
     7  N    0.004857  -0.005508  -0.037771  -0.006499   0.002748   0.000018
     8  H   -0.000078  -0.000199  -0.005368   0.020270   0.000718  -0.000018
     9  C   -0.041586  -0.026744   0.379429  -0.069471  -0.112593   0.000947
    10  H    0.000233  -0.003943  -0.039354   0.000828   0.002533   0.000418
    11  C    0.378344   0.387614  -0.065902  -0.000158   0.002508   0.000245
    12  H   -0.024148  -0.020254  -0.003064   0.000574   0.000183  -0.000015
    13  H    0.561234  -0.019602  -0.007537   0.000032   0.001251   0.002473
    14  H   -0.019602   0.423268   0.004263  -0.000056   0.000046  -0.000083
    15  C   -0.007537   0.004263   4.189447   0.565316   0.274339  -0.017405
    16  O    0.000032  -0.000056   0.565316   8.340466  -0.098395   0.002110
    17  N    0.001251   0.000046   0.274339  -0.098395   7.383727   0.314535
    18  H    0.002473  -0.000083  -0.017405   0.002110   0.314535   0.293716
    19  C    0.000281   0.000000  -0.028931   0.000154   0.190655  -0.021775
    20  H   -0.000007  -0.000001   0.001148  -0.000069  -0.046482   0.000045
    21  C   -0.000016   0.000000  -0.004319  -0.068019  -0.044765   0.003226
    22  H    0.000000   0.000000  -0.000536  -0.016090  -0.001921  -0.000153
    23  H    0.000000   0.000000   0.000153   0.004161   0.004365  -0.000044
    24  H    0.000003   0.000000  -0.000623  -0.014103  -0.001330  -0.000210
    25  C   -0.000008   0.000000   0.000396  -0.000326  -0.053614  -0.002228
    26  O   -0.000013   0.000000   0.000314  -0.000001   0.000556   0.006556
    27  N    0.000000   0.000000   0.000301  -0.000010   0.001107   0.000268
    28  H    0.000000   0.000000  -0.000017  -0.000209   0.000187  -0.000018
    29  C    0.000000   0.000000  -0.000005   0.000001  -0.000192  -0.000009
    30  H    0.000000   0.000000  -0.000001   0.000000   0.000024   0.000002
    31  C    0.000000   0.000000   0.000000   0.000000  -0.000001   0.000001
    32  H    0.000000   0.000000   0.000000   0.000000   0.000001   0.000000
    33  H    0.000000   0.000000   0.000000   0.000000   0.000000   0.000000
    34  H    0.000000   0.000000   0.000000   0.000000  -0.000003  -0.000001
    35  C    0.000000   0.000000   0.000000   0.000000  -0.000001   0.000000
    36  O    0.000000   0.000000   0.000000   0.000000   0.000000   0.000000
    37  N    0.000000   0.000000   0.000000   0.000000   0.000000   0.000000
    38  H    0.000000   0.000000   0.000000   0.000000   0.000000   0.000000
    39  C    0.000000   0.000000   0.000000   0.000000   0.000000   0.000000
    40  H    0.000000   0.000000   0.000000   0.000000   0.000000   0.000000
    41  H    0.000000   0.000000   0.000000   0.000000   0.000000   0.000000
    42  H    0.000000   0.000000   0.000000   0.000000   0.000000   0.000000
             19         20         21         22         23         24
     1  H    0.000000   0.000000   0.000000   0.000000   0.000000   0.000000
     2  C    0.000000   0.000000   0.000000   0.000000   0.000000   0.000000
     3  H    0.000000   0.000000   0.000000   0.000000   0.000000   0.000000
     4  H    0.000000   0.000000   0.000000   0.000000   0.000000   0.000000
     5  C    0.000001   0.000000   0.000000   0.000000   0.000000   0.000000
     6  O    0.000000   0.000000   0.000000   0.000000   0.000000   0.000000
     7  N   -0.000043   0.000001  -0.000002  -0.000002   0.000000  -0.000001
     8  H   -0.000007   0.000000   0.000020   0.000029  -0.000001   0.000026
     9  C    0.002173  -0.000046  -0.000188  -0.000305   0.000026  -0.000225
    10  H   -0.000155   0.000001   0.000012  -0.000001  -0.000001   0.000003
    11  C    0.000182   0.000025  -0.000033   0.000007  -0.000001  -0.000005
    12  H   -0.000019   0.000003  -0.000001   0.000000   0.000000   0.000011
    13  H    0.000281  -0.000007  -0.000016   0.000000   0.000000   0.000003
    14  H    0.000000  -0.000001   0.000000   0.000000   0.000000   0.000000
    15  C   -0.028931   0.001148  -0.004319  -0.000536   0.000153  -0.000623
    16  O    0.000154  -0.000069  -0.068019  -0.016090   0.004161  -0.014103
    17  N    0.190655  -0.046482  -0.044765  -0.001921   0.004365  -0.001330
    18  H   -0.021775   0.000045   0.003226  -0.000153  -0.000044  -0.000210
    19  C    5.012708   0.414054   0.331735  -0.035319  -0.037617  -0.028139
    20  H    0.414054   0.497436  -0.034974   0.003991  -0.003712  -0.002203
    21  C    0.331735  -0.034974   5.268083   0.403131   0.374722   0.400365
    22  H   -0.035319   0.003991   0.403131   0.488343  -0.035885  -0.013930
    23  H   -0.037617  -0.003712   0.374722  -0.035885   0.556167  -0.022527
    24  H   -0.028139  -0.002203   0.400365  -0.013930  -0.022527   0.458682
    25  C    0.381100  -0.043712  -0.072379  -0.005035  -0.002550   0.003892
    26  O   -0.072130   0.000598   0.002787  -0.000112  -0.000036  -0.000050
    27  N   -0.092989   0.001924  -0.017942  -0.002157  -0.003456   0.000694
    28  H   -0.005152   0.000186   0.001030   0.003560  -0.002012   0.000340
    29  C    0.004412  -0.000119   0.000748   0.000048  -0.000051   0.000002
    30  H   -0.000206  -0.000008  -0.000013  -0.000034   0.000002   0.000000
    31  C   -0.000534   0.000034  -0.000016   0.000004  -0.000031   0.000000
    32  H   -0.000011  -0.000006  -0.000023  -0.000002   0.000033   0.000000
    33  H    0.000008  -0.000001   0.000000   0.000000   0.000000   0.000000
    34  H    0.000264  -0.000005  -0.000016   0.000000   0.000000   0.000000
    35  C    0.000077  -0.000001  -0.000166  -0.000005   0.000037   0.000000
    36  O    0.000012   0.000000  -0.000411   0.000029   0.000070  -0.000003
    37  N    0.000001   0.000000  -0.000001   0.000000   0.000000   0.000000
    38  H    0.000000   0.000000   0.000000   0.000000   0.000000   0.000000
    39  C    0.000000   0.000000   0.000000   0.000000   0.000000   0.000000
    40  H    0.000000   0.000000   0.000000   0.000000   0.000000   0.000000
    41  H    0.000000   0.000000   0.000000   0.000000   0.000000   0.000000
    42  H    0.000000   0.000000   0.000000   0.000000   0.000000   0.000000
             25         26         27         28         29         30
     1  H    0.000000   0.000000   0.000000   0.000000   0.000000   0.000000
     2  C    0.000000   0.000000   0.000000   0.000000   0.000000   0.000000
     3  H    0.000000   0.000000   0.000000   0.000000   0.000000   0.000000
     4  H    0.000000   0.000000   0.000000   0.000000   0.000000   0.000000
     5  C    0.000000   0.000000   0.000000   0.000000   0.000000   0.000000
     6  O    0.000000   0.000000   0.000000   0.000000   0.000000   0.000000
     7  N    0.000000   0.000000   0.000000   0.000000   0.000000   0.000000
     8  H    0.000000   0.000000   0.000000   0.000000   0.000000   0.000000
     9  C   -0.000221  -0.000009   0.000002  -0.000001   0.000000   0.000000
    10  H    0.000022   0.000000   0.000000   0.000000   0.000000   0.000000
    11  C    0.000002   0.000001   0.000000   0.000000   0.000000   0.000000
    12  H    0.000001   0.000000   0.000000   0.000000   0.000000   0.000000
    13  H   -0.000008  -0.000013   0.000000   0.000000   0.000000   0.000000
    14  H    0.000000   0.000000   0.000000   0.000000   0.000000   0.000000
    15  C    0.000396   0.000314   0.000301  -0.000017  -0.000005  -0.000001
    16  O   -0.000326  -0.000001  -0.000010  -0.000209   0.000001   0.000000
    17  N   -0.053614   0.000556   0.001107   0.000187  -0.000192   0.000024
    18  H   -0.002228   0.006556   0.000268  -0.000018  -0.000009   0.000002
    19  C    0.381100  -0.072130  -0.092989  -0.005152   0.004412  -0.000206
    20  H   -0.043712   0.000598   0.001924   0.000186  -0.000119  -0.000008
    21  C   -0.072379   0.002787  -0.017942   0.001030   0.000748  -0.000013
    22  H   -0.005035  -0.000112  -0.002157   0.003560   0.000048  -0.000034
    23  H   -0.002550  -0.000036  -0.003456  -0.002012  -0.000051   0.000002
    24  H    0.003892  -0.000050   0.000694   0.000340   0.000002   0.000000
    25  C    4.170576   0.560835   0.300067  -0.010114  -0.032142  -0.001904
    26  O    0.560835   8.259456  -0.104053   0.001996   0.013729   0.003083
    27  N    0.300067  -0.104053   7.434631   0.290125   0.193520  -0.040582
    28  H   -0.010114   0.001996   0.290125   0.264666  -0.029286   0.002270
    29  C   -0.032142   0.013729   0.193520  -0.029286   5.034233   0.403310
    30  H   -0.001904   0.003083  -0.040582   0.002270   0.403310   0.499101
    31  C   -0.003558  -0.015124  -0.062872   0.002973   0.336168  -0.045214
    32  H   -0.000078   0.000013   0.001396   0.000238  -0.042414   0.004462
    33  H    0.000257   0.000243   0.004957  -0.000069  -0.042193   0.000250
    34  H    0.000594   0.009757  -0.005367  -0.000197  -0.027014  -0.003966
    35  C    0.003385   0.000449  -0.035634  -0.004802   0.379253  -0.036483
    36  O    0.000218  -0.000002  -0.008789   0.026650  -0.076916   0.001018
    37  N   -0.000094  -0.000001   0.002566   0.000863  -0.115907   0.002202
    38  H    0.000002   0.000001   0.000037  -0.000029   0.001119   0.000470
    39  C    0.000001   0.000000  -0.000049  -0.000010   0.003644  -0.000215
    40  H    0.000000   0.000000  -0.000003  -0.000011   0.000583  -0.000017
    41  H    0.000000   0.000000   0.000000   0.000000  -0.000110   0.000010
    42  H    0.000000   0.000000   0.000001   0.000000  -0.000004  -0.000001
             31         32         33         34         35         36
     1  H    0.000000   0.000000   0.000000   0.000000   0.000000   0.000000
     2  C    0.000000   0.000000   0.000000   0.000000   0.000000   0.000000
     3  H    0.000000   0.000000   0.000000   0.000000   0.000000   0.000000
     4  H    0.000000   0.000000   0.000000   0.000000   0.000000   0.000000
     5  C    0.000000   0.000000   0.000000   0.000000   0.000000   0.000000
     6  O    0.000000   0.000000   0.000000   0.000000   0.000000   0.000000
     7  N    0.000000   0.000000   0.000000   0.000000   0.000000   0.000000
     8  H    0.000000   0.000000   0.000000   0.000000   0.000000   0.000000
     9  C    0.000000   0.000000   0.000000   0.000000   0.000000   0.000000
    10  H    0.000000   0.000000   0.000000   0.000000   0.000000   0.000000
    11  C    0.000000   0.000000   0.000000   0.000000   0.000000   0.000000
    12  H    0.000000   0.000000   0.000000   0.000000   0.000000   0.000000
    13  H    0.000000   0.000000   0.000000   0.000000   0.000000   0.000000
    14  H    0.000000   0.000000   0.000000   0.000000   0.000000   0.000000
    15  C    0.000000   0.000000   0.000000   0.000000   0.000000   0.000000
    16  O    0.000000   0.000000   0.000000   0.000000   0.000000   0.000000
    17  N   -0.000001   0.000001   0.000000  -0.000003  -0.000001   0.000000
    18  H    0.000001   0.000000   0.000000  -0.000001   0.000000   0.000000
    19  C   -0.000534  -0.000011   0.000008   0.000264   0.000077   0.000012
    20  H    0.000034  -0.000006  -0.000001  -0.000005  -0.000001   0.000000
    21  C   -0.000016  -0.000023   0.000000  -0.000016  -0.000166  -0.000411
    22  H    0.000004  -0.000002   0.000000   0.000000  -0.000005   0.000029
    23  H   -0.000031   0.000033   0.000000   0.000000   0.000037   0.000070
    24  H    0.000000   0.000000   0.000000   0.000000   0.000000  -0.000003
    25  C   -0.003558  -0.000078   0.000257   0.000594   0.003385   0.000218
    26  O   -0.015124   0.000013   0.000243   0.009757   0.000449  -0.000002
    27  N   -0.062872   0.001396   0.004957  -0.005367  -0.035634  -0.008789
    28  H    0.002973   0.000238  -0.000069  -0.000197  -0.004802   0.026650
    29  C    0.336168  -0.042414  -0.042193  -0.027014   0.379253  -0.076916
    30  H   -0.045214   0.004462   0.000250  -0.003966  -0.036483   0.001018
    31  C    5.204694   0.385923   0.379199   0.388171  -0.063418  -0.000019
    32  H    0.385923   0.522077  -0.023729  -0.020569  -0.002744   0.000640
    33  H    0.379199  -0.023729   0.564825  -0.020392  -0.006828   0.000024
    34  H    0.388171  -0.020569  -0.020392   0.429500   0.003915  -0.000065
    35  C   -0.063418  -0.002744  -0.006828   0.003915   4.145184   0.591195
    36  O   -0.000019   0.000640   0.000024  -0.000065   0.591195   8.210847
    37  N    0.002437   0.000187   0.000382   0.000090   0.287462  -0.098408
    38  H   -0.000029  -0.000007   0.002612  -0.000080  -0.020724   0.002354
    39  C   -0.000078  -0.000042   0.000159   0.000003  -0.025502  -0.004822
    40  H   -0.000049  -0.000002  -0.000008   0.000000  -0.001929   0.009880
    41  H   -0.000004   0.000001   0.000002   0.000000   0.000790   0.000366
    42  H    0.000011   0.000002  -0.000002  -0.000001   0.000931   0.000375
             37         38         39         40         41         42
     1  H    0.000000   0.000000   0.000000   0.000000   0.000000   0.000000
     2  C    0.000000   0.000000   0.000000   0.000000   0.000000   0.000000
     3  H    0.000000   0.000000   0.000000   0.000000   0.000000   0.000000
     4  H    0.000000   0.000000   0.000000   0.000000   0.000000   0.000000
     5  C    0.000000   0.000000   0.000000   0.000000   0.000000   0.000000
     6  O    0.000000   0.000000   0.000000   0.000000   0.000000   0.000000
     7  N    0.000000   0.000000   0.000000   0.000000   0.000000   0.000000
     8  H    0.000000   0.000000   0.000000   0.000000   0.000000   0.000000
     9  C    0.000000   0.000000   0.000000   0.000000   0.000000   0.000000
    10  H    0.000000   0.000000   0.000000   0.000000   0.000000   0.000000
    11  C    0.000000   0.000000   0.000000   0.000000   0.000000   0.000000
    12  H    0.000000   0.000000   0.000000   0.000000   0.000000   0.000000
    13  H    0.000000   0.000000   0.000000   0.000000   0.000000   0.000000
    14  H    0.000000   0.000000   0.000000   0.000000   0.000000   0.000000
    15  C    0.000000   0.000000   0.000000   0.000000   0.000000   0.000000
    16  O    0.000000   0.000000   0.000000   0.000000   0.000000   0.000000
    17  N    0.000000   0.000000   0.000000   0.000000   0.000000   0.000000
    18  H    0.000000   0.000000   0.000000   0.000000   0.000000   0.000000
    19  C    0.000001   0.000000   0.000000   0.000000   0.000000   0.000000
    20  H    0.000000   0.000000   0.000000   0.000000   0.000000   0.000000
    21  C   -0.000001   0.000000   0.000000   0.000000   0.000000   0.000000
    22  H    0.000000   0.000000   0.000000   0.000000   0.000000   0.000000
    23  H    0.000000   0.000000   0.000000   0.000000   0.000000   0.000000
    24  H    0.000000   0.000000   0.000000   0.000000   0.000000   0.000000
    25  C   -0.000094   0.000002   0.000001   0.000000   0.000000   0.000000
    26  O   -0.000001   0.000001   0.000000   0.000000   0.000000   0.000000
    27  N    0.002566   0.000037  -0.000049  -0.000003   0.000000   0.000001
    28  H    0.000863  -0.000029  -0.000010  -0.000011   0.000000   0.000000
    29  C   -0.115907   0.001119   0.003644   0.000583  -0.000110  -0.000004
    30  H    0.002202   0.000470  -0.000215  -0.000017   0.000010  -0.000001
    31  C    0.002437  -0.000029  -0.000078  -0.000049  -0.000004   0.000011
    32  H    0.000187  -0.000007  -0.000042  -0.000002   0.000001   0.000002
    33  H    0.000382   0.002612   0.000159  -0.000008   0.000002  -0.000002
    34  H    0.000090  -0.000080   0.000003   0.000000   0.000000  -0.000001
    35  C    0.287462  -0.020724  -0.025502  -0.001929   0.000790   0.000931
    36  O   -0.098408   0.002354  -0.004822   0.009880   0.000366   0.000375
    37  N    7.332947   0.322591   0.185258  -0.031713  -0.047005  -0.048022
[...]
    30  H    0.000000   0.000000   0.000000   0.000000   0.000015   0.000004
    31  C    0.000000   0.000000   0.000000   0.000000  -0.000002   0.000000
    32  H    0.000000   0.000000   0.000000   0.000000   0.000000   0.000000
    33  H    0.000000   0.000000   0.000000   0.000000   0.000000   0.000000
    34  H    0.000000   0.000000   0.000000   0.000000   0.000000  -0.000001
    35  C    0.000000   0.000000   0.000000   0.000000  -0.000001   0.000000
    36  O    0.000000   0.000000   0.000000   0.000000   0.000000   0.000000
    37  N    0.000000   0.000000   0.000000   0.000000   0.000000   0.000000
    38  H    0.000000   0.000000   0.000000   0.000000   0.000000   0.000000
    39  C    0.000000   0.000000   0.000000   0.000000   0.000000   0.000000
    40  H    0.000000   0.000000   0.000000   0.000000   0.000000   0.000000
    41  H    0.000000   0.000000   0.000000   0.000000   0.000000   0.000000
    42  H    0.000000   0.000000   0.000000   0.000000   0.000000   0.000000
             19         20         21         22         23         24
     1  H    0.000000   0.000000   0.000000   0.000000   0.000000   0.000000
     2  C    0.000000   0.000000   0.000000   0.000000   0.000000   0.000000
     3  H    0.000000   0.000000   0.000000   0.000000   0.000000   0.000000
     4  H    0.000000   0.000000   0.000000   0.000000   0.000000   0.000000
     5  C    0.000001   0.000000   0.000000   0.000000   0.000000   0.000000
     6  O    0.000000   0.000000   0.000000   0.000000   0.000000   0.000000
     7  N   -0.000064   0.000000   0.000001  -0.000002   0.000000   0.000001
     8  H   -0.000008   0.000000  -0.000003   0.000001   0.000000   0.000001
     9  C    0.002785  -0.000095   0.000020   0.000021   0.000011  -0.000050
    10  H    0.000072   0.000000  -0.000006  -0.000002   0.000000   0.000000
    11  C   -0.000240   0.000051  -0.000015   0.000001   0.000000  -0.000001
    12  H    0.000018   0.000000  -0.000004   0.000000   0.000000   0.000004
    13  H    0.000011  -0.000022  -0.000002   0.000000   0.000000   0.000002
    14  H    0.000002  -0.000001   0.000000   0.000000   0.000000   0.000000
    15  C   -0.020344   0.001425  -0.001654   0.000788   0.000121   0.000408
    16  O    0.002055  -0.000030  -0.006497   0.001037   0.000651   0.000033
    17  N    0.194172  -0.049929  -0.037984  -0.002107   0.003851  -0.001942
    18  H   -0.027962  -0.000976   0.003101  -0.000106  -0.000064  -0.000121
    19  C    4.986804   0.422966   0.328275  -0.030026  -0.041567  -0.027744
    20  H    0.422966   0.507470  -0.037299   0.003743  -0.003328  -0.003581
    21  C    0.328275  -0.037299   5.141649   0.389893   0.382513   0.393021
    22  H   -0.030026   0.003743   0.389893   0.478638  -0.027830  -0.020913
    23  H   -0.041567  -0.003328   0.382513  -0.027830   0.543164  -0.023780
    24  H   -0.027744  -0.003581   0.393021  -0.020913  -0.023780   0.476996
    25  C    0.382555  -0.054897  -0.046107  -0.004286  -0.001612   0.003366
    26  O   -0.076982   0.001223   0.002742  -0.000047  -0.000005  -0.000050
    27  N   -0.092179   0.003218  -0.000243   0.000949   0.000554   0.000083
    28  H   -0.002831   0.000116   0.001401   0.002395  -0.000496   0.000024
    29  C    0.004583  -0.000153  -0.000096  -0.000045  -0.000116   0.000005
    30  H    0.000038  -0.000015  -0.000015  -0.000008   0.000001   0.000000
    31  C   -0.000315   0.000032   0.000006   0.000005  -0.000001   0.000000
    32  H    0.000001  -0.000002  -0.000007  -0.000001   0.000012   0.000000
    33  H    0.000003   0.000000   0.000000   0.000000   0.000000   0.000000
    34  H    0.000097  -0.000004  -0.000008   0.000000   0.000000   0.000000
    35  C    0.000038  -0.000001  -0.000041   0.000000   0.000007   0.000000
    36  O    0.000001   0.000000  -0.000121   0.000026  -0.000001  -0.000001
    37  N    0.000001   0.000000   0.000000   0.000000   0.000000   0.000000
    38  H    0.000000   0.000000   0.000000   0.000000   0.000000   0.000000
    39  C    0.000000   0.000000   0.000000   0.000000   0.000000   0.000000
    40  H    0.000000   0.000000   0.000000   0.000000   0.000000   0.000000
    41  H    0.000000   0.000000   0.000000   0.000000   0.000000   0.000000
    42  H    0.000000   0.000000   0.000000   0.000000   0.000000   0.000000
             25         26         27         28         29         30
     1  H    0.000000   0.000000   0.000000   0.000000   0.000000   0.000000
     2  C    0.000000   0.000000   0.000000   0.000000   0.000000   0.000000
     3  H    0.000000   0.000000   0.000000   0.000000   0.000000   0.000000
     4  H    0.000000   0.000000   0.000000   0.000000   0.000000   0.000000
     5  C    0.000000   0.000000   0.000000   0.000000   0.000000   0.000000
     6  O    0.000000   0.000000   0.000000   0.000000   0.000000   0.000000
     7  N    0.000004   0.000000   0.000000   0.000000   0.000000   0.000000
     8  H    0.000001   0.000000   0.000000   0.000000   0.000000   0.000000
     9  C   -0.000267  -0.000051   0.000000   0.000000   0.000000   0.000000
    10  H   -0.000004  -0.000005   0.000000   0.000000   0.000000   0.000000
    11  C    0.000004   0.000001   0.000000   0.000000   0.000000   0.000000
    12  H    0.000000   0.000000   0.000000   0.000000   0.000000   0.000000
    13  H    0.000003  -0.000003   0.000000   0.000000   0.000000   0.000000
    14  H    0.000000   0.000000   0.000000   0.000000   0.000000   0.000000
    15  C   -0.000479   0.000520   0.000318  -0.000001  -0.000008   0.000000
    16  O   -0.000186  -0.000001  -0.000017  -0.000034   0.000000   0.000000
    17  N   -0.060958  -0.005298   0.001261   0.000144  -0.000217   0.000015
    18  H   -0.002292   0.013033   0.000509  -0.000026  -0.000016   0.000004
    19  C    0.382555  -0.076982  -0.092179  -0.002831   0.004583   0.000038
    20  H   -0.054897   0.001223   0.003218   0.000116  -0.000153  -0.000015
    21  C   -0.046107   0.002742  -0.000243   0.001401  -0.000096  -0.000015
    22  H   -0.004286  -0.000047   0.000949   0.002395  -0.000045  -0.000008
    23  H   -0.001612  -0.000005   0.000554  -0.000496  -0.000116   0.000001
    24  H    0.003366  -0.000050   0.000083   0.000024   0.000005   0.000000
    25  C    4.176507   0.569658   0.292906  -0.011064  -0.031225  -0.001464
    26  O    0.569658   8.230031  -0.105851   0.001842   0.010038   0.006250
    27  N    0.292906  -0.105851   7.405326   0.299235   0.193353  -0.043008
    28  H   -0.011064   0.001842   0.299235   0.272017  -0.028543   0.002663
    29  C   -0.031225   0.010038   0.193353  -0.028543   5.049724   0.411053
    30  H   -0.001464   0.006250  -0.043008   0.002663   0.411053   0.484965
    31  C   -0.002368  -0.004183  -0.063513   0.002682   0.338333  -0.040257
    32  H    0.000129  -0.000002   0.000059   0.000510  -0.038556   0.003960
    33  H    0.000046   0.000008   0.004632  -0.000061  -0.037681   0.000039
    34  H    0.002127   0.004645  -0.005345  -0.000196  -0.029599  -0.003585
    35  C    0.003722   0.000466  -0.040502  -0.007335   0.376036  -0.042791
    36  O    0.000303  -0.000004  -0.010348   0.026061  -0.076325   0.001790
    37  N   -0.000125  -0.000002   0.002359   0.001128  -0.115088   0.004016
    38  H   -0.000005  -0.000001   0.000004  -0.000036   0.000548   0.001393
    39  C    0.000002   0.000000  -0.000077  -0.000033   0.004364  -0.000094
    40  H    0.000000   0.000000   0.000008   0.000001  -0.000175  -0.000003
    41  H    0.000000   0.000000   0.000000   0.000000   0.000003  -0.000011
    42  H    0.000000   0.000000  -0.000004  -0.000004   0.000151  -0.000001
             31         32         33         34         35         36
     1  H    0.000000   0.000000   0.000000   0.000000   0.000000   0.000000
     2  C    0.000000   0.000000   0.000000   0.000000   0.000000   0.000000
     3  H    0.000000   0.000000   0.000000   0.000000   0.000000   0.000000
     4  H    0.000000   0.000000   0.000000   0.000000   0.000000   0.000000
     5  C    0.000000   0.000000   0.000000   0.000000   0.000000   0.000000
     6  O    0.000000   0.000000   0.000000   0.000000   0.000000   0.000000
     7  N    0.000000   0.000000   0.000000   0.000000   0.000000   0.000000
     8  H    0.000000   0.000000   0.000000   0.000000   0.000000   0.000000
     9  C    0.000000   0.000000   0.000000   0.000000   0.000000   0.000000
    10  H    0.000000   0.000000   0.000000   0.000000   0.000000   0.000000
    11  C    0.000000   0.000000   0.000000   0.000000   0.000000   0.000000
    12  H    0.000000   0.000000   0.000000   0.000000   0.000000   0.000000
    13  H    0.000000   0.000000   0.000000   0.000000   0.000000   0.000000
    14  H    0.000000   0.000000   0.000000   0.000000   0.000000   0.000000
    15  C    0.000000   0.000000   0.000000   0.000000   0.000000   0.000000
    16  O    0.000000   0.000000   0.000000   0.000000   0.000000   0.000000
    17  N   -0.000002   0.000000   0.000000   0.000000  -0.000001   0.000000
    18  H    0.000000   0.000000   0.000000  -0.000001   0.000000   0.000000
    19  C   -0.000315   0.000001   0.000003   0.000097   0.000038   0.000001
    20  H    0.000032  -0.000002   0.000000  -0.000004  -0.000001   0.000000
    21  C    0.000006  -0.000007   0.000000  -0.000008  -0.000041  -0.000121
    22  H    0.000005  -0.000001   0.000000   0.000000   0.000000   0.000026
    23  H   -0.000001   0.000012   0.000000   0.000000   0.000007  -0.000001
    24  H    0.000000   0.000000   0.000000   0.000000   0.000000  -0.000001
    25  C   -0.002368   0.000129   0.000046   0.002127   0.003722   0.000303
    26  O   -0.004183  -0.000002   0.000008   0.004645   0.000466  -0.000004
    27  N   -0.063513   0.000059   0.004632  -0.005345  -0.040502  -0.010348
    28  H    0.002682   0.000510  -0.000061  -0.000196  -0.007335   0.026061
    29  C    0.338333  -0.038556  -0.037681  -0.029599   0.376036  -0.076325
    30  H   -0.040257   0.003960   0.000039  -0.003585  -0.042791   0.001790
    31  C    5.145887   0.388983   0.382415   0.391556  -0.052927  -0.000918
    32  H    0.388983   0.513415  -0.024286  -0.023088  -0.004029   0.001646
    33  H    0.382415  -0.024286   0.535015  -0.022666  -0.003003   0.000021
    34  H    0.391556  -0.023088  -0.022666   0.470740   0.004141  -0.000072
    35  C   -0.052927  -0.004029  -0.003003   0.004141   4.164721   0.595882
    36  O   -0.000918   0.001646   0.000021  -0.000072   0.595882   8.178386
    37  N    0.001448   0.000416   0.002360  -0.000053   0.282957  -0.103497
    38  H    0.000325   0.000005   0.000456  -0.000034  -0.022154   0.002500
    39  C   -0.000259  -0.000008  -0.000015   0.000003  -0.028918   0.008238
    40  H   -0.000005   0.000000   0.000003   0.000000  -0.003760   0.001182
    41  H    0.000004   0.000000  -0.000007   0.000000   0.004558   0.000349
    42  H    0.000004   0.000003  -0.000012   0.000000  -0.003008   0.003153
             37         38         39         40         41         42
     1  H    0.000000   0.000000   0.000000   0.000000   0.000000   0.000000
     2  C    0.000000   0.000000   0.000000   0.000000   0.000000   0.000000
     3  H    0.000000   0.000000   0.000000   0.000000   0.000000   0.000000
     4  H    0.000000   0.000000   0.000000   0.000000   0.000000   0.000000
     5  C    0.000000   0.000000   0.000000   0.000000   0.000000   0.000000
     6  O    0.000000   0.000000   0.000000   0.000000   0.000000   0.000000
     7  N    0.000000   0.000000   0.000000   0.000000   0.000000   0.000000
     8  H    0.000000   0.000000   0.000000   0.000000   0.000000   0.000000
     9  C    0.000000   0.000000   0.000000   0.000000   0.000000   0.000000
    10  H    0.000000   0.000000   0.000000   0.000000   0.000000   0.000000
    11  C    0.000000   0.000000   0.000000   0.000000   0.000000   0.000000
    12  H    0.000000   0.000000   0.000000   0.000000   0.000000   0.000000
    13  H    0.000000   0.000000   0.000000   0.000000   0.000000   0.000000
    14  H    0.000000   0.000000   0.000000   0.000000   0.000000   0.000000
    15  C    0.000000   0.000000   0.000000   0.000000   0.000000   0.000000
    16  O    0.000000   0.000000   0.000000   0.000000   0.000000   0.000000
    17  N    0.000000   0.000000   0.000000   0.000000   0.000000   0.000000
    18  H    0.000000   0.000000   0.000000   0.000000   0.000000   0.000000
    19  C    0.000001   0.000000   0.000000   0.000000   0.000000   0.000000
    20  H    0.000000   0.000000   0.000000   0.000000   0.000000   0.000000
    21  C    0.000000   0.000000   0.000000   0.000000   0.000000   0.000000
    22  H    0.000000   0.000000   0.000000   0.000000   0.000000   0.000000
    23  H    0.000000   0.000000   0.000000   0.000000   0.000000   0.000000
    24  H    0.000000   0.000000   0.000000   0.000000   0.000000   0.000000
    25  C   -0.000125  -0.000005   0.000002   0.000000   0.000000   0.000000
    26  O   -0.000002  -0.000001   0.000000   0.000000   0.000000   0.000000
    27  N    0.002359   0.000004  -0.000077   0.000008   0.000000  -0.000004
    28  H    0.001128  -0.000036  -0.000033   0.000001   0.000000  -0.000004
    29  C   -0.115088   0.000548   0.004364  -0.000175   0.000003   0.000151
    30  H    0.004016   0.001393  -0.000094  -0.000003  -0.000011  -0.000001
    31  C    0.001448   0.000325  -0.000259  -0.000005   0.000004   0.000004
    32  H    0.000416   0.000005  -0.000008   0.000000   0.000000   0.000003
    33  H    0.002360   0.000456  -0.000015   0.000003  -0.000007  -0.000012
    34  H   -0.000053  -0.000034   0.000003   0.000000   0.000000   0.000000
    35  C    0.282957  -0.022154  -0.028918  -0.003760   0.004558  -0.003008
    36  O   -0.103497   0.002500   0.008238   0.001182   0.000349   0.003153
    37  N    7.324112   0.328439   0.193764  -0.045384  -0.037138  -0.040323
    38  H    0.328439   0.320549  -0.022051   0.001318  -0.004551   0.002509
    39  C    0.193764  -0.022051   4.910976   0.406418   0.397451   0.404196
    40  H   -0.045384   0.001318   0.406418   0.517228  -0.030797  -0.032436
    41  H   -0.037138  -0.004551   0.397451  -0.030797   0.521429  -0.024715
    42  H   -0.040323   0.002509   0.404196  -0.032436  -0.024715   0.486229
 Mulliken atomic charges:
              1
     1  H    0.206451
     2  C   -0.575314
     3  H    0.172655
     4  H    0.202101
     5  C    0.756244
     6  O   -0.623145
     7  N   -0.824420
     8  H    0.418849
     9  C   -0.034724
    10  H    0.219256
    11  C   -0.485561
    12  H    0.175147
    13  H    0.161660
    14  H    0.211273
    15  C    0.794658
    16  O   -0.637155
    17  N   -0.838518
    18  H    0.410449
    19  C   -0.004215
    20  H    0.210091
    21  C   -0.512518
    22  H    0.207877
    23  H    0.167915
    24  H    0.204236
    25  C    0.786008
    26  O   -0.647972
    27  N   -0.843688
    28  H    0.440439
    29  C   -0.030349
    30  H    0.215066
    31  C   -0.486932
    32  H    0.180841
    33  H    0.162732
    34  H    0.211343
    35  C    0.775941
    36  O   -0.628250
    37  N   -0.799388
    38  H    0.390786
    39  C   -0.273955
    40  H    0.186403
    41  H    0.173426
    42  H    0.204259
 Sum of Mulliken atomic charges =   0.00000
 Mulliken charges with hydrogens summed into heavy atoms:
              1
     2  C    0.005893
     5  C    0.756244
     6  O   -0.623145
     7  N   -0.405571
     9  C    0.184531
    11  C    0.062518
    15  C    0.794658
    16  O   -0.637155
    17  N   -0.428069
    19  C    0.205876
    21  C    0.067510
    25  C    0.786008
    26  O   -0.647972
    27  N   -0.403249
    29  C    0.184717
    31  C    0.067984
    35  C    0.775941
    36  O   -0.628250
    37  N   -0.408601
    39  C    0.290133
 Sum of Mulliken charges with hydrogens summed into heavy atoms =   0.00000
 Electronic spatial extent (au):  <R**2>=           9121.9378
 Charge=              0.0000 electrons
 Dipole moment (field-independent basis, Debye):
    X=             -4.0055    Y=              0.6373    Z=              0.2587  Tot=              4.0642
 Quadrupole moment (field-independent basis, Debye-Ang):
   XX=           -112.0532   YY=           -107.5615   ZZ=           -134.2705
   XY=            -11.1047   XZ=             21.0027   YZ=             -2.8778
 Traceless Quadrupole moment (field-independent basis, Debye-Ang):
   XX=              5.9086   YY=             10.4002   ZZ=            -16.3088
   XY=            -11.1047   XZ=             21.0027   YZ=             -2.8778
 Octapole moment (field-independent basis, Debye-Ang**2):
  XXX=           -123.1133  YYY=             28.8006  ZZZ=              2.3593  XYY=            -19.9551
  XXY=             44.0087  XXZ=             20.6516  XZZ=            -25.1428  YZZ=              3.1090
  YYZ=             13.2534  XYZ=             54.9443
 Hexadecapole moment (field-independent basis, Debye-Ang**3):
 XXXX=          -8701.0708 YYYY=          -2000.6577 ZZZZ=           -871.0444 XXXY=           -280.3086
 XXXZ=            576.5888 YYYX=            -66.5563 YYYZ=            -12.9984 ZZZX=             54.3063
 ZZZY=            -13.6395 XXYY=          -1593.6223 XXZZ=          -1774.8511 YYZZ=           -505.0380
 XXYZ=             74.0957 YYXZ=             39.8763 ZZXY=            -62.8929
 N-N= 1.608108655447D+03 E-N=-5.524116220105D+03  KE= 9.830931463546D+02
 1\1\GINC-NODE005\FOpt\RHF\6-31G(d)\C12H22N4O4\MANAGER\26-Dec-2016\0\\#
  HF/6-31G* Opt=(ModRedundant, maxcycles=1000, calcfc) geom=nocrowd\\Ph
 i Psi fixed scan\\0,1\H,5.8224744412,2.1530815874,4.3080451518\C,4.959
 8358709,2.5699448655,3.8053876967\H,4.534278703,3.3612608771,4.4104302
 62\H,4.2250644604,1.7794929634,3.6970688174\C,5.378841572,3.0304626291
 ,2.425770333\O,6.0829985561,2.3533197476,1.7222954636\N,4.8974801188,4
 .2273403282,2.0356152343\H,4.3353288777,4.7816813068,2.6413444576\C,5.
 2045780671,4.7995356656,0.7478207521\H,6.2420601931,4.5880763994,0.521
 9745322\C,4.323407426,4.2194376381,-0.366921734\H,3.2781075281,4.43199
 26268,-0.1697103553\H,4.5840995033,4.6358007525,-1.3343270694\H,4.4625
 087546,3.1472441088,-0.4064273044\C,4.994445435,6.3110801017,0.8586497
 506\O,4.2728186571,6.7695231831,1.7062102095\N,5.6443454158,7.02237357
 88,-0.0825676108\H,6.2883817634,6.52693102,-0.6590852157\C,5.673377275
 5,8.4642242914,-0.3166697382\H,5.4588389153,8.6072930541,-1.3702547692
 \C,4.6598270375,9.2827209816,0.4765130363\H,4.8088847657,9.2236318128,
 1.5440779188\H,4.7311706438,10.3178988834,0.1580369362\H,3.6570769242,
 8.9356349827,0.2725210239\C,7.1466730704,8.8747910289,-0.1791361488\O,
 7.957895231,8.3526711339,-0.905523425\N,7.4779291403,9.7683857578,0.76
 03506496\H,6.7992563282,10.1608423987,1.3736276069\C,8.8477301337,10.1
 68279903,0.9894371599\H,9.4757748594,9.2899411748,0.9087229866\C,9.320
 4209603,11.2170092278,-0.0257987355\H,8.7123959419,12.1119680586,0.047
 4385319\H,10.3563696007,11.4894329175,0.1462786365\H,9.2337131909,10.8
 121662295,-1.025291829\C,8.9201373021,10.7311049215,2.4062398226\O,7.9
 421848775,11.1675722879,2.9560730059\N,10.1420315264,10.7462018753,2.9
 655419557\H,10.8879924504,10.2767301201,2.5070529588\C,10.3611297237,1
 1.2617837771,4.3019955052\H,9.9431880417,10.6049353118,5.0559584846\H,
 11.4259977286,11.3556237957,4.4657610727\H,9.9017489868,12.2344766945,
 4.4017739823\\Version=EM64L-G09RevA.02\State=1-A\HF=-984.5560948\RMSD=
 7.250e-09\RMSF=2.772e-04\Dipole=0.820595,1.3334507,0.3243876\Quadrupol
 e=12.0612681,-13.2659325,1.2046643,12.8218386,8.652316,-5.3763102\PG=C
 01 [X(C12H22N4O4)]\\@


 WHERE THERE IS MUCH DESIRE TO LEARN, THERE OF NECESSITY WILL BE
 MUCH ARGUING, MUCH WRITING, MANY OPINIONS; FOR OPINION IN GOOD MEN
 IS BUT KNOWLEDGE IN THE MAKING. -- JOHN MILTON.
 Job cpu time:  0 days  2 hours 36 minutes 53.7 seconds.
 File lengths (MBytes):  RWF=    553 Int=      0 D2E=      0 Chk=     11 Scr=      1
 Normal termination of Gaussian 09 at Mon Dec 26 13:23:08 2016.
