 Entering Gaussian System, Link 0=g09
 Initial command:
 /home/steboss/Software/g09/l1.exe /home/steboss/projects/phi_psi_scan/alanine/MP2/315/5565/Gau-29498.inp -scrdir=/home/steboss/projects/phi_psi_scan/alanine/MP2/315/5565/
 Entering Link 1 = /home/steboss/Software/g09/l1.exe PID=     29500.
  
 Copyright (c) 1988,1990,1992,1993,1995,1998,2003,2009, Gaussian, Inc.
                  All Rights Reserved.
  
 This is part of the Gaussian(R) 09 program.  It is based on
 the Gaussian(R) 03 system (copyright 2003, Gaussian, Inc.),
 the Gaussian(R) 98 system (copyright 1998, Gaussian, Inc.),
 the Gaussian(R) 94 system (copyright 1995, Gaussian, Inc.),
 the Gaussian 92(TM) system (copyright 1992, Gaussian, Inc.),
 the Gaussian 90(TM) system (copyright 1990, Gaussian, Inc.),
 the Gaussian 88(TM) system (copyright 1988, Gaussian, Inc.),
 the Gaussian 86(TM) system (copyright 1986, Carnegie Mellon
 University), and the Gaussian 82(TM) system (copyright 1983,
 Carnegie Mellon University). Gaussian is a federally registered
 trademark of Gaussian, Inc.
  
 This software contains proprietary and confidential information,
 including trade secrets, belonging to Gaussian, Inc.
  
 This software is provided under written license and may be
 used, copied, transmitted, or stored only in accord with that
 written license.
  
 The following legend is applicable only to US Government
 contracts under FAR:
  
                    RESTRICTED RIGHTS LEGEND
  
 Use, reproduction and disclosure by the US Government is
 subject to restrictions as set forth in subparagraphs (a)
 and (c) of the Commercial Computer Software - Restricted
 Rights clause in FAR 52.227-19.
  
 Gaussian, Inc.
 340 Quinnipiac St., Bldg. 40, Wallingford CT 06492
  
  
 ---------------------------------------------------------------
 Warning -- This program may not be used in any manner that
 competes with the business of Gaussian, Inc. or will provide
 assistance to any competitor of Gaussian, Inc.  The licensee
 of this program is prohibited from giving any competitor of
 Gaussian, Inc. access to this program.  By using this program,
 the user acknowledges that Gaussian, Inc. is engaged in the
 business of creating and licensing software in the field of
 computational chemistry and represents and warrants to the
 licensee that it is not a competitor of Gaussian, Inc. and that
 it will not use this program in any manner prohibited above.
 ---------------------------------------------------------------
  

 Cite this work as:
 Gaussian 09, Revision A.02,
 M. J. Frisch, G. W. Trucks, H. B. Schlegel, G. E. Scuseria, 
 M. A. Robb, J. R. Cheeseman, G. Scalmani, V. Barone, B. Mennucci, 
 G. A. Petersson, H. Nakatsuji, M. Caricato, X. Li, H. P. Hratchian, 
 A. F. Izmaylov, J. Bloino, G. Zheng, J. L. Sonnenberg, M. Hada, 
 M. Ehara, K. Toyota, R. Fukuda, J. Hasegawa, M. Ishida, T. Nakajima, 
 Y. Honda, O. Kitao, H. Nakai, T. Vreven, J. A. Montgomery, Jr., 
 J. E. Peralta, F. Ogliaro, M. Bearpark, J. J. Heyd, E. Brothers, 
 K. N. Kudin, V. N. Staroverov, R. Kobayashi, J. Normand, 
 K. Raghavachari, A. Rendell, J. C. Burant, S. S. Iyengar, J. Tomasi, 
 M. Cossi, N. Rega, J. M. Millam, M. Klene, J. E. Knox, J. B. Cross, 
 V. Bakken, C. Adamo, J. Jaramillo, R. Gomperts, R. E. Stratmann, 
 O. Yazyev, A. J. Austin, R. Cammi, C. Pomelli, J. W. Ochterski, 
 R. L. Martin, K. Morokuma, V. G. Zakrzewski, G. A. Voth, 
 P. Salvador, J. J. Dannenberg, S. Dapprich, A. D. Daniels, 
 O. Farkas, J. B. Foresman, J. V. Ortiz, J. Cioslowski, 
 and D. J. Fox, Gaussian, Inc., Wallingford CT, 2009.
 
 ******************************************
 Gaussian 09:  EM64L-G09RevA.02 11-Jun-2009
                13-Feb-2017 
 ******************************************
 %chk=structure_120.chk
 %NProcShared=8
 Will use up to    8 processors via shared memory.
 -------------------
 #SP MP2/aug-cc-pVDZ
 -------------------
 1/38=1/1;
 2/12=2,17=6,18=5,40=1/2;
 3/5=16,7=10,11=9,16=1,25=1,30=1/1,2,3;
 4//1;
 5/5=2,38=5/2;
 8/10=1/1;
 9/16=-3/6;
 6/7=2,8=2,9=2,10=2/1;
 99/5=1,9=1/99;
 -------------------------------
 Single Point calculation at MP2
 -------------------------------
 Symbolic Z-matrix:
 Charge =  0 Multiplicity = 1
 H                    -3.5256   -1.7532   -0.0315 
 C                    -3.0369   -0.9363    0.5039 
 H                    -2.8344   -1.2786    1.5255 
 H                    -3.7131   -0.0769    0.5534 
 C                    -1.7179   -0.6195   -0.1805 
 O                    -1.014    -1.4859   -0.6886 
 N                    -1.3672    0.7065   -0.2137 
 H                    -1.8699    1.3267    0.4088 
 C                     0.0056    1.1049   -0.5344 
 H                     0.1506    0.9696   -1.6136 
 C                     0.2096    2.5762   -0.1735 
 H                     0.1467    2.7035    0.9121 
 H                     1.1997    2.9122   -0.496 
 H                    -0.5428    3.2049   -0.6623 
 C                     1.0321    0.2358    0.2312 
 O                     1.1018    0.2826    1.4533 
 N                     1.8936   -0.4751   -0.5528 
 H                     1.5304   -0.7339   -1.4614 
 C                     2.8209   -1.4152    0.0611 
 H                     3.2641   -0.9432    0.9393 
 H                     2.3173   -2.3365    0.3818 
 H                     3.6091   -1.6644   -0.6544 
 
                          Input orientation:                          
 ---------------------------------------------------------------------
 Center     Atomic      Atomic             Coordinates (Angstroms)
 Number     Number       Type             X           Y           Z
 ---------------------------------------------------------------------
      1          1           0       -3.525600   -1.753200   -0.031500
      2          6           0       -3.036900   -0.936300    0.503900
      3          1           0       -2.834400   -1.278600    1.525500
      4          1           0       -3.713100   -0.076900    0.553400
      5          6           0       -1.717900   -0.619500   -0.180500
      6          8           0       -1.014000   -1.485900   -0.688600
      7          7           0       -1.367200    0.706500   -0.213700
      8          1           0       -1.869900    1.326700    0.408800
      9          6           0        0.005600    1.104900   -0.534400
     10          1           0        0.150600    0.969600   -1.613600
     11          6           0        0.209600    2.576200   -0.173500
     12          1           0        0.146700    2.703500    0.912100
     13          1           0        1.199700    2.912200   -0.496000
     14          1           0       -0.542800    3.204900   -0.662300
     15          6           0        1.032100    0.235800    0.231200
     16          8           0        1.101800    0.282600    1.453300
     17          7           0        1.893600   -0.475100   -0.552800
     18          1           0        1.530400   -0.733900   -1.461400
     19          6           0        2.820900   -1.415200    0.061100
     20          1           0        3.264100   -0.943200    0.939300
     21          1           0        2.317300   -2.336500    0.381800
     22          1           0        3.609100   -1.664400   -0.654400
 ---------------------------------------------------------------------
                    Distance matrix (angstroms):
                    1          2          3          4          5
     1  H    0.000000
     2  C    1.092157   0.000000
     3  H    1.768404   1.096286   0.000000
     4  H    1.785286   1.094653   1.777969   0.000000
     5  C    2.138985   1.519384   2.142760   2.194048   0.000000
     6  O    2.609859   2.411688   2.873859   3.288310   1.226495
     7  N    3.277501   2.449824   3.019622   2.589480   1.371994
     8  H    3.524343   2.547960   2.994139   2.321290   2.039135
     9  C    4.570669   3.808067   4.241446   4.050764   2.463585
    10  H    4.840571   4.275093   4.880428   4.551838   2.840829
    11  C    5.719754   4.830765   5.197309   4.791127   3.731997
    12  H    5.851354   4.852842   5.012019   4.770466   3.963942
    13  H    6.656589   5.810295   6.158184   5.845645   4.591823
    14  H    5.820460   4.972936   5.489961   4.722175   4.029768
    15  C    4.979735   4.243223   4.349534   4.766395   2.909216
    16  O    5.268960   4.417682   4.235119   4.911448   3.381389
    17  N    5.592229   5.063512   5.226751   5.728641   3.633509
    18  H    5.352263   4.976304   5.316930   5.655560   3.493601
    19  C    6.356169   5.894000   5.843419   6.687792   4.614349
    20  H    6.906416   6.316029   6.135782   7.041357   5.116547
    21  H    5.886471   5.535605   5.382120   6.442124   4.421211
    22  H    7.162390   6.785360   6.813186   7.589041   5.449158
                    6          7          8          9         10
     6  O    0.000000
     7  N    2.270880   0.000000
     8  H    3.138084   1.012354   0.000000
     9  C    2.788477   1.464975   2.111000   0.000000
    10  H    2.870784   2.081504   2.880979   1.097271   0.000000
    11  C    4.273544   2.446159   2.494924   1.528590   2.158363
    12  H    4.632552   2.747240   2.493103   2.160508   3.063590
    13  H    4.927560   3.396142   3.571403   2.166491   2.474537
    14  H    4.714480   2.668872   2.536944   2.174190   2.526330
    15  C    2.827863   2.485183   3.105352   1.547637   2.172278
    16  O    3.491696   3.009076   3.318452   2.414287   3.283691
    17  N    3.081282   3.484822   4.281949   2.461967   2.500101
    18  H    2.763457   3.468082   4.393832   2.562329   2.197482
    19  C    3.908133   4.702904   5.444494   3.825106   3.952517
    20  H    4.609417   5.049738   5.638425   4.121205   4.457576
    21  H    3.600949   4.815601   5.563489   4.245776   4.427924
    22  H    4.626671   5.529823   6.332181   4.546277   4.451881
                   11         12         13         14         15
    11  C    0.000000
    12  H    1.094847   0.000000
    13  H    1.094166   1.770624   0.000000
    14  H    1.095580   1.790404   1.774721   0.000000
    15  C    2.513516   2.708708   2.778494   3.477673   0.000000
    16  O    2.950102   2.658170   3.274775   3.964885   1.224980
    17  N    3.505732   3.911661   3.458110   4.414797   1.364631
    18  H    3.789454   4.400437   3.786212   4.522263   2.013334
    19  C    4.775479   4.983898   4.654572   5.760478   2.440193
    20  H    4.791082   4.797639   4.602819   5.853575   2.621692
    21  H    5.374512   5.513105   5.437685   6.322771   2.879435
    22  H    5.456240   5.789705   5.174511   6.399095   3.322044
                   16         17         18         19         20
    16  O    0.000000
    17  N    2.285934   0.000000
    18  H    3.116480   1.012149   0.000000
    19  C    2.788557   1.456210   2.108925   0.000000
    20  H    2.538173   2.079363   2.968650   1.091075   0.000000
    21  H    3.079811   2.125514   2.566111   1.097841   1.774407
    22  H    3.810480   2.089904   2.416210   1.093298   1.782985
                   21         22
    21  H    0.000000
    22  H    1.787226   0.000000
 Stoichiometry    C6H12N2O2
 Framework group  C1[X(C6H12N2O2)]
 Deg. of freedom    60
 Full point group                 C1      NOp   1
 Largest Abelian subgroup         C1      NOp   1
 Largest concise Abelian subgroup C1      NOp   1
                         Standard orientation:                         
 ---------------------------------------------------------------------
 Center     Atomic      Atomic             Coordinates (Angstroms)
 Number     Number       Type             X           Y           Z
 ---------------------------------------------------------------------
      1          1           0       -3.525588   -1.753203   -0.031508
      2          6           0       -3.036892   -0.936301    0.503892
      3          1           0       -2.834390   -1.278600    1.525492
      4          1           0       -3.713096   -0.076904    0.553392
      5          6           0       -1.717893   -0.619495   -0.180508
      6          8           0       -1.013989   -1.485892   -0.688608
      7          7           0       -1.367199    0.706507   -0.213708
      8          1           0       -1.869902    1.326704    0.408792
      9          6           0        0.005599    1.104913   -0.534408
     10          1           0        0.150599    0.969614   -1.613608
     11          6           0        0.209592    2.576214   -0.173508
     12          1           0        0.146692    2.703513    0.912092
     13          1           0        1.199691    2.912218   -0.496008
     14          1           0       -0.542811    3.204910   -0.662308
     15          6           0        1.032103    0.235817    0.231192
     16          8           0        1.101803    0.282618    1.453292
     17          7           0        1.893606   -0.475079   -0.552808
     18          1           0        1.530407   -0.733880   -1.461408
     19          6           0        2.820910   -1.415174    0.061092
     20          1           0        3.264108   -0.943172    0.939292
     21          1           0        2.317314   -2.336477    0.381792
     22          1           0        3.609111   -1.664371   -0.654408
 ---------------------------------------------------------------------
 Rotational constants (GHZ):      1.7501330      1.0037761      0.7620895
 Standard basis: Aug-CC-pVDZ (5D, 7F)
 There are   338 symmetry adapted basis functions of A   symmetry.
 Integral buffers will be    131072 words long.
 Raffenetti 1 integral format.
 Two-electron integral symmetry is turned on.
   338 basis functions,   562 primitive gaussians,   358 cartesian basis functions
    39 alpha electrons       39 beta electrons
       nuclear repulsion energy       565.2370487536 Hartrees.
 NAtoms=   22 NActive=   22 NUniq=   22 SFac= 7.50D-01 NAtFMM=   80 NAOKFM=F Big=F
 One-electron integrals computed using PRISM.
 NBasis=   338 RedAO= T  NBF=   338
 NBsUse=   338 1.00D-06 NBFU=   338
 Harris functional with IExCor=  205 diagonalized for initial guess.
 ExpMin= 2.97D-02 ExpMax= 1.17D+04 ExpMxC= 4.01D+02 IAcc=3 IRadAn=         0 AccDes= 0.00D+00
 HarFok:  IExCor=  205 AccDes= 0.00D+00 IRadAn=         0 IDoV= 1
 ScaDFX=  1.000000  1.000000  1.000000  1.000000
 FoFCou: FMM=F IPFlag=           0 FMFlag=      100000 FMFlg1=           0
         NFxFlg=           0 DoJE=T BraDBF=F KetDBF=T FulRan=T
         Omega=  0.000000  0.000000  1.000000  0.000000  0.000000 ICntrl=     500 IOpCl=  0
         NMat0=    1 NMatS0=    1 NMatT0=    0 NMatD0=    1 NMtDS0=    0 NMtDT0=    0
         I1Cent=           4 NGrid=           0.
 Petite list used in FoFCou.
 Initial guess orbital symmetries:
       Occupied  (A) (A) (A) (A) (A) (A) (A) (A) (A) (A) (A) (A)
                 (A) (A) (A) (A) (A) (A) (A) (A) (A) (A) (A) (A)
                 (A) (A) (A) (A) (A) (A) (A) (A) (A) (A) (A) (A)
                 (A) (A) (A)
       Virtual   (A) (A) (A) (A) (A) (A) (A) (A) (A) (A) (A) (A)
                 (A) (A) (A) (A) (A) (A) (A) (A) (A) (A) (A) (A)
                 (A) (A) (A) (A) (A) (A) (A) (A) (A) (A) (A) (A)
                 (A) (A) (A) (A) (A) (A) (A) (A) (A) (A) (A) (A)
                 (A) (A) (A) (A) (A) (A) (A) (A) (A) (A) (A) (A)
                 (A) (A) (A) (A) (A) (A) (A) (A) (A) (A) (A) (A)
                 (A) (A) (A) (A) (A) (A) (A) (A) (A) (A) (A) (A)
                 (A) (A) (A) (A) (A) (A) (A) (A) (A) (A) (A) (A)
                 (A) (A) (A) (A) (A) (A) (A) (A) (A) (A) (A) (A)
                 (A) (A) (A) (A) (A) (A) (A) (A) (A) (A) (A) (A)
                 (A) (A) (A) (A) (A) (A) (A) (A) (A) (A) (A) (A)
                 (A) (A) (A) (A) (A) (A) (A) (A) (A) (A) (A) (A)
                 (A) (A) (A) (A) (A) (A) (A) (A) (A) (A) (A) (A)
                 (A) (A) (A) (A) (A) (A) (A) (A) (A) (A) (A) (A)
                 (A) (A) (A) (A) (A) (A) (A) (A) (A) (A) (A) (A)
                 (A) (A) (A) (A) (A) (A) (A) (A) (A) (A) (A) (A)
                 (A) (A) (A) (A) (A) (A) (A) (A) (A) (A) (A) (A)
                 (A) (A) (A) (A) (A) (A) (A) (A) (A) (A) (A) (A)
                 (A) (A) (A) (A) (A) (A) (A) (A) (A) (A) (A) (A)
                 (A) (A) (A) (A) (A) (A) (A) (A) (A) (A) (A) (A)
                 (A) (A) (A) (A) (A) (A) (A) (A) (A) (A) (A) (A)
                 (A) (A) (A) (A) (A) (A) (A) (A) (A) (A) (A) (A)
                 (A) (A) (A) (A) (A) (A) (A) (A) (A) (A) (A) (A)
                 (A) (A) (A) (A) (A) (A) (A) (A) (A) (A) (A) (A)
                 (A) (A) (A) (A) (A) (A) (A) (A) (A) (A) (A)
 The electronic state of the initial guess is 1-A.
 Requested convergence on RMS density matrix=1.00D-08 within 128 cycles.
 Requested convergence on MAX density matrix=1.00D-06.
 Requested convergence on             energy=1.00D-06.
 No special actions if energy rises.
 Initial convergence to 1.0D-05 achieved.  Increase integral accuracy.
 SCF Done:  E(RHF) =  -492.925733922     A.U. after   15 cycles
             Convg  =    0.3594D-08             -V/T =  2.0017
 ExpMin= 2.97D-02 ExpMax= 1.17D+04 ExpMxC= 4.01D+02 IAcc=3 IRadAn=         5 AccDes= 0.00D+00
 HarFok:  IExCor=  205 AccDes= 0.00D+00 IRadAn=         5 IDoV=-2
 ScaDFX=  1.000000  1.000000  1.000000  1.000000
 Range of M.O.s used for correlation:    11   338
 NBasis=   338 NAE=    39 NBE=    39 NFC=    10 NFV=     0
 NROrb=    328 NOA=    29 NOB=    29 NVA=   299 NVB=   299

 **** Warning!!: The largest alpha MO coefficient is  0.62869366D+02

 Disk-based method using OVN memory for 29 occupieds at a time.
 Estimated scratch disk usage=  1390826584 words.
 Actual    scratch disk usage=  1377529610 words.
 JobTyp=1 Pass  1:  I=   1 to  29 NPSUse=  8 ParTrn=T ParDer=T DoDerP=F.
 Spin components of T(2) and E(2):
     alpha-alpha T2 =       0.6790232430D-01 E2=     -0.2057792785D+00
     alpha-beta  T2 =       0.3765220092D+00 E2=     -0.1190573479D+01
     beta-beta   T2 =       0.6790232430D-01 E2=     -0.2057792785D+00
 ANorm=    0.1229766912D+01
 E2 =    -0.1602132036D+01 EUMP2 =    -0.49452786595715D+03

 **********************************************************************

            Population analysis using the SCF density.

 **********************************************************************

 Orbital symmetries:
       Occupied  (A) (A) (A) (A) (A) (A) (A) (A) (A) (A) (A) (A)
                 (A) (A) (A) (A) (A) (A) (A) (A) (A) (A) (A) (A)
                 (A) (A) (A) (A) (A) (A) (A) (A) (A) (A) (A) (A)
                 (A) (A) (A)
       Virtual   (A) (A) (A) (A) (A) (A) (A) (A) (A) (A) (A) (A)
                 (A) (A) (A) (A) (A) (A) (A) (A) (A) (A) (A) (A)
                 (A) (A) (A) (A) (A) (A) (A) (A) (A) (A) (A) (A)
                 (A) (A) (A) (A) (A) (A) (A) (A) (A) (A) (A) (A)
                 (A) (A) (A) (A) (A) (A) (A) (A) (A) (A) (A) (A)
                 (A) (A) (A) (A) (A) (A) (A) (A) (A) (A) (A) (A)
                 (A) (A) (A) (A) (A) (A) (A) (A) (A) (A) (A) (A)
                 (A) (A) (A) (A) (A) (A) (A) (A) (A) (A) (A) (A)
                 (A) (A) (A) (A) (A) (A) (A) (A) (A) (A) (A) (A)
                 (A) (A) (A) (A) (A) (A) (A) (A) (A) (A) (A) (A)
                 (A) (A) (A) (A) (A) (A) (A) (A) (A) (A) (A) (A)
                 (A) (A) (A) (A) (A) (A) (A) (A) (A) (A) (A) (A)
                 (A) (A) (A) (A) (A) (A) (A) (A) (A) (A) (A) (A)
                 (A) (A) (A) (A) (A) (A) (A) (A) (A) (A) (A) (A)
                 (A) (A) (A) (A) (A) (A) (A) (A) (A) (A) (A) (A)
                 (A) (A) (A) (A) (A) (A) (A) (A) (A) (A) (A) (A)
                 (A) (A) (A) (A) (A) (A) (A) (A) (A) (A) (A) (A)
                 (A) (A) (A) (A) (A) (A) (A) (A) (A) (A) (A) (A)
                 (A) (A) (A) (A) (A) (A) (A) (A) (A) (A) (A) (A)
                 (A) (A) (A) (A) (A) (A) (A) (A) (A) (A) (A) (A)
                 (A) (A) (A) (A) (A) (A) (A) (A) (A) (A) (A) (A)
                 (A) (A) (A) (A) (A) (A) (A) (A) (A) (A) (A) (A)
                 (A) (A) (A) (A) (A) (A) (A) (A) (A) (A) (A) (A)
                 (A) (A) (A) (A) (A) (A) (A) (A) (A) (A) (A) (A)
                 (A) (A) (A) (A) (A) (A) (A) (A) (A) (A) (A)
 The electronic state is 1-A.
 Alpha  occ. eigenvalues --  -20.53803 -20.52853 -15.60083 -15.58481 -11.36743
 Alpha  occ. eigenvalues --  -11.35278 -11.29459 -11.25787 -11.24965 -11.24259
 Alpha  occ. eigenvalues --   -1.39367  -1.37806  -1.24211  -1.22368  -1.05753
 Alpha  occ. eigenvalues --   -0.99503  -0.95235  -0.87171  -0.80398  -0.77189
 Alpha  occ. eigenvalues --   -0.71487  -0.68651  -0.67245  -0.63401  -0.62016
 Alpha  occ. eigenvalues --   -0.61454  -0.59503  -0.58415  -0.57420  -0.55174
 Alpha  occ. eigenvalues --   -0.54054  -0.53824  -0.52717  -0.51732  -0.50055
 Alpha  occ. eigenvalues --   -0.43703  -0.43103  -0.40113  -0.38421
 Alpha virt. eigenvalues --    0.03020   0.03873   0.04316   0.04793   0.05654
 Alpha virt. eigenvalues --    0.06305   0.06398   0.06983   0.07282   0.07889
 Alpha virt. eigenvalues --    0.09079   0.09356   0.11017   0.11998   0.13314
 Alpha virt. eigenvalues --    0.13423   0.13982   0.14866   0.15072   0.15116
 Alpha virt. eigenvalues --    0.15712   0.16203   0.16446   0.17018   0.17297
 Alpha virt. eigenvalues --    0.17975   0.18050   0.18426   0.18654   0.19330
 Alpha virt. eigenvalues --    0.19841   0.20230   0.20703   0.21478   0.22421
 Alpha virt. eigenvalues --    0.23387   0.24493   0.25064   0.25457   0.26135
 Alpha virt. eigenvalues --    0.27359   0.28335   0.28806   0.29768   0.31234
 Alpha virt. eigenvalues --    0.31526   0.32331   0.32644   0.33433   0.33695
 Alpha virt. eigenvalues --    0.34599   0.34640   0.36218   0.36802   0.37065
 Alpha virt. eigenvalues --    0.38126   0.38220   0.39290   0.39373   0.39901
 Alpha virt. eigenvalues --    0.40991   0.41203   0.42112   0.42679   0.43044
 Alpha virt. eigenvalues --    0.43630   0.44466   0.44808   0.45566   0.45931
 Alpha virt. eigenvalues --    0.47205   0.47305   0.48172   0.49237   0.49661
 Alpha virt. eigenvalues --    0.50281   0.50666   0.51186   0.51889   0.52763
 Alpha virt. eigenvalues --    0.53905   0.54753   0.55067   0.55734   0.56216
 Alpha virt. eigenvalues --    0.56883   0.57431   0.57989   0.58250   0.58721
 Alpha virt. eigenvalues --    0.58967   0.59326   0.60712   0.61523   0.62520
 Alpha virt. eigenvalues --    0.63079   0.63545   0.64083   0.65075   0.65338
 Alpha virt. eigenvalues --    0.65805   0.66622   0.67236   0.67967   0.68655
 Alpha virt. eigenvalues --    0.68731   0.69561   0.70207   0.70690   0.71073
 Alpha virt. eigenvalues --    0.72456   0.72879   0.73335   0.73770   0.75337
 Alpha virt. eigenvalues --    0.76025   0.76870   0.77571   0.78624   0.79294
 Alpha virt. eigenvalues --    0.80238   0.81172   0.81531   0.82179   0.83107
 Alpha virt. eigenvalues --    0.83869   0.84838   0.86448   0.86653   0.87375
 Alpha virt. eigenvalues --    0.88588   0.89686   0.90811   0.91479   0.93760
 Alpha virt. eigenvalues --    0.94264   0.95976   0.97720   0.99193   0.99502
 Alpha virt. eigenvalues --    1.00449   1.00499   1.01172   1.03117   1.04783
 Alpha virt. eigenvalues --    1.06306   1.08034   1.08306   1.11015   1.12102
 Alpha virt. eigenvalues --    1.13455   1.14351   1.14673   1.15332   1.16159
 Alpha virt. eigenvalues --    1.17613   1.18724   1.20722   1.21967   1.23392
 Alpha virt. eigenvalues --    1.23812   1.26309   1.27579   1.28744   1.29475
 Alpha virt. eigenvalues --    1.30357   1.33070   1.34442   1.36475   1.38488
 Alpha virt. eigenvalues --    1.39120   1.42021   1.43730   1.45917   1.48387
 Alpha virt. eigenvalues --    1.49952   1.51789   1.53314   1.53911   1.54788
 Alpha virt. eigenvalues --    1.58722   1.59529   1.60851   1.62527   1.64039
 Alpha virt. eigenvalues --    1.67962   1.68297   1.70550   1.70902   1.71964
 Alpha virt. eigenvalues --    1.74633   1.76058   1.76996   1.79330   1.81210
 Alpha virt. eigenvalues --    1.81637   1.83723   1.85730   1.88017   1.88746
 Alpha virt. eigenvalues --    1.90279   1.90819   1.92443   1.92739   1.93646
 Alpha virt. eigenvalues --    1.94685   1.96160   1.99438   1.99908   2.01985
 Alpha virt. eigenvalues --    2.02924   2.03868   2.06462   2.09502   2.11755
 Alpha virt. eigenvalues --    2.12863   2.13736   2.14687   2.16616   2.16802
 Alpha virt. eigenvalues --    2.19049   2.21337   2.22437   2.23943   2.25331
 Alpha virt. eigenvalues --    2.27557   2.28665   2.29420   2.29819   2.31195
 Alpha virt. eigenvalues --    2.32208   2.33870   2.35260   2.36581   2.37795
 Alpha virt. eigenvalues --    2.38564   2.41734   2.41907   2.43530   2.47052
 Alpha virt. eigenvalues --    2.47993   2.49766   2.50685   2.51606   2.52874
 Alpha virt. eigenvalues --    2.54603   2.55321   2.56509   2.58724   2.61864
 Alpha virt. eigenvalues --    2.64157   2.66184   2.66775   2.68290   2.69317
 Alpha virt. eigenvalues --    2.71509   2.73159   2.75922   2.76990   2.79344
 Alpha virt. eigenvalues --    2.81376   2.83579   2.84304   2.88175   2.88836
 Alpha virt. eigenvalues --    2.90869   2.91642   2.92807   2.95932   2.98170
 Alpha virt. eigenvalues --    3.01691   3.03185   3.05143   3.05851   3.07475
 Alpha virt. eigenvalues --    3.10447   3.13489   3.13756   3.19704   3.24171
 Alpha virt. eigenvalues --    3.32962   3.38506   3.41095   3.44240   3.50673
 Alpha virt. eigenvalues --    3.59071   3.64293   3.78759   3.83520   3.86157
 Alpha virt. eigenvalues --    3.89509   3.90121   3.93864   3.99190   4.01630
 Alpha virt. eigenvalues --    4.09316   4.15671   4.21514   4.39771
          Condensed to atoms (all electrons):
              1          2          3          4          5          6
     1  H    0.779609   0.397724  -0.049374  -0.101961  -0.092893   0.020974
     2  C    0.397724   4.556500   0.341867   0.311074   0.120100  -0.030649
     3  H   -0.049374   0.341867   0.707420  -0.069718  -0.044945   0.015781
     4  H   -0.101961   0.311074  -0.069718   1.031260   0.120572  -0.005453
     5  C   -0.092893   0.120100  -0.044945   0.120572   5.451671   0.157684
     6  O    0.020974  -0.030649   0.015781  -0.005453   0.157684   8.753420
     7  N    0.058121   0.027446   0.021725  -0.174808   0.036113  -0.141744
     8  H   -0.005288  -0.051930  -0.005220   0.014031  -0.029858  -0.001421
     9  C   -0.020305  -0.028017   0.023267  -0.021389  -0.265602   0.109121
    10  H   -0.003370   0.002968   0.001550   0.000785   0.038293   0.009972
    11  C    0.002479  -0.021771  -0.001349  -0.006471   0.003140  -0.008828
    12  H   -0.000173  -0.008942  -0.000921   0.000698   0.005024   0.000469
    13  H    0.000293   0.003017   0.000056  -0.000477   0.010180  -0.000546
    14  H   -0.000179   0.003113   0.000337   0.001142  -0.020086   0.000488
    15  C    0.013016   0.029986  -0.018370  -0.010213  -0.191918   0.013481
    16  O   -0.001106   0.000566   0.002397   0.001666   0.037326  -0.000932
    17  N   -0.000165  -0.011192   0.001201   0.000607   0.068229  -0.023718
    18  H    0.000458   0.000756   0.000092  -0.000133   0.003529  -0.005979
    19  C    0.000045  -0.000545  -0.000677  -0.000036   0.013144   0.003589
    20  H    0.000093   0.000952  -0.000133  -0.000032  -0.008044  -0.000420
    21  H   -0.000278  -0.002932  -0.000440   0.000134   0.005113   0.003155
    22  H   -0.000032  -0.000281  -0.000010   0.000010   0.000641   0.000668
              7          8          9         10         11         12
     1  H    0.058121  -0.005288  -0.020305  -0.003370   0.002479  -0.000173
     2  C    0.027446  -0.051930  -0.028017   0.002968  -0.021771  -0.008942
     3  H    0.021725  -0.005220   0.023267   0.001550  -0.001349  -0.000921
     4  H   -0.174808   0.014031  -0.021389   0.000785  -0.006471   0.000698
     5  C    0.036113  -0.029858  -0.265602   0.038293   0.003140   0.005024
     6  O   -0.141744  -0.001421   0.109121   0.009972  -0.008828   0.000469
     7  N    7.492045   0.375159  -0.318579  -0.019483   0.036774  -0.010128
     8  H    0.375159   0.878667  -0.241975   0.003514   0.005947   0.014450
     9  C   -0.318579  -0.241975   7.696822  -0.367386   0.064687  -0.121961
    10  H   -0.019483   0.003514  -0.367386   1.546981  -0.009930   0.064547
    11  C    0.036774   0.005947   0.064687  -0.009930   4.359190   0.405596
    12  H   -0.010128   0.014450  -0.121961   0.064547   0.405596   0.974191
    13  H    0.067372   0.006081  -0.093468  -0.057426   0.258646  -0.133309
    14  H   -0.077862  -0.007283   0.193677  -0.040194   0.234989  -0.214577
    15  C    0.114614   0.049308  -0.834659   0.204364  -0.029321   0.032569
    16  O   -0.003081  -0.007887   0.037427  -0.020699  -0.000125  -0.002534
    17  N    0.002028   0.000344   0.064042  -0.045592   0.039539  -0.014787
    18  H    0.008142  -0.000024  -0.061267   0.009809   0.012569   0.001879
    19  C   -0.003357   0.001534  -0.016731   0.011700  -0.007341  -0.002212
    20  H   -0.000873  -0.000281   0.005811   0.002763  -0.001622  -0.000258
    21  H    0.000709   0.000605   0.010007  -0.001989   0.006066  -0.000076
    22  H    0.000168   0.000045  -0.008173   0.002689  -0.000589   0.000622
             13         14         15         16         17         18
     1  H    0.000293  -0.000179   0.013016  -0.001106  -0.000165   0.000458
     2  C    0.003017   0.003113   0.029986   0.000566  -0.011192   0.000756
     3  H    0.000056   0.000337  -0.018370   0.002397   0.001201   0.000092
     4  H   -0.000477   0.001142  -0.010213   0.001666   0.000607  -0.000133
     5  C    0.010180  -0.020086  -0.191918   0.037326   0.068229   0.003529
     6  O   -0.000546   0.000488   0.013481  -0.000932  -0.023718  -0.005979
     7  N    0.067372  -0.077862   0.114614  -0.003081   0.002028   0.008142
     8  H    0.006081  -0.007283   0.049308  -0.007887   0.000344  -0.000024
     9  C   -0.093468   0.193677  -0.834659   0.037427   0.064042  -0.061267
    10  H   -0.057426  -0.040194   0.204364  -0.020699  -0.045592   0.009809
    11  C    0.258646   0.234989  -0.029321  -0.000125   0.039539   0.012569
    12  H   -0.133309  -0.214577   0.032569  -0.002534  -0.014787   0.001879
    13  H    1.241142  -0.210500  -0.020728   0.005076  -0.004102   0.006096
    14  H   -0.210500   1.163637  -0.004537   0.002483   0.015504  -0.003271
    15  C   -0.020728  -0.004537   5.862741   0.011855  -0.175725  -0.036547
    16  O    0.005076   0.002483   0.011855   8.840082  -0.048665   0.002523
    17  N   -0.004102   0.015504  -0.175725  -0.048665   7.266823   0.310981
    18  H    0.006096  -0.003271  -0.036547   0.002523   0.310981   0.856652
    19  C   -0.003519   0.001542  -0.148736   0.049688   0.235702  -0.091516
    20  H   -0.000885   0.000589   0.121361  -0.028887  -0.080027   0.006477
    21  H    0.000210   0.000319  -0.056753   0.008910   0.105703  -0.012804
    22  H   -0.000782  -0.000257  -0.045878   0.013624  -0.134193   0.015997
             19         20         21         22
     1  H    0.000045   0.000093  -0.000278  -0.000032
     2  C   -0.000545   0.000952  -0.002932  -0.000281
     3  H   -0.000677  -0.000133  -0.000440  -0.000010
     4  H   -0.000036  -0.000032   0.000134   0.000010
     5  C    0.013144  -0.008044   0.005113   0.000641
     6  O    0.003589  -0.000420   0.003155   0.000668
     7  N   -0.003357  -0.000873   0.000709   0.000168
     8  H    0.001534  -0.000281   0.000605   0.000045
     9  C   -0.016731   0.005811   0.010007  -0.008173
    10  H    0.011700   0.002763  -0.001989   0.002689
    11  C   -0.007341  -0.001622   0.006066  -0.000589
    12  H   -0.002212  -0.000258  -0.000076   0.000622
    13  H   -0.003519  -0.000885   0.000210  -0.000782
    14  H    0.001542   0.000589   0.000319  -0.000257
    15  C   -0.148736   0.121361  -0.056753  -0.045878
    16  O    0.049688  -0.028887   0.008910   0.013624
    17  N    0.235702  -0.080027   0.105703  -0.134193
    18  H   -0.091516   0.006477  -0.012804   0.015997
    19  C    4.083903   0.361269   0.303732   0.461935
    20  H    0.361269   1.015303  -0.090152  -0.184100
    21  H    0.303732  -0.090152   0.959777  -0.183865
    22  H    0.461935  -0.184100  -0.183865   1.246002
 Mulliken atomic charges:
              1
     1  H    0.002314
     2  C    0.360191
     3  H    0.075464
     4  H   -0.091287
     5  C    0.582587
     6  O   -0.869113
     7  N   -0.490502
     8  H    0.001482
     9  C    0.194651
    10  H   -0.333864
    11  C    0.657726
    12  H    0.009835
    13  H   -0.072427
    14  H   -0.039073
    15  C    1.120092
    16  O   -0.899707
    17  N   -0.572538
    18  H   -0.024421
    19  C    0.746888
    20  H   -0.118904
    21  H   -0.055153
    22  H   -0.184239
 Sum of Mulliken atomic charges =   0.00000
 Mulliken charges with hydrogens summed into heavy atoms:
              1
     2  C    0.346682
     5  C    0.582587
     6  O   -0.869113
     7  N   -0.489021
     9  C   -0.139213
    11  C    0.556060
    15  C    1.120092
    16  O   -0.899707
    17  N   -0.596959
    19  C    0.388592
 Sum of Mulliken charges with hydrogens summed into heavy atoms =   0.00000
 Electronic spatial extent (au):  <R**2>=           1651.6762
 Charge=              0.0000 electrons
 Dipole moment (field-independent basis, Debye):
    X=             -1.6368    Y=              1.9099    Z=             -1.5461  Tot=              2.9525
 Quadrupole moment (field-independent basis, Debye-Ang):
   XX=            -51.5622   YY=            -60.2944   ZZ=            -65.1236
   XY=             -4.4565   XZ=             -7.3993   YZ=             -2.2183
 Traceless Quadrupole moment (field-independent basis, Debye-Ang):
   XX=              7.4312   YY=             -1.3010   ZZ=             -6.1302
   XY=             -4.4565   XZ=             -7.3993   YZ=             -2.2183
 Octapole moment (field-independent basis, Debye-Ang**2):
  XXX=            -14.2163  YYY=              9.3054  ZZZ=            -10.4941  XYY=              4.3354
  XXY=            -12.8194  XXZ=              4.0473  XZZ=             -2.5214  YZZ=             -3.3702
  YYZ=              4.6783  XYZ=              1.7712
 Hexadecapole moment (field-independent basis, Debye-Ang**3):
 XXXX=          -1180.1122 YYYY=           -698.8303 ZZZZ=           -229.4601 XXXY=             -9.4061
 XXXZ=             -6.6935 YYYX=            -10.9381 YYYZ=             -3.3844 ZZZX=            -15.9986
 ZZZY=              3.1286 XXYY=           -303.1664 XXZZ=           -250.5157 YYZZ=           -153.3609
 XXYZ=              6.6422 YYXZ=             -8.8163 ZZXY=             -5.6018
 N-N= 5.652370487536D+02 E-N=-2.285933316836D+03  KE= 4.920717189763D+02
 1\1\GINC-NODE005\SP\RMP2-FC\Aug-CC-pVDZ\C6H12N2O2\MANAGER\13-Feb-2017\
 0\\#SP MP2/aug-cc-pVDZ\\Single Point calculation at MP2\\0,1\H,0,-3.52
 56,-1.7532,-0.0315\C,0,-3.0369,-0.9363,0.5039\H,0,-2.8344,-1.2786,1.52
 55\H,0,-3.7131,-0.0769,0.5534\C,0,-1.7179,-0.6195,-0.1805\O,0,-1.014,-
 1.4859,-0.6886\N,0,-1.3672,0.7065,-0.2137\H,0,-1.8699,1.3267,0.4088\C,
 0,0.0056,1.1049,-0.5344\H,0,0.1506,0.9696,-1.6136\C,0,0.2096,2.5762,-0
 .1735\H,0,0.1467,2.7035,0.9121\H,0,1.1997,2.9122,-0.496\H,0,-0.5428,3.
 2049,-0.6623\C,0,1.0321,0.2358,0.2312\O,0,1.1018,0.2826,1.4533\N,0,1.8
 936,-0.4751,-0.5528\H,0,1.5304,-0.7339,-1.4614\C,0,2.8209,-1.4152,0.06
 11\H,0,3.2641,-0.9432,0.9393\H,0,2.3173,-2.3365,0.3818\H,0,3.6091,-1.6
 644,-0.6544\\Version=EM64L-G09RevA.02\State=1-A\HF=-492.9257339\MP2=-4
 94.527866\RMSD=3.594e-09\PG=C01 [X(C6H12N2O2)]\\@


 THE PROBLEM WITH THE LADDER OF SUCCESS IS YOU CAN'T
 CLIMB IT WHILE YOU'RE TWIDDLING YOUR THUMBS.
 Job cpu time:  0 days 13 hours 18 minutes 59.1 seconds.
 File lengths (MBytes):  RWF=  10626 Int=      0 D2E=      0 Chk=      7 Scr=      2
 Normal termination of Gaussian 09 at Mon Feb 13 18:26:13 2017.
