 Entering Gaussian System, Link 0=g09
 Initial command:
 /home/steboss/Software/g09/l1.exe /tmp/Gau-26714.inp -scrdir=/tmp/
 Entering Link 1 = /home/steboss/Software/g09/l1.exe PID=     26716.
  
 Copyright (c) 1988,1990,1992,1993,1995,1998,2003,2009, Gaussian, Inc.
                  All Rights Reserved.
  
 This is part of the Gaussian(R) 09 program.  It is based on
 the Gaussian(R) 03 system (copyright 2003, Gaussian, Inc.),
 the Gaussian(R) 98 system (copyright 1998, Gaussian, Inc.),
 the Gaussian(R) 94 system (copyright 1995, Gaussian, Inc.),
 the Gaussian 92(TM) system (copyright 1992, Gaussian, Inc.),
 the Gaussian 90(TM) system (copyright 1990, Gaussian, Inc.),
 the Gaussian 88(TM) system (copyright 1988, Gaussian, Inc.),
 the Gaussian 86(TM) system (copyright 1986, Carnegie Mellon
 University), and the Gaussian 82(TM) system (copyright 1983,
 Carnegie Mellon University). Gaussian is a federally registered
 trademark of Gaussian, Inc.
  
 This software contains proprietary and confidential information,
 including trade secrets, belonging to Gaussian, Inc.
  
 This software is provided under written license and may be
 used, copied, transmitted, or stored only in accord with that
 written license.
  
 The following legend is applicable only to US Government
 contracts under FAR:
  
                    RESTRICTED RIGHTS LEGEND
  
 Use, reproduction and disclosure by the US Government is
 subject to restrictions as set forth in subparagraphs (a)
 and (c) of the Commercial Computer Software - Restricted
 Rights clause in FAR 52.227-19.
  
 Gaussian, Inc.
 340 Quinnipiac St., Bldg. 40, Wallingford CT 06492
  
  
 ---------------------------------------------------------------
 Warning -- This program may not be used in any manner that
 competes with the business of Gaussian, Inc. or will provide
 assistance to any competitor of Gaussian, Inc.  The licensee
 of this program is prohibited from giving any competitor of
 Gaussian, Inc. access to this program.  By using this program,
 the user acknowledges that Gaussian, Inc. is engaged in the
 business of creating and licensing software in the field of
 computational chemistry and represents and warrants to the
 licensee that it is not a competitor of Gaussian, Inc. and that
 it will not use this program in any manner prohibited above.
 ---------------------------------------------------------------
  

 Cite this work as:
 Gaussian 09, Revision A.02,
 M. J. Frisch, G. W. Trucks, H. B. Schlegel, G. E. Scuseria, 
 M. A. Robb, J. R. Cheeseman, G. Scalmani, V. Barone, B. Mennucci, 
 G. A. Petersson, H. Nakatsuji, M. Caricato, X. Li, H. P. Hratchian, 
 A. F. Izmaylov, J. Bloino, G. Zheng, J. L. Sonnenberg, M. Hada, 
 M. Ehara, K. Toyota, R. Fukuda, J. Hasegawa, M. Ishida, T. Nakajima, 
 Y. Honda, O. Kitao, H. Nakai, T. Vreven, J. A. Montgomery, Jr., 
 J. E. Peralta, F. Ogliaro, M. Bearpark, J. J. Heyd, E. Brothers, 
 K. N. Kudin, V. N. Staroverov, R. Kobayashi, J. Normand, 
 K. Raghavachari, A. Rendell, J. C. Burant, S. S. Iyengar, J. Tomasi, 
 M. Cossi, N. Rega, J. M. Millam, M. Klene, J. E. Knox, J. B. Cross, 
 V. Bakken, C. Adamo, J. Jaramillo, R. Gomperts, R. E. Stratmann, 
 O. Yazyev, A. J. Austin, R. Cammi, C. Pomelli, J. W. Ochterski, 
 R. L. Martin, K. Morokuma, V. G. Zakrzewski, G. A. Voth, 
 P. Salvador, J. J. Dannenberg, S. Dapprich, A. D. Daniels, 
 O. Farkas, J. B. Foresman, J. V. Ortiz, J. Cioslowski, 
 and D. J. Fox, Gaussian, Inc., Wallingford CT, 2009.
 
 ******************************************
 Gaussian 09:  EM64L-G09RevA.02 11-Jun-2009
                10-Feb-2017 
 ******************************************
 %chk=structure_195.chk
 %NProcShared=8
 Will use up to    8 processors via shared memory.
 -------------------------------------------
 # HF/6-31G* Opt=(ModRedundant) geom=nocrowd
 -------------------------------------------
 1/18=120,19=15,38=1/1,3;
 2/9=110,12=1,17=6,18=5,40=1/2;
 3/5=1,6=6,7=1,11=9,16=1,25=1,30=1,71=1/1,2,3;
 4//1;
 5/5=2,38=5/2;
 6/7=2,8=2,9=2,10=2,28=1/1;
 7//1,2,3,16;
 1/18=20,19=15/3(2);
 2/9=110,12=1/2;
 99//99;
 2/9=110,12=1/2;
 3/5=1,6=6,7=1,11=9,16=1,25=1,30=1,71=1/1,2,3;
 4/5=5,16=3/1;
 5/5=2,38=5/2;
 7//1,2,3,16;
 1/18=20,19=15/3(-5);
 2/9=110,12=1/2;
 6/7=2,8=2,9=2,10=2,19=2,28=1/1;
 99/9=1/99;
 ------------------
 Phi Psi fixed scan
 ------------------
 Symbolic Z-matrix:
 Charge =  0 Multiplicity = 1
 H                     0.5059    4.0098    1.3919 
 C                     1.247     3.6069    0.7015 
 H                     0.8743    3.6867   -0.3197 
 H                     1.4338    2.5596    0.9387 
 C                     2.5671    4.3738    0.8014 
 O                     2.6862    5.3108    1.5877 
 N                     3.5554    3.9697    0. 
 H                     3.4094    3.1938   -0.63 
 C                     4.8533    4.6139    0. 
 H                     5.4076    4.3155    0.8898 
 C                     5.6613    4.2208   -1.2322 
 H                     5.1233    4.5214   -2.1312 
 H                     6.6305    4.7189   -1.2058 
 H                     5.8085    3.1409   -1.2414 
 C                     4.7127    6.1294    0. 
 O                     3.6366    6.656     0.2741 
 N                     5.8056    6.8311   -0.3089 
 H                     6.6679    6.3528   -0.5272 
 C                     5.801     8.2797   -0.3436 
 H                     4.8071    8.6467   -0.0875 
 H                     6.5256    8.6631    0.3748 
 H                     6.0669    8.6206   -1.3442 
 
 The following ModRedundant input section has been read:
 D    5    7    9   15 F                                                       
 D    7    9   15   17 F                                                       

 GradGradGradGradGradGradGradGradGradGradGradGradGradGradGradGradGradGrad
 Berny optimization.
 Initialization pass.
                           ----------------------------
                           !    Initial Parameters    !
                           ! (Angstroms and Degrees)  !
 --------------------------                            --------------------------
 ! Name  Definition              Value          Derivative Info.                !
 --------------------------------------------------------------------------------
 ! R1    R(1,2)                  1.0901         estimate D2E/DX2                !
 ! R2    R(2,3)                  1.09           estimate D2E/DX2                !
 ! R3    R(2,4)                  1.09           estimate D2E/DX2                !
 ! R4    R(2,5)                  1.53           estimate D2E/DX2                !
 ! R5    R(5,6)                  1.229          estimate D2E/DX2                !
 ! R6    R(5,7)                  1.335          estimate D2E/DX2                !
 ! R7    R(7,8)                  1.0101         estimate D2E/DX2                !
 ! R8    R(7,9)                  1.449          estimate D2E/DX2                !
 ! R9    R(9,10)                 1.09           estimate D2E/DX2                !
 ! R10   R(9,11)                 1.525          estimate D2E/DX2                !
 ! R11   R(9,15)                 1.522          estimate D2E/DX2                !
 ! R12   R(11,12)                1.09           estimate D2E/DX2                !
 ! R13   R(11,13)                1.09           estimate D2E/DX2                !
 ! R14   R(11,14)                1.0899         estimate D2E/DX2                !
 ! R15   R(15,16)                1.229          estimate D2E/DX2                !
 ! R16   R(15,17)                1.335          estimate D2E/DX2                !
 ! R17   R(17,18)                1.0099         estimate D2E/DX2                !
 ! R18   R(17,19)                1.449          estimate D2E/DX2                !
 ! R19   R(19,20)                1.09           estimate D2E/DX2                !
 ! R20   R(19,21)                1.09           estimate D2E/DX2                !
 ! R21   R(19,22)                1.09           estimate D2E/DX2                !
 ! A1    A(1,2,3)              109.503          estimate D2E/DX2                !
 ! A2    A(1,2,4)              109.5018         estimate D2E/DX2                !
 ! A3    A(1,2,5)              111.0997         estimate D2E/DX2                !
 ! A4    A(3,2,4)              109.4407         estimate D2E/DX2                !
 ! A5    A(3,2,5)              108.6327         estimate D2E/DX2                !
 ! A6    A(4,2,5)              108.636          estimate D2E/DX2                !
 ! A7    A(2,5,6)              120.5011         estimate D2E/DX2                !
 ! A8    A(2,5,7)              116.6041         estimate D2E/DX2                !
 ! A9    A(6,5,7)              122.8948         estimate D2E/DX2                !
 ! A10   A(5,7,8)              119.9952         estimate D2E/DX2                !
 ! A11   A(5,7,9)              121.9061         estimate D2E/DX2                !
 ! A12   A(8,7,9)              118.0987         estimate D2E/DX2                !
 ! A13   A(7,9,10)             109.5            estimate D2E/DX2                !
 ! A14   A(7,9,11)             111.0992         estimate D2E/DX2                !
 ! A15   A(7,9,15)             111.0966         estimate D2E/DX2                !
 ! A16   A(10,9,11)            108.6382         estimate D2E/DX2                !
 ! A17   A(10,9,15)            108.6373         estimate D2E/DX2                !
 ! A18   A(11,9,15)            107.7947         estimate D2E/DX2                !
 ! A19   A(9,11,12)            109.5007         estimate D2E/DX2                !
 ! A20   A(9,11,13)            109.4959         estimate D2E/DX2                !
 ! A21   A(9,11,14)            109.4978         estimate D2E/DX2                !
 ! A22   A(12,11,13)           109.441          estimate D2E/DX2                !
 ! A23   A(12,11,14)           109.4482         estimate D2E/DX2                !
 ! A24   A(13,11,14)           109.4436         estimate D2E/DX2                !
 ! A25   A(9,15,16)            120.4997         estimate D2E/DX2                !
 ! A26   A(9,15,17)            116.599          estimate D2E/DX2                !
 ! A27   A(16,15,17)           122.9013         estimate D2E/DX2                !
 ! A28   A(15,17,18)           120.0038         estimate D2E/DX2                !
 ! A29   A(15,17,19)           121.8978         estimate D2E/DX2                !
 ! A30   A(18,17,19)           118.0984         estimate D2E/DX2                !
 ! A31   A(17,19,20)           109.5036         estimate D2E/DX2                !
 ! A32   A(17,19,21)           109.496          estimate D2E/DX2                !
 ! A33   A(17,19,22)           109.5037         estimate D2E/DX2                !
 ! A34   A(20,19,21)           109.443          estimate D2E/DX2                !
 ! A35   A(20,19,22)           109.4397         estimate D2E/DX2                !
 ! A36   A(21,19,22)           109.4414         estimate D2E/DX2                !
 ! D1    D(1,2,5,6)              0.0006         estimate D2E/DX2                !
 ! D2    D(1,2,5,7)           -179.9998         estimate D2E/DX2                !
 ! D3    D(3,2,5,6)            120.5142         estimate D2E/DX2                !
 ! D4    D(3,2,5,7)            -59.4861         estimate D2E/DX2                !
 ! D5    D(4,2,5,6)           -120.5137         estimate D2E/DX2                !
 ! D6    D(4,2,5,7)             59.4859         estimate D2E/DX2                !
 ! D7    D(2,5,7,8)             -0.0017         estimate D2E/DX2                !
 ! D8    D(2,5,7,9)           -179.9958         estimate D2E/DX2                !
 ! D9    D(6,5,7,8)            179.998          estimate D2E/DX2                !
 ! D10   D(6,5,7,9)              0.0039         estimate D2E/DX2                !
 ! D11   D(5,7,9,10)            74.9982         estimate D2E/DX2                !
 ! D12   D(5,7,9,11)          -164.9992         estimate D2E/DX2                !
 ! D13   D(5,7,9,15)           -45.0017         Frozen                          !
 ! D14   D(8,7,9,10)          -104.996          estimate D2E/DX2                !
 ! D15   D(8,7,9,11)            15.0065         estimate D2E/DX2                !
 ! D16   D(8,7,9,15)           135.0041         estimate D2E/DX2                !
 ! D17   D(7,9,11,12)           60.0024         estimate D2E/DX2                !
 ! D18   D(7,9,11,13)          179.9986         estimate D2E/DX2                !
 ! D19   D(7,9,11,14)          -60.0038         estimate D2E/DX2                !
 ! D20   D(10,9,11,12)        -179.4843         estimate D2E/DX2                !
 ! D21   D(10,9,11,13)         -59.4881         estimate D2E/DX2                !
 ! D22   D(10,9,11,14)          60.5095         estimate D2E/DX2                !
 ! D23   D(15,9,11,12)         -61.938          estimate D2E/DX2                !
 ! D24   D(15,9,11,13)          58.0582         estimate D2E/DX2                !
 ! D25   D(15,9,11,14)         178.0558         estimate D2E/DX2                !
 ! D26   D(7,9,15,16)           15.0014         estimate D2E/DX2                !
 ! D27   D(7,9,15,17)         -165.0027         Frozen                          !
 ! D28   D(10,9,15,16)        -105.5096         estimate D2E/DX2                !
 ! D29   D(10,9,15,17)          74.4862         estimate D2E/DX2                !
 ! D30   D(11,9,15,16)         136.9435         estimate D2E/DX2                !
 ! D31   D(11,9,15,17)         -43.0607         estimate D2E/DX2                !
 ! D32   D(9,15,17,18)           0.0073         estimate D2E/DX2                !
 ! D33   D(9,15,17,19)         179.9965         estimate D2E/DX2                !
 ! D34   D(16,15,17,18)       -179.9969         estimate D2E/DX2                !
 ! D35   D(16,15,17,19)         -0.0077         estimate D2E/DX2                !
 ! D36   D(15,17,19,20)          0.0059         estimate D2E/DX2                !
 ! D37   D(15,17,19,21)        120.0063         estimate D2E/DX2                !
 ! D38   D(15,17,19,22)       -119.9951         estimate D2E/DX2                !
 ! D39   D(18,17,19,20)        179.9953         estimate D2E/DX2                !
 ! D40   D(18,17,19,21)        -60.0043         estimate D2E/DX2                !
 ! D41   D(18,17,19,22)         59.9943         estimate D2E/DX2                !
 --------------------------------------------------------------------------------
 Trust Radius=3.00D-01 FncErr=1.00D-07 GrdErr=1.00D-07
 Number of steps in this run= 108 maximum allowed number of steps= 132.
 GradGradGradGradGradGradGradGradGradGradGradGradGradGradGradGradGradGrad

                          Input orientation:                          
 ---------------------------------------------------------------------
 Center     Atomic      Atomic             Coordinates (Angstroms)
 Number     Number       Type             X           Y           Z
 ---------------------------------------------------------------------
      1          1           0        0.505900    4.009800    1.391900
      2          6           0        1.247000    3.606900    0.701500
      3          1           0        0.874300    3.686700   -0.319700
      4          1           0        1.433800    2.559600    0.938700
      5          6           0        2.567100    4.373800    0.801400
      6          8           0        2.686200    5.310800    1.587700
      7          7           0        3.555400    3.969700    0.000000
      8          1           0        3.409400    3.193800   -0.630000
      9          6           0        4.853300    4.613900    0.000000
     10          1           0        5.407600    4.315500    0.889800
     11          6           0        5.661300    4.220800   -1.232200
     12          1           0        5.123300    4.521400   -2.131200
     13          1           0        6.630500    4.718900   -1.205800
     14          1           0        5.808500    3.140900   -1.241400
     15          6           0        4.712700    6.129400    0.000000
     16          8           0        3.636600    6.656000    0.274100
     17          7           0        5.805600    6.831100   -0.308900
     18          1           0        6.667900    6.352800   -0.527200
     19          6           0        5.801000    8.279700   -0.343600
     20          1           0        4.807100    8.646700   -0.087500
     21          1           0        6.525600    8.663100    0.374800
     22          1           0        6.066900    8.620600   -1.344200
 ---------------------------------------------------------------------
                    Distance matrix (angstroms):
                    1          2          3          4          5
     1  H    0.000000
     2  C    1.090050   0.000000
     3  H    1.780361   1.090010   0.000000
     4  H    1.780300   1.089952   1.779597   0.000000
     5  C    2.174795   1.529961   2.143489   2.143488   0.000000
     6  O    2.546497   2.399984   3.091740   3.091732   1.228992
     7  N    3.352379   2.439762   2.714884   2.714908   1.335019
     8  H    3.631012   2.572842   2.601148   2.601158   2.037345
     9  C    4.604586   3.809403   4.098091   4.098083   2.434461
    10  H    4.936823   4.224709   4.733824   4.344728   2.842473
    11  C    5.788659   4.858201   4.902376   5.034297   3.705808
    12  H    5.830467   4.887351   4.693853   5.185109   3.893082
    13  H    6.690411   5.818626   5.914765   6.022221   4.545235
    14  H    5.983880   4.979889   5.049134   4.922270   4.024891
    15  C    4.911950   4.343522   4.560954   4.937187   2.885823
    16  O    4.248898   3.897418   4.098737   4.698352   2.574939
    17  N    6.240134   5.674258   5.848512   6.238177   4.214139
    18  H    6.866064   6.199663   6.380983   6.628200   4.743225
    19  C    7.020120   6.608041   6.735621   7.310012   5.198576
    20  H    6.495367   6.220644   6.334227   7.034559   4.905652
    21  H    7.676228   7.316796   7.562016   7.968508   5.852333
    22  H    7.724664   7.249380   7.235749   7.963226   5.906565
                    6          7          8          9         10
     6  O    0.000000
     7  N    2.252743   0.000000
     8  H    3.150064   1.010068   0.000000
     9  C    2.775389   1.448978   2.120951   0.000000
    10  H    2.980554   2.083739   2.749692   1.089970   0.000000
    11  C    4.241598   2.452791   2.547239   1.525027   2.139209
    12  H    4.515842   2.702720   2.636963   2.150225   3.041326
    13  H    4.869445   3.386959   3.610119   2.150214   2.459625
    14  H    4.739307   2.702673   2.476346   2.150165   2.466256
    15  C    2.701407   2.450234   3.273108   1.522008   2.136554
    16  O    2.106743   2.701468   3.585505   2.392836   2.998911
    17  N    3.954625   3.653277   4.367474   2.432750   2.814876
    18  H    4.627364   3.955346   4.539567   2.567973   2.783314
    19  C    4.716595   4.872051   5.627447   3.801879   4.170242
    20  H    4.293337   4.842390   5.655262   4.034014   4.480514
    21  H    5.239278   5.566917   6.374446   4.396940   4.518493
    22  H    5.565963   5.453932   6.084616   4.396970   4.894826
                   11         12         13         14         15
    11  C    0.000000
    12  H    1.089957   0.000000
    13  H    1.090023   1.779613   0.000000
    14  H    1.089925   1.779613   1.779617   0.000000
    15  C    2.461892   2.701161   2.668599   3.416575   0.000000
    16  O    3.506929   3.542917   3.860816   4.401116   1.228995
    17  N    2.772539   3.020103   2.438499   3.806198   1.335003
    18  H    2.460832   2.883163   1.769612   3.400728   2.037315
    19  C    4.157378   4.216587   3.756429   5.216643   2.434389
    20  H    4.650654   4.614628   4.472471   5.713853   2.520589
    21  H    4.802447   5.039857   4.250413   5.798364   3.137948
    22  H    4.419875   4.279391   3.944624   5.486752   3.137963
                   16         17         18         19         20
    16  O    0.000000
    17  N    2.252800   0.000000
    18  H    3.150046   1.009944   0.000000
    19  C    2.775353   1.449023   2.120889   0.000000
    20  H    2.337458   2.083848   2.986284   1.090006   0.000000
    21  H    3.519220   2.083763   2.484218   1.090018   1.779672
    22  H    3.519220   2.083851   2.484272   1.090007   1.779627
                   21         22
    21  H    0.000000
    22  H    1.779655   0.000000
 Stoichiometry    C6H12N2O2
 Framework group  C1[X(C6H12N2O2)]
 Deg. of freedom    60
 Full point group                 C1      NOp   1
 Largest Abelian subgroup         C1      NOp   1
 Largest concise Abelian subgroup C1      NOp   1
                         Standard orientation:                         
 ---------------------------------------------------------------------
 Center     Atomic      Atomic             Coordinates (Angstroms)
 Number     Number       Type             X           Y           Z
 ---------------------------------------------------------------------
      1          1           0       -3.805726   -1.351034    0.247088
      2          6           0       -3.361600   -0.368747    0.408559
      3          1           0       -3.347722   -0.146595    1.475601
      4          1           0       -3.950341    0.386740   -0.111651
      5          6           0       -1.926571   -0.319540   -0.119694
      6          8           0       -1.420702   -1.309146   -0.644287
      7          7           0       -1.276532    0.837836    0.022445
      8          1           0       -1.735001    1.623985    0.460639
      9          6           0        0.086709    1.011932   -0.436689
     10          1           0        0.096160    1.101416   -1.522938
     11          6           0        0.711186    2.268180    0.161289
     12          1           0        0.717207    2.189424    1.248379
     13          1           0        1.734003    2.373568   -0.200496
     14          1           0        0.129442    3.140559   -0.136141
     15          6           0        0.954416   -0.173489   -0.038729
     16          8           0        0.440258   -1.223722    0.339533
     17          7           0        2.275646   -0.002819   -0.125071
     18          1           0        2.651264    0.879588   -0.441704
     19          6           0        3.208124   -1.055226    0.225058
     20          1           0        2.656103   -1.938734    0.545680
     21          1           0        3.818574   -1.304032   -0.643036
     22          1           0        3.852216   -0.715727    1.036231
 ---------------------------------------------------------------------
 Rotational constants (GHZ):      2.4396717      0.8928541      0.6940231
 Standard basis: 6-31G(d) (6D, 7F)
 There are   174 symmetry adapted basis functions of A   symmetry.
 Integral buffers will be    131072 words long.
 Raffenetti 1 integral format.
 Two-electron integral symmetry is turned on.
   174 basis functions,   328 primitive gaussians,   174 cartesian basis functions
    39 alpha electrons       39 beta electrons
       nuclear repulsion energy       572.8673440541 Hartrees.
 NAtoms=   22 NActive=   22 NUniq=   22 SFac= 7.50D-01 NAtFMM=   80 NAOKFM=F Big=F
 One-electron integrals computed using PRISM.
 NBasis=   174 RedAO= T  NBF=   174
 NBsUse=   174 1.00D-06 NBFU=   174
 Harris functional with IExCor=  205 diagonalized for initial guess.
 ExpMin= 1.61D-01 ExpMax= 5.48D+03 ExpMxC= 8.25D+02 IAcc=1 IRadAn=         1 AccDes= 0.00D+00
 HarFok:  IExCor=  205 AccDes= 0.00D+00 IRadAn=         1 IDoV= 1
 ScaDFX=  1.000000  1.000000  1.000000  1.000000
 FoFCou: FMM=F IPFlag=           0 FMFlag=      100000 FMFlg1=           0
         NFxFlg=           0 DoJE=T BraDBF=F KetDBF=T FulRan=T
         Omega=  0.000000  0.000000  1.000000  0.000000  0.000000 ICntrl=     500 IOpCl=  0
         NMat0=    1 NMatS0=    1 NMatT0=    0 NMatD0=    1 NMtDS0=    0 NMtDT0=    0
         I1Cent=           4 NGrid=           0.
 Petite list used in FoFCou.
 Initial guess orbital symmetries:
       Occupied  (A) (A) (A) (A) (A) (A) (A) (A) (A) (A) (A) (A)
                 (A) (A) (A) (A) (A) (A) (A) (A) (A) (A) (A) (A)
                 (A) (A) (A) (A) (A) (A) (A) (A) (A) (A) (A) (A)
                 (A) (A) (A)
       Virtual   (A) (A) (A) (A) (A) (A) (A) (A) (A) (A) (A) (A)
                 (A) (A) (A) (A) (A) (A) (A) (A) (A) (A) (A) (A)
                 (A) (A) (A) (A) (A) (A) (A) (A) (A) (A) (A) (A)
                 (A) (A) (A) (A) (A) (A) (A) (A) (A) (A) (A) (A)
                 (A) (A) (A) (A) (A) (A) (A) (A) (A) (A) (A) (A)
                 (A) (A) (A) (A) (A) (A) (A) (A) (A) (A) (A) (A)
                 (A) (A) (A) (A) (A) (A) (A) (A) (A) (A) (A) (A)
                 (A) (A) (A) (A) (A) (A) (A) (A) (A) (A) (A) (A)
                 (A) (A) (A) (A) (A) (A) (A) (A) (A) (A) (A) (A)
                 (A) (A) (A) (A) (A) (A) (A) (A) (A) (A) (A) (A)
                 (A) (A) (A) (A) (A) (A) (A) (A) (A) (A) (A) (A)
                 (A) (A) (A)
 The electronic state of the initial guess is 1-A.
 Requested convergence on RMS density matrix=1.00D-08 within 128 cycles.
 Requested convergence on MAX density matrix=1.00D-06.
 Requested convergence on             energy=1.00D-06.
 No special actions if energy rises.
 Integral accuracy reduced to 1.0D-05 until final iterations.
 Initial convergence to 1.0D-05 achieved.  Increase integral accuracy.
 SCF Done:  E(RHF) =  -492.789530370     A.U. after   16 cycles
             Convg  =    0.2473D-08             -V/T =  2.0015

 **********************************************************************

            Population analysis using the SCF density.

 **********************************************************************

 Orbital symmetries:
       Occupied  (A) (A) (A) (A) (A) (A) (A) (A) (A) (A) (A) (A)
                 (A) (A) (A) (A) (A) (A) (A) (A) (A) (A) (A) (A)
                 (A) (A) (A) (A) (A) (A) (A) (A) (A) (A) (A) (A)
                 (A) (A) (A)
       Virtual   (A) (A) (A) (A) (A) (A) (A) (A) (A) (A) (A) (A)
                 (A) (A) (A) (A) (A) (A) (A) (A) (A) (A) (A) (A)
                 (A) (A) (A) (A) (A) (A) (A) (A) (A) (A) (A) (A)
                 (A) (A) (A) (A) (A) (A) (A) (A) (A) (A) (A) (A)
                 (A) (A) (A) (A) (A) (A) (A) (A) (A) (A) (A) (A)
                 (A) (A) (A) (A) (A) (A) (A) (A) (A) (A) (A) (A)
                 (A) (A) (A) (A) (A) (A) (A) (A) (A) (A) (A) (A)
                 (A) (A) (A) (A) (A) (A) (A) (A) (A) (A) (A) (A)
                 (A) (A) (A) (A) (A) (A) (A) (A) (A) (A) (A) (A)
                 (A) (A) (A) (A) (A) (A) (A) (A) (A) (A) (A) (A)
                 (A) (A) (A) (A) (A) (A) (A) (A) (A) (A) (A) (A)
                 (A) (A) (A)
 The electronic state is 1-A.
 Alpha  occ. eigenvalues --  -20.49064 -20.48443 -15.58362 -15.58303 -11.33081
 Alpha  occ. eigenvalues --  -11.32405 -11.28503 -11.25305 -11.24781 -11.22149
 Alpha  occ. eigenvalues --   -1.37205  -1.33333  -1.23340  -1.22207  -1.06344
 Alpha  occ. eigenvalues --   -0.97978  -0.95144  -0.88417  -0.79867  -0.78224
 Alpha  occ. eigenvalues --   -0.70686  -0.68629  -0.65290  -0.62439  -0.61339
 Alpha  occ. eigenvalues --   -0.61039  -0.59023  -0.58112  -0.55435  -0.55091
 Alpha  occ. eigenvalues --   -0.54368  -0.53986  -0.52681  -0.49922  -0.47311
 Alpha  occ. eigenvalues --   -0.43301  -0.38588  -0.37192  -0.32789
 Alpha virt. eigenvalues --    0.19216   0.20977   0.22429   0.23407   0.26666
 Alpha virt. eigenvalues --    0.27661   0.28598   0.28808   0.30800   0.31944
 Alpha virt. eigenvalues --    0.32521   0.33212   0.34503   0.34768   0.37725
 Alpha virt. eigenvalues --    0.39475   0.42459   0.43487   0.48780   0.51915
 Alpha virt. eigenvalues --    0.57342   0.60073   0.62390   0.71491   0.73285
 Alpha virt. eigenvalues --    0.74155   0.74723   0.77129   0.77291   0.79370
 Alpha virt. eigenvalues --    0.80931   0.82996   0.84746   0.88728   0.91000
 Alpha virt. eigenvalues --    0.93325   0.97020   0.97232   0.97660   0.98787
 Alpha virt. eigenvalues --    1.00686   1.02269   1.06679   1.07322   1.09769
 Alpha virt. eigenvalues --    1.12157   1.13264   1.13852   1.14000   1.16274
 Alpha virt. eigenvalues --    1.17245   1.17705   1.18758   1.19292   1.19655
 Alpha virt. eigenvalues --    1.21647   1.22133   1.22805   1.25315   1.29081
 Alpha virt. eigenvalues --    1.32043   1.35190   1.39150   1.40580   1.47905
 Alpha virt. eigenvalues --    1.52631   1.55999   1.59895   1.60769   1.61961
 Alpha virt. eigenvalues --    1.65407   1.69960   1.72784   1.75035   1.75801
 Alpha virt. eigenvalues --    1.81779   1.84759   1.87493   1.92987   1.97238
 Alpha virt. eigenvalues --    2.00506   2.02602   2.09796   2.12694   2.15132
 Alpha virt. eigenvalues --    2.17320   2.19270   2.20182   2.22929   2.27125
 Alpha virt. eigenvalues --    2.28855   2.29606   2.33099   2.34627   2.36430
 Alpha virt. eigenvalues --    2.41792   2.43199   2.45514   2.48139   2.52965
 Alpha virt. eigenvalues --    2.55092   2.59277   2.60114   2.61888   2.63980
 Alpha virt. eigenvalues --    2.65342   2.67444   2.72665   2.72846   2.74874
 Alpha virt. eigenvalues --    2.78666   2.87757   2.92694   2.93829   2.99731
 Alpha virt. eigenvalues --    3.02784   3.06907   3.08057   3.14144   3.25320
 Alpha virt. eigenvalues --    3.33908   3.38526   3.43147   3.57112   3.62593
 Alpha virt. eigenvalues --    4.38462   4.45243   4.49696   4.59427   4.66552
 Alpha virt. eigenvalues --    4.68951   4.72186   4.89379   4.92662   5.08397
          Condensed to atoms (all electrons):
              1          2          3          4          5          6
     1  H    0.454686   0.385614  -0.017977  -0.019233  -0.028778   0.003958
     2  C    0.385614   5.260577   0.371572   0.371870   0.373099  -0.065344
     3  H   -0.017977   0.371572   0.531335  -0.026931  -0.038596   0.000696
     4  H   -0.019233   0.371870  -0.026931   0.534501  -0.035998   0.001192
     5  C   -0.028778   0.373099  -0.038596  -0.035998   4.207686   0.597074
     6  O    0.003958  -0.065344   0.000696   0.001192   0.597074   8.250410
     7  N    0.003749  -0.127937   0.005245   0.004309   0.213136  -0.110375
     8  H   -0.000041  -0.000546   0.000342   0.000728  -0.016495   0.002592
     9  C   -0.000082   0.004698  -0.000142  -0.000229  -0.027544   0.020780
    10  H    0.000002  -0.000085   0.000002   0.000002  -0.000954   0.001231
    11  C    0.000001  -0.000041   0.000003  -0.000009   0.003463   0.000323
    12  H    0.000000  -0.000016   0.000002   0.000000  -0.000154  -0.000013
    13  H    0.000000   0.000002   0.000000   0.000000  -0.000022   0.000003
    14  H    0.000000  -0.000002  -0.000001   0.000000  -0.000171   0.000001
    15  C   -0.000002   0.000095  -0.000029   0.000007  -0.003921   0.003124
    16  O    0.000024  -0.000903   0.000196  -0.000009   0.009171  -0.126909
    17  N    0.000000  -0.000001   0.000000   0.000000   0.000279  -0.000363
    18  H    0.000000   0.000000   0.000000   0.000000  -0.000009   0.000019
    19  C    0.000000   0.000000   0.000000   0.000000  -0.000001   0.000001
    20  H    0.000000   0.000000   0.000000   0.000000  -0.000001   0.000041
    21  H    0.000000   0.000000   0.000000   0.000000   0.000000   0.000000
    22  H    0.000000   0.000000   0.000000   0.000000   0.000000   0.000000
              7          8          9         10         11         12
     1  H    0.003749  -0.000041  -0.000082   0.000002   0.000001   0.000000
     2  C   -0.127937  -0.000546   0.004698  -0.000085  -0.000041  -0.000016
     3  H    0.005245   0.000342  -0.000142   0.000002   0.000003   0.000002
     4  H    0.004309   0.000728  -0.000229   0.000002  -0.000009   0.000000
     5  C    0.213136  -0.016495  -0.027544  -0.000954   0.003463  -0.000154
     6  O   -0.110375   0.002592   0.020780   0.001231   0.000323  -0.000013
     7  N    7.439477   0.325741   0.196587  -0.042372  -0.055438   0.000959
     8  H    0.325741   0.328552  -0.027702   0.001729  -0.004058   0.000939
     9  C    0.196587  -0.027702   5.038460   0.403235   0.338391  -0.039942
    10  H   -0.042372   0.001729   0.403235   0.508462  -0.042422   0.004409
    11  C   -0.055438  -0.004058   0.338391  -0.042422   5.167731   0.387330
    12  H    0.000959   0.000939  -0.039942   0.004409   0.387330   0.506976
    13  H    0.004274   0.000058  -0.037951  -0.000241   0.391786  -0.022330
    14  H   -0.003106   0.002036  -0.036367  -0.004385   0.388447  -0.025781
    15  C   -0.051183   0.002323   0.375772  -0.041355  -0.058116  -0.004540
    16  O    0.007010  -0.000097  -0.085687   0.000581   0.001003   0.000291
    17  N    0.002744  -0.000085  -0.119804   0.003663  -0.002191   0.000810
    18  H    0.000051  -0.000001   0.002235   0.000016  -0.002612  -0.000111
    19  C   -0.000084   0.000002   0.003986  -0.000263   0.000129  -0.000130
    20  H   -0.000012   0.000000   0.000658  -0.000020  -0.000052  -0.000004
    21  H    0.000000   0.000000  -0.000152   0.000017   0.000011   0.000001
    22  H    0.000002   0.000000   0.000044  -0.000001  -0.000056   0.000009
             13         14         15         16         17         18
     1  H    0.000000   0.000000  -0.000002   0.000024   0.000000   0.000000
     2  C    0.000002  -0.000002   0.000095  -0.000903  -0.000001   0.000000
     3  H    0.000000  -0.000001  -0.000029   0.000196   0.000000   0.000000
     4  H    0.000000   0.000000   0.000007  -0.000009   0.000000   0.000000
     5  C   -0.000022  -0.000171  -0.003921   0.009171   0.000279  -0.000009
     6  O    0.000003   0.000001   0.003124  -0.126909  -0.000363   0.000019
     7  N    0.004274  -0.003106  -0.051183   0.007010   0.002744   0.000051
     8  H    0.000058   0.002036   0.002323  -0.000097  -0.000085  -0.000001
     9  C   -0.037951  -0.036367   0.375772  -0.085687  -0.119804   0.002235
    10  H   -0.000241  -0.004385  -0.041355   0.000581   0.003663   0.000016
    11  C    0.391786   0.388447  -0.058116   0.001003  -0.002191  -0.002612
    12  H   -0.022330  -0.025781  -0.004540   0.000291   0.000810  -0.000111
    13  H    0.536565  -0.022351  -0.008732  -0.000012  -0.002294   0.003511
    14  H   -0.022351   0.519049   0.004980  -0.000072   0.000184  -0.000015
    15  C   -0.008732   0.004980   4.188925   0.594095   0.259266  -0.022363
    16  O   -0.000012  -0.000072   0.594095   8.277570  -0.095641   0.002349
    17  N   -0.002294   0.000184   0.259266  -0.095641   7.382615   0.321309
    18  H    0.003511  -0.000015  -0.022363   0.002349   0.321309   0.331939
    19  C    0.000299   0.000005  -0.024688  -0.004993   0.187437  -0.021737
    20  H   -0.000010   0.000001  -0.001356   0.011728  -0.031906   0.002392
    21  H   -0.000008   0.000000   0.001269   0.000397  -0.047723  -0.001685
    22  H    0.000020  -0.000002   0.000796   0.000382  -0.049667  -0.000475
             19         20         21         22
     1  H    0.000000   0.000000   0.000000   0.000000
     2  C    0.000000   0.000000   0.000000   0.000000
     3  H    0.000000   0.000000   0.000000   0.000000
     4  H    0.000000   0.000000   0.000000   0.000000
     5  C   -0.000001  -0.000001   0.000000   0.000000
     6  O    0.000001   0.000041   0.000000   0.000000
     7  N   -0.000084  -0.000012   0.000000   0.000002
     8  H    0.000002   0.000000   0.000000   0.000000
     9  C    0.003986   0.000658  -0.000152   0.000044
    10  H   -0.000263  -0.000020   0.000017  -0.000001
    11  C    0.000129  -0.000052   0.000011  -0.000056
    12  H   -0.000130  -0.000004   0.000001   0.000009
    13  H    0.000299  -0.000010  -0.000008   0.000020
    14  H    0.000005   0.000001   0.000000  -0.000002
    15  C   -0.024688  -0.001356   0.001269   0.000796
    16  O   -0.004993   0.011728   0.000397   0.000382
    17  N    0.187437  -0.031906  -0.047723  -0.049667
    18  H   -0.021737   0.002392  -0.001685  -0.000475
    19  C    4.945389   0.395720   0.402477   0.402833
    20  H    0.395720   0.425114  -0.021821  -0.022649
    21  H    0.402477  -0.021821   0.538434  -0.037933
    22  H    0.402833  -0.022649  -0.037933   0.544064
 Mulliken atomic charges:
              1
     1  H    0.218076
     2  C   -0.572651
     3  H    0.174281
     4  H    0.169800
     5  C    0.748737
     6  O   -0.578443
     7  N   -0.812780
     8  H    0.383982
     9  C   -0.009246
    10  H    0.208748
    11  C   -0.513625
    12  H    0.191294
    13  H    0.157432
    14  H    0.177549
    15  C    0.785632
    16  O   -0.590478
    17  N   -0.808633
    18  H    0.385187
    19  C   -0.286382
    20  H    0.242176
    21  H    0.166713
    22  H    0.162631
 Sum of Mulliken atomic charges =   0.00000
 Mulliken charges with hydrogens summed into heavy atoms:
              1
     2  C   -0.010494
     5  C    0.748737
     6  O   -0.578443
     7  N   -0.428798
     9  C    0.199502
    11  C    0.012650
    15  C    0.785632
    16  O   -0.590478
    17  N   -0.423446
    19  C    0.285138
 Sum of Mulliken charges with hydrogens summed into heavy atoms =   0.00000
 Electronic spatial extent (au):  <R**2>=           1702.5198
 Charge=              0.0000 electrons
 Dipole moment (field-independent basis, Debye):
    X=              1.6378    Y=              6.0450    Z=              0.5850  Tot=              6.2903
 Quadrupole moment (field-independent basis, Debye-Ang):
   XX=            -46.8884   YY=            -62.1804   ZZ=            -61.1836
   XY=             -3.3743   XZ=             -4.0089   YZ=             -1.6107
 Traceless Quadrupole moment (field-independent basis, Debye-Ang):
   XX=              9.8624   YY=             -5.4296   ZZ=             -4.4328
   XY=             -3.3743   XZ=             -4.0089   YZ=             -1.6107
 Octapole moment (field-independent basis, Debye-Ang**2):
  XXX=              7.9987  YYY=              6.9115  ZZZ=             -0.1529  XYY=              4.6032
  XXY=              0.9498  XXZ=              2.9949  XZZ=              1.2657  YZZ=              1.0473
  YYZ=              2.5276  XYZ=              0.0216
 Hexadecapole moment (field-independent basis, Debye-Ang**3):
 XXXX=          -1431.8079 YYYY=           -558.3139 ZZZZ=           -121.1179 XXXY=              0.4060
 XXXZ=             -5.8676 YYYX=            -18.2744 YYYZ=             -3.3005 ZZZX=             -0.7986
 ZZZY=              0.6331 XXYY=           -329.1087 XXZZ=           -280.7792 YYZZ=           -116.1596
 XXYZ=             -9.5105 YYXZ=             -8.7710 ZZXY=             -2.7506
 N-N= 5.728673440541D+02 E-N=-2.301958511020D+03  KE= 4.920382494485D+02
 Calling FoFJK, ICntrl=      2127 FMM=F ISym2X=0 I1Cent= 0 IOpClX= 0 NMat=1 NMatS=1 NMatT=0.
 ***** Axes restored to original set *****
 -------------------------------------------------------------------
 Center     Atomic                   Forces (Hartrees/Bohr)
 Number     Number              X              Y              Z
 -------------------------------------------------------------------
      1        1           0.008983854   -0.000226611   -0.004270633
      2        6           0.009206450    0.001468049   -0.006028453
      3        1          -0.002160795   -0.003999148    0.002995171
      4        1          -0.004105135    0.001236964   -0.002540033
      5        6          -0.032443167    0.051443149    0.068476600
      6        8          -0.026948404   -0.093614368    0.001657863
      7        7           0.018069848   -0.012689742   -0.024770389
      8        1           0.001657234    0.012270921    0.009966544
      9        6           0.006156060    0.001995044   -0.001723866
     10        1          -0.001495744    0.003436661   -0.000033791
     11        6          -0.003324241   -0.011057568   -0.000047595
     12        1           0.005063455   -0.001724774    0.001328772
     13        1          -0.004999093   -0.012946782   -0.005435228
     14        1           0.002834646    0.003723523   -0.003578582
     15        6          -0.073241013    0.025618616    0.020530029
     16        8           0.080122212    0.017564916   -0.059698638
     17        7           0.025608130    0.003467976   -0.003119226
     18        1          -0.015491702    0.013927245    0.006713655
     19        6           0.001737784    0.002692784    0.000922726
     20        1           0.008697740   -0.005690287   -0.002048198
     21        1          -0.003231060    0.001626183   -0.003612864
     22        1          -0.000697059    0.001477250    0.004316135
 -------------------------------------------------------------------
 Cartesian Forces:  Max     0.093614368 RMS     0.024011356

 GradGradGradGradGradGradGradGradGradGradGradGradGradGradGradGradGradGrad
 Berny optimization.
 Internal  Forces:  Max     0.133968936 RMS     0.032566949
 Search for a local minimum.
 Step number   1 out of a maximum of  108
 All quantities printed in internal units (Hartrees-Bohrs-Radians)
 Mixed Optimization -- RFO/linear search
 Second derivative matrix not updated -- first step.
     Eigenvalues ---    0.00370   0.00435   0.00999   0.01043   0.01269
     Eigenvalues ---    0.01422   0.01660   0.02551   0.02552   0.03503
     Eigenvalues ---    0.05232   0.05841   0.05844   0.05844   0.07165
     Eigenvalues ---    0.07465   0.07685   0.07685   0.15421   0.16000
     Eigenvalues ---    0.16000   0.16000   0.16000   0.16000   0.16000
     Eigenvalues ---    0.16000   0.16000   0.16000   0.16000   0.16000
     Eigenvalues ---    0.16180   0.22000   0.22000   0.25000   0.25000
     Eigenvalues ---    0.25000   0.25000   0.29427   0.29887   0.30174
     Eigenvalues ---    0.34807   0.34810   0.34811   0.34811   0.34812
     Eigenvalues ---    0.34812   0.34816   0.34818   0.34818   0.34821
     Eigenvalues ---    0.38373   0.38379   0.45961   0.45982   0.58336
     Eigenvalues ---    0.58340   0.91506   0.915081000.000001000.00000
     Eigenvalues --- 1000.000001000.000001000.000001000.000001000.00000
     Eigenvalues --- 1000.000001000.000001000.000001000.000001000.00000
     Eigenvalues --- 1000.000001000.000001000.000001000.000001000.00000
     Eigenvalues --- 1000.000001000.000001000.000001000.000001000.00000
     Eigenvalues --- 1000.000001000.000001000.000001000.000001000.00000
     Eigenvalues --- 1000.000001000.000001000.000001000.000001000.00000
     Eigenvalues --- 1000.000001000.000001000.000001000.000001000.00000
     Eigenvalues --- 1000.000001000.000001000.00000
 RFO step:  Lambda=-2.06527898D-01 EMin= 3.69625305D-03
 Linear search not attempted -- first point.
 Maximum step size (   0.300) exceeded in Quadratic search.
    -- Step size scaled by   0.407
 Iteration  1 RMS(Cart)=  0.19809167 RMS(Int)=  0.00763726
 Iteration  2 RMS(Cart)=  0.01539785 RMS(Int)=  0.00031487
 Iteration  3 RMS(Cart)=  0.00012638 RMS(Int)=  0.00031037
 Iteration  4 RMS(Cart)=  0.00000004 RMS(Int)=  0.00031037
 Iteration  1 RMS(Cart)=  0.00008793 RMS(Int)=  0.00002803
 Iteration  2 RMS(Cart)=  0.00004439 RMS(Int)=  0.00003132
 Iteration  3 RMS(Cart)=  0.00002254 RMS(Int)=  0.00003510
 Iteration  4 RMS(Cart)=  0.00001158 RMS(Int)=  0.00003746
 Iteration  5 RMS(Cart)=  0.00000608 RMS(Int)=  0.00003879
 Iteration  6 RMS(Cart)=  0.00000330 RMS(Int)=  0.00003952
 Iteration  7 RMS(Cart)=  0.00000187 RMS(Int)=  0.00003992
 Iteration  8 RMS(Cart)=  0.00000112 RMS(Int)=  0.00004015
 Iteration  9 RMS(Cart)=  0.00000070 RMS(Int)=  0.00004028
 Variable       Old X    -DE/DX   Delta X   Delta X   Delta X     New X
                                 (Linear)    (Quad)   (Total)
    R1        2.05990  -0.00890   0.00000  -0.00654  -0.00654   2.05336
    R2        2.05982  -0.00236   0.00000  -0.00173  -0.00173   2.05809
    R3        2.05971  -0.00244   0.00000  -0.00180  -0.00180   2.05792
    R4        2.89121  -0.00888   0.00000  -0.00723  -0.00723   2.88398
    R5        2.32246  -0.07292   0.00000  -0.02649  -0.02649   2.29597
    R6        2.52282   0.05811   0.00000   0.02997   0.02997   2.55279
    R7        1.90875  -0.01588   0.00000  -0.00971  -0.00971   1.89904
    R8        2.73817   0.04446   0.00000   0.03068   0.03068   2.76885
    R9        2.05975  -0.00173   0.00000  -0.00127  -0.00127   2.05848
   R10        2.88188   0.01169   0.00000   0.00943   0.00943   2.89131
   R11        2.87618   0.05825   0.00000   0.04669   0.04669   2.92287
   R12        2.05972  -0.00407   0.00000  -0.00299  -0.00299   2.05673
   R13        2.05984  -0.01049   0.00000  -0.00771  -0.00771   2.05214
   R14        2.05966  -0.00328   0.00000  -0.00241  -0.00241   2.05725
   R15        2.32246  -0.07594   0.00000  -0.02758  -0.02758   2.29488
   R16        2.52279   0.02207   0.00000   0.01138   0.01138   2.53417
   R17        1.90852  -0.02127   0.00000  -0.01301  -0.01301   1.89551
   R18        2.73826   0.00010   0.00000   0.00007   0.00007   2.73832
   R19        2.05981  -0.01033   0.00000  -0.00759  -0.00759   2.05223
   R20        2.05984  -0.00396   0.00000  -0.00291  -0.00291   2.05693
   R21        2.05982  -0.00367   0.00000  -0.00270  -0.00270   2.05712
    A1        1.91119   0.00013   0.00000   0.00001   0.00002   1.91121
    A2        1.91117   0.00044   0.00000   0.00029   0.00030   1.91147
    A3        1.93906  -0.00889   0.00000  -0.01005  -0.01004   1.92902
    A4        1.91010  -0.00510   0.00000  -0.00531  -0.00534   1.90476
    A5        1.89600   0.00726   0.00000   0.00817   0.00816   1.90416
    A6        1.89606   0.00621   0.00000   0.00697   0.00696   1.90301
    A7        2.10314  -0.02316   0.00000  -0.02066  -0.02084   2.08230
    A8        2.03513  -0.04278   0.00000  -0.03818  -0.03838   1.99674
    A9        2.14492   0.06594   0.00000   0.05884   0.05861   2.20353
   A10        2.09431  -0.06757   0.00000  -0.06463  -0.06471   2.02960
   A11        2.12766   0.13397   0.00000   0.12796   0.12788   2.25555
   A12        2.06121  -0.06640   0.00000  -0.06333  -0.06340   1.99781
   A13        1.91114  -0.02083   0.00000  -0.02610  -0.02649   1.88465
   A14        1.93905  -0.04180   0.00000  -0.04564  -0.04593   1.89312
   A15        1.93900   0.09292   0.00000   0.09854   0.09884   2.03785
   A16        1.89609   0.01855   0.00000   0.01176   0.01075   1.90684
   A17        1.89608   0.00192   0.00000  -0.02540  -0.02538   1.87070
   A18        1.88137  -0.05132   0.00000  -0.01415  -0.01334   1.86803
   A19        1.91115   0.00291   0.00000   0.00347   0.00345   1.91459
   A20        1.91106   0.01161   0.00000   0.01299   0.01296   1.92402
   A21        1.91110   0.00352   0.00000   0.00358   0.00357   1.91466
   A22        1.91011  -0.00532   0.00000  -0.00525  -0.00529   1.90481
   A23        1.91023  -0.00377   0.00000  -0.00438  -0.00438   1.90585
   A24        1.91015  -0.00896   0.00000  -0.01044  -0.01046   1.89969
   A25        2.10312   0.08131   0.00000   0.07256   0.07239   2.17551
   A26        2.03504  -0.03154   0.00000  -0.02814  -0.02828   2.00676
   A27        2.14503  -0.04977   0.00000  -0.04441  -0.04453   2.10050
   A28        2.09446   0.00316   0.00000   0.00366   0.00366   2.09812
   A29        2.12752   0.00188   0.00000   0.00179   0.00179   2.12931
   A30        2.06121  -0.00504   0.00000  -0.00546  -0.00546   2.05575
   A31        1.91120  -0.00516   0.00000  -0.00590  -0.00590   1.90530
   A32        1.91107   0.00483   0.00000   0.00546   0.00545   1.91652
   A33        1.91120   0.00406   0.00000   0.00460   0.00459   1.91579
   A34        1.91014  -0.00050   0.00000  -0.00073  -0.00072   1.90942
   A35        1.91008  -0.00012   0.00000  -0.00030  -0.00030   1.90979
   A36        1.91011  -0.00313   0.00000  -0.00313  -0.00315   1.90696
    D1        0.00001   0.00961   0.00000   0.01790   0.01750   0.01751
    D2       -3.14159  -0.00976   0.00000  -0.01810  -0.01770   3.12390
    D3        2.10337   0.00897   0.00000   0.01697   0.01655   2.11992
    D4       -1.03823  -0.01041   0.00000  -0.01903  -0.01865  -1.05688
    D5       -2.10336   0.01055   0.00000   0.01926   0.01888  -2.08448
    D6        1.03823  -0.00883   0.00000  -0.01674  -0.01632   1.02191
    D7       -0.00003  -0.02863   0.00000  -0.01596  -0.01535  -0.01538
    D8       -3.14152  -0.00461   0.00000  -0.04035  -0.03984   3.10182
    D9        3.14156  -0.04851   0.00000  -0.05290  -0.05341   3.08814
   D10        0.00007  -0.02449   0.00000  -0.07730  -0.07790  -0.07784
   D11        1.30897  -0.02842   0.00000   0.01368   0.01336   1.32233
   D12       -2.87978  -0.04529   0.00000  -0.01748  -0.01655  -2.89633
   D13       -0.78543  -0.07596   0.00000   0.00000   0.00000  -0.78543
   D14       -1.83253  -0.00484   0.00000  -0.01027  -0.01076  -1.84329
   D15        0.26191  -0.02171   0.00000  -0.04143  -0.04067   0.22124
   D16        2.35627  -0.05237   0.00000  -0.02395  -0.02413   2.33214
   D17        1.04724   0.03185   0.00000   0.04643   0.04644   1.09368
   D18        3.14157   0.03423   0.00000   0.05010   0.05012  -3.09149
   D19       -1.04726   0.03253   0.00000   0.04747   0.04750  -0.99977
   D20       -3.13259  -0.00781   0.00000  -0.00651  -0.00652  -3.13911
   D21       -1.03826  -0.00543   0.00000  -0.00284  -0.00283  -1.04110
   D22        1.05609  -0.00714   0.00000  -0.00547  -0.00546   1.05063
   D23       -1.08102  -0.02368   0.00000  -0.03802  -0.03806  -1.11908
   D24        1.01331  -0.02129   0.00000  -0.03436  -0.03437   0.97893
   D25        3.10766  -0.02300   0.00000  -0.03698  -0.03700   3.07066
   D26        0.26182  -0.00089   0.00000  -0.03044  -0.03124   0.23058
   D27       -2.87984   0.00953   0.00000   0.00000   0.00000  -2.87984
   D28       -1.84149  -0.03385   0.00000  -0.04270  -0.04305  -1.88454
   D29        1.30003  -0.02343   0.00000  -0.01226  -0.01181   1.28822
   D30        2.39011  -0.02874   0.00000  -0.03521  -0.03544   2.35467
   D31       -0.75155  -0.01832   0.00000  -0.00477  -0.00420  -0.75575
   D32        0.00013  -0.00667   0.00000  -0.01800  -0.01727  -0.01715
   D33        3.14153  -0.00521   0.00000  -0.01533  -0.01460   3.12693
   D34       -3.14154   0.00403   0.00000   0.01325   0.01251  -3.12903
   D35       -0.00013   0.00548   0.00000   0.01591   0.01519   0.01505
   D36        0.00010  -0.00075   0.00000  -0.00137  -0.00137  -0.00126
   D37        2.09451  -0.00156   0.00000  -0.00253  -0.00254   2.09197
   D38       -2.09431   0.00006   0.00000  -0.00020  -0.00019  -2.09450
   D39        3.14151   0.00068   0.00000   0.00125   0.00125  -3.14043
   D40       -1.04727  -0.00012   0.00000   0.00009   0.00007  -1.04720
   D41        1.04710   0.00150   0.00000   0.00242   0.00242   1.04952
         Item               Value     Threshold  Converged?
 Maximum Force            0.133970     0.000450     NO 
 RMS     Force            0.030536     0.000300     NO 
 Maximum Displacement     0.712140     0.001800     NO 
 RMS     Displacement     0.203642     0.001200     NO 
 Predicted change in Energy=-7.621439D-02
 GradGradGradGradGradGradGradGradGradGradGradGradGradGradGradGradGradGrad

                          Input orientation:                          
 ---------------------------------------------------------------------
 Center     Atomic      Atomic             Coordinates (Angstroms)
 Number     Number       Type             X           Y           Z
 ---------------------------------------------------------------------
      1          1           0        0.411827    3.632952    1.312124
      2          6           0        1.232198    3.382739    0.644991
      3          1           0        0.908411    3.497583   -0.388497
      4          1           0        1.534646    2.349937    0.811638
      5          6           0        2.426551    4.298268    0.898800
      6          8           0        2.354892    5.141406    1.770665
      7          7           0        3.502245    4.040357    0.123407
      8          1           0        3.412676    3.275020   -0.521664
      9          6           0        4.789540    4.737536    0.062848
     10          1           0        5.370186    4.448186    0.937889
     11          6           0        5.524830    4.288625   -1.201579
     12          1           0        4.951788    4.576546   -2.080944
     13          1           0        6.506436    4.750623   -1.249345
     14          1           0        5.645514    3.206731   -1.191402
     15          6           0        4.743745    6.283334    0.035561
     16          8           0        3.760202    6.949473    0.287879
     17          7           0        5.888260    6.877368   -0.332628
     18          1           0        6.696317    6.324657   -0.551000
     19          6           0        6.009663    8.318216   -0.427429
     20          1           0        5.060513    8.774228   -0.161822
     21          1           0        6.782566    8.668896    0.254064
     22          1           0        6.273996    8.599218   -1.445355
 ---------------------------------------------------------------------
                    Distance matrix (angstroms):
                    1          2          3          4          5
     1  H    0.000000
     2  C    1.086592   0.000000
     3  H    1.776804   1.089093   0.000000
     4  H    1.776889   1.089002   1.774707   0.000000
     5  C    2.161619   1.526136   2.145455   2.144548   0.000000
     6  O    2.502238   2.370758   3.075133   3.063468   1.214976
     7  N    3.336123   2.420253   2.699005   2.683772   1.350878
     8  H    3.534966   2.475312   2.517659   2.482029   2.009277
     9  C    4.684567   3.850850   4.099312   4.105564   2.544698
    10  H    5.038848   4.282979   4.750829   4.373780   2.947709
    11  C    5.735103   4.759951   4.753753   4.871665   3.743129
    12  H    5.745827   4.763533   4.514137   5.000168   3.915755
    13  H    6.704817   5.768639   5.800780   5.893186   4.632991
    14  H    5.817283   4.783375   4.813459   4.652473   3.990253
    15  C    5.236378   4.595195   4.759204   5.135389   3.170970
    16  O    4.822863   4.386334   4.528327   5.136454   3.029973
    17  N    6.574402   5.903142   6.018717   6.384429   4.489053
    18  H    7.085995   6.319958   6.443494   6.655677   4.943589
    19  C    7.504233   6.952207   7.018745   7.561839   5.545949
    20  H    7.086291   6.661464   6.718208   7.392623   5.300650
    21  H    8.189416   7.674820   7.852455   8.232909   6.204267
    22  H    8.162874   7.549896   7.478846   8.161432   6.228649
                    6          7          8          9         10
     6  O    0.000000
     7  N    2.289583   0.000000
     8  H    3.139598   1.004928   0.000000
     9  C    3.001210   1.465214   2.091976   0.000000
    10  H    3.204071   2.078198   2.708959   1.089298   0.000000
    11  C    4.428315   2.430652   2.439441   1.530016   2.150977
    12  H    4.679512   2.692181   2.548371   2.155943   3.050392
    13  H    5.148639   3.378474   3.504037   2.160961   2.483249
    14  H    4.831667   2.649010   2.332119   2.156200   2.480100
    15  C    3.165629   2.565148   3.336495   1.546716   2.138784
    16  O    2.728124   2.925158   3.778590   2.450070   3.044832
    17  N    4.463418   3.734925   4.375061   2.437717   2.789900
    18  H    5.063416   3.984337   4.481456   2.555692   2.737985
    19  C    5.317997   4.989051   5.673363   3.814490   4.153331
    20  H    4.924662   4.991902   5.752056   4.052010   4.474361
    21  H    5.860679   5.674587   6.407169   4.411837   4.502980
    22  H    6.136663   5.561189   6.114527   4.403507   4.871119
                   11         12         13         14         15
    11  C    0.000000
    12  H    1.088374   0.000000
    13  H    1.085944   1.771663   0.000000
    14  H    1.088652   1.774524   1.768657   0.000000
    15  C    2.473756   2.726903   2.665945   3.432799   0.000000
    16  O    3.523139   3.558368   3.839244   4.444186   1.214398
    17  N    2.754768   3.037658   2.396988   3.777564   1.341027
    18  H    2.437429   2.905168   1.732432   3.351979   2.039191
    19  C    4.131824   4.225317   3.694597   5.181075   2.440830
    20  H    4.627885   4.616859   4.411665   5.692037   2.518701
    21  H    4.784095   5.054833   4.205870   5.763463   3.145702
    22  H    4.381996   4.281833   3.860586   5.434923   3.146124
                   16         17         18         19         20
    16  O    0.000000
    17  N    2.217850   0.000000
    18  H    3.116871   1.003061   0.000000
    19  C    2.728588   1.449058   2.112118   0.000000
    20  H    2.285338   2.076636   2.971146   1.085992   0.000000
    21  H    3.477390   2.086519   2.480125   1.088480   1.774689
    22  H    3.470579   2.086078   2.480293   1.088581   1.775000
                   21         22
    21  H    0.000000
    22  H    1.775253   0.000000
 Stoichiometry    C6H12N2O2
 Framework group  C1[X(C6H12N2O2)]
 Deg. of freedom    60
 Full point group                 C1      NOp   1
 Largest Abelian subgroup         C1      NOp   1
 Largest concise Abelian subgroup C1      NOp   1
                         Standard orientation:                         
 ---------------------------------------------------------------------
 Center     Atomic      Atomic             Coordinates (Angstroms)
 Number     Number       Type             X           Y           Z
 ---------------------------------------------------------------------
      1          1           0       -4.077595   -1.061094    0.364347
      2          6           0       -3.488978   -0.153393    0.465791
      3          1           0       -3.404979    0.109687    1.519289
      4          1           0       -3.979454    0.659799   -0.067198
      5          6           0       -2.090748   -0.355044   -0.111601
      6          8           0       -1.801283   -1.425160   -0.608820
      7          7           0       -1.296851    0.735926   -0.045398
      8          1           0       -1.705996    1.560254    0.358290
      9          6           0        0.101129    0.891019   -0.455827
     10          1           0        0.127147    0.957043   -1.542811
     11          6           0        0.640171    2.192293    0.141726
     12          1           0        0.619748    2.133131    1.228299
     13          1           0        1.661386    2.361664   -0.186464
     14          1           0        0.023241    3.028458   -0.182907
     15          6           0        1.077227   -0.235533   -0.042976
     16          8           0        0.738212   -1.321238    0.382556
     17          7           0        2.377548    0.074454   -0.149874
     18          1           0        2.655167    0.975772   -0.491467
     19          6           0        3.422462   -0.861510    0.213298
     20          1           0        2.968884   -1.784977    0.560938
     21          1           0        4.048443   -1.069680   -0.652497
     22          1           0        4.036114   -0.438531    1.006726
 ---------------------------------------------------------------------
 Rotational constants (GHZ):      2.5352167      0.7847020      0.6341058
 Standard basis: 6-31G(d) (6D, 7F)
 There are   174 symmetry adapted basis functions of A   symmetry.
 Integral buffers will be    131072 words long.
 Raffenetti 1 integral format.
 Two-electron integral symmetry is turned on.
   174 basis functions,   328 primitive gaussians,   174 cartesian basis functions
    39 alpha electrons       39 beta electrons
       nuclear repulsion energy       558.7762206317 Hartrees.
 NAtoms=   22 NActive=   22 NUniq=   22 SFac= 7.50D-01 NAtFMM=   80 NAOKFM=F Big=F
 One-electron integrals computed using PRISM.
 NBasis=   174 RedAO= T  NBF=   174
 NBsUse=   174 1.00D-06 NBFU=   174
 Initial guess read from the read-write file.
 B after Tr=     0.000000    0.000000    0.000000
         Rot=    1.000000    0.000000    0.000000    0.000000 Ang=   0.00 deg.
 Initial guess orbital symmetries:
       Occupied  (A) (A) (A) (A) (A) (A) (A) (A) (A) (A) (A) (A)
                 (A) (A) (A) (A) (A) (A) (A) (A) (A) (A) (A) (A)
                 (A) (A) (A) (A) (A) (A) (A) (A) (A) (A) (A) (A)
                 (A) (A) (A)
       Virtual   (A) (A) (A) (A) (A) (A) (A) (A) (A) (A) (A) (A)
                 (A) (A) (A) (A) (A) (A) (A) (A) (A) (A) (A) (A)
                 (A) (A) (A) (A) (A) (A) (A) (A) (A) (A) (A) (A)
                 (A) (A) (A) (A) (A) (A) (A) (A) (A) (A) (A) (A)
                 (A) (A) (A) (A) (A) (A) (A) (A) (A) (A) (A) (A)
                 (A) (A) (A) (A) (A) (A) (A) (A) (A) (A) (A) (A)
                 (A) (A) (A) (A) (A) (A) (A) (A) (A) (A) (A) (A)
                 (A) (A) (A) (A) (A) (A) (A) (A) (A) (A) (A) (A)
                 (A) (A) (A) (A) (A) (A) (A) (A) (A) (A) (A) (A)
                 (A) (A) (A) (A) (A) (A) (A) (A) (A) (A) (A) (A)
                 (A) (A) (A) (A) (A) (A) (A) (A) (A) (A) (A) (A)
                 (A) (A) (A)
 Harris functional with IExCor=  205 diagonalized for initial guess.
 ExpMin= 1.61D-01 ExpMax= 5.48D+03 ExpMxC= 8.25D+02 IAcc=1 IRadAn=         1 AccDes= 0.00D+00
 HarFok:  IExCor=  205 AccDes= 0.00D+00 IRadAn=         1 IDoV= 1
 ScaDFX=  1.000000  1.000000  1.000000  1.000000
 FoFCou: FMM=F IPFlag=           0 FMFlag=      100000 FMFlg1=           0
         NFxFlg=           0 DoJE=T BraDBF=F KetDBF=T FulRan=T
         Omega=  0.000000  0.000000  1.000000  0.000000  0.000000 ICntrl=     500 IOpCl=  0
         NMat0=    1 NMatS0=    1 NMatT0=    0 NMatD0=    1 NMtDS0=    0 NMtDT0=    0
         I1Cent=           4 NGrid=           0.
 Petite list used in FoFCou.
 Requested convergence on RMS density matrix=1.00D-08 within 128 cycles.
 Requested convergence on MAX density matrix=1.00D-06.
 Requested convergence on             energy=1.00D-06.
 No special actions if energy rises.
 Integral accuracy reduced to 1.0D-05 until final iterations.
 Initial convergence to 1.0D-05 achieved.  Increase integral accuracy.
 SCF Done:  E(RHF) =  -492.823091239     A.U. after   14 cycles
             Convg  =    0.5828D-08             -V/T =  2.0019
 Calling FoFJK, ICntrl=      2127 FMM=F ISym2X=0 I1Cent= 0 IOpClX= 0 NMat=1 NMatS=1 NMatT=0.
 ***** Axes restored to original set *****
 -------------------------------------------------------------------
 Center     Atomic                   Forces (Hartrees/Bohr)
 Number     Number              X              Y              Z
 -------------------------------------------------------------------
      1        1           0.006739772    0.001015315   -0.002466372
      2        6           0.006581579    0.000153567   -0.006004169
      3        1          -0.001514126   -0.003583374    0.002217210
      4        1          -0.003596915    0.000461923   -0.002100225
      5        6          -0.024374534    0.025750848    0.044724466
      6        8           0.011453240   -0.029094825   -0.024268862
      7        7           0.013064617    0.004050412   -0.019746532
      8        1          -0.000219140    0.009230097    0.005772280
      9        6          -0.000034524    0.003890412    0.006438455
     10        1           0.000874202    0.003494757   -0.001425135
     11        6          -0.002302641   -0.010382972    0.001680183
     12        1           0.003659720   -0.000984823    0.001019908
     13        1          -0.004389827   -0.011865726   -0.004744867
     14        1           0.001824157    0.002599129   -0.002698855
     15        6          -0.047930049    0.017430214    0.008348137
     16        8           0.022076840   -0.023277018   -0.010445574
     17        7           0.022057391   -0.001201381   -0.002093738
     18        1          -0.009307621    0.012338396    0.005722113
     19        6           0.001662799    0.001883343    0.001208797
     20        1           0.006366116   -0.004292801   -0.001658299
     21        1          -0.002297834    0.001282704   -0.002625237
     22        1          -0.000393223    0.001101803    0.003146316
 -------------------------------------------------------------------
 Cartesian Forces:  Max     0.047930049 RMS     0.012768215

 GradGradGradGradGradGradGradGradGradGradGradGradGradGradGradGradGradGrad
 Berny optimization.
 Using GEDIIS/GDIIS optimizer.
 Internal  Forces:  Max     0.038281312 RMS     0.008310762
 Search for a local minimum.
 Step number   2 out of a maximum of  108
 All quantities printed in internal units (Hartrees-Bohrs-Radians)
 Mixed Optimization -- RFO/linear search
 Update second derivatives using D2CorX and points    1    2
 DE= -3.36D-02 DEPred=-7.62D-02 R= 4.40D-01
 Trust test= 4.40D-01 RLast= 3.00D-01 DXMaxT set to 3.00D-01
 Use linear search instead of GDIIS.
     Eigenvalues ---    0.00370   0.00435   0.00974   0.01043   0.01353
     Eigenvalues ---    0.01461   0.01664   0.02552   0.02730   0.03240
     Eigenvalues ---    0.05583   0.05747   0.05800   0.06052   0.07201
     Eigenvalues ---    0.07395   0.07637   0.07702   0.15763   0.15997
     Eigenvalues ---    0.16000   0.16000   0.16000   0.16000   0.16000
     Eigenvalues ---    0.16000   0.16000   0.16000   0.16000   0.16396
     Eigenvalues ---    0.17386   0.21998   0.23696   0.24914   0.24986
     Eigenvalues ---    0.24998   0.29402   0.29717   0.29881   0.34680
     Eigenvalues ---    0.34807   0.34810   0.34811   0.34811   0.34812
     Eigenvalues ---    0.34816   0.34817   0.34818   0.34821   0.37554
     Eigenvalues ---    0.38373   0.45665   0.45968   0.56431   0.58072
     Eigenvalues ---    0.84996   0.91357   1.064001000.000001000.00000
     Eigenvalues --- 1000.000001000.000001000.000001000.000001000.00000
     Eigenvalues --- 1000.000001000.000001000.000001000.000001000.00000
     Eigenvalues --- 1000.000001000.000001000.000001000.000001000.00000
     Eigenvalues --- 1000.000001000.000001000.000001000.000001000.00000
     Eigenvalues --- 1000.000001000.000001000.000001000.000001000.00000
     Eigenvalues --- 1000.000001000.000001000.000001000.000001000.00000
     Eigenvalues --- 1000.000001000.000001000.000001000.000001000.00000
     Eigenvalues --- 1000.000001000.000001000.00000
 RFO step:  Lambda=-2.97240503D-02 EMin= 3.69625341D-03
 Quartic linear search produced a step of  0.14106.
 Maximum step size (   0.300) exceeded in Quadratic search.
    -- Step size scaled by   0.604
 Iteration  1 RMS(Cart)=  0.09778676 RMS(Int)=  0.00325691
 Iteration  2 RMS(Cart)=  0.00438221 RMS(Int)=  0.00035930
 Iteration  3 RMS(Cart)=  0.00000729 RMS(Int)=  0.00035923
 Iteration  4 RMS(Cart)=  0.00000000 RMS(Int)=  0.00035923
 Iteration  1 RMS(Cart)=  0.00007847 RMS(Int)=  0.00002726
 Iteration  2 RMS(Cart)=  0.00004105 RMS(Int)=  0.00003038
 Iteration  3 RMS(Cart)=  0.00002200 RMS(Int)=  0.00003425
 Iteration  4 RMS(Cart)=  0.00001221 RMS(Int)=  0.00003687
 Iteration  5 RMS(Cart)=  0.00000710 RMS(Int)=  0.00003851
 Iteration  6 RMS(Cart)=  0.00000432 RMS(Int)=  0.00003951
 Iteration  7 RMS(Cart)=  0.00000275 RMS(Int)=  0.00004013
 Iteration  8 RMS(Cart)=  0.00000180 RMS(Int)=  0.00004052
 Iteration  9 RMS(Cart)=  0.00000120 RMS(Int)=  0.00004077
 Iteration 10 RMS(Cart)=  0.00000081 RMS(Int)=  0.00004093
 Variable       Old X    -DE/DX   Delta X   Delta X   Delta X     New X
                                 (Linear)    (Quad)   (Total)
    R1        2.05336  -0.00637  -0.00092  -0.01088  -0.01181   2.04156
    R2        2.05809  -0.00203  -0.00024  -0.00350  -0.00375   2.05434
    R3        2.05792  -0.00176  -0.00025  -0.00300  -0.00326   2.05466
    R4        2.88398  -0.00386  -0.00102  -0.00754  -0.00856   2.87542
    R5        2.29597  -0.03828  -0.00374  -0.02435  -0.02809   2.26788
    R6        2.55279   0.00969   0.00423   0.00749   0.01172   2.56450
    R7        1.89904  -0.01072  -0.00137  -0.01391  -0.01528   1.88376
    R8        2.76885  -0.01102   0.00433  -0.02094  -0.01661   2.75224
    R9        2.05848  -0.00161  -0.00018  -0.00278  -0.00296   2.05552
   R10        2.89131   0.00939   0.00133   0.01868   0.02001   2.91132
   R11        2.92287   0.00546   0.00659   0.00747   0.01406   2.93693
   R12        2.05673  -0.00301  -0.00042  -0.00515  -0.00557   2.05115
   R13        2.05214  -0.00881  -0.00109  -0.01517  -0.01625   2.03588
   R14        2.05725  -0.00241  -0.00034  -0.00412  -0.00445   2.05280
   R15        2.29488  -0.03282  -0.00389  -0.02029  -0.02418   2.27070
   R16        2.53417   0.01934   0.00161   0.02020   0.02181   2.55598
   R17        1.89551  -0.01554  -0.00183  -0.02027  -0.02211   1.87340
   R18        2.73832   0.00042   0.00001   0.00068   0.00069   2.73901
   R19        2.05223  -0.00777  -0.00107  -0.01331  -0.01438   2.03784
   R20        2.05693  -0.00286  -0.00041  -0.00489  -0.00530   2.05163
   R21        2.05712  -0.00275  -0.00038  -0.00472  -0.00510   2.05202
    A1        1.91121   0.00001   0.00000  -0.00127  -0.00113   1.91009
    A2        1.91147   0.00005   0.00004  -0.00154  -0.00137   1.91010
    A3        1.92902  -0.00708  -0.00142  -0.02651  -0.02780   1.90122
    A4        1.90476  -0.00427  -0.00075  -0.01198  -0.01305   1.89171
    A5        1.90416   0.00584   0.00115   0.02149   0.02255   1.92671
    A6        1.90301   0.00548   0.00098   0.02005   0.02093   1.92394
    A7        2.08230   0.01168  -0.00294   0.02942   0.02605   2.10835
    A8        1.99674  -0.00658  -0.00541  -0.01380  -0.01961   1.97713
    A9        2.20353  -0.00517   0.00827  -0.01710  -0.00920   2.19433
   A10        2.02960  -0.00198  -0.00913  -0.00224  -0.01156   2.01805
   A11        2.25555   0.00330   0.01804   0.00111   0.01896   2.27450
   A12        1.99781  -0.00125  -0.00894   0.00046  -0.00869   1.98912
   A13        1.88465   0.00604  -0.00374   0.01415   0.00955   1.89420
   A14        1.89312  -0.01473  -0.00648  -0.05852  -0.06479   1.82833
   A15        2.03785  -0.01032   0.01394  -0.03769  -0.02204   2.01581
   A16        1.90684  -0.00311   0.00152  -0.01006  -0.00983   1.89701
   A17        1.87070  -0.00250  -0.00358  -0.00365  -0.00782   1.86288
   A18        1.86803   0.02486  -0.00188   0.09700   0.09472   1.96275
   A19        1.91459   0.00124   0.00049   0.00624   0.00645   1.92104
   A20        1.92402   0.01187   0.00183   0.04368   0.04520   1.96923
   A21        1.91466   0.00166   0.00050   0.00230   0.00279   1.91745
   A22        1.90481  -0.00469  -0.00075  -0.00972  -0.01098   1.89384
   A23        1.90585  -0.00239  -0.00062  -0.01163  -0.01222   1.89363
   A24        1.89969  -0.00790  -0.00148  -0.03167  -0.03320   1.86649
   A25        2.17551  -0.01196   0.01021  -0.03431  -0.02460   2.15090
   A26        2.00676   0.00970  -0.00399   0.02491   0.02039   2.02715
   A27        2.10050   0.00235  -0.00628   0.00792   0.00110   2.10160
   A28        2.09812   0.00303   0.00052   0.01169   0.01210   2.11023
   A29        2.12931   0.00222   0.00025   0.00592   0.00607   2.13538
   A30        2.05575  -0.00525  -0.00077  -0.01766  -0.01853   2.03722
   A31        1.90530  -0.00282  -0.00083  -0.01086  -0.01166   1.89364
   A32        1.91652   0.00341   0.00077   0.01259   0.01332   1.92984
   A33        1.91579   0.00260   0.00065   0.00959   0.01020   1.92599
   A34        1.90942  -0.00063  -0.00010  -0.00306  -0.00312   1.90630
   A35        1.90979  -0.00033  -0.00004  -0.00227  -0.00228   1.90750
   A36        1.90696  -0.00225  -0.00044  -0.00604  -0.00659   1.90037
    D1        0.01751   0.00098   0.00247   0.02101   0.02364   0.04115
    D2        3.12390  -0.00111  -0.00250  -0.02189  -0.02454   3.09936
    D3        2.11992   0.00032   0.00233   0.01666   0.01896   2.13888
    D4       -1.05688  -0.00176  -0.00263  -0.02624  -0.02921  -1.08610
    D5       -2.08448   0.00182   0.00266   0.02658   0.02959  -2.05490
    D6        1.02191  -0.00027  -0.00230  -0.01631  -0.01859   1.00331
    D7       -0.01538  -0.00487  -0.00217  -0.02087  -0.02338  -0.03876
    D8        3.10182  -0.00152  -0.00562  -0.05673  -0.06249   3.03934
    D9        3.08814  -0.00673  -0.00753  -0.06615  -0.07355   3.01459
   D10       -0.07784  -0.00338  -0.01099  -0.10202  -0.11266  -0.19049
   D11        1.32233  -0.00732   0.00189  -0.01928  -0.01762   1.30471
   D12       -2.89633  -0.01574  -0.00233  -0.05549  -0.05822  -2.95455
   D13       -0.78543  -0.00177   0.00000   0.00000   0.00001  -0.78542
   D14       -1.84329  -0.00403  -0.00152  -0.05464  -0.05624  -1.89953
   D15        0.22124  -0.01245  -0.00574  -0.09085  -0.09684   0.12440
   D16        2.33214   0.00152  -0.00340  -0.03535  -0.03862   2.29352
   D17        1.09368  -0.00107   0.00655   0.01497   0.02057   1.11425
   D18       -3.09149   0.00138   0.00707   0.03437   0.04076  -3.05074
   D19       -0.99977   0.00008   0.00670   0.02397   0.02989  -0.96988
   D20       -3.13911  -0.00393  -0.00092  -0.00691  -0.00784   3.13623
   D21       -1.04110  -0.00148  -0.00040   0.01250   0.01234  -1.02876
   D22        1.05063  -0.00278  -0.00077   0.00210   0.00147   1.05210
   D23       -1.11908   0.00487  -0.00537   0.03563   0.03080  -1.08827
   D24        0.97893   0.00732  -0.00485   0.05503   0.05099   1.02992
   D25        3.07066   0.00602  -0.00522   0.04463   0.04012   3.11078
   D26        0.23058  -0.00240  -0.00441  -0.05474  -0.05889   0.17169
   D27       -2.87984  -0.00565   0.00000   0.00000   0.00000  -2.87984
   D28       -1.88454  -0.00145  -0.00607  -0.04522  -0.05098  -1.93552
   D29        1.28822  -0.00470  -0.00167   0.00951   0.00792   1.29614
   D30        2.35467  -0.00912  -0.00500  -0.08062  -0.08574   2.26893
   D31       -0.75575  -0.01238  -0.00059  -0.02588  -0.02685  -0.78260
   D32       -0.01715  -0.00006  -0.00244  -0.04727  -0.05005  -0.06719
   D33        3.12693   0.00169  -0.00206  -0.02080  -0.02293   3.10400
   D34       -3.12903  -0.00288   0.00177   0.00575   0.00759  -3.12144
   D35        0.01505  -0.00112   0.00214   0.03222   0.03470   0.04975
   D36       -0.00126  -0.00090  -0.00019  -0.01334  -0.01343  -0.01469
   D37        2.09197  -0.00133  -0.00036  -0.01611  -0.01644   2.07553
   D38       -2.09450  -0.00035  -0.00003  -0.00971  -0.00959  -2.10409
   D39       -3.14043   0.00080   0.00018   0.01248   0.01257  -3.12786
   D40       -1.04720   0.00038   0.00001   0.00971   0.00957  -1.03763
   D41        1.04952   0.00136   0.00034   0.01611   0.01641   1.06593
         Item               Value     Threshold  Converged?
 Maximum Force            0.038281     0.000450     NO 
 RMS     Force            0.008333     0.000300     NO 
 Maximum Displacement     0.430766     0.001800     NO 
 RMS     Displacement     0.097786     0.001200     NO 
 Predicted change in Energy=-1.116586D-02
 GradGradGradGradGradGradGradGradGradGradGradGradGradGradGradGradGradGrad

                          Input orientation:                          
 ---------------------------------------------------------------------
 Center     Atomic      Atomic             Coordinates (Angstroms)
 Number     Number       Type             X           Y           Z
 ---------------------------------------------------------------------
      1          1           0        0.460733    3.656039    1.286721
      2          6           0        1.259517    3.435708    0.593510
      3          1           0        0.923738    3.635853   -0.420888
      4          1           0        1.521951    2.383105    0.666503
      5          6           0        2.462427    4.302854    0.934620
      6          8           0        2.436756    5.046281    1.876389
      7          7           0        3.540079    4.059095    0.146643
      8          1           0        3.427380    3.330892   -0.524710
      9          6           0        4.825802    4.739139    0.071664
     10          1           0        5.417578    4.456287    0.939396
     11          6           0        5.498241    4.168861   -1.191691
     12          1           0        4.921788    4.433956   -2.072357
     13          1           0        6.507180    4.522672   -1.324085
     14          1           0        5.548676    3.085729   -1.125986
     15          6           0        4.761686    6.291931    0.060575
     16          8           0        3.755668    6.911153    0.280438
     17          7           0        5.890481    6.932391   -0.320312
     18          1           0        6.719831    6.427314   -0.519993
     19          6           0        5.965907    8.376201   -0.423027
     20          1           0        5.002874    8.788210   -0.166665
     21          1           0        6.715198    8.768454    0.257698
     22          1           0        6.223507    8.669773   -1.436241
 ---------------------------------------------------------------------
                    Distance matrix (angstroms):
                    1          2          3          4          5
     1  H    0.000000
     2  C    1.080345   0.000000
     3  H    1.769382   1.087110   0.000000
     4  H    1.769525   1.087278   1.763422   0.000000
     5  C    2.132868   1.521608   2.156353   2.154488   0.000000
     6  O    2.486995   2.371837   3.091280   3.064832   1.200113
     7  N    3.308263   2.406088   2.710436   2.674329   1.357078
     8  H    3.491132   2.441522   2.524283   2.438842   2.001372
     9  C    4.658680   3.832707   4.084844   4.101239   2.553542
    10  H    5.033025   4.295426   4.766349   4.421364   2.959135
    11  C    5.637553   4.657385   4.669509   4.738427   3.708816
    12  H    5.638225   4.638488   4.398718   4.823509   3.886844
    13  H    6.642808   5.691804   5.725124   5.778641   4.637898
    14  H    5.659822   4.634224   4.710611   4.463318   3.905435
    15  C    5.191297   4.550518   4.692164   5.112920   3.163380
    16  O    4.739723   4.290396   4.386260   5.063769   2.983899
    17  N    6.542110   5.874324   5.962031   6.383875   4.498986
    18  H    7.079583   6.324921   6.434033   6.691887   4.975412
    19  C    7.450511   6.898690   6.920576   7.540094   5.541636
    20  H    7.005894   6.575702   6.576531   7.337326   5.271159
    21  H    8.143342   7.636452   7.768210   8.240729   6.203698
    22  H    8.109354   7.493765   7.379624   8.127014   6.231909
                    6          7          8          9         10
     6  O    0.000000
     7  N    2.276813   0.000000
     8  H    3.112743   0.996842   0.000000
     9  C    3.009802   1.456422   2.072295   0.000000
    10  H    3.179835   2.076348   2.714960   1.087733   0.000000
    11  C    4.422180   2.374360   2.331420   1.540603   2.151895
    12  H    4.705627   2.640758   2.417688   2.167758   3.052370
    13  H    5.204379   3.343895   3.397721   2.195907   2.512964
    14  H    4.747848   2.569336   2.218453   2.165797   2.482220
    15  C    3.202207   2.546623   3.300103   1.554155   2.138249
    16  O    2.786457   2.863323   3.684333   2.430312   3.036863
    17  N    4.506787   3.741426   4.368002   2.469320   2.818083
    18  H    5.098494   4.020409   4.519744   2.605252   2.776802
    19  C    5.369413   4.984633   5.648858   3.843537   4.185999
    20  H    4.976050   4.960087   5.691458   4.059942   4.490090
    21  H    5.897441   5.680826   6.402265   4.454190   4.554483
    22  H    6.200218   5.564590   6.095315   4.435903   4.903737
                   11         12         13         14         15
    11  C    0.000000
    12  H    1.085424   0.000000
    13  H    1.077344   1.755349   0.000000
    14  H    1.086295   1.762476   1.738614   0.000000
    15  C    2.572568   2.833214   2.845050   3.508135   0.000000
    16  O    3.567056   3.609984   3.981225   4.452726   1.201602
    17  N    2.924081   3.201594   2.682280   3.944965   1.352569
    18  H    2.654066   3.101011   2.078327   3.592356   2.046881
    19  C    4.302472   4.399064   3.994317   5.353253   2.455239
    20  H    4.757567   4.753710   4.668765   5.808311   2.518177
    21  H    4.973728   5.237686   4.535634   5.963952   3.160417
    22  H    4.565525   4.476746   4.158304   5.633223   3.167256
                   16         17         18         19         20
    16  O    0.000000
    17  N    2.217831   0.000000
[...]
    14  H    5.841853   4.903587   5.179085   4.758339   3.946187
    15  C    4.748121   4.004035   3.833638   4.622260   2.921922
    16  O    4.078792   3.451636   3.086146   4.249030   2.674314
    17  N    6.094395   5.345340   5.094324   5.929046   4.269931
    18  H    6.708901   5.940931   5.816595   6.437158   4.738043
    19  C    6.807112   6.166715   5.748479   6.879696   5.234579
    20  H    6.569420   5.930482   5.341974   6.654018   5.240509
    21  H    6.837109   6.343061   5.996851   7.164555   5.349151
    22  H    7.840150   7.153702   6.728297   7.805927   6.198719
                    6          7          8          9         10
     6  O    0.000000
     7  N    2.257765   0.000000
     8  H    3.074586   0.999413   0.000000
     9  C    2.868694   1.452215   2.033514   0.000000
    10  H    2.810260   2.058978   2.874443   1.085514   0.000000
    11  C    4.325475   2.415680   2.464608   1.531015   2.141321
    12  H    4.801410   2.750899   2.415636   2.173653   3.051474
    13  H    5.024699   3.370789   3.525586   2.185384   2.466925
    14  H    4.581350   2.574007   2.578673   2.144827   2.493768
    15  C    3.131350   2.489026   2.917502   1.541522   2.121877
    16  O    2.873012   2.763488   3.102282   2.407229   3.007658
    17  N    4.391247   3.696893   4.039253   2.453735   2.819616
    18  H    4.813216   3.986889   4.382527   2.572960   2.688516
    19  C    5.231247   4.917649   5.229026   3.814131   4.133398
    20  H    5.369510   5.028732   5.189493   4.152683   4.677714
    21  H    5.107511   5.254578   5.719208   4.207592   4.316399
    22  H    6.222547   5.736910   5.998322   4.517676   4.794181
                   11         12         13         14         15
    11  C    0.000000
    12  H    1.085731   0.000000
    13  H    1.082305   1.750707   0.000000
    14  H    1.083202   1.761780   1.749334   0.000000
    15  C    2.567747   2.805447   2.881610   3.489030   0.000000
    16  O    3.553978   3.592887   4.018633   4.403197   1.197899
    17  N    2.895578   3.092739   2.709048   3.934626   1.358194
    18  H    2.702516   3.116495   2.179853   3.660706   2.025641
    19  C    4.314498   4.361062   4.072183   5.370640   2.434842
    20  H    4.663354   4.485628   4.603647   5.732798   2.679103
    21  H    4.969489   5.170429   4.747063   5.969928   2.820900
    22  H    4.725804   4.740746   4.263985   5.776468   3.309313
                   16         17         18         19         20
    16  O    0.000000
    17  N    2.232564   0.000000
    18  H    3.093743   0.994033   0.000000
    19  C    2.736167   1.450370   2.094241   0.000000
    20  H    2.588207   2.075572   2.918878   1.079348   0.000000
    21  H    2.946820   2.114683   2.649354   1.084829   1.755498
    22  H    3.766315   2.067112   2.313422   1.082104   1.759838
                   21         22
    21  H    0.000000
    22  H    1.766044   0.000000
 Stoichiometry    C6H12N2O2
 Framework group  C1[X(C6H12N2O2)]
 Deg. of freedom    60
 Full point group                 C1      NOp   1
 Largest Abelian subgroup         C1      NOp   1
 Largest concise Abelian subgroup C1      NOp   1
                         Standard orientation:                         
 ---------------------------------------------------------------------
 Center     Atomic      Atomic             Coordinates (Angstroms)
 Number     Number       Type             X           Y           Z
 ---------------------------------------------------------------------
      1          1           0        3.631724   -1.406116   -0.435663
      2          6           0        2.940942   -0.681418   -0.840575
      3          1           0        2.381602   -1.137646   -1.650938
      4          1           0        3.491000    0.166404   -1.236509
      5          6           0        1.972915   -0.262886    0.239710
      6          8           0        1.858957   -0.847168    1.272903
      7          7           0        1.279596    0.914408   -0.014999
      8          1           0        1.406045    1.219022   -0.958422
      9          6           0       -0.111492    1.038284    0.383067
     10          1           0       -0.136632    1.122164    1.465044
     11          6           0       -0.666237    2.330992   -0.221226
     12          1           0       -0.748778    2.255623   -1.301189
     13          1           0       -1.645302    2.579944    0.167156
     14          1           0        0.002256    3.148861    0.018639
     15          6           0       -0.940460   -0.210395    0.022647
     16          8           0       -0.442305   -1.210994   -0.408173
     17          7           0       -2.288312   -0.049884    0.069763
     18          1           0       -2.651445    0.698507    0.613958
     19          6           0       -3.165524   -1.185033   -0.143568
     20          1           0       -2.901604   -1.672804   -1.069537
     21          1           0       -3.098263   -1.912520    0.658363
     22          1           0       -4.183678   -0.825073   -0.212410
 ---------------------------------------------------------------------
 Rotational constants (GHZ):      2.1459896      0.8828204      0.7166932

 **********************************************************************

            Population analysis using the SCF density.

 **********************************************************************

 Orbital symmetries:
       Occupied  (A) (A) (A) (A) (A) (A) (A) (A) (A) (A) (A) (A)
                 (A) (A) (A) (A) (A) (A) (A) (A) (A) (A) (A) (A)
                 (A) (A) (A) (A) (A) (A) (A) (A) (A) (A) (A) (A)
                 (A) (A) (A)
       Virtual   (A) (A) (A) (A) (A) (A) (A) (A) (A) (A) (A) (A)
                 (A) (A) (A) (A) (A) (A) (A) (A) (A) (A) (A) (A)
                 (A) (A) (A) (A) (A) (A) (A) (A) (A) (A) (A) (A)
                 (A) (A) (A) (A) (A) (A) (A) (A) (A) (A) (A) (A)
                 (A) (A) (A) (A) (A) (A) (A) (A) (A) (A) (A) (A)
                 (A) (A) (A) (A) (A) (A) (A) (A) (A) (A) (A) (A)
                 (A) (A) (A) (A) (A) (A) (A) (A) (A) (A) (A) (A)
                 (A) (A) (A) (A) (A) (A) (A) (A) (A) (A) (A) (A)
                 (A) (A) (A) (A) (A) (A) (A) (A) (A) (A) (A) (A)
                 (A) (A) (A) (A) (A) (A) (A) (A) (A) (A) (A) (A)
                 (A) (A) (A) (A) (A) (A) (A) (A) (A) (A) (A) (A)
                 (A) (A) (A)
 The electronic state is 1-A.
 Alpha  occ. eigenvalues --  -20.53020 -20.51354 -15.58942 -15.57475 -11.34810
 Alpha  occ. eigenvalues --  -11.33674 -11.28506 -11.25908 -11.24182 -11.22047
 Alpha  occ. eigenvalues --   -1.40238  -1.37921  -1.23703  -1.23007  -1.05529
 Alpha  occ. eigenvalues --   -0.98660  -0.95839  -0.88428  -0.79378  -0.77868
 Alpha  occ. eigenvalues --   -0.72017  -0.66946  -0.66406  -0.64026  -0.62813
 Alpha  occ. eigenvalues --   -0.61552  -0.59278  -0.57789  -0.57114  -0.56280
 Alpha  occ. eigenvalues --   -0.55554  -0.54823  -0.53581  -0.51148  -0.49017
 Alpha  occ. eigenvalues --   -0.44163  -0.40869  -0.39625  -0.38065
 Alpha virt. eigenvalues --    0.18891   0.20816   0.21195   0.23131   0.26254
 Alpha virt. eigenvalues --    0.27531   0.28757   0.30116   0.30686   0.31484
 Alpha virt. eigenvalues --    0.32093   0.32819   0.33442   0.35231   0.37664
 Alpha virt. eigenvalues --    0.39263   0.42497   0.43358   0.48597   0.51360
 Alpha virt. eigenvalues --    0.55552   0.57840   0.60700   0.70263   0.73452
 Alpha virt. eigenvalues --    0.73829   0.74756   0.76739   0.77550   0.78268
 Alpha virt. eigenvalues --    0.80726   0.84499   0.86506   0.87984   0.89462
 Alpha virt. eigenvalues --    0.93275   0.95395   0.96087   0.97936   1.00119
 Alpha virt. eigenvalues --    1.01991   1.02356   1.04538   1.07159   1.10615
 Alpha virt. eigenvalues --    1.11860   1.12159   1.13116   1.14313   1.15319
 Alpha virt. eigenvalues --    1.16595   1.16762   1.18708   1.20114   1.20508
 Alpha virt. eigenvalues --    1.21328   1.22637   1.24213   1.25133   1.27309
 Alpha virt. eigenvalues --    1.27897   1.31482   1.35195   1.40873   1.42873
 Alpha virt. eigenvalues --    1.44999   1.49121   1.52270   1.58323   1.59450
 Alpha virt. eigenvalues --    1.66611   1.67494   1.70689   1.73123   1.76576
 Alpha virt. eigenvalues --    1.80510   1.82693   1.90979   1.92385   1.96895
 Alpha virt. eigenvalues --    2.03025   2.05754   2.06623   2.09502   2.13310
 Alpha virt. eigenvalues --    2.14139   2.15667   2.18280   2.20603   2.25527
 Alpha virt. eigenvalues --    2.28159   2.29751   2.30644   2.33405   2.37422
 Alpha virt. eigenvalues --    2.38297   2.39082   2.42330   2.44134   2.48374
 Alpha virt. eigenvalues --    2.53591   2.55957   2.58606   2.61469   2.63118
 Alpha virt. eigenvalues --    2.64493   2.68996   2.72543   2.76054   2.76497
 Alpha virt. eigenvalues --    2.82250   2.85338   2.88652   2.92159   2.95547
 Alpha virt. eigenvalues --    3.02677   3.05071   3.08573   3.13588   3.23924
 Alpha virt. eigenvalues --    3.34226   3.39527   3.41885   3.52188   3.55050
 Alpha virt. eigenvalues --    4.36402   4.42456   4.48396   4.58115   4.64812
 Alpha virt. eigenvalues --    4.68087   4.71851   4.81774   4.91013   5.05487
          Condensed to atoms (all electrons):
              1          2          3          4          5          6
     1  H    0.467130   0.381394  -0.016114  -0.021044  -0.031593   0.004115
     2  C    0.381394   5.294560   0.372592   0.373159   0.371708  -0.072171
     3  H   -0.016114   0.372592   0.484503  -0.025132  -0.027077   0.000262
     4  H   -0.021044   0.373159  -0.025132   0.529236  -0.034984   0.001711
     5  C   -0.031593   0.371708  -0.027077  -0.034984   4.117003   0.615146
     6  O    0.004115  -0.072171   0.000262   0.001711   0.615146   8.127654
     7  N    0.004465  -0.122318   0.001284   0.004025   0.256206  -0.101918
     8  H    0.000151  -0.000092   0.000091  -0.000423  -0.026512   0.003282
     9  C   -0.000170   0.006971  -0.000653   0.000122  -0.026352   0.011378
    10  H    0.000007  -0.000015  -0.000001  -0.000016  -0.002807   0.003512
    11  C    0.000002  -0.000118  -0.000005  -0.000014   0.003500   0.000203
    12  H    0.000000  -0.000017   0.000003   0.000000  -0.000259  -0.000003
    13  H    0.000000   0.000003   0.000000   0.000000  -0.000022   0.000003
    14  H    0.000000  -0.000005   0.000000   0.000000  -0.000030  -0.000006
    15  C    0.000004  -0.000318   0.000168   0.000010  -0.000895  -0.001504
    16  O    0.000033  -0.002141   0.002212   0.000049   0.010909  -0.006970
    17  N    0.000000  -0.000010   0.000005   0.000000   0.000189  -0.000075
    18  H    0.000000   0.000000   0.000000   0.000000  -0.000012   0.000001
    19  C    0.000000   0.000000   0.000000   0.000000  -0.000009   0.000004
    20  H    0.000000   0.000000   0.000000   0.000000   0.000000   0.000001
    21  H    0.000000   0.000000   0.000000   0.000000   0.000001  -0.000001
    22  H    0.000000   0.000000   0.000000   0.000000   0.000000   0.000000
              7          8          9         10         11         12
     1  H    0.004465   0.000151  -0.000170   0.000007   0.000002   0.000000
     2  C   -0.122318  -0.000092   0.006971  -0.000015  -0.000118  -0.000017
     3  H    0.001284   0.000091  -0.000653  -0.000001  -0.000005   0.000003
     4  H    0.004025  -0.000423   0.000122  -0.000016  -0.000014   0.000000
     5  C    0.256206  -0.026512  -0.026352  -0.002807   0.003500  -0.000259
     6  O   -0.101918   0.003282   0.011378   0.003512   0.000203  -0.000003
     7  N    7.320685   0.323309   0.238575  -0.035350  -0.065449  -0.001539
     8  H    0.323309   0.373510  -0.038638   0.004668  -0.005040   0.003728
     9  C    0.238575  -0.038638   5.035693   0.393061   0.344904  -0.037420
    10  H   -0.035350   0.004668   0.393061   0.495163  -0.035556   0.003971
    11  C   -0.065449  -0.005040   0.344904  -0.035556   5.137874   0.387251
    12  H   -0.001539   0.003728  -0.037420   0.003971   0.387251   0.522678
    13  H    0.003918   0.000092  -0.033946  -0.001964   0.391605  -0.024949
    14  H   -0.001820  -0.000477  -0.035155  -0.004022   0.392594  -0.026808
    15  C   -0.056686  -0.000740   0.384956  -0.045662  -0.049857  -0.004001
    16  O   -0.003841   0.001040  -0.071588   0.000786   0.000524   0.000262
    17  N    0.003630  -0.000066  -0.115369   0.003762   0.000737   0.001077
    18  H    0.000131  -0.000002   0.001670   0.000298  -0.000816  -0.000008
    19  C   -0.000104  -0.000002   0.003849  -0.000335   0.000045  -0.000102
    20  H    0.000000   0.000000   0.000202  -0.000004  -0.000047   0.000000
    21  H   -0.000001   0.000000  -0.000209   0.000018   0.000009   0.000001
    22  H    0.000001   0.000000   0.000040   0.000000  -0.000022   0.000001
             13         14         15         16         17         18
     1  H    0.000000   0.000000   0.000004   0.000033   0.000000   0.000000
     2  C    0.000003  -0.000005  -0.000318  -0.002141  -0.000010   0.000000
     3  H    0.000000   0.000000   0.000168   0.002212   0.000005   0.000000
     4  H    0.000000   0.000000   0.000010   0.000049   0.000000   0.000000
     5  C   -0.000022  -0.000030  -0.000895   0.010909   0.000189  -0.000012
     6  O    0.000003  -0.000006  -0.001504  -0.006970  -0.000075   0.000001
     7  N    0.003918  -0.001820  -0.056686  -0.003841   0.003630   0.000131
     8  H    0.000092  -0.000477  -0.000740   0.001040  -0.000066  -0.000002
     9  C   -0.033946  -0.035155   0.384956  -0.071588  -0.115369   0.001670
    10  H   -0.001964  -0.004022  -0.045662   0.000786   0.003762   0.000298
    11  C    0.391605   0.392594  -0.049857   0.000524   0.000737  -0.000816
    12  H   -0.024949  -0.026808  -0.004001   0.000262   0.001077  -0.000008
    13  H    0.522016  -0.023302  -0.002498  -0.000011  -0.000391   0.002207
    14  H   -0.023302   0.497417   0.004045  -0.000058   0.000089  -0.000101
    15  C   -0.002498   0.004045   4.189879   0.602481   0.270942  -0.024401
    16  O   -0.000011  -0.000058   0.602481   8.161770  -0.105492   0.002653
    17  N   -0.000391   0.000089   0.270942  -0.105492   7.325828   0.324650
    18  H    0.002207  -0.000101  -0.024401   0.002653   0.324650   0.339902
    19  C    0.000057   0.000006  -0.028277   0.006558   0.202853  -0.024977
    20  H   -0.000002   0.000000  -0.004083   0.004182  -0.038259   0.003230
    21  H    0.000000   0.000000  -0.002921   0.001228  -0.046997   0.000227
    22  H   -0.000001   0.000000   0.004355   0.000387  -0.038717  -0.004033
             19         20         21         22
     1  H    0.000000   0.000000   0.000000   0.000000
     2  C    0.000000   0.000000   0.000000   0.000000
     3  H    0.000000   0.000000   0.000000   0.000000
     4  H    0.000000   0.000000   0.000000   0.000000
     5  C   -0.000009   0.000000   0.000001   0.000000
     6  O    0.000004   0.000001  -0.000001   0.000000
     7  N   -0.000104   0.000000  -0.000001   0.000001
     8  H   -0.000002   0.000000   0.000000   0.000000
     9  C    0.003849   0.000202  -0.000209   0.000040
    10  H   -0.000335  -0.000004   0.000018   0.000000
    11  C    0.000045  -0.000047   0.000009  -0.000022
    12  H   -0.000102   0.000000   0.000001   0.000001
    13  H    0.000057  -0.000002   0.000000  -0.000001
    14  H    0.000006   0.000000   0.000000   0.000000
    15  C   -0.028277  -0.004083  -0.002921   0.004355
    16  O    0.006558   0.004182   0.001228   0.000387
    17  N    0.202853  -0.038259  -0.046997  -0.038717
    18  H   -0.024977   0.003230   0.000227  -0.004033
    19  C    4.911683   0.403089   0.406213   0.397691
    20  H    0.403089   0.482225  -0.031865  -0.024666
    21  H    0.406213  -0.031865   0.526508  -0.032321
    22  H    0.397691  -0.024666  -0.032321   0.529161
 Mulliken atomic charges:
              1
     1  H    0.211622
     2  C   -0.603184
     3  H    0.207862
     4  H    0.173300
     5  C    0.775890
     6  O   -0.584622
     7  N   -0.767203
     8  H    0.362121
     9  C   -0.061922
    10  H    0.220486
    11  C   -0.502323
    12  H    0.176135
    13  H    0.167186
    14  H    0.197635
    15  C    0.765004
    16  O   -0.604972
    17  N   -0.788388
    18  H    0.379379
    19  C   -0.278241
    20  H    0.205999
    21  H    0.180111
    22  H    0.168126
 Sum of Mulliken atomic charges =   0.00000
 Mulliken charges with hydrogens summed into heavy atoms:
              1
     2  C   -0.010400
     5  C    0.775890
     6  O   -0.584622
     7  N   -0.405082
     9  C    0.158564
    11  C    0.038633
    15  C    0.765004
    16  O   -0.604972
    17  N   -0.409009
    19  C    0.275994
 Sum of Mulliken charges with hydrogens summed into heavy atoms =   0.00000
 Electronic spatial extent (au):  <R**2>=           1703.9878
 Charge=              0.0000 electrons
 Dipole moment (field-independent basis, Debye):
    X=             -3.0837    Y=              3.7596    Z=             -1.9911  Tot=              5.2543
 Quadrupole moment (field-independent basis, Debye-Ang):
   XX=            -50.8839   YY=            -62.1025   ZZ=            -62.2241
   XY=              0.9731   XZ=             -9.4729   YZ=              1.6533
 Traceless Quadrupole moment (field-independent basis, Debye-Ang):
   XX=              7.5196   YY=             -3.6990   ZZ=             -3.8206
   XY=              0.9731   XZ=             -9.4729   YZ=              1.6533
 Octapole moment (field-independent basis, Debye-Ang**2):
  XXX=            -19.3600  YYY=              1.1963  ZZZ=             -3.9505  XYY=             -6.5293
  XXY=             -5.5972  XXZ=             -7.4776  XZZ=             -6.0180  YZZ=              3.6296
  YYZ=             -1.5945  XYZ=              0.4254
 Hexadecapole moment (field-independent basis, Debye-Ang**3):
 XXXX=          -1328.5394 YYYY=           -569.9110 ZZZZ=           -194.6327 XXXY=              3.5150
 XXXZ=            -29.7417 YYYX=              0.3808 YYYZ=             -0.8640 ZZZX=             -6.7467
 ZZZY=              3.5399 XXYY=           -325.1371 XXZZ=           -287.2052 YYZZ=           -126.5636
 XXYZ=             13.9180 YYXZ=             -9.3356 ZZXY=              8.9912
 N-N= 5.670700503455D+02 E-N=-2.289709499599D+03  KE= 4.921144234461D+02
 1\1\GINC-RODAN\FOpt\RHF\6-31G(d)\C6H12N2O2\STEBOSS\10-Feb-2017\0\\# HF
 /6-31G* Opt=(ModRedundant) geom=nocrowd\\Phi Psi fixed scan\\0,1\H,0.6
 735629599,3.9831608606,1.4895999697\C,1.3317837118,3.9427235016,0.6343
 629577\H,1.0651736421,4.7354380181,-0.0571690776\H,1.2146533455,2.9900
 011514,0.1276784702\C,2.7536517045,4.1591889177,1.0933781109\O,3.03191
 5059,4.5618162391,2.1807237932\N,3.7311278417,3.7683732102,0.18596808\
 H,3.3389806441,3.5561163959,-0.7084559016\C,4.9439143684,4.5541122993,
 0.042125069\H,5.5443403727,4.3962455119,0.9325786538\C,5.7149197756,4.
 0221593187,-1.1689010025\H,5.1934664222,4.244634025,-2.0948619874\H,6.
 7091132879,4.443690038,-1.2415356286\H,5.8172989914,2.9475750585,-1.07
 88206095\C,4.6598418209,6.0675075737,-0.0301807851\O,3.5691416046,6.52
 69352234,0.1549176967\N,5.688208547,6.8338092858,-0.4773213801\H,6.607
 9717348,6.4609347639,-0.421624169\C,5.5711046628,8.2794312338,-0.48344
 67577\H,4.6688498448,8.5636520679,-1.0032027628\H,5.5339552248,8.69275
 95811,0.5188676258\H,6.4240244334,8.6916357245,-1.0064803653\\Version=
 EM64L-G09RevA.02\State=1-A\HF=-492.8430543\RMSD=6.466e-09\RMSF=4.915e-
 03\Dipole=1.2308176,-0.2169296,-1.6466352\Quadrupole=6.0075823,0.82559
 57,-6.833178,5.1659991,1.8505625,1.7986336\PG=C01 [X(C6H12N2O2)]\\@


 NOT WHAT WE DID SHALL BE THE TEST
 WHEN ACT AND WILL ARE DONE,
 BUT WHAT OUR LORD INFERS WE WOULD-
 HAD WE DIVINER BEEN.
           EMILY DICKINSON  POEMS NO. CLXXV
 Job cpu time:  0 days  0 hours 23 minutes 17.7 seconds.
 File lengths (MBytes):  RWF=     25 Int=      0 D2E=      0 Chk=      3 Scr=      1
 Normal termination of Gaussian 09 at Fri Feb 10 20:08:15 2017.
