 Entering Gaussian System, Link 0=g09
 Initial command:
 /home/steboss/Software/g09/l1.exe /home/steboss/projects/phi_psi_scan/alanine/MP2/255/5448/Gau-9988.inp -scrdir=/home/steboss/projects/phi_psi_scan/alanine/MP2/255/5448/
 Entering Link 1 = /home/steboss/Software/g09/l1.exe PID=      9990.
  
 Copyright (c) 1988,1990,1992,1993,1995,1998,2003,2009, Gaussian, Inc.
                  All Rights Reserved.
  
 This is part of the Gaussian(R) 09 program.  It is based on
 the Gaussian(R) 03 system (copyright 2003, Gaussian, Inc.),
 the Gaussian(R) 98 system (copyright 1998, Gaussian, Inc.),
 the Gaussian(R) 94 system (copyright 1995, Gaussian, Inc.),
 the Gaussian 92(TM) system (copyright 1992, Gaussian, Inc.),
 the Gaussian 90(TM) system (copyright 1990, Gaussian, Inc.),
 the Gaussian 88(TM) system (copyright 1988, Gaussian, Inc.),
 the Gaussian 86(TM) system (copyright 1986, Carnegie Mellon
 University), and the Gaussian 82(TM) system (copyright 1983,
 Carnegie Mellon University). Gaussian is a federally registered
 trademark of Gaussian, Inc.
  
 This software contains proprietary and confidential information,
 including trade secrets, belonging to Gaussian, Inc.
  
 This software is provided under written license and may be
 used, copied, transmitted, or stored only in accord with that
 written license.
  
 The following legend is applicable only to US Government
 contracts under FAR:
  
                    RESTRICTED RIGHTS LEGEND
  
 Use, reproduction and disclosure by the US Government is
 subject to restrictions as set forth in subparagraphs (a)
 and (c) of the Commercial Computer Software - Restricted
 Rights clause in FAR 52.227-19.
  
 Gaussian, Inc.
 340 Quinnipiac St., Bldg. 40, Wallingford CT 06492
  
  
 ---------------------------------------------------------------
 Warning -- This program may not be used in any manner that
 competes with the business of Gaussian, Inc. or will provide
 assistance to any competitor of Gaussian, Inc.  The licensee
 of this program is prohibited from giving any competitor of
 Gaussian, Inc. access to this program.  By using this program,
 the user acknowledges that Gaussian, Inc. is engaged in the
 business of creating and licensing software in the field of
 computational chemistry and represents and warrants to the
 licensee that it is not a competitor of Gaussian, Inc. and that
 it will not use this program in any manner prohibited above.
 ---------------------------------------------------------------
  

 Cite this work as:
 Gaussian 09, Revision A.02,
 M. J. Frisch, G. W. Trucks, H. B. Schlegel, G. E. Scuseria, 
 M. A. Robb, J. R. Cheeseman, G. Scalmani, V. Barone, B. Mennucci, 
 G. A. Petersson, H. Nakatsuji, M. Caricato, X. Li, H. P. Hratchian, 
 A. F. Izmaylov, J. Bloino, G. Zheng, J. L. Sonnenberg, M. Hada, 
 M. Ehara, K. Toyota, R. Fukuda, J. Hasegawa, M. Ishida, T. Nakajima, 
 Y. Honda, O. Kitao, H. Nakai, T. Vreven, J. A. Montgomery, Jr., 
 J. E. Peralta, F. Ogliaro, M. Bearpark, J. J. Heyd, E. Brothers, 
 K. N. Kudin, V. N. Staroverov, R. Kobayashi, J. Normand, 
 K. Raghavachari, A. Rendell, J. C. Burant, S. S. Iyengar, J. Tomasi, 
 M. Cossi, N. Rega, J. M. Millam, M. Klene, J. E. Knox, J. B. Cross, 
 V. Bakken, C. Adamo, J. Jaramillo, R. Gomperts, R. E. Stratmann, 
 O. Yazyev, A. J. Austin, R. Cammi, C. Pomelli, J. W. Ochterski, 
 R. L. Martin, K. Morokuma, V. G. Zakrzewski, G. A. Voth, 
 P. Salvador, J. J. Dannenberg, S. Dapprich, A. D. Daniels, 
 O. Farkas, J. B. Foresman, J. V. Ortiz, J. Cioslowski, 
 and D. J. Fox, Gaussian, Inc., Wallingford CT, 2009.
 
 ******************************************
 Gaussian 09:  EM64L-G09RevA.02 11-Jun-2009
                13-Feb-2017 
 ******************************************
 %chk=structure_150.chk
 %NProcShared=8
 Will use up to    8 processors via shared memory.
 -------------------
 #SP MP2/aug-cc-pVDZ
 -------------------
 1/38=1/1;
 2/12=2,17=6,18=5,40=1/2;
 3/5=16,7=10,11=9,16=1,25=1,30=1/1,2,3;
 4//1;
 5/5=2,38=5/2;
 8/10=1/1;
 9/16=-3/6;
 6/7=2,8=2,9=2,10=2/1;
 99/5=1,9=1/99;
 -------------------------------
 Single Point calculation at MP2
 -------------------------------
 Symbolic Z-matrix:
 Charge =  0 Multiplicity = 1
 H                     4.1851   -0.7957   -0.0938 
 C                     3.2129   -0.9592   -0.5654 
 H                     3.0306   -2.0398   -0.5811 
 H                     3.2425   -0.5941   -1.5965 
 C                     2.1399   -0.2893    0.2788 
 O                     2.1425   -0.3497    1.5022 
 N                     1.1888    0.405    -0.4339 
 H                     1.0797    0.1697   -1.4146 
 C                    -0.0473    0.8363    0.2002 
 H                     0.1116    0.7264    1.2769 
 C                    -0.3681    2.3008   -0.1407 
 H                    -0.5046    2.4217   -1.221 
 H                    -1.2884    2.6271    0.3565 
 H                     0.4539    2.9467    0.1814 
 C                    -1.1899   -0.0788   -0.2785 
 O                    -1.1873   -0.5477   -1.4136 
 N                    -2.203    -0.2598    0.6122 
 H                    -2.0773    0.0843    1.5538 
 C                    -3.3746   -1.0688    0.3198 
 H                    -3.3371   -1.3263   -0.7393 
 H                    -3.3808   -1.9929    0.9103 
 H                    -4.2943   -0.5101    0.5255 
 
                          Input orientation:                          
 ---------------------------------------------------------------------
 Center     Atomic      Atomic             Coordinates (Angstroms)
 Number     Number       Type             X           Y           Z
 ---------------------------------------------------------------------
      1          1           0        4.185100   -0.795700   -0.093800
      2          6           0        3.212900   -0.959200   -0.565400
      3          1           0        3.030600   -2.039800   -0.581100
      4          1           0        3.242500   -0.594100   -1.596500
      5          6           0        2.139900   -0.289300    0.278800
      6          8           0        2.142500   -0.349700    1.502200
      7          7           0        1.188800    0.405000   -0.433900
      8          1           0        1.079700    0.169700   -1.414600
      9          6           0       -0.047300    0.836300    0.200200
     10          1           0        0.111600    0.726400    1.276900
     11          6           0       -0.368100    2.300800   -0.140700
     12          1           0       -0.504600    2.421700   -1.221000
     13          1           0       -1.288400    2.627100    0.356500
     14          1           0        0.453900    2.946700    0.181400
     15          6           0       -1.189900   -0.078800   -0.278500
     16          8           0       -1.187300   -0.547700   -1.413600
     17          7           0       -2.203000   -0.259800    0.612200
     18          1           0       -2.077300    0.084300    1.553800
     19          6           0       -3.374600   -1.068800    0.319800
     20          1           0       -3.337100   -1.326300   -0.739300
     21          1           0       -3.380800   -1.992900    0.910300
     22          1           0       -4.294300   -0.510100    0.525500
 ---------------------------------------------------------------------
                    Distance matrix (angstroms):
                    1          2          3          4          5
     1  H    0.000000
     2  C    1.092846   0.000000
     3  H    1.765819   1.095982   0.000000
     4  H    1.785286   1.094231   1.779322   0.000000
     5  C    2.139653   1.520779   2.144067   2.196675   0.000000
     6  O    2.630275   2.406702   2.825827   3.297222   1.224893
     7  N    3.245791   2.444446   3.064464   2.562718   1.376439
     8  H    3.509988   2.558534   3.063107   2.300909   2.049953
     9  C    4.545665   3.799851   4.284373   4.012102   2.461097
    10  H    4.559497   3.981630   4.429965   4.450021   2.478276
    11  C    5.506554   4.861227   5.530454   4.851415   3.629692
    12  H    5.797890   5.067554   5.728184   4.824604   4.073365
    13  H    6.471285   5.828649   6.427504   5.892316   4.501629
    14  H    5.291800   4.840025   5.664448   4.845047   3.650175
    15  C    5.425743   4.499118   4.663658   4.652830   3.382671
    16  O    5.537694   4.500060   4.550835   4.433817   3.741824
    17  N    6.449298   5.586401   5.655346   5.885880   4.355778
    18  H    6.535032   5.793627   5.929607   6.219718   4.421536
    19  C    7.575930   6.647612   6.540722   6.905328   5.569471
    20  H    7.568467   6.562584   6.409502   6.675481   5.666518
    21  H    7.725565   6.835430   6.582744   7.218642   5.811985
    22  H    8.506781   7.599329   7.564305   7.830281   6.442712
                    6          7          8          9         10
     6  O    0.000000
     7  N    2.286394   0.000000
     8  H    3.147545   1.014417   0.000000
     9  C    2.810164   1.454663   2.078957   0.000000
    10  H    2.309395   2.047070   2.913984   1.093897   0.000000
    11  C    4.003421   2.470620   2.874114   1.537493   2.172196
    12  H    4.701448   2.748492   2.760252   2.177711   3.081112
    13  H    4.684554   3.420377   3.844933   2.184428   2.533732
    14  H    3.932192   2.716415   3.263521   2.169180   2.499404
    15  C    3.788030   2.432370   2.550208   1.540161   2.182090
    16  O    4.430425   2.741040   2.377804   2.412345   3.247963
    17  N    4.436615   3.611176   3.881818   2.453206   2.602266
    18  H    4.242373   3.836823   4.334206   2.553162   2.297879
    19  C    5.688020   4.854356   4.937896   3.835966   4.036381
    20  H    6.000340   4.855352   4.711918   4.047503   4.491344
    21  H    5.792866   5.332733   5.475222   4.429541   4.441379
    22  H    6.512455   5.641121   5.753781   4.467172   4.637401
                   11         12         13         14         15
    11  C    0.000000
    12  H    1.095581   0.000000
    13  H    1.095733   1.773425   0.000000
    14  H    1.093901   1.777941   1.780004   0.000000
    15  C    2.521278   2.758703   2.781155   3.473793   0.000000
    16  O    3.225727   3.052951   3.636321   4.177127   1.228139
    17  N    3.238887   3.665464   3.039090   4.186448   1.361058
    18  H    3.271936   3.954281   2.919199   4.060023   2.042401
    19  C    4.539307   4.774364   4.244202   5.549847   2.472039
    20  H    4.725372   4.722562   4.585556   5.786009   2.525680
    21  H    5.349469   5.683631   5.101885   6.295702   3.142780
    22  H    4.874426   5.099759   4.348105   5.883305   3.235697
                   16         17         18         19         20
    16  O    0.000000
    17  N    2.284381   0.000000
    18  H    3.161801   1.010354   0.000000
    19  C    2.839102   1.453487   2.129644   0.000000
    20  H    2.383808   2.061591   2.972406   1.090599   0.000000
    21  H    3.507215   2.116533   2.535343   1.096672   1.779732
    22  H    3.662645   2.108009   2.515115   1.095585   1.783854
                   21         22
    21  H    0.000000
    22  H    1.783606   0.000000
 Stoichiometry    C6H12N2O2
 Framework group  C1[X(C6H12N2O2)]
 Deg. of freedom    60
 Full point group                 C1      NOp   1
 Largest Abelian subgroup         C1      NOp   1
 Largest concise Abelian subgroup C1      NOp   1
                         Standard orientation:                         
 ---------------------------------------------------------------------
 Center     Atomic      Atomic             Coordinates (Angstroms)
 Number     Number       Type             X           Y           Z
 ---------------------------------------------------------------------
      1          1           0        4.185094   -0.795700   -0.093803
      2          6           0        3.212894   -0.959200   -0.565403
      3          1           0        3.030595   -2.039801   -0.581103
      4          1           0        3.242494   -0.594100   -1.596503
      5          6           0        2.139894   -0.289301    0.278797
      6          8           0        2.142494   -0.349701    1.502197
      7          7           0        1.188793    0.404998   -0.433903
      8          1           0        1.079693    0.169698   -1.414603
      9          6           0       -0.047307    0.836297    0.200197
     10          1           0        0.111593    0.726398    1.276897
     11          6           0       -0.368108    2.300797   -0.140703
     12          1           0       -0.504608    2.421697   -1.221003
     13          1           0       -1.288408    2.627097    0.356497
     14          1           0        0.453892    2.946698    0.181397
     15          6           0       -1.189906   -0.078803   -0.278503
     16          8           0       -1.187306   -0.547703   -1.413603
     17          7           0       -2.203006   -0.259804    0.612197
     18          1           0       -2.077306    0.084296    1.553797
     19          6           0       -3.374606   -1.068805    0.319797
     20          1           0       -3.337106   -1.326305   -0.739303
     21          1           0       -3.380805   -1.992905    0.910297
     22          1           0       -4.294306   -0.510105    0.525497
 ---------------------------------------------------------------------
 Rotational constants (GHZ):      2.1356479      0.7217505      0.6775997
 Standard basis: Aug-CC-pVDZ (5D, 7F)
 There are   338 symmetry adapted basis functions of A   symmetry.
 Integral buffers will be    131072 words long.
 Raffenetti 1 integral format.
 Two-electron integral symmetry is turned on.
   338 basis functions,   562 primitive gaussians,   358 cartesian basis functions
    39 alpha electrons       39 beta electrons
       nuclear repulsion energy       551.0089890764 Hartrees.
 NAtoms=   22 NActive=   22 NUniq=   22 SFac= 7.50D-01 NAtFMM=   80 NAOKFM=F Big=F
 One-electron integrals computed using PRISM.
 NBasis=   338 RedAO= T  NBF=   338
 NBsUse=   338 1.00D-06 NBFU=   338
 Harris functional with IExCor=  205 diagonalized for initial guess.
 ExpMin= 2.97D-02 ExpMax= 1.17D+04 ExpMxC= 4.01D+02 IAcc=3 IRadAn=         0 AccDes= 0.00D+00
 HarFok:  IExCor=  205 AccDes= 0.00D+00 IRadAn=         0 IDoV= 1
 ScaDFX=  1.000000  1.000000  1.000000  1.000000
 FoFCou: FMM=F IPFlag=           0 FMFlag=      100000 FMFlg1=           0
         NFxFlg=           0 DoJE=T BraDBF=F KetDBF=T FulRan=T
         Omega=  0.000000  0.000000  1.000000  0.000000  0.000000 ICntrl=     500 IOpCl=  0
         NMat0=    1 NMatS0=    1 NMatT0=    0 NMatD0=    1 NMtDS0=    0 NMtDT0=    0
         I1Cent=           4 NGrid=           0.
 Petite list used in FoFCou.
 Initial guess orbital symmetries:
       Occupied  (A) (A) (A) (A) (A) (A) (A) (A) (A) (A) (A) (A)
                 (A) (A) (A) (A) (A) (A) (A) (A) (A) (A) (A) (A)
                 (A) (A) (A) (A) (A) (A) (A) (A) (A) (A) (A) (A)
                 (A) (A) (A)
       Virtual   (A) (A) (A) (A) (A) (A) (A) (A) (A) (A) (A) (A)
                 (A) (A) (A) (A) (A) (A) (A) (A) (A) (A) (A) (A)
                 (A) (A) (A) (A) (A) (A) (A) (A) (A) (A) (A) (A)
                 (A) (A) (A) (A) (A) (A) (A) (A) (A) (A) (A) (A)
                 (A) (A) (A) (A) (A) (A) (A) (A) (A) (A) (A) (A)
                 (A) (A) (A) (A) (A) (A) (A) (A) (A) (A) (A) (A)
                 (A) (A) (A) (A) (A) (A) (A) (A) (A) (A) (A) (A)
                 (A) (A) (A) (A) (A) (A) (A) (A) (A) (A) (A) (A)
                 (A) (A) (A) (A) (A) (A) (A) (A) (A) (A) (A) (A)
                 (A) (A) (A) (A) (A) (A) (A) (A) (A) (A) (A) (A)
                 (A) (A) (A) (A) (A) (A) (A) (A) (A) (A) (A) (A)
                 (A) (A) (A) (A) (A) (A) (A) (A) (A) (A) (A) (A)
                 (A) (A) (A) (A) (A) (A) (A) (A) (A) (A) (A) (A)
                 (A) (A) (A) (A) (A) (A) (A) (A) (A) (A) (A) (A)
                 (A) (A) (A) (A) (A) (A) (A) (A) (A) (A) (A) (A)
                 (A) (A) (A) (A) (A) (A) (A) (A) (A) (A) (A) (A)
                 (A) (A) (A) (A) (A) (A) (A) (A) (A) (A) (A) (A)
                 (A) (A) (A) (A) (A) (A) (A) (A) (A) (A) (A) (A)
                 (A) (A) (A) (A) (A) (A) (A) (A) (A) (A) (A) (A)
                 (A) (A) (A) (A) (A) (A) (A) (A) (A) (A) (A) (A)
                 (A) (A) (A) (A) (A) (A) (A) (A) (A) (A) (A) (A)
                 (A) (A) (A) (A) (A) (A) (A) (A) (A) (A) (A) (A)
                 (A) (A) (A) (A) (A) (A) (A) (A) (A) (A) (A) (A)
                 (A) (A) (A) (A) (A) (A) (A) (A) (A) (A) (A) (A)
                 (A) (A) (A) (A) (A) (A) (A) (A) (A) (A) (A)
 The electronic state of the initial guess is 1-A.
 Requested convergence on RMS density matrix=1.00D-08 within 128 cycles.
 Requested convergence on MAX density matrix=1.00D-06.
 Requested convergence on             energy=1.00D-06.
 No special actions if energy rises.
 Initial convergence to 1.0D-05 achieved.  Increase integral accuracy.
 SCF Done:  E(RHF) =  -492.927758273     A.U. after   14 cycles
             Convg  =    0.7340D-08             -V/T =  2.0017
 ExpMin= 2.97D-02 ExpMax= 1.17D+04 ExpMxC= 4.01D+02 IAcc=3 IRadAn=         5 AccDes= 0.00D+00
 HarFok:  IExCor=  205 AccDes= 0.00D+00 IRadAn=         5 IDoV=-2
 ScaDFX=  1.000000  1.000000  1.000000  1.000000
 Range of M.O.s used for correlation:    11   338
 NBasis=   338 NAE=    39 NBE=    39 NFC=    10 NFV=     0
 NROrb=    328 NOA=    29 NOB=    29 NVA=   299 NVB=   299

 **** Warning!!: The largest alpha MO coefficient is  0.77139395D+02

 Disk-based method using OVN memory for 29 occupieds at a time.
 Estimated scratch disk usage=  1376775193 words.
 Actual    scratch disk usage=  1364055153 words.
 JobTyp=1 Pass  1:  I=   1 to  29 NPSUse=  8 ParTrn=T ParDer=T DoDerP=F.
 Spin components of T(2) and E(2):
     alpha-alpha T2 =       0.6778255218D-01 E2=     -0.2054996607D+00
     alpha-beta  T2 =       0.3757868408D+00 E2=     -0.1188820433D+01
     beta-beta   T2 =       0.6778255218D-01 E2=     -0.2054996607D+00
 ANorm=    0.1229370548D+01
 E2 =    -0.1599819754D+01 EUMP2 =    -0.49452757802738D+03

 **********************************************************************

            Population analysis using the SCF density.

 **********************************************************************

 Orbital symmetries:
       Occupied  (A) (A) (A) (A) (A) (A) (A) (A) (A) (A) (A) (A)
                 (A) (A) (A) (A) (A) (A) (A) (A) (A) (A) (A) (A)
                 (A) (A) (A) (A) (A) (A) (A) (A) (A) (A) (A) (A)
                 (A) (A) (A)
       Virtual   (A) (A) (A) (A) (A) (A) (A) (A) (A) (A) (A) (A)
                 (A) (A) (A) (A) (A) (A) (A) (A) (A) (A) (A) (A)
                 (A) (A) (A) (A) (A) (A) (A) (A) (A) (A) (A) (A)
                 (A) (A) (A) (A) (A) (A) (A) (A) (A) (A) (A) (A)
                 (A) (A) (A) (A) (A) (A) (A) (A) (A) (A) (A) (A)
                 (A) (A) (A) (A) (A) (A) (A) (A) (A) (A) (A) (A)
                 (A) (A) (A) (A) (A) (A) (A) (A) (A) (A) (A) (A)
                 (A) (A) (A) (A) (A) (A) (A) (A) (A) (A) (A) (A)
                 (A) (A) (A) (A) (A) (A) (A) (A) (A) (A) (A) (A)
                 (A) (A) (A) (A) (A) (A) (A) (A) (A) (A) (A) (A)
                 (A) (A) (A) (A) (A) (A) (A) (A) (A) (A) (A) (A)
                 (A) (A) (A) (A) (A) (A) (A) (A) (A) (A) (A) (A)
                 (A) (A) (A) (A) (A) (A) (A) (A) (A) (A) (A) (A)
                 (A) (A) (A) (A) (A) (A) (A) (A) (A) (A) (A) (A)
                 (A) (A) (A) (A) (A) (A) (A) (A) (A) (A) (A) (A)
                 (A) (A) (A) (A) (A) (A) (A) (A) (A) (A) (A) (A)
                 (A) (A) (A) (A) (A) (A) (A) (A) (A) (A) (A) (A)
                 (A) (A) (A) (A) (A) (A) (A) (A) (A) (A) (A) (A)
                 (A) (A) (A) (A) (A) (A) (A) (A) (A) (A) (A) (A)
                 (A) (A) (A) (A) (A) (A) (A) (A) (A) (A) (A) (A)
                 (A) (A) (A) (A) (A) (A) (A) (A) (A) (A) (A) (A)
                 (A) (A) (A) (A) (A) (A) (A) (A) (A) (A) (A) (A)
                 (A) (A) (A) (A) (A) (A) (A) (A) (A) (A) (A) (A)
                 (A) (A) (A) (A) (A) (A) (A) (A) (A) (A) (A) (A)
                 (A) (A) (A) (A) (A) (A) (A) (A) (A) (A) (A)
 The electronic state is 1-A.
 Alpha  occ. eigenvalues --  -20.53822 -20.53028 -15.60421 -15.59014 -11.36522
 Alpha  occ. eigenvalues --  -11.36167 -11.29035 -11.27376 -11.24361 -11.24094
 Alpha  occ. eigenvalues --   -1.39350  -1.38170  -1.24118  -1.23517  -1.05558
 Alpha  occ. eigenvalues --   -0.99125  -0.96287  -0.87713  -0.80182  -0.78495
 Alpha  occ. eigenvalues --   -0.73212  -0.67481  -0.66009  -0.63730  -0.62901
 Alpha  occ. eigenvalues --   -0.61931  -0.60122  -0.58479  -0.57502  -0.56543
 Alpha  occ. eigenvalues --   -0.55293  -0.53903  -0.52691  -0.51826  -0.50018
 Alpha  occ. eigenvalues --   -0.43625  -0.42494  -0.40297  -0.39178
 Alpha virt. eigenvalues --    0.02991   0.03882   0.04301   0.04778   0.05586
 Alpha virt. eigenvalues --    0.06102   0.06170   0.07194   0.07256   0.07733
 Alpha virt. eigenvalues --    0.09326   0.09493   0.10848   0.11998   0.12596
 Alpha virt. eigenvalues --    0.13519   0.14048   0.14439   0.14490   0.15009
 Alpha virt. eigenvalues --    0.15321   0.15833   0.16493   0.16814   0.17777
 Alpha virt. eigenvalues --    0.18048   0.18144   0.18566   0.18861   0.18916
 Alpha virt. eigenvalues --    0.19734   0.19746   0.21338   0.21506   0.22565
 Alpha virt. eigenvalues --    0.23260   0.24215   0.25282   0.25752   0.26449
 Alpha virt. eigenvalues --    0.26955   0.27752   0.28916   0.29303   0.29886
 Alpha virt. eigenvalues --    0.31074   0.31797   0.32846   0.33301   0.33826
 Alpha virt. eigenvalues --    0.34012   0.34706   0.35230   0.35970   0.36285
 Alpha virt. eigenvalues --    0.36764   0.37934   0.38796   0.39703   0.39956
 Alpha virt. eigenvalues --    0.40842   0.40933   0.42247   0.42382   0.42895
 Alpha virt. eigenvalues --    0.43958   0.44260   0.44497   0.44746   0.45454
 Alpha virt. eigenvalues --    0.45876   0.47858   0.48036   0.48466   0.48882
 Alpha virt. eigenvalues --    0.49537   0.49820   0.50442   0.51838   0.52265
 Alpha virt. eigenvalues --    0.53189   0.53944   0.54968   0.55170   0.55406
 Alpha virt. eigenvalues --    0.56244   0.57076   0.57552   0.58201   0.58381
 Alpha virt. eigenvalues --    0.59597   0.59942   0.60791   0.61566   0.62326
 Alpha virt. eigenvalues --    0.62739   0.63071   0.63408   0.64790   0.64990
 Alpha virt. eigenvalues --    0.65390   0.65758   0.66424   0.67235   0.68454
 Alpha virt. eigenvalues --    0.69247   0.69668   0.70495   0.70659   0.71576
 Alpha virt. eigenvalues --    0.71688   0.72327   0.74101   0.74291   0.75163
 Alpha virt. eigenvalues --    0.75276   0.75702   0.76475   0.77050   0.77408
 Alpha virt. eigenvalues --    0.79767   0.80832   0.81043   0.81775   0.82845
 Alpha virt. eigenvalues --    0.83467   0.84336   0.85525   0.87451   0.88169
 Alpha virt. eigenvalues --    0.88852   0.89850   0.91137   0.92231   0.92566
 Alpha virt. eigenvalues --    0.95114   0.95524   0.96911   0.97586   0.99880
 Alpha virt. eigenvalues --    1.00036   1.00630   1.01150   1.02355   1.04252
 Alpha virt. eigenvalues --    1.05003   1.07367   1.08091   1.09724   1.10820
 Alpha virt. eigenvalues --    1.11074   1.12611   1.13642   1.14702   1.16380
 Alpha virt. eigenvalues --    1.17251   1.17526   1.19500   1.19830   1.21603
 Alpha virt. eigenvalues --    1.22844   1.23410   1.24988   1.26061   1.27639
 Alpha virt. eigenvalues --    1.29469   1.32229   1.34196   1.34509   1.37723
 Alpha virt. eigenvalues --    1.38174   1.40315   1.43609   1.45707   1.46177
 Alpha virt. eigenvalues --    1.48857   1.49210   1.50006   1.51726   1.53298
 Alpha virt. eigenvalues --    1.55666   1.56956   1.57658   1.62950   1.64584
 Alpha virt. eigenvalues --    1.65361   1.66028   1.68206   1.69993   1.71161
 Alpha virt. eigenvalues --    1.74082   1.76098   1.77537   1.78171   1.79489
 Alpha virt. eigenvalues --    1.81524   1.83078   1.84240   1.85476   1.86415
 Alpha virt. eigenvalues --    1.89085   1.89583   1.90591   1.92877   1.93797
 Alpha virt. eigenvalues --    1.95351   1.97558   1.98162   2.00312   2.01456
 Alpha virt. eigenvalues --    2.03104   2.03622   2.04789   2.06920   2.08577
 Alpha virt. eigenvalues --    2.10432   2.10852   2.13069   2.14953   2.16191
 Alpha virt. eigenvalues --    2.17868   2.19548   2.20907   2.21383   2.23280
 Alpha virt. eigenvalues --    2.24473   2.25960   2.27512   2.27673   2.30690
 Alpha virt. eigenvalues --    2.31029   2.32078   2.35148   2.35966   2.37591
 Alpha virt. eigenvalues --    2.38784   2.39460   2.40499   2.41951   2.43716
 Alpha virt. eigenvalues --    2.44371   2.46653   2.48439   2.50461   2.52420
 Alpha virt. eigenvalues --    2.53142   2.55067   2.55574   2.59670   2.60806
 Alpha virt. eigenvalues --    2.62261   2.63418   2.66008   2.67886   2.68724
 Alpha virt. eigenvalues --    2.69053   2.71269   2.73341   2.77169   2.77865
 Alpha virt. eigenvalues --    2.81330   2.82935   2.85397   2.88124   2.88883
 Alpha virt. eigenvalues --    2.89391   2.93266   2.95885   2.96321   2.98803
 Alpha virt. eigenvalues --    2.99788   3.02897   3.03592   3.04831   3.07335
 Alpha virt. eigenvalues --    3.10247   3.11094   3.15794   3.22718   3.24298
 Alpha virt. eigenvalues --    3.26085   3.31979   3.38207   3.44061   3.48955
 Alpha virt. eigenvalues --    3.61959   3.65613   3.72593   3.80738   3.83331
 Alpha virt. eigenvalues --    3.84292   3.88782   3.91018   3.97368   4.02031
 Alpha virt. eigenvalues --    4.05168   4.10207   4.19717   4.29058
          Condensed to atoms (all electrons):
              1          2          3          4          5          6
     1  H    0.769085   0.378726  -0.055254  -0.095428  -0.056353   0.022869
     2  C    0.378726   4.492892   0.335310   0.347537   0.250612  -0.037328
     3  H   -0.055254   0.335310   0.722876  -0.061548  -0.062036   0.018422
     4  H   -0.095428   0.347537  -0.061548   1.048291   0.088705  -0.010993
     5  C   -0.056353   0.250612  -0.062036   0.088705   5.312753   0.139800
     6  O    0.022869  -0.037328   0.018422  -0.010993   0.139800   8.737018
     7  N    0.036288  -0.019472   0.035859  -0.170640   0.118110  -0.106179
     8  H   -0.004452  -0.053177  -0.002521   0.009965  -0.094777   0.004628
     9  C    0.001636  -0.068355  -0.002266  -0.035345  -0.323488   0.075730
    10  H    0.000487  -0.010724  -0.001237   0.000386   0.019176  -0.008615
    11  C   -0.002141   0.002381   0.002722  -0.004171  -0.014421  -0.002833
    12  H   -0.000728  -0.005658  -0.000394   0.000751  -0.014483   0.000855
    13  H    0.000208   0.003836   0.000302  -0.000504   0.001988  -0.001116
    14  H    0.000021   0.002158   0.000210   0.000091   0.024532  -0.001623
    15  C   -0.008323   0.002227   0.010357   0.001316   0.017425   0.025779
    16  O   -0.000226  -0.000190   0.000327  -0.000177  -0.002600  -0.002026
    17  N    0.000104   0.003406  -0.000047   0.000612  -0.009998   0.001339
    18  H    0.000026  -0.001057   0.000048  -0.000452   0.001549  -0.000122
    19  C    0.000097   0.000989  -0.000064   0.000001   0.004249   0.001344
    20  H   -0.000018   0.000155   0.000002   0.000080  -0.000748   0.000238
    21  H   -0.000031  -0.000067  -0.000022   0.000012  -0.002215   0.000254
    22  H    0.000025   0.000166   0.000034  -0.000009   0.003295  -0.000158
              7          8          9         10         11         12
     1  H    0.036288  -0.004452   0.001636   0.000487  -0.002141  -0.000728
     2  C   -0.019472  -0.053177  -0.068355  -0.010724   0.002381  -0.005658
     3  H    0.035859  -0.002521  -0.002266  -0.001237   0.002722  -0.000394
     4  H   -0.170640   0.009965  -0.035345   0.000386  -0.004171   0.000751
     5  C    0.118110  -0.094777  -0.323488   0.019176  -0.014421  -0.014483
     6  O   -0.106179   0.004628   0.075730  -0.008615  -0.002833   0.000855
     7  N    7.847822   0.263164  -1.038363   0.040176   0.042388  -0.083057
     8  H    0.263164   0.882311   0.117472   0.001486  -0.044384   0.007577
     9  C   -1.038363   0.117472  10.590350  -0.504698  -0.152049   0.080086
    10  H    0.040176   0.001486  -0.504698   1.490574  -0.003470   0.077196
    11  C    0.042388  -0.044384  -0.152049  -0.003470   4.409485   0.350511
    12  H   -0.083057   0.007577   0.080086   0.077196   0.350511   1.038646
    13  H    0.143653  -0.003390  -0.263160  -0.060465   0.329693  -0.144372
    14  H   -0.027461  -0.003469   0.018292  -0.042249   0.241901  -0.211068
    15  C    0.424810  -0.052405  -2.238216   0.184309   0.020559  -0.090296
    16  O   -0.061600   0.002531   0.140633  -0.026305   0.006750   0.018667
    17  N   -0.058056  -0.002202   0.162906  -0.027694   0.025001   0.000738
    18  H    0.007850   0.002562  -0.103369   0.019557  -0.022382   0.000115
    19  C    0.011780  -0.002393  -0.199447   0.012979   0.011267  -0.005432
    20  H   -0.001423  -0.000625   0.005515   0.005633  -0.013217  -0.001512
    21  H   -0.001911  -0.000972  -0.001064  -0.000986   0.009960   0.000789
    22  H    0.005188   0.000891  -0.025085  -0.003258   0.000873  -0.001639
             13         14         15         16         17         18
     1  H    0.000208   0.000021  -0.008323  -0.000226   0.000104   0.000026
     2  C    0.003836   0.002158   0.002227  -0.000190   0.003406  -0.001057
     3  H    0.000302   0.000210   0.010357   0.000327  -0.000047   0.000048
     4  H   -0.000504   0.000091   0.001316  -0.000177   0.000612  -0.000452
     5  C    0.001988   0.024532   0.017425  -0.002600  -0.009998   0.001549
     6  O   -0.001116  -0.001623   0.025779  -0.002026   0.001339  -0.000122
     7  N    0.143653  -0.027461   0.424810  -0.061600  -0.058056   0.007850
     8  H   -0.003390  -0.003469  -0.052405   0.002531  -0.002202   0.002562
     9  C   -0.263160   0.018292  -2.238216   0.140633   0.162906  -0.103369
    10  H   -0.060465  -0.042249   0.184309  -0.026305  -0.027694   0.019557
    11  C    0.329693   0.241901   0.020559   0.006750   0.025001  -0.022382
    12  H   -0.144372  -0.211068  -0.090296   0.018667   0.000738   0.000115
    13  H    1.146253  -0.138503   0.054800  -0.009922  -0.010369  -0.000975
    14  H   -0.138503   1.104204   0.077546  -0.001408   0.013005  -0.004386
    15  C    0.054800   0.077546   6.111497   0.156495   0.061583   0.031897
    16  O   -0.009922  -0.001408   0.156495   8.775484  -0.161711   0.010462
    17  N   -0.010369   0.013005   0.061583  -0.161711   7.219190   0.228430
    18  H   -0.000975  -0.004386   0.031897   0.010462   0.228430   1.020088
    19  C   -0.002637   0.005956   0.014148   0.016507   0.210144  -0.093872
    20  H   -0.001135   0.000570   0.020125  -0.000640  -0.054485  -0.001041
    21  H   -0.000467   0.000447  -0.066760   0.012012  -0.008974   0.001745
    22  H    0.001938   0.000052   0.019931   0.009406  -0.093795   0.015014
             19         20         21         22
     1  H    0.000097  -0.000018  -0.000031   0.000025
     2  C    0.000989   0.000155  -0.000067   0.000166
     3  H   -0.000064   0.000002  -0.000022   0.000034
     4  H    0.000001   0.000080   0.000012  -0.000009
     5  C    0.004249  -0.000748  -0.002215   0.003295
     6  O    0.001344   0.000238   0.000254  -0.000158
     7  N    0.011780  -0.001423  -0.001911   0.005188
     8  H   -0.002393  -0.000625  -0.000972   0.000891
     9  C   -0.199447   0.005515  -0.001064  -0.025085
    10  H    0.012979   0.005633  -0.000986  -0.003258
    11  C    0.011267  -0.013217   0.009960   0.000873
    12  H   -0.005432  -0.001512   0.000789  -0.001639
    13  H   -0.002637  -0.001135  -0.000467   0.001938
    14  H    0.005956   0.000570   0.000447   0.000052
    15  C    0.014148   0.020125  -0.066760   0.019931
    16  O    0.016507  -0.000640   0.012012   0.009406
    17  N    0.210144  -0.054485  -0.008974  -0.093795
    18  H   -0.093872  -0.001041   0.001745   0.015014
    19  C    4.129557   0.463063   0.370311   0.349307
    20  H    0.463063   0.956354  -0.107869  -0.127676
    21  H    0.370311  -0.107869   1.031997  -0.152306
    22  H    0.349307  -0.127676  -0.152306   1.120823
 Mulliken atomic charges:
              1
     1  H    0.013383
     2  C    0.375634
     3  H    0.058919
     4  H   -0.118479
     5  C    0.598927
     6  O   -0.857284
     7  N   -0.408927
     8  H   -0.027818
     9  C   -0.237715
    10  H   -0.162260
    11  C    0.805577
    12  H   -0.017292
    13  H   -0.045656
    14  H   -0.058820
    15  C    1.221196
    16  O   -0.882470
    17  N   -0.499126
    18  H   -0.111687
    19  C    0.702145
    20  H   -0.141345
    21  H   -0.083884
    22  H   -0.123019
 Sum of Mulliken atomic charges =   0.00000
 Mulliken charges with hydrogens summed into heavy atoms:
              1
     2  C    0.329457
     5  C    0.598927
     6  O   -0.857284
     7  N   -0.436745
     9  C   -0.399975
    11  C    0.683809
    15  C    1.221196
    16  O   -0.882470
    17  N   -0.610813
    19  C    0.353897
 Sum of Mulliken charges with hydrogens summed into heavy atoms =   0.00000
 Electronic spatial extent (au):  <R**2>=           1869.7463
 Charge=              0.0000 electrons
 Dipole moment (field-independent basis, Debye):
    X=             -1.8323    Y=              0.9983    Z=             -0.0528  Tot=              2.0873
 Quadrupole moment (field-independent basis, Debye-Ang):
   XX=            -54.4712   YY=            -59.5314   ZZ=            -67.3378
   XY=             -0.8397   XZ=            -14.2563   YZ=              0.2981
 Traceless Quadrupole moment (field-independent basis, Debye-Ang):
   XX=              5.9756   YY=              0.9154   ZZ=             -6.8910
   XY=             -0.8397   XZ=            -14.2563   YZ=              0.2981
 Octapole moment (field-independent basis, Debye-Ang**2):
  XXX=            -14.3254  YYY=             -4.2060  ZZZ=             -0.8092  XYY=             -0.7558
  XXY=            -11.9405  XXZ=             -8.3950  XZZ=            -10.6254  YZZ=              5.8748
  YYZ=              1.4035  XYZ=              6.4475
 Hexadecapole moment (field-independent basis, Debye-Ang**3):
 XXXX=          -1548.5320 YYYY=           -473.0731 ZZZZ=           -304.5653 XXXY=             10.3622
 XXXZ=            -48.7140 YYYX=              1.1788 YYYZ=              1.3638 ZZZX=            -40.8801
 ZZZY=              0.0571 XXYY=           -350.4036 XXZZ=           -353.7435 YYZZ=           -132.7907
 XXYZ=              9.2892 YYXZ=             -0.7158 ZZXY=              2.7326
 N-N= 5.510089890764D+02 E-N=-2.257286209699D+03  KE= 4.920845434362D+02
 1\1\GINC-NODE001\SP\RMP2-FC\Aug-CC-pVDZ\C6H12N2O2\STEBOSS\13-Feb-2017\
 0\\#SP MP2/aug-cc-pVDZ\\Single Point calculation at MP2\\0,1\H,0,4.185
 1,-0.7957,-0.0938\C,0,3.2129,-0.9592,-0.5654\H,0,3.0306,-2.0398,-0.581
 1\H,0,3.2425,-0.5941,-1.5965\C,0,2.1399,-0.2893,0.2788\O,0,2.1425,-0.3
 497,1.5022\N,0,1.1888,0.405,-0.4339\H,0,1.0797,0.1697,-1.4146\C,0,-0.0
 473,0.8363,0.2002\H,0,0.1116,0.7264,1.2769\C,0,-0.3681,2.3008,-0.1407\
 H,0,-0.5046,2.4217,-1.221\H,0,-1.2884,2.6271,0.3565\H,0,0.4539,2.9467,
 0.1814\C,0,-1.1899,-0.0788,-0.2785\O,0,-1.1873,-0.5477,-1.4136\N,0,-2.
 203,-0.2598,0.6122\H,0,-2.0773,0.0843,1.5538\C,0,-3.3746,-1.0688,0.319
 8\H,0,-3.3371,-1.3263,-0.7393\H,0,-3.3808,-1.9929,0.9103\H,0,-4.2943,-
 0.5101,0.5255\\Version=EM64L-G09RevA.02\State=1-A\HF=-492.9277583\MP2=
 -494.527578\RMSD=7.340e-09\PG=C01 [X(C6H12N2O2)]\\@


 Sacred cows make the best hamburger.
                               -- Mark Twain
 Job cpu time:  0 days 13 hours 19 minutes 14.1 seconds.
 File lengths (MBytes):  RWF=  10523 Int=      0 D2E=      0 Chk=      7 Scr=      2
 Normal termination of Gaussian 09 at Mon Feb 13 09:33:48 2017.
