 Entering Gaussian System, Link 0=g09
 Initial command:
 /home/steboss/local//g09/l1.exe /tmp/Gau-11842.inp -scrdir=/tmp/
 Entering Link 1 = /home/steboss/local//g09/l1.exe PID=     11844.
  
 Copyright (c) 1988,1990,1992,1993,1995,1998,2003,2009, Gaussian, Inc.
                  All Rights Reserved.
  
 This is part of the Gaussian(R) 09 program.  It is based on
 the Gaussian(R) 03 system (copyright 2003, Gaussian, Inc.),
 the Gaussian(R) 98 system (copyright 1998, Gaussian, Inc.),
 the Gaussian(R) 94 system (copyright 1995, Gaussian, Inc.),
 the Gaussian 92(TM) system (copyright 1992, Gaussian, Inc.),
 the Gaussian 90(TM) system (copyright 1990, Gaussian, Inc.),
 the Gaussian 88(TM) system (copyright 1988, Gaussian, Inc.),
 the Gaussian 86(TM) system (copyright 1986, Carnegie Mellon
 University), and the Gaussian 82(TM) system (copyright 1983,
 Carnegie Mellon University). Gaussian is a federally registered
 trademark of Gaussian, Inc.
  
 This software contains proprietary and confidential information,
 including trade secrets, belonging to Gaussian, Inc.
  
 This software is provided under written license and may be
 used, copied, transmitted, or stored only in accord with that
 written license.
  
 The following legend is applicable only to US Government
 contracts under FAR:
  
                    RESTRICTED RIGHTS LEGEND
  
 Use, reproduction and disclosure by the US Government is
 subject to restrictions as set forth in subparagraphs (a)
 and (c) of the Commercial Computer Software - Restricted
 Rights clause in FAR 52.227-19.
  
 Gaussian, Inc.
 340 Quinnipiac St., Bldg. 40, Wallingford CT 06492
  
  
 ---------------------------------------------------------------
 Warning -- This program may not be used in any manner that
 competes with the business of Gaussian, Inc. or will provide
 assistance to any competitor of Gaussian, Inc.  The licensee
 of this program is prohibited from giving any competitor of
 Gaussian, Inc. access to this program.  By using this program,
 the user acknowledges that Gaussian, Inc. is engaged in the
 business of creating and licensing software in the field of
 computational chemistry and represents and warrants to the
 licensee that it is not a competitor of Gaussian, Inc. and that
 it will not use this program in any manner prohibited above.
 ---------------------------------------------------------------
  

 Cite this work as:
 Gaussian 09, Revision A.02,
 M. J. Frisch, G. W. Trucks, H. B. Schlegel, G. E. Scuseria, 
 M. A. Robb, J. R. Cheeseman, G. Scalmani, V. Barone, B. Mennucci, 
 G. A. Petersson, H. Nakatsuji, M. Caricato, X. Li, H. P. Hratchian, 
 A. F. Izmaylov, J. Bloino, G. Zheng, J. L. Sonnenberg, M. Hada, 
 M. Ehara, K. Toyota, R. Fukuda, J. Hasegawa, M. Ishida, T. Nakajima, 
 Y. Honda, O. Kitao, H. Nakai, T. Vreven, J. A. Montgomery, Jr., 
 J. E. Peralta, F. Ogliaro, M. Bearpark, J. J. Heyd, E. Brothers, 
 K. N. Kudin, V. N. Staroverov, R. Kobayashi, J. Normand, 
 K. Raghavachari, A. Rendell, J. C. Burant, S. S. Iyengar, J. Tomasi, 
 M. Cossi, N. Rega, J. M. Millam, M. Klene, J. E. Knox, J. B. Cross, 
 V. Bakken, C. Adamo, J. Jaramillo, R. Gomperts, R. E. Stratmann, 
 O. Yazyev, A. J. Austin, R. Cammi, C. Pomelli, J. W. Ochterski, 
 R. L. Martin, K. Morokuma, V. G. Zakrzewski, G. A. Voth, 
 P. Salvador, J. J. Dannenberg, S. Dapprich, A. D. Daniels, 
 O. Farkas, J. B. Foresman, J. V. Ortiz, J. Cioslowski, 
 and D. J. Fox, Gaussian, Inc., Wallingford CT, 2009.
 
 ******************************************
 Gaussian 09:  EM64L-G09RevA.02 11-Jun-2009
                18-Jan-2017 
 ******************************************
 %chk=structure_300.chk
 %NProcShared=8
 Will use up to    8 processors via shared memory.
 -------------------
 #SP MP2/aug-cc-pVDZ
 -------------------
 1/38=1/1;
 2/12=2,17=6,18=5,40=1/2;
 3/5=16,7=10,11=9,16=1,25=1,30=1/1,2,3;
 4//1;
 5/5=2,38=5/2;
 8/10=1/1;
 9/16=-3/6;
 6/7=2,8=2,9=2,10=2/1;
 99/5=1,9=1/99;
 ------------------
 Phi Psi fixed scan
 ------------------
 Symbolic Z-matrix:
 Charge =  0 Multiplicity = 1
 H                    -5.6985    2.3971    1.1667 
 C                    -5.3848    1.369     1.3728 
 H                    -6.2928    0.7695    1.4913 
 H                    -4.819     1.3502    2.3093 
 C                    -4.604     0.8445    0.1765 
 O                    -5.0896    0.8012   -0.9508 
 N                    -3.3307    0.437     0.4395 
 H                    -2.9735    0.3629    1.3854 
 C                    -2.4992   -0.1759   -0.5771 
 H                    -3.1273   -0.8498   -1.1755 
 C                    -1.8702    0.8676   -1.5228 
 H                    -1.1654    1.511    -0.9866 
 H                    -1.3303    0.3889   -2.3479 
 H                    -2.6702    1.4782   -1.9481 
 C                    -1.4241   -0.99      0.1622 
 O                    -1.2601   -0.9038    1.3754 
 N                    -0.6432   -1.7781   -0.6268 
 H                    -0.8649   -1.8481   -1.611 
 C                     0.4398   -2.6119   -0.1004 
 H                     0.0343   -3.2572    0.6856 
 C                     1.0335   -3.4664   -1.2221 
 H                     1.4555   -2.8467   -2.021 
 H                     1.8356   -4.0947   -0.8248 
 H                     0.2684   -4.1231   -1.6519 
 C                     1.5208   -1.7746    0.6211 
 O                     1.887    -2.0443    1.7558 
 N                     2.1357   -0.8371   -0.1645 
 H                     1.6378   -0.4775   -0.9754 
 C                     3.0351    0.1412    0.4244 
 H                     2.8347    0.1737    1.5025 
 C                     4.5099   -0.2449    0.2086 
 H                     4.7426   -0.2957   -0.8602 
 H                     5.19      0.4757    0.677 
 H                     4.6896   -1.2272    0.6543 
 C                     2.7       1.5057   -0.207 
 O                     1.9846    1.5925   -1.2042 
 N                     3.2679    2.5786    0.4022 
 H                     3.798     2.4241    1.2483 
 C                     3.0772    3.9447   -0.0572 
 H                     2.5142    3.9015   -0.9899 
 H                     2.5121    4.5344    0.6741 
 H                     4.0412    4.4328   -0.2386 
 
                          Input orientation:                          
 ---------------------------------------------------------------------
 Center     Atomic      Atomic             Coordinates (Angstroms)
 Number     Number       Type             X           Y           Z
 ---------------------------------------------------------------------
      1          1           0       -5.698500    2.397100    1.166700
      2          6           0       -5.384800    1.369000    1.372800
      3          1           0       -6.292800    0.769500    1.491300
      4          1           0       -4.819000    1.350200    2.309300
      5          6           0       -4.604000    0.844500    0.176500
      6          8           0       -5.089600    0.801200   -0.950800
      7          7           0       -3.330700    0.437000    0.439500
      8          1           0       -2.973500    0.362900    1.385400
      9          6           0       -2.499200   -0.175900   -0.577100
     10          1           0       -3.127300   -0.849800   -1.175500
     11          6           0       -1.870200    0.867600   -1.522800
     12          1           0       -1.165400    1.511000   -0.986600
     13          1           0       -1.330300    0.388900   -2.347900
     14          1           0       -2.670200    1.478200   -1.948100
     15          6           0       -1.424100   -0.990000    0.162200
     16          8           0       -1.260100   -0.903800    1.375400
     17          7           0       -0.643200   -1.778100   -0.626800
     18          1           0       -0.864900   -1.848100   -1.611000
     19          6           0        0.439800   -2.611900   -0.100400
     20          1           0        0.034300   -3.257200    0.685600
     21          6           0        1.033500   -3.466400   -1.222100
     22          1           0        1.455500   -2.846700   -2.021000
     23          1           0        1.835600   -4.094700   -0.824800
     24          1           0        0.268400   -4.123100   -1.651900
     25          6           0        1.520800   -1.774600    0.621100
     26          8           0        1.887000   -2.044300    1.755800
     27          7           0        2.135700   -0.837100   -0.164500
     28          1           0        1.637800   -0.477500   -0.975400
     29          6           0        3.035100    0.141200    0.424400
     30          1           0        2.834700    0.173700    1.502500
     31          6           0        4.509900   -0.244900    0.208600
     32          1           0        4.742600   -0.295700   -0.860200
     33          1           0        5.190000    0.475700    0.677000
     34          1           0        4.689600   -1.227200    0.654300
     35          6           0        2.700000    1.505700   -0.207000
     36          8           0        1.984600    1.592500   -1.204200
     37          7           0        3.267900    2.578600    0.402200
     38          1           0        3.798000    2.424100    1.248300
     39          6           0        3.077200    3.944700   -0.057200
     40          1           0        2.514200    3.901500   -0.989900
     41          1           0        2.512100    4.534400    0.674100
     42          1           0        4.041200    4.432800   -0.238600
 ---------------------------------------------------------------------
                    Distance matrix (angstroms):
                    1          2          3          4          5
     1  H    0.000000
     2  C    1.094475   0.000000
     3  H    1.762850   1.094489   0.000000
     4  H    1.781868   1.094310   1.782813   0.000000
     5  C    2.142194   1.521802   2.141581   2.202452   0.000000
     6  O    2.720563   2.410116   2.722599   3.317059   1.228205
     7  N    3.158685   2.441106   3.160835   2.558344   1.362541
     8  H    3.407554   2.612808   3.345787   2.287842   2.086123
     9  C    4.460570   3.809923   4.423060   4.005216   2.457501
    10  H    4.758080   4.063645   4.444586   4.454849   2.622823
    11  C    4.922262   4.581301   5.352926   4.859353   3.218978
    12  H    5.096162   4.836349   5.742825   4.923170   3.690663
    13  H    5.955372   5.589559   6.285755   5.897850   4.159000
    14  H    4.440378   4.290612   5.045291   4.770658   2.941952
    15  C    5.545445   4.766296   5.344772   4.648862   3.671152
    16  O    5.535241   4.709435   5.304850   4.314911   3.959240
    17  N    6.797426   6.032032   6.549396   5.987007   4.817806
    18  H    7.007213   6.299388   6.777772   6.421276   4.942279
    19  C    8.023363   7.207208   7.700343   7.011410   6.120727
    20  H    8.066447   7.158255   7.542921   6.886150   6.212645
    21  C    9.241581   8.444476   8.887073   8.361948   7.233350
    22  H    9.425422   8.722368   9.243879   8.702575   7.427752
    23  H   10.142593   9.317491   9.751700   9.151679   8.177209
    24  H    9.276929   8.442194   8.767359   8.457527   7.194469
    25  C    8.355780   7.624604   8.263295   7.266874   6.676116
    26  O    8.809817   8.042163   8.654280   7.536540   7.278216
    27  N    8.579442   7.986745   8.738561   7.698819   6.954683
    28  H    8.165367   7.631547   8.398454   7.471279   6.483412
    29  C    9.050738   8.561640   9.409716   8.167093   7.675411
    30  H    8.824498   8.306970   9.146932   7.785512   7.585678
    31  C   10.588180  10.092825  10.925779   9.694620   9.178834
    32  H   10.971603  10.503416  11.333325  10.206807   9.472789
    33  H   11.067566  10.635249  11.515385  10.178862   9.813712
    34  H   11.014115  10.428328  11.193770   9.989769   9.533689
    35  C    8.556661   8.238838   9.181322   7.930404   7.343887
    36  O    8.080753   7.810182   8.744049   7.661094   6.773145
    37  N    9.000763   8.790587   9.791117   8.399045   8.063799
    38  H    9.496889   9.244055  10.228440   8.748238   8.616118
    39  C    8.994771   8.960166  10.013823   8.641859   8.286537
    40  H    8.623374   8.624970   9.671041   8.436212   7.834188
    41  H    8.498509   8.536332   9.610856   8.158311   8.031304
    42  H   10.048915  10.041561  11.099724   9.720975   9.369508
                    6          7          8          9         10
     6  O    0.000000
     7  N    2.271410   0.000000
     8  H    3.182423   1.013809   0.000000
     9  C    2.793662   1.449315   2.089658   0.000000
    10  H    2.574279   2.074958   2.837694   1.098514   0.000000
    11  C    3.270494   2.483767   3.151130   1.542362   2.156474
    12  H    3.988038   2.806379   3.195895   2.189142   3.075404
    13  H    4.031652   3.431255   4.079009   2.195691   2.477521
    14  H    2.703041   2.687190   3.528188   2.155210   2.495082
    15  C    4.228836   2.397571   2.393156   1.537909   2.170251
    16  O    4.794090   2.638378   2.130814   2.424348   3.161715
    17  N    5.150557   3.642296   3.750084   2.452397   2.708056
    18  H    5.030183   3.937817   4.279384   2.556587   2.510920
    19  C    6.553373   4.878930   4.765255   3.846955   4.121291
    20  H    6.738158   5.003089   4.758330   4.184190   4.388050
    21  C    7.468492   6.086353   6.125246   4.870666   4.915386
    22  H    7.569071   6.304320   6.443689   4.985747   5.069964
    23  H    8.481987   6.987519   6.919727   5.848832   5.939928
    24  H    7.310844   6.174301   6.313422   4.939149   4.740488
    25  C    7.266568   5.334904   5.035056   4.489090   5.068319
    26  O    8.005967   5.925697   5.436568   5.307739   5.929802
    27  N    7.450319   5.645323   5.472304   4.699970   5.359240
    28  H    6.847889   5.246355   5.248213   4.167058   4.783809
    29  C    8.266651   6.372687   6.089002   5.633119   6.443364
    30  H    8.319073   6.261905   5.812460   5.735629   6.615488
    31  C    9.725684   7.873583   7.599708   7.053337   7.785144
    32  H    9.893612   8.210009   8.063168   7.248322   7.895680
    33  H   10.412774   8.524097   8.194955   7.818001   8.623583
    34  H   10.115508   8.193956   7.860409   7.368882   8.037072
    35  C    7.856680   6.158687   6.002527   5.476900   6.359544
    36  O    7.122828   5.682371   5.727190   4.860551   5.665437
    37  N    8.650871   6.937533   6.695602   6.465736   7.425742
    38  H    9.298348   7.444534   7.079587   7.053142   8.034489
    39  C    8.796405   7.322012   7.177838   6.953120   7.920457
    40  H    8.211648   6.943256   6.948280   6.475320   7.378064
    41  H    8.623394   7.140171   6.928143   6.990390   8.013330
    42  H    9.852272   8.412559   8.270881   8.008216   8.953828
                   11         12         13         14         15
    11  C    0.000000
    12  H    1.094631   0.000000
    13  H    1.096100   1.771846   0.000000
    14  H    1.092571   1.786052   1.772497   0.000000
    15  C    2.547334   2.764357   2.865443   3.478238   0.000000
    16  O    3.451035   3.379241   3.941949   4.325270   1.227266
    17  N    3.050914   3.349676   2.851347   4.056853   1.361406
    18  H    2.897142   3.429829   2.400789   3.799607   2.047750
    19  C    4.412056   4.512241   4.145999   5.460313   2.484681
    20  H    5.051547   5.193387   4.935413   6.055965   2.746102
    21  C    5.225462   5.446571   4.660291   6.220413   3.753484
    22  H    5.010440   5.189282   4.282132   5.977581   4.062732
    23  H    6.232542   6.360507   5.696089   7.254051   4.608576
    24  H    5.431148   5.851623   4.837189   6.332272   3.996477
    25  C    4.803791   4.538231   4.650211   5.894572   3.081984
    26  O    5.774507   5.429370   5.754288   6.847989   3.822891
    27  N    4.560506   4.133604   4.275917   5.624813   3.578028
    28  H    3.796710   3.436886   3.382902   4.830090   3.306361
    29  C    5.327402   4.638046   5.177231   6.321928   4.607909
    30  H    5.636490   4.897427   5.676189   6.626634   4.613890
    31  C    6.703811   6.059762   6.406663   7.692481   5.980776
    32  H    6.746957   6.179369   6.289836   7.699341   6.289320
    33  H    7.405345   6.650603   7.188315   8.347389   6.794087
    34  H    7.222114   6.668682   6.918394   8.261860   6.138058
    35  C    4.798461   3.943237   4.698299   5.645461   4.834566
    36  O    3.935285   3.158559   3.707461   4.715253   4.489498
    37  N    5.747453   4.766832   5.788029   6.480418   5.899777
    38  H    6.498475   5.519408   6.585906   7.276628   6.332931
    39  C    6.007770   4.978588   6.108770   6.533891   6.682896
    40  H    5.358311   4.387933   5.381701   5.802459   6.384694
    41  H    6.121793   5.042111   6.409500   6.562966   6.802552
    42  H    7.021714   6.017068   7.046651   7.529604   7.709533
                   16         17         18         19         20
    16  O    0.000000
    17  N    2.270192   0.000000
    18  H    3.156972   1.011287   0.000000
    19  C    2.825819   1.464653   2.137182   0.000000
    20  H    2.773047   2.090248   2.840510   1.094823   0.000000
    21  C    4.309817   2.452766   2.524690   1.529987   2.163674
    22  H    4.762864   2.736831   2.559210   2.185288   3.084478
    23  H    4.960452   3.398572   3.599725   2.161414   2.495475
    24  H    4.675976   2.716776   2.541981   2.172615   2.503696
    25  C    3.010094   2.498032   3.267910   1.546025   2.100463
    26  O    3.368929   3.485621   4.352791   2.421164   2.459462
    27  N    3.729236   2.970099   3.481104   2.455626   3.315937
    28  H    3.755771   2.648781   2.923361   2.599325   3.613428
    29  C    4.521633   4.280026   4.828060   3.819759   4.541162
    30  H    4.236101   4.520977   5.241049   4.008042   4.503403
    31  C    5.923552   5.440867   5.896581   4.718462   5.415946
    32  H    6.434291   5.590959   5.866660   4.945318   5.773047
    33  H    6.632840   6.387936   6.877267   5.718568   6.365207
    34  H    6.001958   5.512120   6.030719   4.532964   5.078750
    35  C    4.898170   4.704951   5.091925   4.698350   5.530634
    36  O    4.838794   4.312733   4.485852   4.613216   5.558291
    37  N    5.794567   5.944441   6.381903   5.932288   6.677802
    38  H    6.056026   6.395212   6.940456   6.201435   6.838073
    39  C    6.661266   6.849545   7.177115   7.067301   7.853557
    40  H    6.552167   6.508369   6.697909   6.893383   7.759136
    41  H    6.655474   7.176065   7.573778   7.480901   8.176103
    42  H    7.693379   7.789068   8.087212   7.913089   8.720407
                   21         22         23         24         25
    21  C    0.000000
    22  H    1.095606   0.000000
    23  H    1.093605   1.769993   0.000000
    24  H    1.096066   1.781751   1.772291   0.000000
    25  C    2.548928   2.852079   2.751834   3.500070   0.000000
    26  O    3.408624   3.885133   3.296404   4.307400   1.222450
    27  N    3.040819   2.819177   3.337366   4.061645   1.369005
    28  H    3.059340   2.596078   3.625733   3.952633   2.060332
    29  C    4.442088   4.171650   4.576259   5.490893   2.449915
    30  H    4.890613   4.841494   4.963241   5.915964   2.509795
    31  C    4.950790   4.590189   4.800079   6.040879   3.383025
    32  H    4.893029   4.319732   4.783754   5.940896   3.842055
    33  H    6.035166   5.680144   5.864807   7.127053   4.304649
    34  H    4.679953   4.498824   4.307622   5.766438   3.215905
    35  C    5.341295   4.876757   5.700293   6.299508   3.582824
    36  O    5.147561   4.544624   5.701788   5.984468   3.858004
    37  N    6.646271   6.212131   6.934691   7.624245   4.695809
    38  H    6.960124   6.630005   7.116425   7.983424   4.817479
    39  C    7.775481   7.253243   8.170847   8.690329   5.965976
    40  H    7.518799   6.908127   8.026641   8.359191   5.983333
    41  H    8.354318   7.928468   8.784402   9.241037   6.386624
    42  H    8.509459   7.928046   8.827602   9.457001   6.754503
                   26         27         28         29         30
    26  O    0.000000
    27  N    2.281827   0.000000
    28  H    3.158547   1.017239   0.000000
    29  C    2.804848   1.453545   2.072360   0.000000
    30  H    2.425246   2.071040   2.827829   1.097049   0.000000
    31  C    3.537128   2.475223   3.115272   1.539701   2.157707
    32  H    4.249177   2.751916   3.112251   2.180971   3.072909
    33  H    4.292321   3.429332   4.032014   2.195288   2.513979
    34  H    3.120180   2.710169   3.539980   2.159339   2.474392
    35  C    4.137155   2.410177   2.377349   1.540395   2.171349
    36  O    4.690143   2.647029   2.111284   2.421190   3.172048
    37  N    5.011020   3.642806   3.727567   2.448593   2.679900
    38  H    4.886315   3.923604   4.246244   2.544103   2.461070
    39  C    6.369589   4.874787   4.740339   3.834100   4.088020
    40  H    6.579117   4.824819   4.465863   4.051103   4.495695
    41  H    6.696276   5.449582   5.348307   4.431262   4.450396
    42  H    7.111331   5.604308   5.516362   4.457537   4.756785
                   31         32         33         34         35
    31  C    0.000000
    32  H    1.095018   0.000000
    33  H    1.095992   1.777135   0.000000
    34  H    1.093551   1.778823   1.775045   0.000000
    35  C    2.552070   2.800701   2.835922   3.488422   0.000000
    36  O    3.427708   3.360089   3.880818   4.326864   1.230341
    37  N    3.090663   3.468428   2.862197   4.070491   1.358216
    38  H    2.951498   3.568663   2.461770   3.805230   2.041313
    39  C    4.435767   4.625944   4.127582   5.463938   2.472537
    40  H    4.755192   4.753849   4.655595   5.808556   2.527313
    41  H    5.200923   5.537064   4.862530   6.159378   3.159852
    42  H    4.722345   4.820483   4.220984   5.766567   3.219896
                   36         37         38         39         40
    36  O    0.000000
    37  N    2.280301   0.000000
    38  H    3.161445   1.010327   0.000000
    39  C    2.835882   1.453838   2.129814   0.000000
    40  H    2.378630   2.063025   2.973280   1.090305   0.000000
    41  H    3.530020   2.114312   2.537048   1.096305   1.780299
    42  H    3.637209   2.108714   2.510955   1.095648   1.782824
                   41         42
    41  H    0.000000
    42  H    1.783673   0.000000
 Stoichiometry    C12H22N4O4
 Framework group  C1[X(C12H22N4O4)]
 Deg. of freedom   120
 Full point group                 C1      NOp   1
 Largest Abelian subgroup         C1      NOp   1
 Largest concise Abelian subgroup C1      NOp   1
                         Standard orientation:                         
 ---------------------------------------------------------------------
 Center     Atomic      Atomic             Coordinates (Angstroms)
 Number     Number       Type             X           Y           Z
 ---------------------------------------------------------------------
      1          1           0       -5.698500    2.397077    1.166700
      2          6           0       -5.384798    1.368978    1.372800
      3          1           0       -6.292797    0.769476    1.491300
      4          1           0       -4.818998    1.350179    2.309300
      5          6           0       -4.603997    0.844479    0.176500
      6          8           0       -5.089597    0.801178   -0.950800
      7          7           0       -3.330696    0.436982    0.439500
      8          1           0       -2.973496    0.362883    1.385400
      9          6           0       -2.499194   -0.175916   -0.577100
     10          1           0       -3.127293   -0.849817   -1.175500
     11          6           0       -1.870197    0.867585   -1.522800
     12          1           0       -1.165398    1.510987   -0.986600
     13          1           0       -1.330296    0.388887   -2.347900
     14          1           0       -2.670198    1.478184   -1.948100
     15          6           0       -1.424093   -0.990014    0.162200
     16          8           0       -1.260093   -0.903813    1.375400
     17          7           0       -0.643191   -1.778112   -0.626800
     18          1           0       -0.864891   -1.848112   -1.611000
     19          6           0        0.439811   -2.611909   -0.100400
     20          1           0        0.034312   -3.257210    0.685600
     21          6           0        1.033513   -3.466408   -1.222100
     22          1           0        1.455512   -2.846707   -2.021000
     23          1           0        1.835614   -4.094706   -0.824800
     24          1           0        0.268414   -4.123110   -1.651900
     25          6           0        1.520809   -1.774607    0.621100
     26          8           0        1.887010   -2.044306    1.755800
     27          7           0        2.135707   -0.837106   -0.164500
     28          1           0        1.637806   -0.477507   -0.975400
     29          6           0        3.035105    0.141196    0.424400
     30          1           0        2.834705    0.173696    1.502500
     31          6           0        4.509906   -0.244900    0.208600
     32          1           0        4.742606   -0.295700   -0.860200
     33          1           0        5.190004    0.475701    0.677000
     34          1           0        4.689608   -1.227200    0.654300
     35          6           0        2.700002    1.505696   -0.207000
     36          8           0        1.984602    1.592494   -1.204200
     37          7           0        3.267899    2.578597    0.402200
     38          1           0        3.798000    2.424098    1.248300
     39          6           0        3.077196    3.944696   -0.057200
     40          1           0        2.514197    3.901495   -0.989900
     41          1           0        2.512095    4.534395    0.674100
     42          1           0        4.041195    4.432799   -0.238600
 ---------------------------------------------------------------------
 Rotational constants (GHZ):      0.4226756      0.1815325      0.1452053
 Standard basis: Aug-CC-pVDZ (5D, 7F)
 There are   658 symmetry adapted basis functions of A   symmetry.
 Integral buffers will be    131072 words long.
 Raffenetti 1 integral format.
 Two-electron integral symmetry is turned on.
   658 basis functions,  1102 primitive gaussians,   698 cartesian basis functions
    77 alpha electrons       77 beta electrons
       nuclear repulsion energy      1649.7790974389 Hartrees.
 NAtoms=   42 NActive=   42 NUniq=   42 SFac= 7.50D-01 NAtFMM=   80 NAOKFM=F Big=F
 One-electron integrals computed using PRISM.
 PrsmSu:  requested number of processors reduced to:   7 ShMem   1 Linda.
 NBasis=   658 RedAO= T  NBF=   658
 NBsUse=   658 1.00D-06 NBFU=   658
 Harris functional with IExCor=  205 diagonalized for initial guess.
 ExpMin= 2.97D-02 ExpMax= 1.17D+04 ExpMxC= 4.01D+02 IAcc=3 IRadAn=         0 AccDes= 0.00D+00
 HarFok:  IExCor=  205 AccDes= 0.00D+00 IRadAn=         0 IDoV= 1
 ScaDFX=  1.000000  1.000000  1.000000  1.000000
 FoFCou: FMM=F IPFlag=           0 FMFlag=      100000 FMFlg1=           0
         NFxFlg=           0 DoJE=T BraDBF=F KetDBF=T FulRan=T
         Omega=  0.000000  0.000000  1.000000  0.000000  0.000000 ICntrl=     500 IOpCl=  0
         NMat0=    1 NMatS0=    1 NMatT0=    0 NMatD0=    1 NMtDS0=    0 NMtDT0=    0
         I1Cent=           4 NGrid=           0.
 Petite list used in FoFCou.
 Initial guess orbital symmetries:
       Occupied  (A) (A) (A) (A) (A) (A) (A) (A) (A) (A) (A) (A)
                 (A) (A) (A) (A) (A) (A) (A) (A) (A) (A) (A) (A)
                 (A) (A) (A) (A) (A) (A) (A) (A) (A) (A) (A) (A)
                 (A) (A) (A) (A) (A) (A) (A) (A) (A) (A) (A) (A)
                 (A) (A) (A) (A) (A) (A) (A) (A) (A) (A) (A) (A)
                 (A) (A) (A) (A) (A) (A) (A) (A) (A) (A) (A) (A)
                 (A) (A) (A) (A) (A)
       Virtual   (A) (A) (A) (A) (A) (A) (A) (A) (A) (A) (A) (A)
                 (A) (A) (A) (A) (A) (A) (A) (A) (A) (A) (A) (A)
                 (A) (A) (A) (A) (A) (A) (A) (A) (A) (A) (A) (A)
                 (A) (A) (A) (A) (A) (A) (A) (A) (A) (A) (A) (A)
                 (A) (A) (A) (A) (A) (A) (A) (A) (A) (A) (A) (A)
                 (A) (A) (A) (A) (A) (A) (A) (A) (A) (A) (A) (A)
                 (A) (A) (A) (A) (A) (A) (A) (A) (A) (A) (A) (A)
                 (A) (A) (A) (A) (A) (A) (A) (A) (A) (A) (A) (A)
                 (A) (A) (A) (A) (A) (A) (A) (A) (A) (A) (A) (A)
                 (A) (A) (A) (A) (A) (A) (A) (A) (A) (A) (A) (A)
                 (A) (A) (A) (A) (A) (A) (A) (A) (A) (A) (A) (A)
                 (A) (A) (A) (A) (A) (A) (A) (A) (A) (A) (A) (A)
                 (A) (A) (A) (A) (A) (A) (A) (A) (A) (A) (A) (A)
                 (A) (A) (A) (A) (A) (A) (A) (A) (A) (A) (A) (A)
                 (A) (A) (A) (A) (A) (A) (A) (A) (A) (A) (A) (A)
                 (A) (A) (A) (A) (A) (A) (A) (A) (A) (A) (A) (A)
                 (A) (A) (A) (A) (A) (A) (A) (A) (A) (A) (A) (A)
                 (A) (A) (A) (A) (A) (A) (A) (A) (A) (A) (A) (A)
                 (A) (A) (A) (A) (A) (A) (A) (A) (A) (A) (A) (A)
                 (A) (A) (A) (A) (A) (A) (A) (A) (A) (A) (A) (A)
                 (A) (A) (A) (A) (A) (A) (A) (A) (A) (A) (A) (A)
                 (A) (A) (A) (A) (A) (A) (A) (A) (A) (A) (A) (A)
                 (A) (A) (A) (A) (A) (A) (A) (A) (A) (A) (A) (A)
                 (A) (A) (A) (A) (A) (A) (A) (A) (A) (A) (A) (A)
                 (A) (A) (A) (A) (A) (A) (A) (A) (A) (A) (A) (A)
                 (A) (A) (A) (A) (A) (A) (A) (A) (A) (A) (A) (A)
                 (A) (A) (A) (A) (A) (A) (A) (A) (A) (A) (A) (A)
                 (A) (A) (A) (A) (A) (A) (A) (A) (A) (A) (A) (A)
                 (A) (A) (A) (A) (A) (A) (A) (A) (A) (A) (A) (A)
                 (A) (A) (A) (A) (A) (A) (A) (A) (A) (A) (A) (A)
                 (A) (A) (A) (A) (A) (A) (A) (A) (A) (A) (A) (A)
                 (A) (A) (A) (A) (A) (A) (A) (A) (A) (A) (A) (A)
                 (A) (A) (A) (A) (A) (A) (A) (A) (A) (A) (A) (A)
                 (A) (A) (A) (A) (A) (A) (A) (A) (A) (A) (A) (A)
                 (A) (A) (A) (A) (A) (A) (A) (A) (A) (A) (A) (A)
                 (A) (A) (A) (A) (A) (A) (A) (A) (A) (A) (A) (A)
                 (A) (A) (A) (A) (A) (A) (A) (A) (A) (A) (A) (A)
                 (A) (A) (A) (A) (A) (A) (A) (A) (A) (A) (A) (A)
                 (A) (A) (A) (A) (A) (A) (A) (A) (A) (A) (A) (A)
                 (A) (A) (A) (A) (A) (A) (A) (A) (A) (A) (A) (A)
                 (A) (A) (A) (A) (A) (A) (A) (A) (A) (A) (A) (A)
                 (A) (A) (A) (A) (A) (A) (A) (A) (A) (A) (A) (A)
                 (A) (A) (A) (A) (A) (A) (A) (A) (A) (A) (A) (A)
                 (A) (A) (A) (A) (A) (A) (A) (A) (A) (A) (A) (A)
                 (A) (A) (A) (A) (A) (A) (A) (A) (A) (A) (A) (A)
                 (A) (A) (A) (A) (A) (A) (A) (A) (A) (A) (A) (A)
                 (A) (A) (A) (A) (A) (A) (A) (A) (A) (A) (A) (A)
                 (A) (A) (A) (A) (A) (A) (A) (A) (A) (A) (A) (A)
                 (A) (A) (A) (A) (A)
 The electronic state of the initial guess is 1-A.
 Requested convergence on RMS density matrix=1.00D-08 within 128 cycles.
 Requested convergence on MAX density matrix=1.00D-06.
 Requested convergence on             energy=1.00D-06.
 No special actions if energy rises.
 Initial convergence to 1.0D-05 achieved.  Increase integral accuracy.
 SCF Done:  E(RHF) =  -984.693678260     A.U. after   15 cycles
             Convg  =    0.3113D-08             -V/T =  2.0017
 ExpMin= 2.97D-02 ExpMax= 1.17D+04 ExpMxC= 4.01D+02 IAcc=3 IRadAn=         5 AccDes= 0.00D+00
 HarFok:  IExCor=  205 AccDes= 0.00D+00 IRadAn=         5 IDoV=-2
 ScaDFX=  1.000000  1.000000  1.000000  1.000000
 Range of M.O.s used for correlation:    21   658
 NBasis=   658 NAE=    77 NBE=    77 NFC=    20 NFV=     0
 NROrb=    638 NOA=    57 NOB=    57 NVA=   581 NVB=   581

 **** Warning!!: The largest alpha MO coefficient is  0.88823371D+02

 Disk-based method using OVN memory for 57 occupieds at a time.
 Estimated scratch disk usage= 21268611375 words.
 Actual    scratch disk usage= 21266912559 words.
 GetIJB would need an additional    27936704 words of memory to use all   8 processors.
 JobTyp=1 Pass  1:  I=   1 to  57 NPSUse=  1 ParTrn=F ParDer=F DoDerP=F.
 Spin components of T(2) and E(2):
     alpha-alpha T2 =       0.1372163718D+00 E2=     -0.4155982482D+00
     alpha-beta  T2 =       0.7466834135D+00 E2=     -0.2363313050D+01
     beta-beta   T2 =       0.1372163718D+00 E2=     -0.4155982482D+00
 ANorm=    0.1421659649D+01
 E2 =    -0.3194509546D+01 EUMP2 =    -0.98788818780609D+03

 **********************************************************************

            Population analysis using the SCF density.

 **********************************************************************

 Orbital symmetries:
       Occupied  (A) (A) (A) (A) (A) (A) (A) (A) (A) (A) (A) (A)
                 (A) (A) (A) (A) (A) (A) (A) (A) (A) (A) (A) (A)
                 (A) (A) (A) (A) (A) (A) (A) (A) (A) (A) (A) (A)
                 (A) (A) (A) (A) (A) (A) (A) (A) (A) (A) (A) (A)
                 (A) (A) (A) (A) (A) (A) (A) (A) (A) (A) (A) (A)
                 (A) (A) (A) (A) (A) (A) (A) (A) (A) (A) (A) (A)
                 (A) (A) (A) (A) (A)
       Virtual   (A) (A) (A) (A) (A) (A) (A) (A) (A) (A) (A) (A)
                 (A) (A) (A) (A) (A) (A) (A) (A) (A) (A) (A) (A)
                 (A) (A) (A) (A) (A) (A) (A) (A) (A) (A) (A) (A)
                 (A) (A) (A) (A) (A) (A) (A) (A) (A) (A) (A) (A)
                 (A) (A) (A) (A) (A) (A) (A) (A) (A) (A) (A) (A)
                 (A) (A) (A) (A) (A) (A) (A) (A) (A) (A) (A) (A)
                 (A) (A) (A) (A) (A) (A) (A) (A) (A) (A) (A) (A)
                 (A) (A) (A) (A) (A) (A) (A) (A) (A) (A) (A) (A)
                 (A) (A) (A) (A) (A) (A) (A) (A) (A) (A) (A) (A)
                 (A) (A) (A) (A) (A) (A) (A) (A) (A) (A) (A) (A)
                 (A) (A) (A) (A) (A) (A) (A) (A) (A) (A) (A) (A)
                 (A) (A) (A) (A) (A) (A) (A) (A) (A) (A) (A) (A)
                 (A) (A) (A) (A) (A) (A) (A) (A) (A) (A) (A) (A)
                 (A) (A) (A) (A) (A) (A) (A) (A) (A) (A) (A) (A)
                 (A) (A) (A) (A) (A) (A) (A) (A) (A) (A) (A) (A)
                 (A) (A) (A) (A) (A) (A) (A) (A) (A) (A) (A) (A)
                 (A) (A) (A) (A) (A) (A) (A) (A) (A) (A) (A) (A)
                 (A) (A) (A) (A) (A) (A) (A) (A) (A) (A) (A) (A)
                 (A) (A) (A) (A) (A) (A) (A) (A) (A) (A) (A) (A)
                 (A) (A) (A) (A) (A) (A) (A) (A) (A) (A) (A) (A)
                 (A) (A) (A) (A) (A) (A) (A) (A) (A) (A) (A) (A)
                 (A) (A) (A) (A) (A) (A) (A) (A) (A) (A) (A) (A)
                 (A) (A) (A) (A) (A) (A) (A) (A) (A) (A) (A) (A)
                 (A) (A) (A) (A) (A) (A) (A) (A) (A) (A) (A) (A)
                 (A) (A) (A) (A) (A) (A) (A) (A) (A) (A) (A) (A)
                 (A) (A) (A) (A) (A) (A) (A) (A) (A) (A) (A) (A)
                 (A) (A) (A) (A) (A) (A) (A) (A) (A) (A) (A) (A)
                 (A) (A) (A) (A) (A) (A) (A) (A) (A) (A) (A) (A)
                 (A) (A) (A) (A) (A) (A) (A) (A) (A) (A) (A) (A)
                 (A) (A) (A) (A) (A) (A) (A) (A) (A) (A) (A) (A)
                 (A) (A) (A) (A) (A) (A) (A) (A) (A) (A) (A) (A)
                 (A) (A) (A) (A) (A) (A) (A) (A) (A) (A) (A) (A)
                 (A) (A) (A) (A) (A) (A) (A) (A) (A) (A) (A) (A)
                 (A) (A) (A) (A) (A) (A) (A) (A) (A) (A) (A) (A)
                 (A) (A) (A) (A) (A) (A) (A) (A) (A) (A) (A) (A)
                 (A) (A) (A) (A) (A) (A) (A) (A) (A) (A) (A) (A)
                 (A) (A) (A) (A) (A) (A) (A) (A) (A) (A) (A) (A)
                 (A) (A) (A) (A) (A) (A) (A) (A) (A) (A) (A) (A)
                 (A) (A) (A) (A) (A) (A) (A) (A) (A) (A) (A) (A)
                 (A) (A) (A) (A) (A) (A) (A) (A) (A) (A) (A) (A)
                 (A) (A) (A) (A) (A) (A) (A) (A) (A) (A) (A) (A)
                 (A) (A) (A) (A) (A) (A) (A) (A) (A) (A) (A) (A)
                 (A) (A) (A) (A) (A) (A) (A) (A) (A) (A) (A) (A)
                 (A) (A) (A) (A) (A) (A) (A) (A) (A) (A) (A) (A)
                 (A) (A) (A) (A) (A) (A) (A) (A) (A) (A) (A) (A)
                 (A) (A) (A) (A) (A) (A) (A) (A) (A) (A) (A) (A)
                 (A) (A) (A) (A) (A) (A) (A) (A) (A) (A) (A) (A)
                 (A) (A) (A) (A) (A) (A) (A) (A) (A) (A) (A) (A)
                 (A) (A) (A) (A) (A)
 The electronic state is 1-A.
 Alpha  occ. eigenvalues --  -20.54863 -20.54793 -20.53383 -20.52200 -15.61101
 Alpha  occ. eigenvalues --  -15.61023 -15.58853 -15.58646 -11.37485 -11.37340
 Alpha  occ. eigenvalues --  -11.35952 -11.35605 -11.29966 -11.29580 -11.29352
 Alpha  occ. eigenvalues --  -11.27945 -11.25393 -11.24293 -11.24047 -11.23190
 Alpha  occ. eigenvalues --   -1.40476  -1.40185  -1.38476  -1.37542  -1.25739
 Alpha  occ. eigenvalues --   -1.24844  -1.23463  -1.23273  -1.07617  -1.04824
 Alpha  occ. eigenvalues --   -1.03000  -0.98347  -0.96737  -0.91731  -0.89732
 Alpha  occ. eigenvalues --   -0.87177  -0.81994  -0.80547  -0.78365  -0.78146
 Alpha  occ. eigenvalues --   -0.74405  -0.72173  -0.69083  -0.67440  -0.66764
 Alpha  occ. eigenvalues --   -0.65654  -0.65310  -0.64548  -0.63399  -0.62617
 Alpha  occ. eigenvalues --   -0.62597  -0.60739  -0.60141  -0.58831  -0.58175
 Alpha  occ. eigenvalues --   -0.57639  -0.56869  -0.56344  -0.56171  -0.55900
 Alpha  occ. eigenvalues --   -0.55385  -0.54464  -0.54240  -0.53755  -0.53202
 Alpha  occ. eigenvalues --   -0.52272  -0.51542  -0.50278  -0.48991  -0.44444
 Alpha  occ. eigenvalues --   -0.43788  -0.43613  -0.41808  -0.41104  -0.40376
 Alpha  occ. eigenvalues --   -0.39380  -0.38615
 Alpha virt. eigenvalues --    0.02605   0.03032   0.03710   0.04136   0.04475
 Alpha virt. eigenvalues --    0.04751   0.04875   0.05706   0.06078   0.06380
 Alpha virt. eigenvalues --    0.06545   0.06892   0.07307   0.07729   0.07857
 Alpha virt. eigenvalues --    0.08355   0.08807   0.09052   0.09664   0.10280
 Alpha virt. eigenvalues --    0.10861   0.11409   0.11532   0.12201   0.12616
 Alpha virt. eigenvalues --    0.13294   0.13391   0.13606   0.14058   0.14198
 Alpha virt. eigenvalues --    0.14751   0.14805   0.15171   0.15375   0.15507
 Alpha virt. eigenvalues --    0.15785   0.15899   0.16176   0.16401   0.16850
 Alpha virt. eigenvalues --    0.16997   0.17488   0.17830   0.17835   0.18085
 Alpha virt. eigenvalues --    0.18535   0.18877   0.18967   0.19260   0.19300
 Alpha virt. eigenvalues --    0.19441   0.19682   0.20026   0.20610   0.20638
 Alpha virt. eigenvalues --    0.20741   0.20995   0.21485   0.21616   0.22094
 Alpha virt. eigenvalues --    0.22597   0.22807   0.23061   0.23701   0.23897
 Alpha virt. eigenvalues --    0.24509   0.24909   0.25221   0.25365   0.26096
 Alpha virt. eigenvalues --    0.26186   0.26662   0.27051   0.27442   0.28429
 Alpha virt. eigenvalues --    0.28687   0.28867   0.29078   0.29907   0.30333
 Alpha virt. eigenvalues --    0.30639   0.30702   0.31303   0.31657   0.31893
 Alpha virt. eigenvalues --    0.32455   0.32782   0.33208   0.33916   0.34211
 Alpha virt. eigenvalues --    0.34604   0.34906   0.35159   0.35309   0.35428
 Alpha virt. eigenvalues --    0.35798   0.36470   0.36649   0.36893   0.37361
 Alpha virt. eigenvalues --    0.37885   0.38434   0.38580   0.38979   0.39259
 Alpha virt. eigenvalues --    0.39464   0.39709   0.39923   0.40263   0.40840
 Alpha virt. eigenvalues --    0.41115   0.41540   0.41769   0.41893   0.42300
 Alpha virt. eigenvalues --    0.42381   0.42682   0.42935   0.43054   0.43813
 Alpha virt. eigenvalues --    0.44063   0.44384   0.44777   0.45008   0.45344
 Alpha virt. eigenvalues --    0.45735   0.46134   0.46386   0.46757   0.46918
 Alpha virt. eigenvalues --    0.47280   0.47578   0.47980   0.48255   0.48415
 Alpha virt. eigenvalues --    0.48762   0.48900   0.49144   0.49743   0.50050
 Alpha virt. eigenvalues --    0.50766   0.50896   0.51145   0.51185   0.51787
 Alpha virt. eigenvalues --    0.52180   0.52554   0.52779   0.53425   0.53770
 Alpha virt. eigenvalues --    0.54195   0.54353   0.54740   0.54986   0.55797
 Alpha virt. eigenvalues --    0.55995   0.56060   0.56678   0.56796   0.57348
 Alpha virt. eigenvalues --    0.57488   0.57780   0.58390   0.58635   0.59125
 Alpha virt. eigenvalues --    0.59291   0.59713   0.59980   0.60542   0.61049
 Alpha virt. eigenvalues --    0.61173   0.61788   0.62109   0.62320   0.62490
 Alpha virt. eigenvalues --    0.62842   0.62928   0.63637   0.63949   0.64183
 Alpha virt. eigenvalues --    0.64617   0.64962   0.65126   0.65608   0.65920
 Alpha virt. eigenvalues --    0.66001   0.66567   0.66917   0.67209   0.67759
 Alpha virt. eigenvalues --    0.67800   0.68541   0.68672   0.68932   0.69378
 Alpha virt. eigenvalues --    0.69821   0.69915   0.70761   0.71082   0.71730
 Alpha virt. eigenvalues --    0.72080   0.72228   0.72765   0.73116   0.73512
 Alpha virt. eigenvalues --    0.74093   0.74253   0.74543   0.74718   0.75047
 Alpha virt. eigenvalues --    0.75659   0.75933   0.76550   0.76759   0.76812
 Alpha virt. eigenvalues --    0.77358   0.77999   0.78447   0.78772   0.79074
 Alpha virt. eigenvalues --    0.79358   0.79843   0.80569   0.81175   0.81542
 Alpha virt. eigenvalues --    0.81852   0.82101   0.82678   0.83058   0.83694
 Alpha virt. eigenvalues --    0.83981   0.84223   0.84797   0.85338   0.85927
 Alpha virt. eigenvalues --    0.86082   0.86324   0.86738   0.87644   0.87941
 Alpha virt. eigenvalues --    0.88526   0.88978   0.89271   0.89618   0.90478
 Alpha virt. eigenvalues --    0.90560   0.90827   0.91529   0.92206   0.92481
 Alpha virt. eigenvalues --    0.93195   0.94116   0.94286   0.94852   0.95537
 Alpha virt. eigenvalues --    0.96043   0.96712   0.97363   0.97826   0.98024
 Alpha virt. eigenvalues --    0.98517   0.98665   0.99244   0.99510   1.00195
 Alpha virt. eigenvalues --    1.00612   1.00915   1.01408   1.02020   1.02544
 Alpha virt. eigenvalues --    1.03595   1.04459   1.04728   1.05545   1.06525
 Alpha virt. eigenvalues --    1.07351   1.07589   1.08687   1.09378   1.09685
 Alpha virt. eigenvalues --    1.09786   1.10791   1.11239   1.12137   1.12428
 Alpha virt. eigenvalues --    1.12813   1.13228   1.14583   1.15139   1.15976
 Alpha virt. eigenvalues --    1.16283   1.17239   1.17446   1.17553   1.18194
 Alpha virt. eigenvalues --    1.18711   1.19471   1.19724   1.20412   1.20741
 Alpha virt. eigenvalues --    1.21484   1.21872   1.23028   1.23739   1.23920
 Alpha virt. eigenvalues --    1.24315   1.25233   1.26141   1.26469   1.27643
 Alpha virt. eigenvalues --    1.28124   1.28589   1.29123   1.29313   1.30772
 Alpha virt. eigenvalues --    1.32602   1.32977   1.34288   1.34841   1.35324
 Alpha virt. eigenvalues --    1.36094   1.36288   1.37443   1.37784   1.39121
 Alpha virt. eigenvalues --    1.40149   1.40695   1.41954   1.42392   1.43109
 Alpha virt. eigenvalues --    1.44171   1.45060   1.46107   1.47155   1.48227
 Alpha virt. eigenvalues --    1.48367   1.50111   1.50702   1.52244   1.52544
 Alpha virt. eigenvalues --    1.53012   1.54425   1.55864   1.55988   1.56848
 Alpha virt. eigenvalues --    1.57842   1.58417   1.59986   1.61008   1.61682
 Alpha virt. eigenvalues --    1.62215   1.64469   1.65124   1.65918   1.66879
 Alpha virt. eigenvalues --    1.67846   1.68174   1.68921   1.70420   1.71321
 Alpha virt. eigenvalues --    1.71602   1.71887   1.72897   1.73683   1.74794
 Alpha virt. eigenvalues --    1.75225   1.75923   1.76582   1.77748   1.78659
 Alpha virt. eigenvalues --    1.78982   1.80257   1.81447   1.81994   1.82924
 Alpha virt. eigenvalues --    1.83125   1.84724   1.85866   1.86893   1.87319
 Alpha virt. eigenvalues --    1.88509   1.88974   1.89342   1.89949   1.90213
 Alpha virt. eigenvalues --    1.90637   1.91300   1.92285   1.92684   1.94220
 Alpha virt. eigenvalues --    1.94319   1.95182   1.96046   1.96817   1.97575
 Alpha virt. eigenvalues --    1.97942   1.99308   1.99476   2.00204   2.01114
 Alpha virt. eigenvalues --    2.02036   2.02549   2.03111   2.03904   2.04523
 Alpha virt. eigenvalues --    2.05637   2.06112   2.07045   2.07630   2.08195
 Alpha virt. eigenvalues --    2.08658   2.09265   2.10134   2.10896   2.11978
 Alpha virt. eigenvalues --    2.13041   2.13319   2.14132   2.15572   2.16027
 Alpha virt. eigenvalues --    2.16644   2.17292   2.17486   2.18540   2.19459
 Alpha virt. eigenvalues --    2.19786   2.20384   2.21484   2.22003   2.23022
 Alpha virt. eigenvalues --    2.23254   2.24261   2.25032   2.25422   2.26418
 Alpha virt. eigenvalues --    2.27644   2.27867   2.28910   2.29805   2.30068
 Alpha virt. eigenvalues --    2.31306   2.32007   2.32422   2.33281   2.33603
 Alpha virt. eigenvalues --    2.34426   2.35827   2.36028   2.36400   2.36752
 Alpha virt. eigenvalues --    2.38288   2.38481   2.39975   2.40307   2.40806
 Alpha virt. eigenvalues --    2.41483   2.42418   2.43289   2.43869   2.44265
 Alpha virt. eigenvalues --    2.44998   2.46349   2.48157   2.48679   2.50501
 Alpha virt. eigenvalues --    2.50740   2.51576   2.51916   2.53033   2.53582
 Alpha virt. eigenvalues --    2.53978   2.54980   2.56406   2.56728   2.57457
 Alpha virt. eigenvalues --    2.58121   2.58767   2.59743   2.60040   2.60349
 Alpha virt. eigenvalues --    2.61440   2.63259   2.63620   2.63821   2.64576
 Alpha virt. eigenvalues --    2.65892   2.66378   2.66681   2.68221   2.69921
 Alpha virt. eigenvalues --    2.70996   2.71544   2.72154   2.72874   2.73621
 Alpha virt. eigenvalues --    2.74276   2.75591   2.76318   2.77180   2.78663
 Alpha virt. eigenvalues --    2.79006   2.80333   2.80733   2.81867   2.83963
 Alpha virt. eigenvalues --    2.84843   2.86444   2.88579   2.89185   2.89503
 Alpha virt. eigenvalues --    2.89787   2.90905   2.92096   2.93272   2.94483
 Alpha virt. eigenvalues --    2.95253   2.95936   2.96345   2.98245   2.99330
 Alpha virt. eigenvalues --    3.00328   3.02670   3.02943   3.04591   3.04861
 Alpha virt. eigenvalues --    3.05007   3.06033   3.07319   3.08740   3.09802
 Alpha virt. eigenvalues --    3.12682   3.13748   3.15158   3.17458   3.18254
 Alpha virt. eigenvalues --    3.19615   3.20804   3.23700   3.24223   3.26240
 Alpha virt. eigenvalues --    3.27947   3.30568   3.32631   3.34537   3.38453
 Alpha virt. eigenvalues --    3.44848   3.45671   3.48377   3.51758   3.56919
 Alpha virt. eigenvalues --    3.58175   3.61469   3.63512   3.66931   3.73490
 Alpha virt. eigenvalues --    3.74831   3.80877   3.84259   3.84986   3.85317
 Alpha virt. eigenvalues --    3.86132   3.86933   3.89053   3.89345   3.91083
 Alpha virt. eigenvalues --    3.94031   3.98917   3.99774   4.01384   4.04053
 Alpha virt. eigenvalues --    4.04940   4.08398   4.11291   4.12574   4.18310
 Alpha virt. eigenvalues --    4.19011   4.22661   4.24041   4.28367   4.34435
 Alpha virt. eigenvalues --    4.48674
          Condensed to atoms (all electrons):
              1          2          3          4          5          6
     1  H    0.737542   0.378016  -0.056276  -0.072299  -0.076656   0.021272
     2  C    0.378016   4.578294   0.369710   0.319351   0.125130  -0.060020
     3  H   -0.056276   0.369710   0.737401  -0.079407  -0.102442   0.021928
     4  H   -0.072299   0.319351  -0.079407   1.127011   0.157706  -0.012293
     5  C   -0.076656   0.125130  -0.102442   0.157706   5.811527   0.187215
     6  O    0.021272  -0.060020   0.021928  -0.012293   0.187215   8.743421
     7  N    0.030667  -0.038340   0.079777  -0.256565  -0.079444  -0.107040
     8  H   -0.000988  -0.069915  -0.005366   0.000892  -0.112618  -0.009078
     9  C    0.010067  -0.060761  -0.029191   0.019433  -0.088405   0.017306
    10  H    0.002034   0.006684  -0.003785   0.001843   0.125787  -0.005526
    11  C   -0.000679  -0.000517   0.002704  -0.019607  -0.140963   0.045337
    12  H   -0.000323   0.002168   0.000370  -0.002553   0.011291  -0.000119
    13  H    0.000592  -0.001525   0.000014  -0.002340  -0.057197   0.006358
    14  H   -0.000284   0.015954  -0.000730   0.003743   0.047554   0.019001
    15  C   -0.011895   0.033458   0.022759  -0.019116  -0.166018  -0.009709
    16  O    0.000310  -0.004736  -0.000331  -0.001533  -0.027944   0.000313
    17  N   -0.000663  -0.002623  -0.001086   0.005399  -0.005989   0.011923
    18  H   -0.000116  -0.002036  -0.000311   0.000353  -0.005867   0.000520
    19  C   -0.000316   0.002133   0.000147   0.000168  -0.045973   0.003596
    20  H   -0.000003  -0.000264  -0.000019  -0.000169  -0.004619   0.000084
    21  C    0.000012   0.000929   0.000084   0.000219   0.005845  -0.000099
    22  H   -0.000002   0.000146   0.000019   0.000018   0.000379  -0.000083
    23  H    0.000001   0.000049   0.000004   0.000022   0.000527   0.000011
    24  H    0.000002   0.000000  -0.000001  -0.000025  -0.000433  -0.000024
    25  C    0.000151   0.000283  -0.000086   0.000738   0.004933  -0.000985
    26  O   -0.000006   0.000019   0.000010  -0.000086  -0.000138   0.000018
    27  N   -0.000031  -0.000169  -0.000017   0.000035  -0.000349   0.000037
    28  H    0.000028  -0.000755  -0.000066  -0.000135  -0.001040  -0.000022
    29  C   -0.000018   0.000732   0.000063   0.000350   0.005537   0.000125
    30  H    0.000003   0.000244   0.000007   0.000187   0.000546   0.000004
    31  C   -0.000002  -0.000034   0.000002  -0.000043  -0.000027  -0.000006
    32  H    0.000000   0.000003   0.000001  -0.000002   0.000046   0.000000
    33  H    0.000000  -0.000004   0.000000  -0.000002  -0.000027   0.000000
    34  H    0.000000  -0.000010   0.000000  -0.000004   0.000001  -0.000002
    35  C    0.000067  -0.001054  -0.000064  -0.000499  -0.002481  -0.000267
    36  O    0.000006   0.000094   0.000002   0.000024   0.000371   0.000024
    37  N   -0.000016   0.000064   0.000005   0.000078   0.000127   0.000010
    38  H    0.000000   0.000003   0.000001  -0.000010   0.000057   0.000001
    39  C    0.000002   0.000022   0.000000   0.000012  -0.000308  -0.000001
    40  H    0.000001  -0.000056   0.000000  -0.000019  -0.000042  -0.000022
    41  H    0.000000  -0.000004   0.000000  -0.000013  -0.000131   0.000005
    42  H    0.000000   0.000003   0.000000   0.000003   0.000002   0.000000
              7          8          9         10         11         12
     1  H    0.030667  -0.000988   0.010067   0.002034  -0.000679  -0.000323
     2  C   -0.038340  -0.069915  -0.060761   0.006684  -0.000517   0.002168
     3  H    0.079777  -0.005366  -0.029191  -0.003785   0.002704   0.000370
     4  H   -0.256565   0.000892   0.019433   0.001843  -0.019607  -0.002553
     5  C   -0.079444  -0.112618  -0.088405   0.125787  -0.140963   0.011291
     6  O   -0.107040  -0.009078   0.017306  -0.005526   0.045337  -0.000119
     7  N    8.008594   0.259712  -1.194877  -0.253137   0.136422  -0.140162
     8  H    0.259712   0.973046   0.184834   0.022490  -0.010775   0.000998
     9  C   -1.194877   0.184834   9.693844   0.386528  -0.257166   0.227323
    10  H   -0.253137   0.022490   0.386528   1.395978  -0.018424   0.095518
    11  C    0.136422  -0.010775  -0.257166  -0.018424   4.432182   0.234986
    12  H   -0.140162   0.000998   0.227323   0.095518   0.234986   1.187780
    13  H    0.152656   0.002889  -0.314649  -0.110453   0.246863  -0.140151
    14  H    0.016004  -0.012087  -0.134789  -0.044862   0.384065  -0.259577
    15  C    0.509929  -0.163415  -1.976342  -0.165274   0.087581  -0.132519
    16  O   -0.079300   0.084540   0.118908  -0.010597  -0.004056   0.010862
    17  N    0.022403  -0.018993  -0.005895  -0.203405   0.016771  -0.058318
    18  H    0.015938   0.001485  -0.131143  -0.001602   0.000422  -0.002254
    19  C    0.044113  -0.018755  -0.393001  -0.090394   0.018630  -0.038255
    20  H    0.002544  -0.000044  -0.062247  -0.007525  -0.004272  -0.002527
    21  C   -0.006268  -0.001498   0.017913   0.008390   0.002066  -0.004842
    22  H   -0.000778  -0.000193  -0.020577   0.000412   0.000799  -0.001488
    23  H   -0.000339  -0.000020   0.026904   0.000419  -0.002159  -0.000148
    24  H    0.000856  -0.000120  -0.034169   0.000631   0.003435   0.000822
    25  C   -0.032665  -0.000428   0.131089   0.003785  -0.025960   0.001974
    26  O    0.002517   0.001493  -0.016493  -0.000903   0.004528   0.000953
    27  N    0.009322  -0.002424  -0.061085  -0.001011   0.018192   0.001411
    28  H    0.005902   0.001205  -0.007347  -0.000117  -0.004300   0.005861
    29  C    0.024255  -0.006110  -0.091979  -0.005785   0.024947  -0.041321
    30  H   -0.001527  -0.001341   0.008265   0.000191  -0.001569  -0.003548
    31  C    0.001482   0.000727  -0.011909  -0.000562   0.003871  -0.000881
    32  H    0.000153   0.000031   0.000518  -0.000080  -0.000232  -0.000979
    33  H    0.000034   0.000006  -0.000704   0.000009  -0.000056   0.000671
    34  H    0.000116   0.000094  -0.001016  -0.000068   0.000619  -0.000208
    35  C    0.000451   0.005213   0.019624   0.001230  -0.023342   0.044013
    36  O    0.002428  -0.000359  -0.007735  -0.000246  -0.001454  -0.006091
    37  N   -0.001807  -0.000721   0.005901   0.000147   0.003804  -0.004168
    38  H    0.000204   0.000127  -0.000316  -0.000023  -0.000320   0.000891
    39  C   -0.001553  -0.000022   0.004083   0.000248  -0.000007  -0.000726
    40  H   -0.000337   0.000153   0.001282   0.000052   0.000119  -0.001663
    41  H   -0.000051   0.000018  -0.000150  -0.000031   0.000116  -0.000863
    42  H   -0.000051   0.000002   0.000165   0.000015   0.000080  -0.000054
             13         14         15         16         17         18
     1  H    0.000592  -0.000284  -0.011895   0.000310  -0.000663  -0.000116
     2  C   -0.001525   0.015954   0.033458  -0.004736  -0.002623  -0.002036
     3  H    0.000014  -0.000730   0.022759  -0.000331  -0.001086  -0.000311
     4  H   -0.002340   0.003743  -0.019116  -0.001533   0.005399   0.000353
     5  C   -0.057197   0.047554  -0.166018  -0.027944  -0.005989  -0.005867
     6  O    0.006358   0.019001  -0.009709   0.000313   0.011923   0.000520
     7  N    0.152656   0.016004   0.509929  -0.079300   0.022403   0.015938
     8  H    0.002889  -0.012087  -0.163415   0.084540  -0.018993   0.001485
     9  C   -0.314649  -0.134789  -1.976342   0.118908  -0.005895  -0.131143
    10  H   -0.110453  -0.044862  -0.165274  -0.010597  -0.203405  -0.001602
    11  C    0.246863   0.384065   0.087581  -0.004056   0.016771   0.000422
    12  H   -0.140151  -0.259577  -0.132519   0.010862  -0.058318  -0.002254
    13  H    1.384808  -0.207716   0.052938  -0.000710   0.047113   0.009860
    14  H   -0.207716   1.147957   0.091063  -0.007591   0.047920  -0.002531
    15  C    0.052938   0.091063   7.340049   0.287386  -0.341431   0.090979
    16  O   -0.000710  -0.007591   0.287386   8.741113  -0.282592   0.006663
    17  N    0.047113   0.047920  -0.341431  -0.282592   8.556611   0.213739
    18  H    0.009860  -0.002531   0.090979   0.006663   0.213739   1.053309
    19  C    0.040750   0.005152  -0.139225   0.074761  -0.801034  -0.110593
    20  H   -0.000306  -0.000226   0.083122   0.015875  -0.141476   0.023042
    21  C   -0.010470   0.004097  -0.088456  -0.004691   0.054364  -0.018298
    22  H   -0.004659   0.000964  -0.039346  -0.000001  -0.109728   0.016034
    23  H    0.001225   0.000047   0.004081  -0.001578   0.211110  -0.011357
    24  H   -0.001844   0.000221   0.033793   0.001789  -0.157725   0.009653
    25  C   -0.009709   0.000778  -0.250055  -0.104520   0.282793  -0.109238
    26  O    0.001358  -0.000122   0.052878   0.011876  -0.003193   0.001844
    27  N    0.001111   0.001237   0.093188   0.060286  -0.072197   0.025241
    28  H    0.014014  -0.006809   0.037694  -0.007763   0.019992   0.011283
    29  C   -0.001588   0.009220  -0.076125   0.000339  -0.000754   0.012740
    30  H   -0.000418   0.000686  -0.013561  -0.002877   0.011728   0.000585
    31  C    0.000485   0.000298  -0.002712   0.001468  -0.008497   0.000159
    32  H    0.000088   0.000019  -0.004201  -0.000037   0.001726   0.000251
    33  H   -0.000083  -0.000003   0.001870   0.000073  -0.000911  -0.000085
    34  H    0.000033   0.000046   0.002743  -0.000068  -0.000094   0.000211
    35  C    0.012514  -0.009824   0.042767   0.000396   0.015558  -0.006762
    36  O   -0.000227   0.001287  -0.012521  -0.002557   0.001557   0.000440
    37  N   -0.001426   0.000948  -0.005943   0.000597  -0.001718  -0.000126
    38  H    0.000123  -0.000104   0.000806  -0.000046   0.000217   0.000044
    39  C   -0.000342   0.000061   0.000817   0.000556  -0.001861  -0.000029
    40  H   -0.000043  -0.000095   0.000894   0.000055  -0.000930   0.000012
    41  H    0.000122  -0.000052   0.000100  -0.000018   0.000148   0.000043
    42  H   -0.000196   0.000069  -0.000018   0.000038  -0.000072   0.000031
             19         20         21         22         23         24
     1  H   -0.000316  -0.000003   0.000012  -0.000002   0.000001   0.000002
     2  C    0.002133  -0.000264   0.000929   0.000146   0.000049   0.000000
     3  H    0.000147  -0.000019   0.000084   0.000019   0.000004  -0.000001
     4  H    0.000168  -0.000169   0.000219   0.000018   0.000022  -0.000025
     5  C   -0.045973  -0.004619   0.005845   0.000379   0.000527  -0.000433
     6  O    0.003596   0.000084  -0.000099  -0.000083   0.000011  -0.000024
     7  N    0.044113   0.002544  -0.006268  -0.000778  -0.000339   0.000856
     8  H   -0.018755  -0.000044  -0.001498  -0.000193  -0.000020  -0.000120
     9  C   -0.393001  -0.062247   0.017913  -0.020577   0.026904  -0.034169
    10  H   -0.090394  -0.007525   0.008390   0.000412   0.000419   0.000631
    11  C    0.018630  -0.004272   0.002066   0.000799  -0.002159   0.003435
    12  H   -0.038255  -0.002527  -0.004842  -0.001488  -0.000148   0.000822
    13  H    0.040750  -0.000306  -0.010470  -0.004659   0.001225  -0.001844
    14  H    0.005152  -0.000226   0.004097   0.000964   0.000047   0.000221
    15  C   -0.139225   0.083122  -0.088456  -0.039346   0.004081   0.033793
    16  O    0.074761   0.015875  -0.004691  -0.000001  -0.001578   0.001789
    17  N   -0.801034  -0.141476   0.054364  -0.109728   0.211110  -0.157725
    18  H   -0.110593   0.023042  -0.018298   0.016034  -0.011357   0.009653
    19  C    8.909867  -0.277810  -0.097686  -0.026917  -0.308510   0.301715
    20  H   -0.277810   1.439598  -0.037059   0.069568  -0.052990  -0.034386
    21  C   -0.097686  -0.037059   4.640115   0.496357   0.369532   0.064684
    22  H   -0.026917   0.069568   0.496357   1.136434  -0.197370  -0.238556
    23  H   -0.308510  -0.052990   0.369532  -0.197370   1.251365  -0.224172
    24  H    0.301715  -0.034386   0.064684  -0.238556  -0.224172   1.279745
    25  C   -0.816673   0.130471  -0.099990  -0.009675  -0.019048   0.066334
    26  O   -0.020490   0.049861   0.002458  -0.000791   0.010458  -0.005283
    27  N   -0.072596   0.105788  -0.028215  -0.026151  -0.020791   0.025030
    28  H   -0.123991  -0.005216  -0.071039  -0.035171   0.009036   0.005448
    29  C   -0.392417   0.028802   0.138250   0.062838   0.022365  -0.007087
    30  H   -0.012743   0.004983   0.011669   0.005418   0.000409  -0.001567
    31  C    0.055747  -0.004684  -0.025895  -0.007461  -0.005802   0.001556
    32  H    0.006530  -0.000158  -0.001230   0.002463   0.000778  -0.000566
    33  H    0.006472   0.000082  -0.003249  -0.002493  -0.000708   0.000173
    34  H   -0.013870  -0.000601  -0.002870  -0.000100  -0.002063   0.001042
    35  C    0.017781  -0.005187  -0.079754  -0.032581  -0.010686   0.007521
    36  O    0.020636   0.000763  -0.000211   0.002150   0.000314  -0.000276
    37  N    0.016889   0.000370   0.003898   0.002168   0.000285   0.000007
    38  H   -0.003905  -0.000212  -0.000636  -0.000255   0.000036  -0.000041
    39  C    0.006836   0.000345  -0.000133   0.000052  -0.000147   0.000071
    40  H    0.001653   0.000060   0.000056   0.000014  -0.000029   0.000023
    41  H    0.000070   0.000025  -0.000066  -0.000007  -0.000010  -0.000003
    42  H    0.000177   0.000015   0.000017  -0.000005  -0.000009   0.000003
             25         26         27         28         29         30
     1  H    0.000151  -0.000006  -0.000031   0.000028  -0.000018   0.000003
     2  C    0.000283   0.000019  -0.000169  -0.000755   0.000732   0.000244
     3  H   -0.000086   0.000010  -0.000017  -0.000066   0.000063   0.000007
     4  H    0.000738  -0.000086   0.000035  -0.000135   0.000350   0.000187
     5  C    0.004933  -0.000138  -0.000349  -0.001040   0.005537   0.000546
     6  O   -0.000985   0.000018   0.000037  -0.000022   0.000125   0.000004
     7  N   -0.032665   0.002517   0.009322   0.005902   0.024255  -0.001527
     8  H   -0.000428   0.001493  -0.002424   0.001205  -0.006110  -0.001341
     9  C    0.131089  -0.016493  -0.061085  -0.007347  -0.091979   0.008265
    10  H    0.003785  -0.000903  -0.001011  -0.000117  -0.005785   0.000191
    11  C   -0.025960   0.004528   0.018192  -0.004300   0.024947  -0.001569
    12  H    0.001974   0.000953   0.001411   0.005861  -0.041321  -0.003548
    13  H   -0.009709   0.001358   0.001111   0.014014  -0.001588  -0.000418
    14  H    0.000778  -0.000122   0.001237  -0.006809   0.009220   0.000686
    15  C   -0.250055   0.052878   0.093188   0.037694  -0.076125  -0.013561
    16  O   -0.104520   0.011876   0.060286  -0.007763   0.000339  -0.002877
    17  N    0.282793  -0.003193  -0.072197   0.019992  -0.000754   0.011728
    18  H   -0.109238   0.001844   0.025241   0.011283   0.012740   0.000585
    19  C   -0.816673  -0.020490  -0.072596  -0.123991  -0.392417  -0.012743
    20  H    0.130471   0.049861   0.105788  -0.005216   0.028802   0.004983
    21  C   -0.099990   0.002458  -0.028215  -0.071039   0.138250   0.011669
    22  H   -0.009675  -0.000791  -0.026151  -0.035171   0.062838   0.005418
    23  H   -0.019048   0.010458  -0.020791   0.009036   0.022365   0.000409
    24  H    0.066334  -0.005283   0.025030   0.005448  -0.007087  -0.001567
    25  C    6.270778  -0.013893  -0.444006  -0.034413   0.305846   0.188494
    26  O   -0.013893   8.816514  -0.040384  -0.001534   0.020861  -0.036913
    27  N   -0.444006  -0.040384   8.812895   0.172873  -1.701690  -0.269249
    28  H   -0.034413  -0.001534   0.172873   0.959355   0.086617   0.011217
    29  C    0.305846   0.020861  -1.701690   0.086617  11.296785   0.100147
    30  H    0.188494  -0.036913  -0.269249   0.011217   0.100147   1.399537
    31  C   -0.088956   0.010889   0.137648  -0.005153  -0.352190  -0.059357
    32  H    0.079444  -0.007821  -0.224878   0.000092   0.381473   0.086040
    33  H   -0.081780   0.005331   0.252602   0.015984  -0.564771  -0.098942
    34  H    0.044361   0.014403  -0.023505  -0.010048  -0.078157  -0.027781
    35  C   -0.352847   0.035400   0.920477  -0.130679  -3.045923  -0.161225
    36  O    0.020017  -0.002978  -0.095959   0.066464   0.200304  -0.013030
    37  N    0.045814  -0.001293  -0.081550  -0.005147   0.398901  -0.028217
    38  H   -0.001797   0.000807  -0.000491   0.004260  -0.148808   0.030077
    39  C   -0.002552   0.000034   0.030832  -0.011015  -0.125654  -0.003450
    40  H    0.000155   0.000089   0.001117  -0.001583   0.048206   0.003251
    41  H   -0.000736  -0.000078   0.000613  -0.000506   0.007201  -0.000001
    42  H    0.001505  -0.000024   0.005127   0.000969  -0.058868  -0.004865
             31         32         33         34         35         36
     1  H   -0.000002   0.000000   0.000000   0.000000   0.000067   0.000006
     2  C   -0.000034   0.000003  -0.000004  -0.000010  -0.001054   0.000094
     3  H    0.000002   0.000001   0.000000   0.000000  -0.000064   0.000002
     4  H   -0.000043  -0.000002  -0.000002  -0.000004  -0.000499   0.000024
     5  C   -0.000027   0.000046  -0.000027   0.000001  -0.002481   0.000371
     6  O   -0.000006   0.000000   0.000000  -0.000002  -0.000267   0.000024
     7  N    0.001482   0.000153   0.000034   0.000116   0.000451   0.002428
     8  H    0.000727   0.000031   0.000006   0.000094   0.005213  -0.000359
     9  C   -0.011909   0.000518  -0.000704  -0.001016   0.019624  -0.007735
    10  H   -0.000562  -0.000080   0.000009  -0.000068   0.001230  -0.000246
    11  C    0.003871  -0.000232  -0.000056   0.000619  -0.023342  -0.001454
    12  H   -0.000881  -0.000979   0.000671  -0.000208   0.044013  -0.006091
    13  H    0.000485   0.000088  -0.000083   0.000033   0.012514  -0.000227
    14  H    0.000298   0.000019  -0.000003   0.000046  -0.009824   0.001287
    15  C   -0.002712  -0.004201   0.001870   0.002743   0.042767  -0.012521
    16  O    0.001468  -0.000037   0.000073  -0.000068   0.000396  -0.002557
    17  N   -0.008497   0.001726  -0.000911  -0.000094   0.015558   0.001557
    18  H    0.000159   0.000251  -0.000085   0.000211  -0.006762   0.000440
    19  C    0.055747   0.006530   0.006472  -0.013870   0.017781   0.020636
    20  H   -0.004684  -0.000158   0.000082  -0.000601  -0.005187   0.000763
    21  C   -0.025895  -0.001230  -0.003249  -0.002870  -0.079754  -0.000211
    22  H   -0.007461   0.002463  -0.002493  -0.000100  -0.032581   0.002150
    23  H   -0.005802   0.000778  -0.000708  -0.002063  -0.010686   0.000314
    24  H    0.001556  -0.000566   0.000173   0.001042   0.007521  -0.000276
    25  C   -0.088956   0.079444  -0.081780   0.044361  -0.352847   0.020017
    26  O    0.010889  -0.007821   0.005331   0.014403   0.035400  -0.002978
    27  N    0.137648  -0.224878   0.252602  -0.023505   0.920477  -0.095959
    28  H   -0.005153   0.000092   0.015984  -0.010048  -0.130679   0.066464
    29  C   -0.352190   0.381473  -0.564771  -0.078157  -3.045923   0.200304
    30  H   -0.059357   0.086040  -0.098942  -0.027781  -0.161225  -0.013030
    31  C    4.348556   0.234451   0.336702   0.389889   0.173807  -0.003472
    32  H    0.234451   1.115256  -0.214169  -0.184337  -0.234508   0.015712
    33  H    0.336702  -0.214169   1.327555  -0.155987   0.337976  -0.016354
    34  H    0.389889  -0.184337  -0.155987   1.054846   0.022895  -0.000011
    35  C    0.173807  -0.234508   0.337976   0.022895   7.423125   0.137690
    36  O   -0.003472   0.015712  -0.016354  -0.000011   0.137690   8.756176
    37  N   -0.039642   0.005034  -0.055665   0.023434  -0.335004  -0.219321
    38  H   -0.008569   0.005693   0.005813  -0.004034   0.122054   0.010097
    39  C    0.004119  -0.011132   0.004771   0.007333  -0.064184  -0.005300
    40  H   -0.013465  -0.002317   0.001225   0.000472  -0.051492   0.000714
    41  H    0.002622   0.000637  -0.000708   0.000034  -0.040494   0.009104
    42  H    0.013908  -0.001468   0.001613   0.001205   0.044493   0.016017
             37         38         39         40         41         42
     1  H   -0.000016   0.000000   0.000002   0.000001   0.000000   0.000000
     2  C    0.000064   0.000003   0.000022  -0.000056  -0.000004   0.000003
     3  H    0.000005   0.000001   0.000000   0.000000   0.000000   0.000000
     4  H    0.000078  -0.000010   0.000012  -0.000019  -0.000013   0.000003
     5  C    0.000127   0.000057  -0.000308  -0.000042  -0.000131   0.000002
     6  O    0.000010   0.000001  -0.000001  -0.000022   0.000005   0.000000
     7  N   -0.001807   0.000204  -0.001553  -0.000337  -0.000051  -0.000051
     8  H   -0.000721   0.000127  -0.000022   0.000153   0.000018   0.000002
     9  C    0.005901  -0.000316   0.004083   0.001282  -0.000150   0.000165
    10  H    0.000147  -0.000023   0.000248   0.000052  -0.000031   0.000015
    11  C    0.003804  -0.000320  -0.000007   0.000119   0.000116   0.000080
    12  H   -0.004168   0.000891  -0.000726  -0.001663  -0.000863  -0.000054
    13  H   -0.001426   0.000123  -0.000342  -0.000043   0.000122  -0.000196
    14  H    0.000948  -0.000104   0.000061  -0.000095  -0.000052   0.000069
    15  C   -0.005943   0.000806   0.000817   0.000894   0.000100  -0.000018
    16  O    0.000597  -0.000046   0.000556   0.000055  -0.000018   0.000038
    17  N   -0.001718   0.000217  -0.001861  -0.000930   0.000148  -0.000072
    18  H   -0.000126   0.000044  -0.000029   0.000012   0.000043   0.000031
    19  C    0.016889  -0.003905   0.006836   0.001653   0.000070   0.000177
    20  H    0.000370  -0.000212   0.000345   0.000060   0.000025   0.000015
    21  C    0.003898  -0.000636  -0.000133   0.000056  -0.000066   0.000017
    22  H    0.002168  -0.000255   0.000052   0.000014  -0.000007  -0.000005
    23  H    0.000285   0.000036  -0.000147  -0.000029  -0.000010  -0.000009
    24  H    0.000007  -0.000041   0.000071   0.000023  -0.000003   0.000003
    25  C    0.045814  -0.001797  -0.002552   0.000155  -0.000736   0.001505
    26  O   -0.001293   0.000807   0.000034   0.000089  -0.000078  -0.000024
    27  N   -0.081550  -0.000491   0.030832   0.001117   0.000613   0.005127
    28  H   -0.005147   0.004260  -0.011015  -0.001583  -0.000506   0.000969
    29  C    0.398901  -0.148808  -0.125654   0.048206   0.007201  -0.058868
    30  H   -0.028217   0.030077  -0.003450   0.003251  -0.000001  -0.004865
    31  C   -0.039642  -0.008569   0.004119  -0.013465   0.002622   0.013908
    32  H    0.005034   0.005693  -0.011132  -0.002317   0.000637  -0.001468
    33  H   -0.055665   0.005813   0.004771   0.001225  -0.000708   0.001613
    34  H    0.023434  -0.004034   0.007333   0.000472   0.000034   0.001205
    35  C   -0.335004   0.122054  -0.064184  -0.051492  -0.040494   0.044493
    36  O   -0.219321   0.010097  -0.005300   0.000714   0.009104   0.016017
    37  N    7.391460   0.183750   0.282441  -0.008693  -0.018951  -0.106437
    38  H    0.183750   1.042589  -0.126714  -0.005109   0.008145   0.011507
    39  C    0.282441  -0.126714   4.112695   0.463698   0.344021   0.347374
    40  H   -0.008693  -0.005109   0.463698   0.957212  -0.107639  -0.134412
    41  H   -0.018951   0.008145   0.344021  -0.107639   1.037626  -0.152646
    42  H   -0.106437   0.011507   0.347374  -0.134412  -0.152646   1.137269
 Mulliken atomic charges:
              1
     1  H    0.039802
     2  C    0.409334
     3  H    0.044171
     4  H   -0.170862
     5  C    0.434533
     6  O   -0.873211
     7  N   -0.132237
     8  H   -0.104684
     9  C    0.027962
    10  H   -0.128580
    11  C    0.847319
    12  H    0.015844
    13  H   -0.109864
    14  H   -0.110988
    15  C    0.746990
    16  O   -0.874658
    17  N   -0.299888
    18  H   -0.092530
    19  C    0.271332
    20  H   -0.313396
    21  C    0.761702
    22  H   -0.041846
    23  H   -0.051042
    24  H   -0.098276
    25  C    0.920269
    26  O   -0.892177
    27  N   -0.508309
    28  H    0.035558
    29  C   -0.477661
    30  H   -0.121504
    31  C    0.920934
    32  H   -0.048322
    33  H   -0.102259
    34  H   -0.058943
    35  C    1.203807
    36  O   -0.874291
    37  N   -0.450286
    38  H   -0.125911
    39  C    0.744706
    40  H   -0.152569
    41  H   -0.087488
    42  H   -0.122481
 Sum of Mulliken atomic charges =   0.00000
 Mulliken charges with hydrogens summed into heavy atoms:
              1
     2  C    0.322446
     5  C    0.434533
     6  O   -0.873211
     7  N   -0.236921
     9  C   -0.100617
    11  C    0.642311
    15  C    0.746990
    16  O   -0.874658
    17  N   -0.392417
    19  C   -0.042064
    21  C    0.570538
    25  C    0.920269
    26  O   -0.892177
    27  N   -0.472752
    29  C   -0.599165
    31  C    0.711410
    35  C    1.203807
    36  O   -0.874291
    37  N   -0.576198
    39  C    0.382168
 Sum of Mulliken charges with hydrogens summed into heavy atoms =   0.00000
 Electronic spatial extent (au):  <R**2>=           7691.0892
 Charge=              0.0000 electrons
 Dipole moment (field-independent basis, Debye):
    X=              4.1732    Y=              1.3631    Z=             -0.5783  Tot=              4.4281
 Quadrupole moment (field-independent basis, Debye-Ang):
   XX=           -123.5169   YY=           -108.6272   ZZ=           -129.2373
   XY=             12.8873   XZ=            -10.6155   YZ=             20.3715
 Traceless Quadrupole moment (field-independent basis, Debye-Ang):
   XX=             -3.0565   YY=             11.8333   ZZ=             -8.7768
   XY=             12.8873   XZ=            -10.6155   YZ=             20.3715
 Octapole moment (field-independent basis, Debye-Ang**2):
  XXX=            154.9301  YYY=             23.4612  ZZZ=            -10.3251  XYY=             20.0424
  XXY=             36.8130  XXZ=            102.3494  XZZ=             -6.7183  YZZ=             12.7422
  YYZ=            -10.6790  XYZ=              7.9612
 Hexadecapole moment (field-independent basis, Debye-Ang**3):
 XXXX=          -7023.6353 YYYY=          -2418.6349 ZZZZ=           -799.9844 XXXY=            204.7978
 XXXZ=           -403.3629 YYYX=            124.7466 YYYZ=             53.7896 ZZZX=            -10.8321
 ZZZY=             53.6640 XXYY=          -1434.3517 XXZZ=          -1284.7557 YYZZ=           -597.9329
 XXYZ=            155.8129 YYXZ=             -7.7536 ZZXY=             40.1709
 N-N= 1.649779097439D+03 E-N=-5.607415304217D+03  KE= 9.830553631367D+02
 1\1\GINC-TACHIKOMA\SP\RMP2-FC\Aug-CC-pVDZ\C12H22N4O4\STEBOSS\18-Jan-20
 17\0\\#SP MP2/aug-cc-pVDZ\\Phi Psi fixed scan\\0,1\H,0,-5.6985,2.3971,
 1.1667\C,0,-5.3848,1.369,1.3728\H,0,-6.2928,0.7695,1.4913\H,0,-4.819,1
 .3502,2.3093\C,0,-4.604,0.8445,0.1765\O,0,-5.0896,0.8012,-0.9508\N,0,-
 3.3307,0.437,0.4395\H,0,-2.9735,0.3629,1.3854\C,0,-2.4992,-0.1759,-0.5
 771\H,0,-3.1273,-0.8498,-1.1755\C,0,-1.8702,0.8676,-1.5228\H,0,-1.1654
 ,1.511,-0.9866\H,0,-1.3303,0.3889,-2.3479\H,0,-2.6702,1.4782,-1.9481\C
 ,0,-1.4241,-0.99,0.1622\O,0,-1.2601,-0.9038,1.3754\N,0,-0.6432,-1.7781
 ,-0.6268\H,0,-0.8649,-1.8481,-1.611\C,0,0.4398,-2.6119,-0.1004\H,0,0.0
 343,-3.2572,0.6856\C,0,1.0335,-3.4664,-1.2221\H,0,1.4555,-2.8467,-2.02
 1\H,0,1.8356,-4.0947,-0.8248\H,0,0.2684,-4.1231,-1.6519\C,0,1.5208,-1.
 7746,0.6211\O,0,1.887,-2.0443,1.7558\N,0,2.1357,-0.8371,-0.1645\H,0,1.
 6378,-0.4775,-0.9754\C,0,3.0351,0.1412,0.4244\H,0,2.8347,0.1737,1.5025
 \C,0,4.5099,-0.2449,0.2086\H,0,4.7426,-0.2957,-0.8602\H,0,5.19,0.4757,
 0.677\H,0,4.6896,-1.2272,0.6543\C,0,2.7,1.5057,-0.207\O,0,1.9846,1.592
 5,-1.2042\N,0,3.2679,2.5786,0.4022\H,0,3.798,2.4241,1.2483\C,0,3.0772,
 3.9447,-0.0572\H,0,2.5142,3.9015,-0.9899\H,0,2.5121,4.5344,0.6741\H,0,
 4.0412,4.4328,-0.2386\\Version=EM64L-G09RevA.02\State=1-A\HF=-984.6936
 783\MP2=-987.8881878\RMSD=3.113e-09\PG=C01 [X(C12H22N4O4)]\\@


 THE WISE MAN HAS THE POWER TO REASON AWAY
 WHAT A FOOL BELIEVES.
                     - DOOBIE BROTHERS
 Job cpu time:  0 days 14 hours 28 minutes 50.0 seconds.
 File lengths (MBytes):  RWF= 162488 Int=      0 D2E=      0 Chk=     19 Scr=      1
 Normal termination of Gaussian 09 at Wed Jan 18 18:08:26 2017.
