 Entering Gaussian System, Link 0=g09
 Initial command:
 /home/steboss/local//g09/l1.exe /tmp/Gau-13558.inp -scrdir=/tmp/
 Entering Link 1 = /home/steboss/local//g09/l1.exe PID=     13560.
  
 Copyright (c) 1988,1990,1992,1993,1995,1998,2003,2009, Gaussian, Inc.
                  All Rights Reserved.
  
 This is part of the Gaussian(R) 09 program.  It is based on
 the Gaussian(R) 03 system (copyright 2003, Gaussian, Inc.),
 the Gaussian(R) 98 system (copyright 1998, Gaussian, Inc.),
 the Gaussian(R) 94 system (copyright 1995, Gaussian, Inc.),
 the Gaussian 92(TM) system (copyright 1992, Gaussian, Inc.),
 the Gaussian 90(TM) system (copyright 1990, Gaussian, Inc.),
 the Gaussian 88(TM) system (copyright 1988, Gaussian, Inc.),
 the Gaussian 86(TM) system (copyright 1986, Carnegie Mellon
 University), and the Gaussian 82(TM) system (copyright 1983,
 Carnegie Mellon University). Gaussian is a federally registered
 trademark of Gaussian, Inc.
  
 This software contains proprietary and confidential information,
 including trade secrets, belonging to Gaussian, Inc.
  
 This software is provided under written license and may be
 used, copied, transmitted, or stored only in accord with that
 written license.
  
 The following legend is applicable only to US Government
 contracts under FAR:
  
                    RESTRICTED RIGHTS LEGEND
  
 Use, reproduction and disclosure by the US Government is
 subject to restrictions as set forth in subparagraphs (a)
 and (c) of the Commercial Computer Software - Restricted
 Rights clause in FAR 52.227-19.
  
 Gaussian, Inc.
 340 Quinnipiac St., Bldg. 40, Wallingford CT 06492
  
  
 ---------------------------------------------------------------
 Warning -- This program may not be used in any manner that
 competes with the business of Gaussian, Inc. or will provide
 assistance to any competitor of Gaussian, Inc.  The licensee
 of this program is prohibited from giving any competitor of
 Gaussian, Inc. access to this program.  By using this program,
 the user acknowledges that Gaussian, Inc. is engaged in the
 business of creating and licensing software in the field of
 computational chemistry and represents and warrants to the
 licensee that it is not a competitor of Gaussian, Inc. and that
 it will not use this program in any manner prohibited above.
 ---------------------------------------------------------------
  

 Cite this work as:
 Gaussian 09, Revision A.02,
 M. J. Frisch, G. W. Trucks, H. B. Schlegel, G. E. Scuseria, 
 M. A. Robb, J. R. Cheeseman, G. Scalmani, V. Barone, B. Mennucci, 
 G. A. Petersson, H. Nakatsuji, M. Caricato, X. Li, H. P. Hratchian, 
 A. F. Izmaylov, J. Bloino, G. Zheng, J. L. Sonnenberg, M. Hada, 
 M. Ehara, K. Toyota, R. Fukuda, J. Hasegawa, M. Ishida, T. Nakajima, 
 Y. Honda, O. Kitao, H. Nakai, T. Vreven, J. A. Montgomery, Jr., 
 J. E. Peralta, F. Ogliaro, M. Bearpark, J. J. Heyd, E. Brothers, 
 K. N. Kudin, V. N. Staroverov, R. Kobayashi, J. Normand, 
 K. Raghavachari, A. Rendell, J. C. Burant, S. S. Iyengar, J. Tomasi, 
 M. Cossi, N. Rega, J. M. Millam, M. Klene, J. E. Knox, J. B. Cross, 
 V. Bakken, C. Adamo, J. Jaramillo, R. Gomperts, R. E. Stratmann, 
 O. Yazyev, A. J. Austin, R. Cammi, C. Pomelli, J. W. Ochterski, 
 R. L. Martin, K. Morokuma, V. G. Zakrzewski, G. A. Voth, 
 P. Salvador, J. J. Dannenberg, S. Dapprich, A. D. Daniels, 
 O. Farkas, J. B. Foresman, J. V. Ortiz, J. Cioslowski, 
 and D. J. Fox, Gaussian, Inc., Wallingford CT, 2009.
 
 ******************************************
 Gaussian 09:  EM64L-G09RevA.02 11-Jun-2009
                18-Jan-2017 
 ******************************************
 %chk=structure_60.chk
 %NProcShared=8
 Will use up to    8 processors via shared memory.
 -------------------
 #SP MP2/aug-cc-pVDZ
 -------------------
 1/38=1/1;
 2/12=2,17=6,18=5,40=1/2;
 3/5=16,7=10,11=9,16=1,25=1,30=1/1,2,3;
 4//1;
 5/5=2,38=5/2;
 8/10=1/1;
 9/16=-3/6;
 6/7=2,8=2,9=2,10=2/1;
 99/5=1,9=1/99;
 ------------------
 Phi Psi fixed scan
 ------------------
 Symbolic Z-matrix:
 Charge =  0 Multiplicity = 1
 H                    -5.2824   -3.3592    0.1714 
 C                    -4.8746   -2.7227   -0.6201 
 H                    -5.6647   -2.5828   -1.3644 
 H                    -4.0287   -3.2345   -1.0889 
 C                    -4.5163   -1.3692   -0.0257 
 O                    -5.3463   -0.6631    0.5408 
 N                    -3.2128   -0.9945   -0.1603 
 H                    -2.5395   -1.5471   -0.6779 
 C                    -2.7363    0.2922    0.3046 
 H                    -3.5006    1.0448    0.0741 
 C                    -2.4867    0.3004    1.8271 
 H                    -1.7176   -0.432     2.0936 
 H                    -2.164     1.2876    2.1782 
 H                    -3.4193    0.0414    2.3338 
 C                    -1.4443    0.6015   -0.4658 
 O                    -0.8239   -0.2886   -1.0516 
 N                    -1.0711    1.9062   -0.4737 
 H                    -1.6059    2.5274    0.1218 
 C                     0.2356    2.4383   -0.904 
 H                     0.372     2.1026   -1.941 
 C                     0.1811    3.9619   -0.8689 
 H                     0.0667    4.3248    0.1579 
 H                     1.1132    4.38     -1.2526 
 H                    -0.6518    4.3242   -1.4802 
 C                     1.4643    1.9113   -0.1051 
 O                     2.2019    2.7005    0.4854 
 N                     1.6825    0.576    -0.1243 
 H                     1.056    -0.0566   -0.6229 
 C                     2.829     0.0037    0.5614 
 H                     3.6562    0.7169    0.4716 
 C                     2.5456   -0.2323    2.0582 
 H                     1.716    -0.9363    2.1802 
 H                     3.4254   -0.6408    2.5684 
 H                     2.2819    0.7192    2.528 
 C                     3.1822   -1.3187   -0.134 
 O                     2.333    -1.9896   -0.7099 
 N                     4.4875   -1.6931   -0.0143 
 H                     5.1308   -1.0593    0.438 
 C                     5.0004   -2.9429   -0.5488 
 H                     4.1596   -3.4732   -0.9978 
 H                     5.7609   -2.7626   -1.3175 
 H                     5.4366   -3.5624    0.2434 
 
                          Input orientation:                          
 ---------------------------------------------------------------------
 Center     Atomic      Atomic             Coordinates (Angstroms)
 Number     Number       Type             X           Y           Z
 ---------------------------------------------------------------------
      1          1           0       -5.282400   -3.359200    0.171400
      2          6           0       -4.874600   -2.722700   -0.620100
      3          1           0       -5.664700   -2.582800   -1.364400
      4          1           0       -4.028700   -3.234500   -1.088900
      5          6           0       -4.516300   -1.369200   -0.025700
      6          8           0       -5.346300   -0.663100    0.540800
      7          7           0       -3.212800   -0.994500   -0.160300
      8          1           0       -2.539500   -1.547100   -0.677900
      9          6           0       -2.736300    0.292200    0.304600
     10          1           0       -3.500600    1.044800    0.074100
     11          6           0       -2.486700    0.300400    1.827100
     12          1           0       -1.717600   -0.432000    2.093600
     13          1           0       -2.164000    1.287600    2.178200
     14          1           0       -3.419300    0.041400    2.333800
     15          6           0       -1.444300    0.601500   -0.465800
     16          8           0       -0.823900   -0.288600   -1.051600
     17          7           0       -1.071100    1.906200   -0.473700
     18          1           0       -1.605900    2.527400    0.121800
     19          6           0        0.235600    2.438300   -0.904000
     20          1           0        0.372000    2.102600   -1.941000
     21          6           0        0.181100    3.961900   -0.868900
     22          1           0        0.066700    4.324800    0.157900
     23          1           0        1.113200    4.380000   -1.252600
     24          1           0       -0.651800    4.324200   -1.480200
     25          6           0        1.464300    1.911300   -0.105100
     26          8           0        2.201900    2.700500    0.485400
     27          7           0        1.682500    0.576000   -0.124300
     28          1           0        1.056000   -0.056600   -0.622900
     29          6           0        2.829000    0.003700    0.561400
     30          1           0        3.656200    0.716900    0.471600
     31          6           0        2.545600   -0.232300    2.058200
     32          1           0        1.716000   -0.936300    2.180200
     33          1           0        3.425400   -0.640800    2.568400
     34          1           0        2.281900    0.719200    2.528000
     35          6           0        3.182200   -1.318700   -0.134000
     36          8           0        2.333000   -1.989600   -0.709900
     37          7           0        4.487500   -1.693100   -0.014300
     38          1           0        5.130800   -1.059300    0.438000
     39          6           0        5.000400   -2.942900   -0.548800
     40          1           0        4.159600   -3.473200   -0.997800
     41          1           0        5.760900   -2.762600   -1.317500
     42          1           0        5.436600   -3.562400    0.243400
 ---------------------------------------------------------------------
                    Distance matrix (angstroms):
                    1          2          3          4          5
     1  H    0.000000
     2  C    1.094489   0.000000
     3  H    1.762848   1.094446   0.000000
     4  H    1.782041   1.094194   1.782445   0.000000
     5  C    2.141462   1.521070   2.140973   2.201702   0.000000
     6  O    2.722039   2.410838   2.723309   3.317241   1.228169
     7  N    3.159917   2.441244   3.159805   2.558435   1.362949
     8  H    3.395367   2.614970   3.363158   2.287784   2.089199
     9  C    4.453436   3.810121   4.430205   4.006214   2.457183
    10  H    4.751789   4.069871   4.462297   4.465856   2.620878
    11  C    4.893869   4.563988   5.347728   4.834908   3.215542
    12  H    4.997114   4.751644   5.671270   4.829441   3.633524
    13  H    5.945117   5.591095   6.307528   5.882214   4.177209
    14  H    4.439729   4.299264   5.060131   4.776794   2.959804
    15  C    5.551953   4.779233   5.362744   4.667148   3.676211
    16  O    5.550003   4.745441   5.366055   4.353213   3.981706
    17  N    6.773156   5.992892   6.484260   5.962606   4.774762
    18  H    6.940546   6.228833   6.693041   6.366730   4.865766
    19  C    8.075631   7.268471   7.761247   7.099233   6.152156
    20  H    8.140377   7.249490   7.663367   6.969711   6.294223
    21  C    9.194050   8.384860   8.789311   8.340203   7.155220
    22  H    9.362527   8.642279   9.103916   8.687337   7.311582
    23  H   10.140350   9.311399   9.717665   9.189480   8.139401
    24  H    9.121671   8.260182   8.535176   8.287974   7.033117
    25  C    8.565780   7.868979   8.520881   7.590795   6.821698
    26  O    9.635004   8.983879   9.654968   8.747744   7.871334
    27  N    8.005190   7.356820   8.093035   6.933121   6.497588
    28  H    7.191203   6.502316   7.217986   6.014181   5.755875
    29  C    8.789540   8.256794   9.085242   7.761281   7.495530
    30  H    9.828697   9.262678  10.056744   8.781026   8.449194
    31  C    8.638003   8.272530   9.200438   7.882821   7.450209
    32  H    7.673547   7.380306   8.351640   6.997879   6.625327
    33  H    9.431919   9.131859  10.092978   8.698663   8.386329
    34  H    8.910979   8.542406   9.444704   8.278731   7.556343
    35  C    8.712426   8.192651   9.021057   7.521915   7.699427
    36  O    7.787606   7.245343   8.046332   6.493431   6.911290
    37  N    9.912685   9.438008  10.280151   8.721029   9.009631
    38  H   10.667490  10.197770  11.050453   9.537262   9.663208
    39  C   10.316393   9.877712  10.702300   9.049938   9.660111
    40  H    9.514798   9.073185   9.871377   8.192285   8.980147
    41  H   11.159177  10.658415  11.427111   9.803633  10.451371
    42  H   10.721168  10.381309  11.259818   9.564227  10.195232
                    6          7          8          9         10
     6  O    0.000000
     7  N    2.270064   0.000000
     8  H    3.185092   1.013217   0.000000
     9  C    2.789353   1.448717   2.094531   0.000000
    10  H    2.557604   2.072804   2.864815   1.097129   0.000000
    11  C    3.280276   2.480675   3.113048   1.542846   2.157576
    12  H    3.953740   2.762625   3.098416   2.182369   3.072199
    13  H    4.075947   3.431697   4.041514   2.197436   2.504534
    14  H    2.724793   2.708554   3.516777   2.155700   2.473796
    15  C    4.223513   2.401695   2.420936   1.535723   2.171722
    16  O    4.809167   2.645667   2.160268   2.415343   3.195290
    17  N    5.089975   3.619276   3.758082   2.446148   2.635254
    18  H    4.934110   3.881429   4.255899   2.511442   2.406297
    19  C    6.547040   4.922262   4.861658   3.859877   4.105814
    20  H    6.819632   5.060999   4.836586   4.240495   4.491837
    21  C    7.343707   6.048684   6.147132   4.832703   4.790995
    22  H    7.370640   6.257102   6.478430   4.913267   4.846757
    23  H    8.388938   6.985173   6.985915   5.826974   5.845583
    24  H    7.141144   6.048919   6.219265   4.877261   4.613673
    25  C    7.309514   5.506540   5.321564   4.520440   5.043131
    26  O    8.263909   6.587027   6.471186   5.497128   5.952228
    27  N    7.168107   5.141180   4.758078   4.448628   5.208038
    28  H    6.535402   4.395032   3.892587   3.919625   4.739356
    29  C    8.202474   6.166085   5.723778   5.578686   6.433132
    30  H    9.107919   7.107134   6.695801   6.408769   7.175327
    31  C    8.047992   6.217866   5.922262   5.590052   6.490314
    32  H    7.255229   5.456592   5.162470   4.984984   5.964338
    33  H    9.003021   7.185862   6.851268   6.630372   7.551970
    34  H    8.003071   6.352594   6.217701   5.505285   6.290067
    35  C    8.580238   6.403267   5.752030   6.149472   7.091492
    36  O    7.892750   5.661111   4.892656   5.650984   6.622169
    37  N    9.903164   7.733303   7.059774   7.498426   8.444741
    38  H   10.485093   8.365275   7.766382   7.983459   8.891610
    39  C   10.650771   8.450080   7.669095   8.429157   9.410460
    40  H   10.031255   7.822892   6.977832   7.964165   8.957676
    41  H   11.455613   9.219142   8.413273   9.174171  10.109808
    42  H   11.169840   9.031567   8.278188   9.036481  10.056267
                   11         12         13         14         15
    11  C    0.000000
    12  H    1.094964   0.000000
    13  H    1.096344   1.778610   0.000000
    14  H    1.092506   1.782579   1.775670   0.000000
    15  C    2.536661   2.773688   2.824790   3.471613   0.000000
    16  O    3.376202   3.272850   3.835607   4.278543   1.233019
    17  N    3.142642   3.532162   2.934224   4.107746   1.357049
    18  H    2.939964   3.557881   2.465230   3.789665   2.020020
    19  C    4.409132   4.586853   4.072118   5.439372   2.527433
    20  H    5.061489   5.202751   4.905439   6.074242   2.780011
    21  C    5.271827   5.629194   4.683609   6.212124   3.754558
    22  H    5.049938   5.436709   4.275771   5.935845   4.066336
    23  H    6.251957   6.508904   5.663335   7.226982   4.630002
    24  H    5.522324   6.043957   4.989146   6.367733   3.938979
    25  C    4.683887   4.522148   4.332092   5.770122   3.210239
    26  O    5.435403   5.268903   4.891108   6.487317   4.313393
    27  N    4.611523   4.182801   4.539102   5.688270   3.145497
    28  H    4.322114   3.900404   4.474532   5.364698   2.590227
    29  C    5.472357   4.817576   5.403008   6.494927   4.435493
    30  H    6.304449   5.729623   6.092037   7.347570   5.187209
    31  C    5.065690   4.268021   4.950235   5.977533   4.794278
    32  H    4.395087   3.471517   4.472151   5.229799   4.399277
    33  H    6.032272   5.169089   5.925570   6.882612   5.870576
    34  H    4.837995   4.184491   4.495716   5.744633   4.781345
    35  C    6.213198   5.454950   6.381295   7.177723   5.020136
    36  O    5.908467   5.166536   6.269304   6.817479   4.587088
    37  N    7.483600   6.673596   7.611444   8.428496   6.376150
    38  H    7.861596   7.073549   7.858139   8.826653   6.841568
    39  C    8.498268   7.643194   8.755700   9.386521   7.355530
    40  H    8.148216   7.303912   8.528781   8.993981   6.949093
    41  H    9.343093   8.543726   9.561803  10.269882   7.997341
    42  H    8.955893   8.025286   9.221446   9.786936   8.073897
                   16         17         18         19         20
    16  O    0.000000
    17  N    2.283029   0.000000
    18  H    3.149325   1.013174   0.000000
    19  C    2.929217   1.475044   2.109817   0.000000
    20  H    2.817631   2.067385   2.889236   1.098485   0.000000
    21  C    4.371516   2.439281   2.496527   1.524978   2.154725
    22  H    4.851754   2.746477   2.455512   2.171415   3.071931
    23  H    5.058516   3.390802   3.565755   2.159144   2.491952
    24  H    4.635865   2.652467   2.589440   2.162430   2.489179
    25  C    3.312292   2.562059   3.139616   1.557458   2.144818
    26  O    4.522450   3.501902   3.829035   2.421883   3.097327
    27  N    2.808818   3.077958   3.831723   2.483871   2.710778
    28  H    1.942069   2.898172   3.783827   2.641325   2.620570
    29  C    4.003859   4.461134   5.121586   3.847129   4.087082
    30  H    4.837609   4.965420   5.575838   4.068906   4.304274
    31  C    4.585581   4.905529   5.347947   4.608995   5.115652
    32  H    4.161146   4.784445   5.221997   4.805393   5.293915
    33  H    5.593299   5.996674   6.429411   5.631451   6.097884
    34  H    4.845120   4.654222   4.916744   4.349859   5.053066
    35  C    4.236972   5.348452   6.146855   4.836362   4.782025
    36  O    3.602246   5.178894   6.050615   4.903372   4.701833
    37  N    5.591027   6.638075   7.413546   5.994888   5.920883
    38  H    6.186383   6.934620   7.638555   6.164183   6.188976
    39  C    6.420326   7.770619   8.603318   7.196305   6.986943
    40  H    5.914376   7.521492   8.396529   7.095943   6.806253
    41  H    7.039245   8.317807   9.182888   7.599295   7.286917
    42  H    7.182524   8.530532   9.311136   8.023424   7.906580
                   21         22         23         24         25
    21  C    0.000000
    22  H    1.095035   0.000000
    23  H    1.091258   1.757191   0.000000
    24  H    1.094839   1.788747   1.780489   0.000000
    25  C    2.536721   2.801328   2.744906   3.491542   0.000000
    26  O    2.740236   2.702718   2.650779   3.826694   1.231089
    27  N    3.777956   4.091937   4.008439   4.619137   1.353147
    28  H    4.119989   4.559060   4.481430   4.779430   2.075441
    29  C    4.972372   5.144416   5.038508   5.911922   2.438353
    30  H    4.939968   5.099006   4.781006   5.948193   2.561952
    31  C    5.634722   5.524785   5.855466   6.595857   3.231733
    32  H    5.970368   5.872739   6.356928   6.832120   3.659887
    33  H    6.597375   6.461313   6.719728   7.593810   4.184104
    34  H    5.144647   4.850241   5.390756   6.137450   3.003796
    35  C    6.118122   6.452956   6.164999   6.953713   3.658540
    36  O    6.330585   6.764676   6.508013   7.026127   4.041960
    37  N    7.159221   7.469153   7.057041   8.047929   4.705282
    38  H    7.170772   7.396763   6.970310   8.130192   4.750015
    39  C    8.426410   8.812507   8.320488   9.253411   6.021971
    40  H    8.433611   8.882358   8.427231   9.175060   6.087232
    41  H    8.749532   9.210427   8.521858   9.558866   6.463438
    42  H    9.245138   9.542068   9.165780  10.111274   6.772150
                   26         27         28         29         30
    26  O    0.000000
    27  N    2.270465   0.000000
    28  H    3.184810   1.020435   0.000000
    29  C    2.769794   1.453332   2.133010   0.000000
    30  H    2.459644   2.066505   2.925282   1.095891   0.000000
    31  C    3.345616   2.482256   3.072145   1.541565   2.156783
    32  H    4.041628   2.756609   3.011120   2.177816   3.068674
    33  H    4.123121   3.430588   4.017430   2.190690   2.508623
    34  H    2.846781   2.722955   3.468842   2.163047   2.473355
    35  C    4.183134   2.416419   2.520446   1.535276   2.176027
    36  O    4.841794   2.710790   2.318359   2.415671   3.236038
    37  N    4.977689   3.609562   3.850158   2.441553   2.595238
    38  H    4.766214   3.857611   4.328384   2.538401   2.308779
    39  C    6.383505   4.855030   4.888201   3.824915   4.030164
    40  H    6.644324   4.826494   4.630987   4.036141   4.468723
    41  H    6.764791   5.404010   5.471836   4.447327   4.442698
    42  H    7.053068   5.599538   5.677215   4.429195   4.640507
                   31         32         33         34         35
    31  C    0.000000
    32  H    1.094868   0.000000
    33  H    1.096004   1.777658   0.000000
    34  H    1.093436   1.783785   1.777308   0.000000
    35  C    2.528095   2.766133   2.796723   3.471285   0.000000
    36  O    3.285678   3.137325   3.709427   4.221872   1.225932
    37  N    3.193770   3.615216   2.984247   4.140912   1.363199
    38  H    3.161050   3.835525   2.760822   3.955679   2.047319
    39  C    4.491085   4.718174   4.182968   5.501629   2.473042
    40  H    4.737886   4.744125   4.612952   5.790789   2.518597
    41  H    5.304331   5.650707   5.005678   6.246138   3.183585
    42  H    4.768747   4.948784   4.241025   5.788232   3.202958
                   36         37         38         39         40
    36  O    0.000000
    37  N    2.283340   0.000000
    38  H    3.163988   1.010006   0.000000
    39  C    2.837209   1.452844   2.130429   0.000000
    40  H    2.370743   2.059987   2.971812   1.090763   0.000000
    41  H    3.566119   2.112749   2.525874   1.096252   1.780821
    42  H    3.607605   2.112222   2.529208   1.096190   1.783049
                   41         42
    41  H    0.000000
    42  H    1.783609   0.000000
 Stoichiometry    C12H22N4O4
 Framework group  C1[X(C12H22N4O4)]
 Deg. of freedom   120
 Full point group                 C1      NOp   1
 Largest Abelian subgroup         C1      NOp   1
 Largest concise Abelian subgroup C1      NOp   1
                         Standard orientation:                         
 ---------------------------------------------------------------------
 Center     Atomic      Atomic             Coordinates (Angstroms)
 Number     Number       Type             X           Y           Z
 ---------------------------------------------------------------------
      1          1           0       -5.282404   -3.359198    0.171400
      2          6           0       -4.874604   -2.722698   -0.620100
      3          1           0       -5.664705   -2.582799   -1.364400
      4          1           0       -4.028704   -3.234497   -1.088900
      5          6           0       -4.516306   -1.369197   -0.025700
      6          8           0       -5.346306   -0.663098    0.540800
      7          7           0       -3.212806   -0.994496   -0.160300
      8          1           0       -2.539506   -1.547095   -0.677900
      9          6           0       -2.736307    0.292204    0.304600
     10          1           0       -3.500608    1.044804    0.074100
     11          6           0       -2.486707    0.300405    1.827100
     12          1           0       -1.717607   -0.431995    2.093600
     13          1           0       -2.164008    1.287605    2.178200
     14          1           0       -3.419307    0.041404    2.333800
     15          6           0       -1.444308    0.601506   -0.465800
     16          8           0       -0.823907   -0.288594   -1.051600
     17          7           0       -1.071109    1.906206   -0.473700
     18          1           0       -1.605910    2.527406    0.121800
     19          6           0        0.235590    2.438307   -0.904000
     20          1           0        0.371991    2.102608   -1.941000
     21          6           0        0.181089    3.961907   -0.868900
     22          1           0        0.066688    4.324807    0.157900
     23          1           0        1.113188    4.380008   -1.252600
     24          1           0       -0.651812    4.324206   -1.480200
     25          6           0        1.464291    1.911309   -0.105100
     26          8           0        2.201890    2.700509    0.485400
     27          7           0        1.682492    0.576009   -0.124300
     28          1           0        1.055993   -0.056592   -0.622900
     29          6           0        2.828993    0.003710    0.561400
     30          1           0        3.656192    0.716911    0.471600
     31          6           0        2.545593   -0.232290    2.058200
     32          1           0        1.715994   -0.936291    2.180200
     33          1           0        3.425394   -0.640789    2.568400
     34          1           0        2.281892    0.719209    2.528000
     35          6           0        3.182194   -1.318690   -0.134000
     36          8           0        2.332995   -1.989590   -0.709900
     37          7           0        4.487495   -1.693088   -0.014300
     38          1           0        5.130794   -1.059288    0.438000
     39          6           0        5.000396   -2.942888   -0.548800
     40          1           0        4.159596   -3.473189   -0.997800
     41          1           0        5.760896   -2.762587   -1.317500
     42          1           0        5.436596   -3.562387    0.243400
 ---------------------------------------------------------------------
 Rotational constants (GHZ):      0.4233625      0.1725706      0.1365828
 Standard basis: Aug-CC-pVDZ (5D, 7F)
 There are   658 symmetry adapted basis functions of A   symmetry.
 Integral buffers will be    131072 words long.
 Raffenetti 1 integral format.
 Two-electron integral symmetry is turned on.
   658 basis functions,  1102 primitive gaussians,   698 cartesian basis functions
    77 alpha electrons       77 beta electrons
       nuclear repulsion energy      1640.1254649985 Hartrees.
 NAtoms=   42 NActive=   42 NUniq=   42 SFac= 7.50D-01 NAtFMM=   80 NAOKFM=F Big=F
 One-electron integrals computed using PRISM.
 PrsmSu:  requested number of processors reduced to:   7 ShMem   1 Linda.
 NBasis=   658 RedAO= T  NBF=   658
 NBsUse=   658 1.00D-06 NBFU=   658
 Harris functional with IExCor=  205 diagonalized for initial guess.
 ExpMin= 2.97D-02 ExpMax= 1.17D+04 ExpMxC= 4.01D+02 IAcc=3 IRadAn=         0 AccDes= 0.00D+00
 HarFok:  IExCor=  205 AccDes= 0.00D+00 IRadAn=         0 IDoV= 1
 ScaDFX=  1.000000  1.000000  1.000000  1.000000
 FoFCou: FMM=F IPFlag=           0 FMFlag=      100000 FMFlg1=           0
         NFxFlg=           0 DoJE=T BraDBF=F KetDBF=T FulRan=T
         Omega=  0.000000  0.000000  1.000000  0.000000  0.000000 ICntrl=     500 IOpCl=  0
         NMat0=    1 NMatS0=    1 NMatT0=    0 NMatD0=    1 NMtDS0=    0 NMtDT0=    0
         I1Cent=           4 NGrid=           0.
 Petite list used in FoFCou.
 Initial guess orbital symmetries:
       Occupied  (A) (A) (A) (A) (A) (A) (A) (A) (A) (A) (A) (A)
                 (A) (A) (A) (A) (A) (A) (A) (A) (A) (A) (A) (A)
                 (A) (A) (A) (A) (A) (A) (A) (A) (A) (A) (A) (A)
                 (A) (A) (A) (A) (A) (A) (A) (A) (A) (A) (A) (A)
                 (A) (A) (A) (A) (A) (A) (A) (A) (A) (A) (A) (A)
                 (A) (A) (A) (A) (A) (A) (A) (A) (A) (A) (A) (A)
                 (A) (A) (A) (A) (A)
       Virtual   (A) (A) (A) (A) (A) (A) (A) (A) (A) (A) (A) (A)
                 (A) (A) (A) (A) (A) (A) (A) (A) (A) (A) (A) (A)
                 (A) (A) (A) (A) (A) (A) (A) (A) (A) (A) (A) (A)
                 (A) (A) (A) (A) (A) (A) (A) (A) (A) (A) (A) (A)
                 (A) (A) (A) (A) (A) (A) (A) (A) (A) (A) (A) (A)
                 (A) (A) (A) (A) (A) (A) (A) (A) (A) (A) (A) (A)
                 (A) (A) (A) (A) (A) (A) (A) (A) (A) (A) (A) (A)
                 (A) (A) (A) (A) (A) (A) (A) (A) (A) (A) (A) (A)
                 (A) (A) (A) (A) (A) (A) (A) (A) (A) (A) (A) (A)
                 (A) (A) (A) (A) (A) (A) (A) (A) (A) (A) (A) (A)
                 (A) (A) (A) (A) (A) (A) (A) (A) (A) (A) (A) (A)
                 (A) (A) (A) (A) (A) (A) (A) (A) (A) (A) (A) (A)
                 (A) (A) (A) (A) (A) (A) (A) (A) (A) (A) (A) (A)
                 (A) (A) (A) (A) (A) (A) (A) (A) (A) (A) (A) (A)
                 (A) (A) (A) (A) (A) (A) (A) (A) (A) (A) (A) (A)
                 (A) (A) (A) (A) (A) (A) (A) (A) (A) (A) (A) (A)
                 (A) (A) (A) (A) (A) (A) (A) (A) (A) (A) (A) (A)
                 (A) (A) (A) (A) (A) (A) (A) (A) (A) (A) (A) (A)
                 (A) (A) (A) (A) (A) (A) (A) (A) (A) (A) (A) (A)
                 (A) (A) (A) (A) (A) (A) (A) (A) (A) (A) (A) (A)
                 (A) (A) (A) (A) (A) (A) (A) (A) (A) (A) (A) (A)
                 (A) (A) (A) (A) (A) (A) (A) (A) (A) (A) (A) (A)
                 (A) (A) (A) (A) (A) (A) (A) (A) (A) (A) (A) (A)
                 (A) (A) (A) (A) (A) (A) (A) (A) (A) (A) (A) (A)
                 (A) (A) (A) (A) (A) (A) (A) (A) (A) (A) (A) (A)
                 (A) (A) (A) (A) (A) (A) (A) (A) (A) (A) (A) (A)
                 (A) (A) (A) (A) (A) (A) (A) (A) (A) (A) (A) (A)
                 (A) (A) (A) (A) (A) (A) (A) (A) (A) (A) (A) (A)
                 (A) (A) (A) (A) (A) (A) (A) (A) (A) (A) (A) (A)
                 (A) (A) (A) (A) (A) (A) (A) (A) (A) (A) (A) (A)
                 (A) (A) (A) (A) (A) (A) (A) (A) (A) (A) (A) (A)
                 (A) (A) (A) (A) (A) (A) (A) (A) (A) (A) (A) (A)
                 (A) (A) (A) (A) (A) (A) (A) (A) (A) (A) (A) (A)
                 (A) (A) (A) (A) (A) (A) (A) (A) (A) (A) (A) (A)
                 (A) (A) (A) (A) (A) (A) (A) (A) (A) (A) (A) (A)
                 (A) (A) (A) (A) (A) (A) (A) (A) (A) (A) (A) (A)
                 (A) (A) (A) (A) (A) (A) (A) (A) (A) (A) (A) (A)
                 (A) (A) (A) (A) (A) (A) (A) (A) (A) (A) (A) (A)
                 (A) (A) (A) (A) (A) (A) (A) (A) (A) (A) (A) (A)
                 (A) (A) (A) (A) (A) (A) (A) (A) (A) (A) (A) (A)
                 (A) (A) (A) (A) (A) (A) (A) (A) (A) (A) (A) (A)
                 (A) (A) (A) (A) (A) (A) (A) (A) (A) (A) (A) (A)
                 (A) (A) (A) (A) (A) (A) (A) (A) (A) (A) (A) (A)
                 (A) (A) (A) (A) (A) (A) (A) (A) (A) (A) (A) (A)
                 (A) (A) (A) (A) (A) (A) (A) (A) (A) (A) (A) (A)
                 (A) (A) (A) (A) (A) (A) (A) (A) (A) (A) (A) (A)
                 (A) (A) (A) (A) (A) (A) (A) (A) (A) (A) (A) (A)
                 (A) (A) (A) (A) (A) (A) (A) (A) (A) (A) (A) (A)
                 (A) (A) (A) (A) (A)
 The electronic state of the initial guess is 1-A.
 Requested convergence on RMS density matrix=1.00D-08 within 128 cycles.
 Requested convergence on MAX density matrix=1.00D-06.
 Requested convergence on             energy=1.00D-06.
 No special actions if energy rises.
 Initial convergence to 1.0D-05 achieved.  Increase integral accuracy.
 SCF Done:  E(RHF) =  -984.693613662     A.U. after   14 cycles
             Convg  =    0.9576D-08             -V/T =  2.0017
 ExpMin= 2.97D-02 ExpMax= 1.17D+04 ExpMxC= 4.01D+02 IAcc=3 IRadAn=         5 AccDes= 0.00D+00
 HarFok:  IExCor=  205 AccDes= 0.00D+00 IRadAn=         5 IDoV=-2
 ScaDFX=  1.000000  1.000000  1.000000  1.000000
 Range of M.O.s used for correlation:    21   658
 NBasis=   658 NAE=    77 NBE=    77 NFC=    20 NFV=     0
 NROrb=    638 NOA=    57 NOB=    57 NVA=   581 NVB=   581

 **** Warning!!: The largest alpha MO coefficient is  0.81921712D+02

 Disk-based method using OVN memory for 57 occupieds at a time.
 Estimated scratch disk usage= 21040582818 words.
 Actual    scratch disk usage= 21038901922 words.
 GetIJB would need an additional    27855646 words of memory to use all   8 processors.
 JobTyp=1 Pass  1:  I=   1 to  57 NPSUse=  1 ParTrn=F ParDer=F DoDerP=F.
 Spin components of T(2) and E(2):
     alpha-alpha T2 =       0.1373630405D+00 E2=     -0.4160091406D+00
     alpha-beta  T2 =       0.7470853059D+00 E2=     -0.2364297181D+01
     beta-beta   T2 =       0.1373630405D+00 E2=     -0.4160091406D+00
 ANorm=    0.1421904141D+01
 E2 =    -0.3196315462D+01 EUMP2 =    -0.98788992912475D+03

 **********************************************************************

            Population analysis using the SCF density.

 **********************************************************************

 Orbital symmetries:
       Occupied  (A) (A) (A) (A) (A) (A) (A) (A) (A) (A) (A) (A)
                 (A) (A) (A) (A) (A) (A) (A) (A) (A) (A) (A) (A)
                 (A) (A) (A) (A) (A) (A) (A) (A) (A) (A) (A) (A)
                 (A) (A) (A) (A) (A) (A) (A) (A) (A) (A) (A) (A)
                 (A) (A) (A) (A) (A) (A) (A) (A) (A) (A) (A) (A)
                 (A) (A) (A) (A) (A) (A) (A) (A) (A) (A) (A) (A)
                 (A) (A) (A) (A) (A)
       Virtual   (A) (A) (A) (A) (A) (A) (A) (A) (A) (A) (A) (A)
                 (A) (A) (A) (A) (A) (A) (A) (A) (A) (A) (A) (A)
                 (A) (A) (A) (A) (A) (A) (A) (A) (A) (A) (A) (A)
                 (A) (A) (A) (A) (A) (A) (A) (A) (A) (A) (A) (A)
                 (A) (A) (A) (A) (A) (A) (A) (A) (A) (A) (A) (A)
                 (A) (A) (A) (A) (A) (A) (A) (A) (A) (A) (A) (A)
                 (A) (A) (A) (A) (A) (A) (A) (A) (A) (A) (A) (A)
                 (A) (A) (A) (A) (A) (A) (A) (A) (A) (A) (A) (A)
                 (A) (A) (A) (A) (A) (A) (A) (A) (A) (A) (A) (A)
                 (A) (A) (A) (A) (A) (A) (A) (A) (A) (A) (A) (A)
                 (A) (A) (A) (A) (A) (A) (A) (A) (A) (A) (A) (A)
                 (A) (A) (A) (A) (A) (A) (A) (A) (A) (A) (A) (A)
                 (A) (A) (A) (A) (A) (A) (A) (A) (A) (A) (A) (A)
                 (A) (A) (A) (A) (A) (A) (A) (A) (A) (A) (A) (A)
                 (A) (A) (A) (A) (A) (A) (A) (A) (A) (A) (A) (A)
                 (A) (A) (A) (A) (A) (A) (A) (A) (A) (A) (A) (A)
                 (A) (A) (A) (A) (A) (A) (A) (A) (A) (A) (A) (A)
                 (A) (A) (A) (A) (A) (A) (A) (A) (A) (A) (A) (A)
                 (A) (A) (A) (A) (A) (A) (A) (A) (A) (A) (A) (A)
                 (A) (A) (A) (A) (A) (A) (A) (A) (A) (A) (A) (A)
                 (A) (A) (A) (A) (A) (A) (A) (A) (A) (A) (A) (A)
                 (A) (A) (A) (A) (A) (A) (A) (A) (A) (A) (A) (A)
                 (A) (A) (A) (A) (A) (A) (A) (A) (A) (A) (A) (A)
                 (A) (A) (A) (A) (A) (A) (A) (A) (A) (A) (A) (A)
                 (A) (A) (A) (A) (A) (A) (A) (A) (A) (A) (A) (A)
                 (A) (A) (A) (A) (A) (A) (A) (A) (A) (A) (A) (A)
                 (A) (A) (A) (A) (A) (A) (A) (A) (A) (A) (A) (A)
                 (A) (A) (A) (A) (A) (A) (A) (A) (A) (A) (A) (A)
                 (A) (A) (A) (A) (A) (A) (A) (A) (A) (A) (A) (A)
                 (A) (A) (A) (A) (A) (A) (A) (A) (A) (A) (A) (A)
                 (A) (A) (A) (A) (A) (A) (A) (A) (A) (A) (A) (A)
                 (A) (A) (A) (A) (A) (A) (A) (A) (A) (A) (A) (A)
                 (A) (A) (A) (A) (A) (A) (A) (A) (A) (A) (A) (A)
                 (A) (A) (A) (A) (A) (A) (A) (A) (A) (A) (A) (A)
                 (A) (A) (A) (A) (A) (A) (A) (A) (A) (A) (A) (A)
                 (A) (A) (A) (A) (A) (A) (A) (A) (A) (A) (A) (A)
                 (A) (A) (A) (A) (A) (A) (A) (A) (A) (A) (A) (A)
                 (A) (A) (A) (A) (A) (A) (A) (A) (A) (A) (A) (A)
                 (A) (A) (A) (A) (A) (A) (A) (A) (A) (A) (A) (A)
                 (A) (A) (A) (A) (A) (A) (A) (A) (A) (A) (A) (A)
                 (A) (A) (A) (A) (A) (A) (A) (A) (A) (A) (A) (A)
                 (A) (A) (A) (A) (A) (A) (A) (A) (A) (A) (A) (A)
                 (A) (A) (A) (A) (A) (A) (A) (A) (A) (A) (A) (A)
                 (A) (A) (A) (A) (A) (A) (A) (A) (A) (A) (A) (A)
                 (A) (A) (A) (A) (A) (A) (A) (A) (A) (A) (A) (A)
                 (A) (A) (A) (A) (A) (A) (A) (A) (A) (A) (A) (A)
                 (A) (A) (A) (A) (A) (A) (A) (A) (A) (A) (A) (A)
                 (A) (A) (A) (A) (A) (A) (A) (A) (A) (A) (A) (A)
                 (A) (A) (A) (A) (A)
 The electronic state is 1-A.
 Alpha  occ. eigenvalues --  -20.55624 -20.53584 -20.53273 -20.52567 -15.61924
 Alpha  occ. eigenvalues --  -15.60224 -15.59167 -15.58412 -11.38298 -11.36470
 Alpha  occ. eigenvalues --  -11.36166 -11.36012 -11.30562 -11.30009 -11.29125
 Alpha  occ. eigenvalues --  -11.27285 -11.24315 -11.24167 -11.24113 -11.23672
 Alpha  occ. eigenvalues --   -1.41117  -1.39235  -1.38354  -1.37950  -1.26055
 Alpha  occ. eigenvalues --   -1.23976  -1.23852  -1.23219  -1.07591  -1.04807
 Alpha  occ. eigenvalues --   -1.03220  -0.98794  -0.96108  -0.91711  -0.90057
 Alpha  occ. eigenvalues --   -0.86442  -0.82161  -0.79665  -0.78963  -0.78295
 Alpha  occ. eigenvalues --   -0.74752  -0.72231  -0.68938  -0.68597  -0.67075
 Alpha  occ. eigenvalues --   -0.65831  -0.65190  -0.63647  -0.63496  -0.62939
 Alpha  occ. eigenvalues --   -0.61400  -0.60805  -0.60132  -0.59173  -0.58615
 Alpha  occ. eigenvalues --   -0.58240  -0.56756  -0.55813  -0.55499  -0.55128
 Alpha  occ. eigenvalues --   -0.54852  -0.54339  -0.54263  -0.53258  -0.53036
 Alpha  occ. eigenvalues --   -0.52510  -0.51869  -0.50142  -0.49637  -0.45776
 Alpha  occ. eigenvalues --   -0.44351  -0.43015  -0.42201  -0.40362  -0.40036
 Alpha  occ. eigenvalues --   -0.39058  -0.38484
 Alpha virt. eigenvalues --    0.02860   0.03235   0.03841   0.03964   0.04563
 Alpha virt. eigenvalues --    0.04886   0.05062   0.05613   0.05870   0.06326
 Alpha virt. eigenvalues --    0.06597   0.07141   0.07260   0.07806   0.08062
 Alpha virt. eigenvalues --    0.08225   0.08451   0.09411   0.10047   0.10420
 Alpha virt. eigenvalues --    0.10776   0.11478   0.11601   0.11913   0.12806
 Alpha virt. eigenvalues --    0.13293   0.13543   0.13679   0.14110   0.14362
 Alpha virt. eigenvalues --    0.14599   0.14915   0.14941   0.15383   0.15565
 Alpha virt. eigenvalues --    0.15826   0.15893   0.16103   0.16479   0.16666
 Alpha virt. eigenvalues --    0.16988   0.17102   0.17640   0.17803   0.18026
 Alpha virt. eigenvalues --    0.18425   0.18545   0.18892   0.19226   0.19240
 Alpha virt. eigenvalues --    0.19486   0.19911   0.20009   0.20312   0.20400
 Alpha virt. eigenvalues --    0.20719   0.21099   0.21406   0.21705   0.22386
 Alpha virt. eigenvalues --    0.22759   0.22937   0.23647   0.23940   0.24046
 Alpha virt. eigenvalues --    0.24353   0.24889   0.25134   0.25741   0.25957
 Alpha virt. eigenvalues --    0.26565   0.27225   0.27537   0.27825   0.28569
 Alpha virt. eigenvalues --    0.29027   0.29135   0.29329   0.29885   0.30468
 Alpha virt. eigenvalues --    0.30743   0.31162   0.31293   0.31622   0.31927
 Alpha virt. eigenvalues --    0.33005   0.33339   0.33682   0.33785   0.33839
 Alpha virt. eigenvalues --    0.34140   0.34570   0.34870   0.35305   0.35430
 Alpha virt. eigenvalues --    0.35642   0.36162   0.36295   0.36427   0.36939
 Alpha virt. eigenvalues --    0.37606   0.37998   0.38319   0.38543   0.38780
 Alpha virt. eigenvalues --    0.38921   0.39457   0.39646   0.39891   0.40280
 Alpha virt. eigenvalues --    0.40306   0.41006   0.41512   0.41883   0.42053
 Alpha virt. eigenvalues --    0.42247   0.42837   0.43019   0.43357   0.43767
 Alpha virt. eigenvalues --    0.43950   0.44254   0.44685   0.44909   0.45403
 Alpha virt. eigenvalues --    0.45949   0.46366   0.46439   0.46696   0.47056
 Alpha virt. eigenvalues --    0.47249   0.47661   0.47835   0.48302   0.48356
 Alpha virt. eigenvalues --    0.48920   0.48961   0.49381   0.49719   0.50192
 Alpha virt. eigenvalues --    0.50392   0.50730   0.50963   0.51438   0.52025
 Alpha virt. eigenvalues --    0.52283   0.52444   0.52865   0.53359   0.53536
 Alpha virt. eigenvalues --    0.54110   0.54355   0.54820   0.54913   0.55172
 Alpha virt. eigenvalues --    0.55826   0.55975   0.56134   0.56583   0.56787
 Alpha virt. eigenvalues --    0.57692   0.58093   0.58321   0.58698   0.59040
 Alpha virt. eigenvalues --    0.59342   0.59585   0.60042   0.60449   0.60734
 Alpha virt. eigenvalues --    0.61344   0.61675   0.61850   0.62345   0.62892
 Alpha virt. eigenvalues --    0.63006   0.63307   0.63395   0.64013   0.64181
 Alpha virt. eigenvalues --    0.64422   0.65006   0.65278   0.65478   0.66083
 Alpha virt. eigenvalues --    0.66193   0.66248   0.66717   0.67288   0.67653
 Alpha virt. eigenvalues --    0.68200   0.68468   0.68620   0.68853   0.69600
 Alpha virt. eigenvalues --    0.69907   0.69930   0.70712   0.71052   0.71342
 Alpha virt. eigenvalues --    0.71793   0.72417   0.72623   0.73017   0.73265
 Alpha virt. eigenvalues --    0.73715   0.74176   0.74640   0.74708   0.74749
 Alpha virt. eigenvalues --    0.75117   0.75883   0.75968   0.76441   0.77141
 Alpha virt. eigenvalues --    0.77236   0.77583   0.78131   0.78549   0.78809
 Alpha virt. eigenvalues --    0.79694   0.80266   0.80568   0.81056   0.81366
 Alpha virt. eigenvalues --    0.81844   0.82392   0.82673   0.83094   0.83419
 Alpha virt. eigenvalues --    0.84102   0.84375   0.84725   0.84975   0.85269
 Alpha virt. eigenvalues --    0.85755   0.86476   0.86891   0.87281   0.87668
 Alpha virt. eigenvalues --    0.88150   0.88574   0.89084   0.89338   0.90073
 Alpha virt. eigenvalues --    0.91486   0.92087   0.92307   0.92385   0.92868
 Alpha virt. eigenvalues --    0.93287   0.93589   0.94203   0.94665   0.95819
 Alpha virt. eigenvalues --    0.96008   0.96406   0.97076   0.97790   0.98603
 Alpha virt. eigenvalues --    0.98985   0.99197   0.99460   0.99974   1.01094
 Alpha virt. eigenvalues --    1.01527   1.01721   1.02211   1.02289   1.02865
 Alpha virt. eigenvalues --    1.04203   1.04685   1.05001   1.05388   1.06043
 Alpha virt. eigenvalues --    1.06713   1.07677   1.08474   1.08733   1.09279
 Alpha virt. eigenvalues --    1.10299   1.10827   1.10870   1.12444   1.12923
 Alpha virt. eigenvalues --    1.13128   1.13351   1.14090   1.14391   1.15104
 Alpha virt. eigenvalues --    1.15583   1.15817   1.17417   1.17629   1.18175
 Alpha virt. eigenvalues --    1.18611   1.18955   1.19759   1.20032   1.20974
 Alpha virt. eigenvalues --    1.21346   1.22171   1.22697   1.24604   1.24823
 Alpha virt. eigenvalues --    1.25334   1.25898   1.26135   1.27353   1.27771
 Alpha virt. eigenvalues --    1.28489   1.29215   1.29812   1.31496   1.31977
 Alpha virt. eigenvalues --    1.32487   1.32964   1.34173   1.35286   1.35613
 Alpha virt. eigenvalues --    1.35811   1.37248   1.38340   1.38491   1.38752
 Alpha virt. eigenvalues --    1.39019   1.40612   1.41040   1.42317   1.43629
 Alpha virt. eigenvalues --    1.44138   1.44718   1.45659   1.46976   1.48067
 Alpha virt. eigenvalues --    1.48397   1.49161   1.50319   1.51632   1.53282
 Alpha virt. eigenvalues --    1.53785   1.54687   1.55177   1.56399   1.57602
 Alpha virt. eigenvalues --    1.58216   1.59137   1.59237   1.61040   1.61683
 Alpha virt. eigenvalues --    1.63604   1.64060   1.64932   1.65941   1.66799
 Alpha virt. eigenvalues --    1.68283   1.68869   1.69188   1.70835   1.71483
 Alpha virt. eigenvalues --    1.72011   1.73235   1.73949   1.74265   1.74886
 Alpha virt. eigenvalues --    1.75679   1.77020   1.77704   1.78262   1.78656
 Alpha virt. eigenvalues --    1.79437   1.79959   1.81430   1.82337   1.83559
 Alpha virt. eigenvalues --    1.84703   1.85064   1.85665   1.87437   1.88537
 Alpha virt. eigenvalues --    1.88720   1.88834   1.89355   1.90088   1.90902
 Alpha virt. eigenvalues --    1.91026   1.91554   1.91994   1.92865   1.93126
 Alpha virt. eigenvalues --    1.93764   1.94621   1.94738   1.96162   1.96765
 Alpha virt. eigenvalues --    1.97267   1.98299   1.99621   2.00423   2.00913
 Alpha virt. eigenvalues --    2.01401   2.02485   2.02978   2.03109   2.04571
 Alpha virt. eigenvalues --    2.05446   2.05688   2.06949   2.07318   2.08082
 Alpha virt. eigenvalues --    2.09264   2.10190   2.10813   2.11356   2.12271
 Alpha virt. eigenvalues --    2.12696   2.13382   2.14481   2.14852   2.15215
 Alpha virt. eigenvalues --    2.15642   2.16637   2.17160   2.18634   2.19171
 Alpha virt. eigenvalues --    2.20291   2.21816   2.21987   2.22179   2.23985
 Alpha virt. eigenvalues --    2.24603   2.25342   2.25929   2.26069   2.26597
 Alpha virt. eigenvalues --    2.27187   2.28357   2.28812   2.29149   2.29802
 Alpha virt. eigenvalues --    2.30701   2.31620   2.32207   2.33234   2.33667
 Alpha virt. eigenvalues --    2.34206   2.35159   2.36733   2.37296   2.37463
 Alpha virt. eigenvalues --    2.37846   2.38199   2.39029   2.39936   2.40518
 Alpha virt. eigenvalues --    2.41206   2.42077   2.42537   2.43233   2.44491
 Alpha virt. eigenvalues --    2.44867   2.45670   2.46513   2.47750   2.49334
 Alpha virt. eigenvalues --    2.50777   2.51645   2.52054   2.53378   2.53851
 Alpha virt. eigenvalues --    2.54933   2.55497   2.55844   2.56769   2.57107
 Alpha virt. eigenvalues --    2.57989   2.58748   2.59942   2.61522   2.61879
 Alpha virt. eigenvalues --    2.63307   2.63727   2.63810   2.64396   2.65425
 Alpha virt. eigenvalues --    2.65992   2.67893   2.68461   2.69002   2.70304
 Alpha virt. eigenvalues --    2.71251   2.72707   2.72834   2.73590   2.74615
 Alpha virt. eigenvalues --    2.75537   2.76482   2.77159   2.78241   2.79029
 Alpha virt. eigenvalues --    2.80510   2.80606   2.81926   2.82571   2.85971
 Alpha virt. eigenvalues --    2.87285   2.88106   2.88785   2.89550   2.89856
 Alpha virt. eigenvalues --    2.90599   2.92086   2.92705   2.94672   2.95158
 Alpha virt. eigenvalues --    2.95993   2.96334   2.97480   2.99140   3.00012
 Alpha virt. eigenvalues --    3.00662   3.01996   3.03265   3.04078   3.05451
 Alpha virt. eigenvalues --    3.06648   3.06795   3.08234   3.09081   3.13005
 Alpha virt. eigenvalues --    3.13489   3.14552   3.16253   3.16797   3.18664
 Alpha virt. eigenvalues --    3.19930   3.20721   3.22726   3.23168   3.24716
 Alpha virt. eigenvalues --    3.26774   3.31349   3.33543   3.38323   3.41026
 Alpha virt. eigenvalues --    3.44583   3.46054   3.47675   3.53556   3.55157
 Alpha virt. eigenvalues --    3.58770   3.63246   3.64331   3.65798   3.73270
 Alpha virt. eigenvalues --    3.75914   3.77974   3.83498   3.83650   3.85236
 Alpha virt. eigenvalues --    3.86287   3.86821   3.88482   3.89335   3.93005
 Alpha virt. eigenvalues --    3.97524   3.98043   4.00870   4.03417   4.04798
 Alpha virt. eigenvalues --    4.05567   4.08773   4.11013   4.12995   4.18089
 Alpha virt. eigenvalues --    4.21189   4.21774   4.24871   4.29158   4.32340
 Alpha virt. eigenvalues --    4.41065
          Condensed to atoms (all electrons):
              1          2          3          4          5          6
     1  H    0.734716   0.373643  -0.054680  -0.069102  -0.084953   0.022553
     2  C    0.373643   4.583169   0.369445   0.328309   0.144113  -0.054257
     3  H   -0.054680   0.369445   0.734733  -0.084814  -0.099287   0.021715
     4  H   -0.069102   0.328309  -0.084814   1.135871   0.167438  -0.012996
     5  C   -0.084953   0.144113  -0.099287   0.167438   5.956584   0.186059
     6  O    0.022553  -0.054257   0.021715  -0.012996   0.186059   8.745821
     7  N    0.031870  -0.045361   0.082812  -0.264466  -0.128817  -0.105106
     8  H   -0.003084  -0.072492  -0.005521   0.000069  -0.160253  -0.009114
     9  C    0.017533  -0.071836  -0.033179   0.019904  -0.076513  -0.002385
    10  H    0.002115   0.007559  -0.004395   0.002615   0.097010  -0.003401
    11  C   -0.002651  -0.011828   0.003642  -0.020053  -0.193693   0.041951
    12  H   -0.000630   0.002781   0.000538  -0.002113  -0.000724  -0.001927
    13  H    0.000534  -0.001952   0.000104  -0.002299  -0.052272   0.005485
    14  H   -0.000096   0.013310  -0.000967   0.003319   0.037184   0.023791
    15  C   -0.008779   0.062213   0.024888  -0.027369  -0.198354   0.002941
    16  O    0.000389  -0.007072  -0.000814  -0.002234  -0.030158   0.000651
    17  N   -0.000773  -0.006042  -0.001160   0.003734  -0.022990   0.011819
    18  H   -0.000060  -0.000303  -0.000271   0.000310  -0.002834   0.001080
    19  C   -0.000216   0.000846   0.000015   0.000910  -0.013882   0.002072
    20  H   -0.000011  -0.000159  -0.000008   0.000065  -0.000748  -0.000150
    21  C    0.000012   0.000371   0.000038   0.000011   0.005380   0.000180
    22  H    0.000003   0.000035   0.000008   0.000003   0.001072  -0.000082
    23  H   -0.000001   0.000031   0.000002   0.000017   0.000241   0.000039
    24  H    0.000004  -0.000070  -0.000003  -0.000046  -0.000669  -0.000084
    25  C   -0.000018   0.001390   0.000023   0.000414   0.001261   0.000891
    26  O    0.000003  -0.000015  -0.000003  -0.000020  -0.000177  -0.000003
    27  N    0.000070   0.000399   0.000008   0.000039   0.005046  -0.000291
    28  H    0.000023   0.001481   0.000228  -0.000660  -0.005344   0.000739
    29  C    0.000046  -0.000117  -0.000005  -0.000398  -0.000795   0.000024
    30  H    0.000000  -0.000016   0.000000  -0.000018  -0.000177   0.000003
    31  C   -0.000001  -0.000070  -0.000018   0.000109   0.000751  -0.000006
    32  H    0.000019   0.000365   0.000012   0.000186   0.001221  -0.000152
    33  H    0.000000  -0.000017  -0.000001   0.000008   0.000209   0.000002
    34  H   -0.000005  -0.000080  -0.000007   0.000003  -0.000225  -0.000015
    35  C   -0.000043  -0.000422  -0.000004   0.000159   0.000287  -0.000033
    36  O    0.000004   0.000138   0.000001   0.000180   0.000649   0.000006
    37  N    0.000001   0.000011   0.000000   0.000008   0.000039   0.000000
    38  H    0.000000   0.000005   0.000000   0.000005   0.000019   0.000000
    39  C   -0.000002  -0.000023  -0.000001  -0.000031   0.000022   0.000000
    40  H   -0.000001  -0.000003   0.000000  -0.000012  -0.000026   0.000000
    41  H    0.000000  -0.000003   0.000000  -0.000002   0.000005   0.000000
    42  H    0.000000   0.000000   0.000000  -0.000001  -0.000004   0.000000
              7          8          9         10         11         12
     1  H    0.031870  -0.003084   0.017533   0.002115  -0.002651  -0.000630
     2  C   -0.045361  -0.072492  -0.071836   0.007559  -0.011828   0.002781
     3  H    0.082812  -0.005521  -0.033179  -0.004395   0.003642   0.000538
     4  H   -0.264466   0.000069   0.019904   0.002615  -0.020053  -0.002113
     5  C   -0.128817  -0.160253  -0.076513   0.097010  -0.193693  -0.000724
     6  O   -0.105106  -0.009114  -0.002385  -0.003401   0.041951  -0.001927
     7  N    8.003556   0.270289  -1.026917  -0.239179   0.155219  -0.152859
     8  H    0.270289   0.972061   0.192411   0.013152  -0.004752   0.002992
     9  C   -1.026917   0.192411   9.597538   0.151626  -0.356245   0.177503
    10  H   -0.239179   0.013152   0.151626   1.477759  -0.030625   0.097183
    11  C    0.155219  -0.004752  -0.356245  -0.030625   4.500248   0.252317
    12  H   -0.152859   0.002992   0.177503   0.097183   0.252317   1.176340
    13  H    0.149835   0.003648  -0.320715  -0.095523   0.299935  -0.146859
    14  H   -0.003955  -0.010030  -0.083344  -0.045378   0.370138  -0.242484
    15  C    0.214123  -0.112308  -1.910764   0.097808   0.053023  -0.038000
    16  O   -0.077832   0.075036   0.152726  -0.022924  -0.000680   0.017611
    17  N    0.038572  -0.016936   0.072106  -0.229022   0.045343  -0.056925
    18  H    0.018906   0.001379  -0.087120  -0.000857  -0.017857  -0.001228
    19  C    0.107733  -0.025960  -0.370953  -0.089227   0.084000  -0.031058
    20  H    0.004108  -0.000094  -0.007748  -0.005137  -0.008381  -0.003140
    21  C    0.007214   0.000014  -0.003871   0.001643  -0.006961  -0.003358
    22  H    0.001687  -0.000008   0.000303   0.000173  -0.005833  -0.001251
    23  H   -0.000510  -0.000367   0.022450   0.000289  -0.002343  -0.000269
    24  H    0.000894   0.000334  -0.039269   0.000736   0.007436   0.000678
    25  C   -0.010416  -0.007285   0.063404  -0.002133  -0.005229   0.011756
    26  O   -0.001038   0.000842  -0.000831   0.000738  -0.001940  -0.000147
    27  N    0.016347  -0.001592  -0.046594  -0.001178  -0.022941  -0.025114
    28  H   -0.017104  -0.002596  -0.005347   0.007221   0.002268   0.005904
    29  C   -0.003082   0.006399   0.031279   0.000701   0.004654   0.022232
    30  H    0.000010   0.000011   0.002359  -0.000136   0.000605   0.000369
    31  C    0.004187  -0.001077  -0.019761  -0.000702  -0.000858  -0.005526
    32  H    0.000540  -0.000798   0.012024  -0.000888  -0.005122  -0.004000
    33  H    0.001267  -0.000045  -0.001490  -0.000099  -0.000668  -0.001076
    34  H   -0.001060   0.000309  -0.008147   0.000063   0.005219   0.000583
    35  C    0.006863  -0.002081  -0.039584  -0.001166  -0.000515  -0.012314
    36  O    0.002150  -0.001775   0.007429   0.000122   0.000741   0.001093
    37  N    0.000426  -0.000379  -0.000441  -0.000069   0.000238   0.000146
    38  H   -0.000052  -0.000031   0.000052   0.000011  -0.000071   0.000041
    39  C    0.000394   0.000194  -0.001481  -0.000047   0.000216  -0.000259
    40  H   -0.000040   0.000152  -0.000164  -0.000007   0.000065  -0.000037
    41  H    0.000032   0.000005  -0.000114  -0.000004   0.000013  -0.000017
    42  H   -0.000005  -0.000017   0.000023   0.000000  -0.000010   0.000021
             13         14         15         16         17         18
     1  H    0.000534  -0.000096  -0.008779   0.000389  -0.000773  -0.000060
     2  C   -0.001952   0.013310   0.062213  -0.007072  -0.006042  -0.000303
     3  H    0.000104  -0.000967   0.024888  -0.000814  -0.001160  -0.000271
     4  H   -0.002299   0.003319  -0.027369  -0.002234   0.003734   0.000310
     5  C   -0.052272   0.037184  -0.198354  -0.030158  -0.022990  -0.002834
     6  O    0.005485   0.023791   0.002941   0.000651   0.011819   0.001080
     7  N    0.149835  -0.003955   0.214123  -0.077832   0.038572   0.018906
     8  H    0.003648  -0.010030  -0.112308   0.075036  -0.016936   0.001379
     9  C   -0.320715  -0.083344  -1.910764   0.152726   0.072106  -0.087120
    10  H   -0.095523  -0.045378   0.097808  -0.022924  -0.229022  -0.000857
    11  C    0.299935   0.370138   0.053023  -0.000680   0.045343  -0.017857
    12  H   -0.146859  -0.242484  -0.038000   0.017611  -0.056925  -0.001228
    13  H    1.366227  -0.216024   0.003179  -0.001327   0.038624   0.005967
    14  H   -0.216024   1.129336   0.109378  -0.008937   0.023061  -0.004308
    15  C    0.003179   0.109378   8.639371  -0.022092  -0.520869   0.060742
    16  O   -0.001327  -0.008937  -0.022092   8.921593  -0.171238  -0.018247
    17  N    0.038624   0.023061  -0.520869  -0.171238   8.108899   0.238065
    18  H    0.005967  -0.004308   0.060742  -0.018247   0.238065   0.972384
    19  C    0.049343   0.006683  -0.548571   0.089004  -0.710331  -0.110456
    20  H    0.000368  -0.000319  -0.065864   0.011952   0.063249   0.015450
    21  C   -0.001911   0.001375  -0.123353   0.018605   0.024629  -0.002250
    22  H   -0.002559   0.000116  -0.067177   0.002215  -0.037960   0.014809
    23  H    0.001067  -0.000059  -0.041716   0.000168   0.165884  -0.010101
    24  H   -0.000642   0.000406   0.090824   0.000226  -0.177629  -0.002121
    25  C   -0.001954  -0.002859  -0.509372   0.070662   0.567829  -0.066429
    26  O    0.000060  -0.000063   0.095749  -0.010560  -0.013415   0.000833
    27  N   -0.004915   0.001854  -0.005681  -0.077625  -0.144056   0.033188
    28  H   -0.005227   0.001851   0.044092   0.040789   0.048630  -0.011621
    29  C    0.003140  -0.000540   0.153640  -0.022123   0.099116  -0.000513
    30  H    0.000594  -0.000201  -0.012268   0.001483   0.004800  -0.000242
    31  C    0.003113  -0.000336  -0.037163   0.005920  -0.006126   0.004669
    32  H   -0.000017  -0.000305  -0.028210   0.000499   0.002827   0.001942
    33  H    0.000186  -0.000157  -0.011691   0.000103  -0.001670   0.000063
    34  H    0.000588   0.000650   0.038473  -0.001115  -0.002455  -0.000579
    35  C   -0.001202   0.000781  -0.041317   0.017973  -0.061870   0.000845
    36  O    0.000209   0.000042  -0.026455   0.003604   0.012064  -0.000243
    37  N   -0.000026   0.000002  -0.001541   0.000109   0.001484   0.000286
    38  H   -0.000055   0.000007   0.000170  -0.000150  -0.000290   0.000007
    39  C   -0.000003   0.000021  -0.001444   0.000266  -0.000483   0.000037
    40  H    0.000000   0.000008   0.000276   0.000028  -0.000161  -0.000001
    41  H   -0.000003   0.000001   0.000125  -0.000007  -0.000090   0.000014
    42  H   -0.000001  -0.000001  -0.000086   0.000005   0.000009  -0.000002
             19         20         21         22         23         24
     1  H   -0.000216  -0.000011   0.000012   0.000003  -0.000001   0.000004
     2  C    0.000846  -0.000159   0.000371   0.000035   0.000031  -0.000070
     3  H    0.000015  -0.000008   0.000038   0.000008   0.000002  -0.000003
     4  H    0.000910   0.000065   0.000011   0.000003   0.000017  -0.000046
     5  C   -0.013882  -0.000748   0.005380   0.001072   0.000241  -0.000669
     6  O    0.002072  -0.000150   0.000180  -0.000082   0.000039  -0.000084
     7  N    0.107733   0.004108   0.007214   0.001687  -0.000510   0.000894
     8  H   -0.025960  -0.000094   0.000014  -0.000008  -0.000367   0.000334
     9  C   -0.370953  -0.007748  -0.003871   0.000303   0.022450  -0.039269
    10  H   -0.089227  -0.005137   0.001643   0.000173   0.000289   0.000736
    11  C    0.084000  -0.008381  -0.006961  -0.005833  -0.002343   0.007436
    12  H   -0.031058  -0.003140  -0.003358  -0.001251  -0.000269   0.000678
    13  H    0.049343   0.000368  -0.001911  -0.002559   0.001067  -0.000642
    14  H    0.006683  -0.000319   0.001375   0.000116  -0.000059   0.000406
    15  C   -0.548571  -0.065864  -0.123353  -0.067177  -0.041716   0.090824
    16  O    0.089004   0.011952   0.018605   0.002215   0.000168   0.000226
    17  N   -0.710331   0.063249   0.024629  -0.037960   0.165884  -0.177629
    18  H   -0.110456   0.015450  -0.002250   0.014809  -0.010101  -0.002121
    19  C    9.661853  -0.313026  -0.156007  -0.125700  -0.262948   0.418227
    20  H   -0.313026   1.312476  -0.008312   0.068782  -0.050626  -0.060678
    21  C   -0.156007  -0.008312   4.507909   0.450780   0.317320   0.075320
    22  H   -0.125700   0.068782   0.450780   1.044117  -0.174262  -0.202021
    23  H   -0.262948  -0.050626   0.317320  -0.174262   1.250812  -0.239939
    24  H    0.418227  -0.060678   0.075320  -0.202021  -0.239939   1.268260
    25  C   -1.705076   0.238080   0.243114   0.032058   0.152708  -0.131099
    26  O   -0.073936  -0.006188  -0.065813   0.015797  -0.011785   0.016236
    27  N    0.348905  -0.001579  -0.050856   0.016350  -0.020396   0.010253
    28  H   -0.251384   0.007576   0.004243  -0.005181   0.006632   0.001097
    29  C   -0.320735  -0.025177  -0.042881  -0.003222   0.002282   0.003727
    30  H   -0.011774   0.003150  -0.002572  -0.001314  -0.001923  -0.000143
    31  C   -0.026250   0.001758   0.009569   0.001206   0.002548  -0.000697
    32  H   -0.014492   0.000358   0.001654   0.000346   0.000620  -0.000534
    33  H    0.024718   0.001064   0.000984   0.000531  -0.000271   0.000123
    34  H   -0.020629  -0.001052  -0.002405  -0.002200   0.000246   0.000896
    35  C    0.138903   0.032198   0.009074   0.005047  -0.004951   0.000524
    36  O   -0.022191  -0.004639   0.000988  -0.000083   0.000357  -0.000029
    37  N    0.001709  -0.000789  -0.000099  -0.000202  -0.000173   0.000115
    38  H   -0.001118   0.000129   0.000101   0.000043   0.000147  -0.000020
    39  C    0.003831   0.000464   0.000271   0.000040  -0.000086   0.000025
    40  H    0.000463  -0.000002   0.000029   0.000007  -0.000022   0.000005
    41  H    0.000470   0.000073  -0.000025  -0.000003  -0.000016   0.000001
    42  H   -0.000014   0.000082   0.000016   0.000002   0.000003   0.000000
             25         26         27         28         29         30
     1  H   -0.000018   0.000003   0.000070   0.000023   0.000046   0.000000
     2  C    0.001390  -0.000015   0.000399   0.001481  -0.000117  -0.000016
     3  H    0.000023  -0.000003   0.000008   0.000228  -0.000005   0.000000
     4  H    0.000414  -0.000020   0.000039  -0.000660  -0.000398  -0.000018
     5  C    0.001261  -0.000177   0.005046  -0.005344  -0.000795  -0.000177
     6  O    0.000891  -0.000003  -0.000291   0.000739   0.000024   0.000003
     7  N   -0.010416  -0.001038   0.016347  -0.017104  -0.003082   0.000010
     8  H   -0.007285   0.000842  -0.001592  -0.002596   0.006399   0.000011
     9  C    0.063404  -0.000831  -0.046594  -0.005347   0.031279   0.002359
    10  H   -0.002133   0.000738  -0.001178   0.007221   0.000701  -0.000136
    11  C   -0.005229  -0.001940  -0.022941   0.002268   0.004654   0.000605
    12  H    0.011756  -0.000147  -0.025114   0.005904   0.022232   0.000369
    13  H   -0.001954   0.000060  -0.004915  -0.005227   0.003140   0.000594
    14  H   -0.002859  -0.000063   0.001854   0.001851  -0.000540  -0.000201
    15  C   -0.509372   0.095749  -0.005681   0.044092   0.153640  -0.012268
    16  O    0.070662  -0.010560  -0.077625   0.040789  -0.022123   0.001483
    17  N    0.567829  -0.013415  -0.144056   0.048630   0.099116   0.004800
    18  H   -0.066429   0.000833   0.033188  -0.011621  -0.000513  -0.000242
    19  C   -1.705076  -0.073936   0.348905  -0.251384  -0.320735  -0.011774
    20  H    0.238080  -0.006188  -0.001579   0.007576  -0.025177   0.003150
    21  C    0.243114  -0.065813  -0.050856   0.004243  -0.042881  -0.002572
    22  H    0.032058   0.015797   0.016350  -0.005181  -0.003222  -0.001314
    23  H    0.152708  -0.011785  -0.020396   0.006632   0.002282  -0.001923
    24  H   -0.131099   0.016236   0.010253   0.001097   0.003727  -0.000143
    25  C    7.083353   0.235854  -0.316329  -0.129603  -0.112498   0.108572
    26  O    0.235854   8.836629  -0.204713   0.015174   0.022339  -0.021001
    27  N   -0.316329  -0.204713   8.227426   0.036955  -1.288418  -0.150661
    28  H   -0.129603   0.015174   0.036955   1.187920   0.209203  -0.003295
    29  C   -0.112498   0.022339  -1.288418   0.209203  10.330225  -0.032422
    30  H    0.108572  -0.021001  -0.150661  -0.003295  -0.032422   1.501987
    31  C   -0.054434  -0.011982   0.302867  -0.048515  -0.592590  -0.025090
    32  H    0.068488  -0.009891  -0.130908   0.002468   0.153127   0.090408
    33  H   -0.055257   0.001471   0.203102  -0.009844  -0.484081  -0.095226
    34  H    0.067799   0.032970  -0.061504  -0.000029   0.034376  -0.040998
    35  C   -0.307897   0.016520   0.417785  -0.160341  -1.925320  -0.044718
    36  O    0.015256  -0.000560  -0.087295   0.048170   0.214773  -0.018910
    37  N   -0.001160   0.003670  -0.063804   0.017089   0.220335  -0.057569
    38  H    0.007002  -0.000466   0.015116   0.000495  -0.109328   0.033132
    39  C   -0.002004   0.001041   0.005350  -0.005198  -0.028550   0.001882
    40  H    0.001302   0.000169   0.000296  -0.000294   0.053181   0.005460
    41  H   -0.004671   0.000042  -0.002228  -0.003670  -0.016340  -0.001330
    42  H    0.004864  -0.000001   0.006134   0.001196  -0.004574  -0.004267
             31         32         33         34         35         36
     1  H   -0.000001   0.000019   0.000000  -0.000005  -0.000043   0.000004
     2  C   -0.000070   0.000365  -0.000017  -0.000080  -0.000422   0.000138
     3  H   -0.000018   0.000012  -0.000001  -0.000007  -0.000004   0.000001
     4  H    0.000109   0.000186   0.000008   0.000003   0.000159   0.000180
     5  C    0.000751   0.001221   0.000209  -0.000225   0.000287   0.000649
     6  O   -0.000006  -0.000152   0.000002  -0.000015  -0.000033   0.000006
     7  N    0.004187   0.000540   0.001267  -0.001060   0.006863   0.002150
     8  H   -0.001077  -0.000798  -0.000045   0.000309  -0.002081  -0.001775
     9  C   -0.019761   0.012024  -0.001490  -0.008147  -0.039584   0.007429
    10  H   -0.000702  -0.000888  -0.000099   0.000063  -0.001166   0.000122
    11  C   -0.000858  -0.005122  -0.000668   0.005219  -0.000515   0.000741
    12  H   -0.005526  -0.004000  -0.001076   0.000583  -0.012314   0.001093
    13  H    0.003113  -0.000017   0.000186   0.000588  -0.001202   0.000209
    14  H   -0.000336  -0.000305  -0.000157   0.000650   0.000781   0.000042
    15  C   -0.037163  -0.028210  -0.011691   0.038473  -0.041317  -0.026455
    16  O    0.005920   0.000499   0.000103  -0.001115   0.017973   0.003604
    17  N   -0.006126   0.002827  -0.001670  -0.002455  -0.061870   0.012064
    18  H    0.004669   0.001942   0.000063  -0.000579   0.000845  -0.000243
    19  C   -0.026250  -0.014492   0.024718  -0.020629   0.138903  -0.022191
    20  H    0.001758   0.000358   0.001064  -0.001052   0.032198  -0.004639
    21  C    0.009569   0.001654   0.000984  -0.002405   0.009074   0.000988
    22  H    0.001206   0.000346   0.000531  -0.002200   0.005047  -0.000083
    23  H    0.002548   0.000620  -0.000271   0.000246  -0.004951   0.000357
    24  H   -0.000697  -0.000534   0.000123   0.000896   0.000524  -0.000029
    25  C   -0.054434   0.068488  -0.055257   0.067799  -0.307897   0.015256
    26  O   -0.011982  -0.009891   0.001471   0.032970   0.016520  -0.000560
    27  N    0.302867  -0.130908   0.203102  -0.061504   0.417785  -0.087295
    28  H   -0.048515   0.002468  -0.009844  -0.000029  -0.160341   0.048170
    29  C   -0.592590   0.153127  -0.484081   0.034376  -1.925320   0.214773
    30  H   -0.025090   0.090408  -0.095226  -0.040998  -0.044718  -0.018910
    31  C    4.479627   0.253339   0.415330   0.250799   0.159761  -0.021668
    32  H    0.253339   1.094724  -0.200068  -0.186269  -0.107525   0.018440
    33  H    0.415330  -0.200068   1.371050  -0.215245   0.194623  -0.021402
    34  H    0.250799  -0.186269  -0.215245   1.160168   0.018090   0.000680
    35  C    0.159761  -0.107525   0.194623   0.018090   6.443644   0.160203
    36  O   -0.021668   0.018440  -0.021402   0.000680   0.160203   8.785858
    37  N    0.004593   0.002233  -0.001526   0.003321  -0.060525  -0.223396
    38  H   -0.016624   0.003206  -0.004335  -0.001347   0.043759   0.016484
    39  C   -0.015626  -0.007451   0.007602   0.002589  -0.097115  -0.007603
    40  H   -0.017793  -0.001721   0.000488  -0.000056  -0.058116   0.005755
    41  H    0.008776   0.001187  -0.000044   0.000267  -0.010630   0.012578
    42  H    0.004045  -0.002599   0.000554   0.000754  -0.015600   0.014181
             37         38         39         40         41         42
     1  H    0.000001   0.000000  -0.000002  -0.000001   0.000000   0.000000
     2  C    0.000011   0.000005  -0.000023  -0.000003  -0.000003   0.000000
     3  H    0.000000   0.000000  -0.000001   0.000000   0.000000   0.000000
     4  H    0.000008   0.000005  -0.000031  -0.000012  -0.000002  -0.000001
     5  C    0.000039   0.000019   0.000022  -0.000026   0.000005  -0.000004
     6  O    0.000000   0.000000   0.000000   0.000000   0.000000   0.000000
     7  N    0.000426  -0.000052   0.000394  -0.000040   0.000032  -0.000005
     8  H   -0.000379  -0.000031   0.000194   0.000152   0.000005  -0.000017
     9  C   -0.000441   0.000052  -0.001481  -0.000164  -0.000114   0.000023
    10  H   -0.000069   0.000011  -0.000047  -0.000007  -0.000004   0.000000
    11  C    0.000238  -0.000071   0.000216   0.000065   0.000013  -0.000010
    12  H    0.000146   0.000041  -0.000259  -0.000037  -0.000017   0.000021
    13  H   -0.000026  -0.000055  -0.000003   0.000000  -0.000003  -0.000001
    14  H    0.000002   0.000007   0.000021   0.000008   0.000001  -0.000001
    15  C   -0.001541   0.000170  -0.001444   0.000276   0.000125  -0.000086
    16  O    0.000109  -0.000150   0.000266   0.000028  -0.000007   0.000005
    17  N    0.001484  -0.000290  -0.000483  -0.000161  -0.000090   0.000009
    18  H    0.000286   0.000007   0.000037  -0.000001   0.000014  -0.000002
    19  C    0.001709  -0.001118   0.003831   0.000463   0.000470  -0.000014
    20  H   -0.000789   0.000129   0.000464  -0.000002   0.000073   0.000082
    21  C   -0.000099   0.000101   0.000271   0.000029  -0.000025   0.000016
    22  H   -0.000202   0.000043   0.000040   0.000007  -0.000003   0.000002
    23  H   -0.000173   0.000147  -0.000086  -0.000022  -0.000016   0.000003
    24  H    0.000115  -0.000020   0.000025   0.000005   0.000001   0.000000
    25  C   -0.001160   0.007002  -0.002004   0.001302  -0.004671   0.004864
    26  O    0.003670  -0.000466   0.001041   0.000169   0.000042  -0.000001
    27  N   -0.063804   0.015116   0.005350   0.000296  -0.002228   0.006134
    28  H    0.017089   0.000495  -0.005198  -0.000294  -0.003670   0.001196
    29  C    0.220335  -0.109328  -0.028550   0.053181  -0.016340  -0.004574
    30  H   -0.057569   0.033132   0.001882   0.005460  -0.001330  -0.004267
    31  C    0.004593  -0.016624  -0.015626  -0.017793   0.008776   0.004045
    32  H    0.002233   0.003206  -0.007451  -0.001721   0.001187  -0.002599
    33  H   -0.001526  -0.004335   0.007602   0.000488  -0.000044   0.000554
    34  H    0.003321  -0.001347   0.002589  -0.000056   0.000267   0.000754
    35  C   -0.060525   0.043759  -0.097115  -0.058116  -0.010630  -0.015600
    36  O   -0.223396   0.016484  -0.007603   0.005755   0.012578   0.014181
    37  N    7.307178   0.198644   0.257358  -0.013042  -0.068744  -0.052257
    38  H    0.198644   1.044666  -0.121522  -0.003504   0.007673   0.010666
    39  C    0.257358  -0.121522   4.114844   0.478071   0.363727   0.319654
    40  H   -0.013042  -0.003504   0.478071   0.935460  -0.119325  -0.121201
    41  H   -0.068744   0.007673   0.363727  -0.119325   1.079874  -0.151522
    42  H   -0.052257   0.010666   0.319654  -0.121201  -0.151522   1.100452
 Mulliken atomic charges:
              1
     1  H    0.041566
     2  C    0.382523
     3  H    0.046922
     4  H   -0.177054
     5  C    0.468306
     6  O   -0.877819
     7  N   -0.041235
     8  H   -0.100704
     9  C   -0.005859
    10  H   -0.186426
    11  C    0.871984
    12  H   -0.038774
    13  H   -0.076722
    14  H   -0.102954
    15  C    0.669430
    16  O   -0.956485
    17  N   -0.388256
    18  H   -0.033331
    19  C    0.266251
    20  H   -0.197555
    21  C    0.789832
    22  H   -0.026471
    23  H   -0.101102
    24  H   -0.040651
    25  C    0.449640
    26  O   -0.861586
    27  N    0.061189
    28  H   -0.026188
    29  C   -0.551091
    30  H   -0.228554
    31  C    0.989942
    32  H   -0.009283
    33  H   -0.119265
    34  H   -0.073422
    35  C    1.286251
    36  O   -0.885903
    37  N   -0.473251
    38  H   -0.122668
    39  C    0.731032
    40  H   -0.145688
    41  H   -0.096075
    42  H   -0.110496
 Sum of Mulliken atomic charges =   0.00000
 Mulliken charges with hydrogens summed into heavy atoms:
              1
     2  C    0.293958
     5  C    0.468306
     6  O   -0.877819
     7  N   -0.141939
     9  C   -0.192286
    11  C    0.653534
    15  C    0.669430
    16  O   -0.956485
    17  N   -0.421586
    19  C    0.068696
    21  C    0.621608
    25  C    0.449640
    26  O   -0.861586
    27  N    0.035001
    29  C   -0.779645
    31  C    0.787971
    35  C    1.286251
    36  O   -0.885903
    37  N   -0.595920
    39  C    0.378773
 Sum of Mulliken charges with hydrogens summed into heavy atoms =   0.00000
 Electronic spatial extent (au):  <R**2>=           8038.7918
 Charge=              0.0000 electrons
 Dipole moment (field-independent basis, Debye):
    X=              3.4584    Y=             -0.2459    Z=              0.1714  Tot=              3.4714
 Quadrupole moment (field-independent basis, Debye-Ang):
   XX=           -123.1372   YY=           -117.5486   ZZ=           -121.4505
   XY=             -9.1655   XZ=              7.6408   YZ=             -5.0973
 Traceless Quadrupole moment (field-independent basis, Debye-Ang):
   XX=             -2.4251   YY=              3.1635   ZZ=             -0.7384
   XY=             -9.1655   XZ=              7.6408   YZ=             -5.0973
 Octapole moment (field-independent basis, Debye-Ang**2):
  XXX=            304.5991  YYY=            -24.1894  ZZZ=             -2.0857  XYY=            -53.6275
  XXY=            -85.1663  XXZ=            -39.8444  XZZ=              1.2594  YZZ=              2.2812
  YYZ=            -17.0540  XYZ=            -23.4306
 Hexadecapole moment (field-independent basis, Debye-Ang**3):
 XXXX=          -7475.2248 YYYY=          -2710.7431 ZZZZ=           -738.9444 XXXY=           -181.8830
 XXXZ=            288.5420 YYYX=            -71.8686 YYYZ=            -29.5850 ZZZX=             -6.7762
 ZZZY=              1.5370 XXYY=          -1471.6669 XXZZ=          -1292.2432 YYZZ=           -573.2580
 XXYZ=             40.1410 YYXZ=            -27.0405 ZZXY=              4.7629
 N-N= 1.640125464999D+03 E-N=-5.588132326170D+03  KE= 9.830539778749D+02
 1\1\GINC-TACHIKOMA\SP\RMP2-FC\Aug-CC-pVDZ\C12H22N4O4\STEBOSS\18-Jan-20
 17\0\\#SP MP2/aug-cc-pVDZ\\Phi Psi fixed scan\\0,1\H,0,-5.2824,-3.3592
 ,0.1714\C,0,-4.8746,-2.7227,-0.6201\H,0,-5.6647,-2.5828,-1.3644\H,0,-4
 .0287,-3.2345,-1.0889\C,0,-4.5163,-1.3692,-0.0257\O,0,-5.3463,-0.6631,
 0.5408\N,0,-3.2128,-0.9945,-0.1603\H,0,-2.5395,-1.5471,-0.6779\C,0,-2.
 7363,0.2922,0.3046\H,0,-3.5006,1.0448,0.0741\C,0,-2.4867,0.3004,1.8271
 \H,0,-1.7176,-0.432,2.0936\H,0,-2.164,1.2876,2.1782\H,0,-3.4193,0.0414
 ,2.3338\C,0,-1.4443,0.6015,-0.4658\O,0,-0.8239,-0.2886,-1.0516\N,0,-1.
 0711,1.9062,-0.4737\H,0,-1.6059,2.5274,0.1218\C,0,0.2356,2.4383,-0.904
 \H,0,0.372,2.1026,-1.941\C,0,0.1811,3.9619,-0.8689\H,0,0.0667,4.3248,0
 .1579\H,0,1.1132,4.38,-1.2526\H,0,-0.6518,4.3242,-1.4802\C,0,1.4643,1.
 9113,-0.1051\O,0,2.2019,2.7005,0.4854\N,0,1.6825,0.576,-0.1243\H,0,1.0
 56,-0.0566,-0.6229\C,0,2.829,0.0037,0.5614\H,0,3.6562,0.7169,0.4716\C,
 0,2.5456,-0.2323,2.0582\H,0,1.716,-0.9363,2.1802\H,0,3.4254,-0.6408,2.
 5684\H,0,2.2819,0.7192,2.528\C,0,3.1822,-1.3187,-0.134\O,0,2.333,-1.98
 96,-0.7099\N,0,4.4875,-1.6931,-0.0143\H,0,5.1308,-1.0593,0.438\C,0,5.0
 004,-2.9429,-0.5488\H,0,4.1596,-3.4732,-0.9978\H,0,5.7609,-2.7626,-1.3
 175\H,0,5.4366,-3.5624,0.2434\\Version=EM64L-G09RevA.02\State=1-A\HF=-
 984.6936137\MP2=-987.8899291\RMSD=9.576e-09\PG=C01 [X(C12H22N4O4)]\\@


 Time has a wonderful way of weeding out the trivial.
                                -- Richard Ben Sapir
 Job cpu time:  0 days 13 hours 47 minutes  5.2 seconds.
 File lengths (MBytes):  RWF= 160749 Int=      0 D2E=      0 Chk=     19 Scr=      1
 Normal termination of Gaussian 09 at Wed Jan 18 21:55:11 2017.
