 Entering Gaussian System, Link 0=g09
 Initial command:
 /home/steboss/local//g09/l1.exe /tmp/Gau-12921.inp -scrdir=/tmp/
 Entering Link 1 = /home/steboss/local//g09/l1.exe PID=     12923.
  
 Copyright (c) 1988,1990,1992,1993,1995,1998,2003,2009, Gaussian, Inc.
                  All Rights Reserved.
  
 This is part of the Gaussian(R) 09 program.  It is based on
 the Gaussian(R) 03 system (copyright 2003, Gaussian, Inc.),
 the Gaussian(R) 98 system (copyright 1998, Gaussian, Inc.),
 the Gaussian(R) 94 system (copyright 1995, Gaussian, Inc.),
 the Gaussian 92(TM) system (copyright 1992, Gaussian, Inc.),
 the Gaussian 90(TM) system (copyright 1990, Gaussian, Inc.),
 the Gaussian 88(TM) system (copyright 1988, Gaussian, Inc.),
 the Gaussian 86(TM) system (copyright 1986, Carnegie Mellon
 University), and the Gaussian 82(TM) system (copyright 1983,
 Carnegie Mellon University). Gaussian is a federally registered
 trademark of Gaussian, Inc.
  
 This software contains proprietary and confidential information,
 including trade secrets, belonging to Gaussian, Inc.
  
 This software is provided under written license and may be
 used, copied, transmitted, or stored only in accord with that
 written license.
  
 The following legend is applicable only to US Government
 contracts under FAR:
  
                    RESTRICTED RIGHTS LEGEND
  
 Use, reproduction and disclosure by the US Government is
 subject to restrictions as set forth in subparagraphs (a)
 and (c) of the Commercial Computer Software - Restricted
 Rights clause in FAR 52.227-19.
  
 Gaussian, Inc.
 340 Quinnipiac St., Bldg. 40, Wallingford CT 06492
  
  
 ---------------------------------------------------------------
 Warning -- This program may not be used in any manner that
 competes with the business of Gaussian, Inc. or will provide
 assistance to any competitor of Gaussian, Inc.  The licensee
 of this program is prohibited from giving any competitor of
 Gaussian, Inc. access to this program.  By using this program,
 the user acknowledges that Gaussian, Inc. is engaged in the
 business of creating and licensing software in the field of
 computational chemistry and represents and warrants to the
 licensee that it is not a competitor of Gaussian, Inc. and that
 it will not use this program in any manner prohibited above.
 ---------------------------------------------------------------
  

 Cite this work as:
 Gaussian 09, Revision A.02,
 M. J. Frisch, G. W. Trucks, H. B. Schlegel, G. E. Scuseria, 
 M. A. Robb, J. R. Cheeseman, G. Scalmani, V. Barone, B. Mennucci, 
 G. A. Petersson, H. Nakatsuji, M. Caricato, X. Li, H. P. Hratchian, 
 A. F. Izmaylov, J. Bloino, G. Zheng, J. L. Sonnenberg, M. Hada, 
 M. Ehara, K. Toyota, R. Fukuda, J. Hasegawa, M. Ishida, T. Nakajima, 
 Y. Honda, O. Kitao, H. Nakai, T. Vreven, J. A. Montgomery, Jr., 
 J. E. Peralta, F. Ogliaro, M. Bearpark, J. J. Heyd, E. Brothers, 
 K. N. Kudin, V. N. Staroverov, R. Kobayashi, J. Normand, 
 K. Raghavachari, A. Rendell, J. C. Burant, S. S. Iyengar, J. Tomasi, 
 M. Cossi, N. Rega, J. M. Millam, M. Klene, J. E. Knox, J. B. Cross, 
 V. Bakken, C. Adamo, J. Jaramillo, R. Gomperts, R. E. Stratmann, 
 O. Yazyev, A. J. Austin, R. Cammi, C. Pomelli, J. W. Ochterski, 
 R. L. Martin, K. Morokuma, V. G. Zakrzewski, G. A. Voth, 
 P. Salvador, J. J. Dannenberg, S. Dapprich, A. D. Daniels, 
 O. Farkas, J. B. Foresman, J. V. Ortiz, J. Cioslowski, 
 and D. J. Fox, Gaussian, Inc., Wallingford CT, 2009.
 
 ******************************************
 Gaussian 09:  EM64L-G09RevA.02 11-Jun-2009
                18-Jan-2017 
 ******************************************
 %chk=structure_330.chk
 %NProcShared=8
 Will use up to    8 processors via shared memory.
 -------------------
 #SP MP2/aug-cc-pVDZ
 -------------------
 1/38=1/1;
 2/12=2,17=6,18=5,40=1/2;
 3/5=16,7=10,11=9,16=1,25=1,30=1/1,2,3;
 4//1;
 5/5=2,38=5/2;
 8/10=1/1;
 9/16=-3/6;
 6/7=2,8=2,9=2,10=2/1;
 99/5=1,9=1/99;
 ------------------
 Phi Psi fixed scan
 ------------------
 Symbolic Z-matrix:
 Charge =  0 Multiplicity = 1
 H                     5.4655    2.4625   -0.9572 
 C                     5.1131    1.4962   -1.3314 
 H                     5.9934    0.9321   -1.6552 
 H                     4.4596    1.6649   -2.1928 
 C                     4.4403    0.744    -0.1923 
 O                     5.0319    0.4727    0.8492 
 N                     3.1382    0.4025   -0.4034 
 H                     2.6893    0.5254   -1.3038 
 C                     2.3932   -0.3957    0.5499 
 H                     3.0611   -1.1747    0.9416 
 C                     1.8786    0.4451    1.7359 
 H                     1.1488    1.1898    1.4035 
 H                     1.4033   -0.1862    2.4964 
 H                     2.7308    0.9482    2.1991 
 C                     1.2405   -1.0518   -0.2265 
 O                     0.9627   -0.7317   -1.3789 
 N                     0.5321   -1.9986    0.453 
 H                     0.8244   -2.2565    1.3859 
 C                    -0.5977   -2.706    -0.1475 
 H                    -0.2631   -3.1826   -1.0749 
 C                    -1.1193   -3.776     0.8166 
 H                    -1.4727   -3.3266    1.7523 
 H                    -1.9568   -4.3024    0.3522 
 H                    -0.3372   -4.5076    1.0494 
 C                    -1.7547   -1.7872   -0.5928 
 O                    -2.512    -2.1478   -1.4875 
 N                    -1.924    -0.645     0.1203 
 H                    -1.203    -0.3181    0.7537 
 C                    -2.8824    0.3654   -0.2832 
 H                    -2.9457    0.3563   -1.379 
 C                    -4.2849    0.0879    0.2905 
 H                    -4.2597    0.0929    1.3851 
 H                    -5.0117    0.8371   -0.0437 
 H                    -4.6182   -0.8947   -0.0537 
 C                    -2.3309    1.7199    0.1948 
 O                    -1.4323    1.7877    1.0324 
 N                    -2.9285    2.8101   -0.3516 
 H                    -3.6286    2.6652   -1.0655 
 C                    -2.565     4.1736   -0.0021 
 H                    -1.8057    4.1204    0.7786 
 H                    -2.1528    4.7063   -0.8668 
 H                    -3.4329    4.726     0.3751 
 
                          Input orientation:                          
 ---------------------------------------------------------------------
 Center     Atomic      Atomic             Coordinates (Angstroms)
 Number     Number       Type             X           Y           Z
 ---------------------------------------------------------------------
      1          1           0        5.465500    2.462500   -0.957200
      2          6           0        5.113100    1.496200   -1.331400
      3          1           0        5.993400    0.932100   -1.655200
      4          1           0        4.459600    1.664900   -2.192800
      5          6           0        4.440300    0.744000   -0.192300
      6          8           0        5.031900    0.472700    0.849200
      7          7           0        3.138200    0.402500   -0.403400
      8          1           0        2.689300    0.525400   -1.303800
      9          6           0        2.393200   -0.395700    0.549900
     10          1           0        3.061100   -1.174700    0.941600
     11          6           0        1.878600    0.445100    1.735900
     12          1           0        1.148800    1.189800    1.403500
     13          1           0        1.403300   -0.186200    2.496400
     14          1           0        2.730800    0.948200    2.199100
     15          6           0        1.240500   -1.051800   -0.226500
     16          8           0        0.962700   -0.731700   -1.378900
     17          7           0        0.532100   -1.998600    0.453000
     18          1           0        0.824400   -2.256500    1.385900
     19          6           0       -0.597700   -2.706000   -0.147500
     20          1           0       -0.263100   -3.182600   -1.074900
     21          6           0       -1.119300   -3.776000    0.816600
     22          1           0       -1.472700   -3.326600    1.752300
     23          1           0       -1.956800   -4.302400    0.352200
     24          1           0       -0.337200   -4.507600    1.049400
     25          6           0       -1.754700   -1.787200   -0.592800
     26          8           0       -2.512000   -2.147800   -1.487500
     27          7           0       -1.924000   -0.645000    0.120300
     28          1           0       -1.203000   -0.318100    0.753700
     29          6           0       -2.882400    0.365400   -0.283200
     30          1           0       -2.945700    0.356300   -1.379000
     31          6           0       -4.284900    0.087900    0.290500
     32          1           0       -4.259700    0.092900    1.385100
     33          1           0       -5.011700    0.837100   -0.043700
     34          1           0       -4.618200   -0.894700   -0.053700
     35          6           0       -2.330900    1.719900    0.194800
     36          8           0       -1.432300    1.787700    1.032400
     37          7           0       -2.928500    2.810100   -0.351600
     38          1           0       -3.628600    2.665200   -1.065500
     39          6           0       -2.565000    4.173600   -0.002100
     40          1           0       -1.805700    4.120400    0.778600
     41          1           0       -2.152800    4.706300   -0.866800
     42          1           0       -3.432900    4.726000    0.375100
 ---------------------------------------------------------------------
                    Distance matrix (angstroms):
                    1          2          3          4          5
     1  H    0.000000
     2  C    1.094508   0.000000
     3  H    1.762954   1.094524   0.000000
     4  H    1.781771   1.094318   1.782849   0.000000
     5  C    2.142277   1.521845   2.141863   2.202369   0.000000
     6  O    2.722204   2.410220   2.721681   3.317022   1.228135
     7  N    3.156995   2.440818   3.162222   2.557676   1.362589
     8  H    3.402907   2.611134   3.347531   2.285332   2.085478
     9  C    4.458664   3.810043   4.425716   4.004808   2.457722
    10  H    4.755608   4.063366   4.447512   4.454615   2.620941
    11  C    4.918185   4.579861   5.354279   4.856352   3.220187
    12  H    5.081985   4.825892   5.735173   4.911262   3.685008
    13  H    5.953523   5.589735   6.289308   5.895434   4.161460
    14  H    4.442288   4.294192   5.049797   4.774012   2.946673
    15  C    5.543902   4.765516   5.344820   4.648591   3.669440
    16  O    5.536782   4.710798   5.305894   4.316762   3.959724
    17  N    6.799155   6.031855   6.546702   5.987215   4.817914
    18  H    7.021317   6.313432   6.792203   6.434217   4.956657
    19  C    8.008208   7.188417   7.677990   6.990301   6.106222
    20  H    8.043498   7.131654   7.510745   6.859435   6.190246
    21  C    9.242556   8.441138   8.880681   8.353682   7.235844
    22  H    9.433647   8.725902   9.246093   8.698912   7.437394
    23  H   10.127632   9.297406   9.728069   9.124466   8.166120
    24  H    9.288706   8.451011   8.773921   8.462914   7.207332
    25  C    8.385942   7.648067   8.279876   7.286599   6.704133
    26  O    9.229116   8.452529   9.047416   7.977301   7.640322
    27  N    8.088404   7.497529   8.265886   7.171919   6.521607
    28  H    7.424810   6.894378   7.691162   6.684249   5.819777
    29  C    8.633628   8.142816   8.999075   7.696768   7.333044
    30  H    8.681145   8.139158   8.961883   7.563939   7.490765
    31  C   10.112654   9.640346  10.494850   9.226049   8.763143
    32  H   10.280121   9.858905  10.727243   9.555038   8.865784
    33  H   10.641810  10.227617  11.122868   9.747277   9.453626
    34  H   10.666213  10.101837  10.886141   9.671285   9.206572
    35  C    7.915959   7.602135   8.563708   7.198232   6.852107
    36  O    7.210652   6.965255   7.943316   6.717997   6.089058
    37  N    8.422993   8.206928   9.210133   7.699709   7.654630
    38  H    9.097003   8.823524   9.794604   8.227417   8.340302
    39  C    8.266136   8.239462   9.299800   7.774172   7.802087
    40  H    7.657152   7.694694   8.770097   7.356132   7.166257
    41  H    7.942374   7.957003   9.012588   7.398123   7.721641
    42  H    9.277930   9.293969  10.361994   8.846242   8.841128
                    6          7          8          9         10
     6  O    0.000000
     7  N    2.271571   0.000000
     8  H    3.182132   1.013576   0.000000
     9  C    2.794000   1.449458   2.091006   0.000000
    10  H    2.570315   2.074254   2.840844   1.098344   0.000000
    11  C    3.275714   2.482944   3.146976   1.542191   2.157075
    12  H    3.987474   2.800436   3.184971   2.188829   3.075891
    13  H    4.039078   3.430056   4.074517   2.193776   2.478475
    14  H    2.709869   2.690124   3.528568   2.154043   2.489399
    15  C    4.225630   2.397404   2.397323   1.536874   2.166598
    16  O    4.793057   2.640229   2.137075   2.424767   3.159787
    17  N    5.149029   3.645608   3.756386   2.458124   2.704327
    18  H    5.043772   3.952916   4.295498   2.573442   2.523989
    19  C    6.541402   4.866745   4.752194   3.843089   4.113130
    20  H    6.715683   4.987253   4.745348   4.178842   4.375870
    21  C    7.475946   6.088889   6.124016   4.882132   4.925254
    22  H    7.586837   6.309804   6.442041   4.998112   5.083626
    23  H    8.478828   6.976105   6.901901   5.850119   5.942156
    24  H    7.326029   6.188547   6.326796   4.961079   4.761122
    25  C    7.296880   5.363873   5.059919   4.521848   5.091313
    26  O    8.320914   6.293176   5.850920   5.593017   6.156857
    27  N    7.082732   5.195901   4.967941   4.345679   5.079994
    28  H    6.285576   4.550183   4.482722   3.602806   4.353346
    29  C    7.995623   6.021914   5.666663   5.394931   6.260770
    30  H    8.283751   6.161799   5.638038   5.726256   6.618972
    31  C    9.341466   7.462096   7.167473   6.700610   7.482099
    32  H    9.314788   7.617316   7.463635   6.722899   7.442957
    33  H   10.089795   8.169402   7.809636   7.530252   8.377843
    34  H    9.788230   7.871897   7.548443   7.055003   7.748592
    35  C    7.496304   5.657247   5.373550   5.188350   6.165232
    36  O    6.599142   4.986960   4.902940   4.431082   5.382815
    37  N    8.382919   6.527179   6.138910   6.277766   7.309330
    38  H    9.136596   7.165736   6.674683   6.945553   7.970280
    39  C    8.493189   6.848995   6.527745   6.765128   7.819711
    40  H    7.750063   6.297781   6.120902   6.170756   7.193775
    41  H    8.513985   6.836089   6.412240   6.978794   8.064814
    42  H    9.485155   7.904307   7.612166   7.759240   8.792680
                   11         12         13         14         15
    11  C    0.000000
    12  H    1.094384   0.000000
    13  H    1.096727   1.775550   0.000000
    14  H    1.092661   1.787197   1.771301   0.000000
    15  C    2.549293   2.773099   2.861809   3.479156   0.000000
    16  O    3.453362   3.386524   3.938229   4.330165   1.227869
    17  N    3.070922   3.383735   2.866926   4.070231   1.363811
    18  H    2.921041   3.461579   2.419603   3.816511   2.055304
    19  C    4.428170   4.542370   4.164565   5.471620   2.474186
    20  H    5.064354   5.220518   4.950706   6.061850   2.742427
    21  C    5.258346   5.490710   4.698074   6.249211   3.752063
    22  H    5.045513   5.233717   4.322866   6.011901   4.056084
    23  H    6.258089   6.396424   5.729831   7.276911   4.596088
    24  H    5.469030   5.898640   4.878283   6.363976   4.007445
    25  C    4.858691   4.612814   4.698864   5.949523   3.105835
    26  O    6.032479   5.735757   5.920212   7.117808   4.107626
    27  N    4.272967   3.801999   4.114277   5.341054   3.209333
    28  H    3.323169   2.868269   3.138025   4.378068   2.733093
    29  C    5.172063   4.446928   5.137866   6.165183   4.360043
    30  H    5.743201   5.020155   5.850370   6.736156   4.564567
    31  C    6.340781   5.654914   6.107106   7.321401   5.665355
    32  H    6.158395   5.518641   5.777755   7.089515   5.844638
    33  H    7.127193   6.338024   6.975061   8.061563   6.533863
    34  H    6.870673   6.302925   6.577495   7.904378   5.863353
    35  C    4.660471   3.721596   4.782764   5.498504   4.540343
    36  O    3.641366   2.675309   3.752360   4.404242   4.097737
    37  N    5.749704   4.725476   5.987772   6.480773   5.684231
    38  H    6.565511   5.576407   6.792469   7.351712   6.182891
    39  C    6.055406   4.967000   6.402950   6.579816   6.468152
    40  H    5.291344   4.208086   5.638734   5.714937   6.086149
    41  H    6.417481   5.331097   6.920514   6.882776   6.714178
    42  H    6.956286   5.878290   7.212382   7.455867   7.455573
                   16         17         18         19         20
    16  O    0.000000
    17  N    2.268548   0.000000
    18  H    3.160421   1.011066   0.000000
    19  C    2.801616   1.462007   2.139097   0.000000
    20  H    2.757157   2.090138   2.845321   1.095069   0.000000
    21  C    4.292168   2.453259   2.531986   1.531814   2.159392
    22  H    4.740157   2.733311   2.560475   2.181745   3.078462
    23  H    4.926468   3.392975   3.604069   2.155306   2.481771
    24  H    4.673735   2.721481   2.555386   2.178576   2.504749
    25  C    3.019320   2.523458   3.284395   1.543093   2.098674
    26  O    3.753755   3.613080   4.404521   2.402443   2.509701
    27  N    3.253944   2.824066   3.428174   2.465463   3.259832
    28  H    3.067459   2.434147   2.875313   2.623093   3.525982
    29  C    4.145960   4.217736   4.837419   3.830374   4.480605
    30  H    4.057011   4.582234   5.355843   4.050602   4.451138
    31  C    5.567400   5.251988   5.727221   4.646845   5.360538
    32  H    5.965997   5.310794   5.600692   4.857257   5.723051
    33  H    6.319600   6.246729   6.758268   5.661071   6.306391
    34  H    5.738394   5.291591   5.792136   4.410672   5.024364
    35  C    4.397121   4.700072   5.214057   4.765474   5.470141
    36  O    4.230575   4.304723   4.644697   4.720388   5.523733
    37  N    5.361075   5.978857   6.540153   5.991798   6.598483
    38  H    5.719894   6.431819   7.075429   6.235292   6.747106
    39  C    6.196952   6.920636   7.400052   7.156836   7.782244
    40  H    5.988466   6.558467   6.924673   6.994045   7.690831
    41  H    6.288118   7.342087   7.900567   7.607754   8.114741
    42  H    7.223870   7.806890   8.240244   7.971580   8.642690
                   21         22         23         24         25
    21  C    0.000000
    22  H    1.096534   0.000000
    23  H    1.092781   1.773927   0.000000
    24  H    1.095954   1.782748   1.775190   0.000000
    25  C    2.519021   2.819356   2.694457   3.479469   0.000000
    26  O    3.146351   3.600836   2.887048   4.090755   1.226386
    27  N    3.306892   3.171447   3.664891   4.277948   1.357127
    28  H    3.459485   3.181354   4.074808   4.288235   2.067774
    29  C    4.633495   4.445377   4.800919   5.656854   2.449744
    30  H    5.023176   5.053565   5.067392   6.029836   2.575108
    31  C    5.022701   4.658770   4.969768   6.105644   3.270800
    32  H    5.015346   4.426645   5.068421   6.055023   3.704307
    33  H    6.096850   5.752090   5.991962   7.184124   4.218591
    34  H    4.615367   4.366915   4.342836   5.709364   3.047428
    35  C    5.662113   5.350652   6.035961   6.594463   3.640339
    36  O    5.576674   5.164877   6.150373   6.389862   3.940194
    37  N    6.929257   6.648672   7.212988   7.888369   4.750911
    38  H    7.164352   6.963445   7.304262   8.170384   4.853742
    39  C    8.121358   7.779720   8.505176   9.023967   6.044555
    40  H    7.926268   7.517765   8.434940   8.756267   6.064905
    41  H    8.709269   8.476420   9.092912   9.584580   6.511459
    42  H    8.822226   8.401395   9.148301   9.762039   6.795216
                   26         27         28         29         30
    26  O    0.000000
    27  N    2.277976   0.000000
    28  H    3.175572   1.013854   0.000000
    29  C    2.811354   1.449914   2.088712   0.000000
    30  H    2.543695   2.072287   2.835530   1.097664   0.000000
    31  C    3.361966   2.477894   3.142849   1.540501   2.157018
    32  H    4.040671   2.756757   3.148174   2.180467   3.071844
    33  H    4.152431   3.428908   4.059129   2.194033   2.506502
    34  H    2.839387   2.711335   3.556396   2.157203   2.473596
    35  C    4.221615   2.400806   2.395406   1.538605   2.171228
    36  O    4.796229   2.644187   2.136503   2.420027   3.186555
    37  N    5.103383   3.628970   3.739609   2.446091   2.660260
    38  H    4.958815   3.907583   4.253599   2.541237   2.428097
    39  C    6.493791   4.862589   4.754119   3.831729   4.075851
    40  H    6.702567   4.812109   4.479302   4.048052   4.485899
    41  H    6.891515   5.446387   5.364022   4.440306   4.451240
    42  H    7.180979   5.584742   5.527996   4.444237   4.733763
                   31         32         33         34         35
    31  C    0.000000
    32  H    1.094901   0.000000
    33  H    1.096006   1.777866   0.000000
    34  H    1.093190   1.781578   1.775971   0.000000
    35  C    2.547685   2.790020   2.832474   3.482761   0.000000
    36  O    3.402508   3.315258   3.856648   4.304049   1.230306
    37  N    3.108454   3.488753   2.885698   4.082814   1.358019
    38  H    2.985287   3.608387   2.509779   3.830918   2.041072
    39  C    4.442591   4.631247   4.137669   5.468634   2.472694
    40  H    4.758753   4.755073   4.662046   5.809829   2.525680
    41  H    5.216782   5.549193   4.880729   6.173373   3.174476
    42  H    4.716464   4.813451   4.218003   5.760302   3.206797
                   36         37         38         39         40
    36  O    0.000000
    37  N    2.280213   0.000000
    38  H    3.161475   1.010341   0.000000
    39  C    2.836498   1.453759   2.130102   0.000000
    40  H    2.375991   2.062745   2.973428   1.090348   0.000000
    41  H    3.555883   2.112514   2.526570   1.096077   1.780758
    42  H    3.614976   2.110257   2.522008   1.095754   1.782510
                   41         42
    41  H    0.000000
    42  H    1.783637   0.000000
 Stoichiometry    C12H22N4O4
 Framework group  C1[X(C12H22N4O4)]
 Deg. of freedom   120
 Full point group                 C1      NOp   1
 Largest Abelian subgroup         C1      NOp   1
 Largest concise Abelian subgroup C1      NOp   1
                         Standard orientation:                         
 ---------------------------------------------------------------------
 Center     Atomic      Atomic             Coordinates (Angstroms)
 Number     Number       Type             X           Y           Z
 ---------------------------------------------------------------------
      1          1           0        5.465496    2.462509   -0.957209
      2          6           0        5.113098    1.496209   -1.331409
      3          1           0        5.993399    0.932111   -1.655209
      4          1           0        4.459597    1.664907   -2.192809
      5          6           0        4.440299    0.744007   -0.192309
      6          8           0        5.031900    0.472709    0.849191
      7          7           0        3.138200    0.402505   -0.403409
      8          1           0        2.689300    0.525404   -1.303809
      9          6           0        2.393201   -0.395697    0.549891
     10          1           0        3.061103   -1.174696    0.941591
     11          6           0        1.878600    0.445102    1.735891
     12          1           0        1.148798    1.189800    1.403491
     13          1           0        1.403301   -0.186199    2.496391
     14          1           0        2.730799    0.948204    2.199091
     15          6           0        1.240503   -1.051799   -0.226509
     16          8           0        0.962702   -0.731700   -1.378909
     17          7           0        0.532105   -1.998601    0.452991
     18          1           0        0.824405   -2.256500    1.385891
     19          6           0       -0.597694   -2.706003   -0.147509
     20          1           0       -0.263093   -3.182602   -1.074909
     21          6           0       -1.119291   -3.776004    0.816591
     22          1           0       -1.472692   -3.326605    1.752291
     23          1           0       -1.956790   -4.302406    0.352191
     24          1           0       -0.337190   -4.507603    1.049391
     25          6           0       -1.754696   -1.787206   -0.592809
     26          8           0       -2.511995   -2.147807   -1.487509
     27          7           0       -1.923998   -0.645006    0.120291
     28          1           0       -1.202999   -0.318104    0.753691
     29          6           0       -2.882400    0.365392   -0.283209
     30          1           0       -2.945700    0.356292   -1.379009
     31          6           0       -4.284900    0.087889    0.290491
     32          1           0       -4.259700    0.092889    1.385091
     33          1           0       -5.011701    0.837088   -0.043709
     34          1           0       -4.618197   -0.894712   -0.053709
     35          6           0       -2.330903    1.719893    0.194791
     36          8           0       -1.432303    1.787695    1.032391
     37          7           0       -2.928505    2.810092   -0.351609
     38          1           0       -3.628605    2.665190   -1.065509
     39          6           0       -2.565008    4.173593   -0.002109
     40          1           0       -1.805708    4.120394    0.778591
     41          1           0       -2.152809    4.706294   -0.866809
     42          1           0       -3.432909    4.725991    0.375091
 ---------------------------------------------------------------------
 Rotational constants (GHZ):      0.3968402      0.2010616      0.1506883
 Standard basis: Aug-CC-pVDZ (5D, 7F)
 There are   658 symmetry adapted basis functions of A   symmetry.
 Integral buffers will be    131072 words long.
 Raffenetti 1 integral format.
 Two-electron integral symmetry is turned on.
   658 basis functions,  1102 primitive gaussians,   698 cartesian basis functions
    77 alpha electrons       77 beta electrons
       nuclear repulsion energy      1664.6332229275 Hartrees.
 NAtoms=   42 NActive=   42 NUniq=   42 SFac= 7.50D-01 NAtFMM=   80 NAOKFM=F Big=F
 One-electron integrals computed using PRISM.
 PrsmSu:  requested number of processors reduced to:   7 ShMem   1 Linda.
 NBasis=   658 RedAO= T  NBF=   658
 NBsUse=   658 1.00D-06 NBFU=   658
 Harris functional with IExCor=  205 diagonalized for initial guess.
 ExpMin= 2.97D-02 ExpMax= 1.17D+04 ExpMxC= 4.01D+02 IAcc=3 IRadAn=         0 AccDes= 0.00D+00
 HarFok:  IExCor=  205 AccDes= 0.00D+00 IRadAn=         0 IDoV= 1
 ScaDFX=  1.000000  1.000000  1.000000  1.000000
 FoFCou: FMM=F IPFlag=           0 FMFlag=      100000 FMFlg1=           0
         NFxFlg=           0 DoJE=T BraDBF=F KetDBF=T FulRan=T
         Omega=  0.000000  0.000000  1.000000  0.000000  0.000000 ICntrl=     500 IOpCl=  0
         NMat0=    1 NMatS0=    1 NMatT0=    0 NMatD0=    1 NMtDS0=    0 NMtDT0=    0
         I1Cent=           4 NGrid=           0.
 Petite list used in FoFCou.
 Initial guess orbital symmetries:
       Occupied  (A) (A) (A) (A) (A) (A) (A) (A) (A) (A) (A) (A)
                 (A) (A) (A) (A) (A) (A) (A) (A) (A) (A) (A) (A)
                 (A) (A) (A) (A) (A) (A) (A) (A) (A) (A) (A) (A)
                 (A) (A) (A) (A) (A) (A) (A) (A) (A) (A) (A) (A)
                 (A) (A) (A) (A) (A) (A) (A) (A) (A) (A) (A) (A)
                 (A) (A) (A) (A) (A) (A) (A) (A) (A) (A) (A) (A)
                 (A) (A) (A) (A) (A)
       Virtual   (A) (A) (A) (A) (A) (A) (A) (A) (A) (A) (A) (A)
                 (A) (A) (A) (A) (A) (A) (A) (A) (A) (A) (A) (A)
                 (A) (A) (A) (A) (A) (A) (A) (A) (A) (A) (A) (A)
                 (A) (A) (A) (A) (A) (A) (A) (A) (A) (A) (A) (A)
                 (A) (A) (A) (A) (A) (A) (A) (A) (A) (A) (A) (A)
                 (A) (A) (A) (A) (A) (A) (A) (A) (A) (A) (A) (A)
                 (A) (A) (A) (A) (A) (A) (A) (A) (A) (A) (A) (A)
                 (A) (A) (A) (A) (A) (A) (A) (A) (A) (A) (A) (A)
                 (A) (A) (A) (A) (A) (A) (A) (A) (A) (A) (A) (A)
                 (A) (A) (A) (A) (A) (A) (A) (A) (A) (A) (A) (A)
                 (A) (A) (A) (A) (A) (A) (A) (A) (A) (A) (A) (A)
                 (A) (A) (A) (A) (A) (A) (A) (A) (A) (A) (A) (A)
                 (A) (A) (A) (A) (A) (A) (A) (A) (A) (A) (A) (A)
                 (A) (A) (A) (A) (A) (A) (A) (A) (A) (A) (A) (A)
                 (A) (A) (A) (A) (A) (A) (A) (A) (A) (A) (A) (A)
                 (A) (A) (A) (A) (A) (A) (A) (A) (A) (A) (A) (A)
                 (A) (A) (A) (A) (A) (A) (A) (A) (A) (A) (A) (A)
                 (A) (A) (A) (A) (A) (A) (A) (A) (A) (A) (A) (A)
                 (A) (A) (A) (A) (A) (A) (A) (A) (A) (A) (A) (A)
                 (A) (A) (A) (A) (A) (A) (A) (A) (A) (A) (A) (A)
                 (A) (A) (A) (A) (A) (A) (A) (A) (A) (A) (A) (A)
                 (A) (A) (A) (A) (A) (A) (A) (A) (A) (A) (A) (A)
                 (A) (A) (A) (A) (A) (A) (A) (A) (A) (A) (A) (A)
                 (A) (A) (A) (A) (A) (A) (A) (A) (A) (A) (A) (A)
                 (A) (A) (A) (A) (A) (A) (A) (A) (A) (A) (A) (A)
                 (A) (A) (A) (A) (A) (A) (A) (A) (A) (A) (A) (A)
                 (A) (A) (A) (A) (A) (A) (A) (A) (A) (A) (A) (A)
                 (A) (A) (A) (A) (A) (A) (A) (A) (A) (A) (A) (A)
                 (A) (A) (A) (A) (A) (A) (A) (A) (A) (A) (A) (A)
                 (A) (A) (A) (A) (A) (A) (A) (A) (A) (A) (A) (A)
                 (A) (A) (A) (A) (A) (A) (A) (A) (A) (A) (A) (A)
                 (A) (A) (A) (A) (A) (A) (A) (A) (A) (A) (A) (A)
                 (A) (A) (A) (A) (A) (A) (A) (A) (A) (A) (A) (A)
                 (A) (A) (A) (A) (A) (A) (A) (A) (A) (A) (A) (A)
                 (A) (A) (A) (A) (A) (A) (A) (A) (A) (A) (A) (A)
                 (A) (A) (A) (A) (A) (A) (A) (A) (A) (A) (A) (A)
                 (A) (A) (A) (A) (A) (A) (A) (A) (A) (A) (A) (A)
                 (A) (A) (A) (A) (A) (A) (A) (A) (A) (A) (A) (A)
                 (A) (A) (A) (A) (A) (A) (A) (A) (A) (A) (A) (A)
                 (A) (A) (A) (A) (A) (A) (A) (A) (A) (A) (A) (A)
                 (A) (A) (A) (A) (A) (A) (A) (A) (A) (A) (A) (A)
                 (A) (A) (A) (A) (A) (A) (A) (A) (A) (A) (A) (A)
                 (A) (A) (A) (A) (A) (A) (A) (A) (A) (A) (A) (A)
                 (A) (A) (A) (A) (A) (A) (A) (A) (A) (A) (A) (A)
                 (A) (A) (A) (A) (A) (A) (A) (A) (A) (A) (A) (A)
                 (A) (A) (A) (A) (A) (A) (A) (A) (A) (A) (A) (A)
                 (A) (A) (A) (A) (A) (A) (A) (A) (A) (A) (A) (A)
                 (A) (A) (A) (A) (A) (A) (A) (A) (A) (A) (A) (A)
                 (A) (A) (A) (A) (A)
 The electronic state of the initial guess is 1-A.
 Requested convergence on RMS density matrix=1.00D-08 within 128 cycles.
 Requested convergence on MAX density matrix=1.00D-06.
 Requested convergence on             energy=1.00D-06.
 No special actions if energy rises.
 Initial convergence to 1.0D-05 achieved.  Increase integral accuracy.
 SCF Done:  E(RHF) =  -984.698570404     A.U. after   15 cycles
             Convg  =    0.2898D-08             -V/T =  2.0017
 ExpMin= 2.97D-02 ExpMax= 1.17D+04 ExpMxC= 4.01D+02 IAcc=3 IRadAn=         5 AccDes= 0.00D+00
 HarFok:  IExCor=  205 AccDes= 0.00D+00 IRadAn=         5 IDoV=-2
 ScaDFX=  1.000000  1.000000  1.000000  1.000000
 Range of M.O.s used for correlation:    21   658
 NBasis=   658 NAE=    77 NBE=    77 NFC=    20 NFV=     0
 NROrb=    638 NOA=    57 NOB=    57 NVA=   581 NVB=   581

 **** Warning!!: The largest alpha MO coefficient is  0.10934040D+03

 Disk-based method using OVN memory for 57 occupieds at a time.
 Estimated scratch disk usage= 21442446876 words.
 Actual    scratch disk usage= 21440734236 words.
 GetIJB would need an additional    28011594 words of memory to use all   8 processors.
 JobTyp=1 Pass  1:  I=   1 to  57 NPSUse=  1 ParTrn=F ParDer=F DoDerP=F.
 Spin components of T(2) and E(2):
     alpha-alpha T2 =       0.1373065128D+00 E2=     -0.4160339511D+00
     alpha-beta  T2 =       0.7461415578D+00 E2=     -0.2363651000D+01
     beta-beta   T2 =       0.1373065128D+00 E2=     -0.4160339511D+00
 ANorm=    0.1421532477D+01
 E2 =    -0.3195718902D+01 EUMP2 =    -0.98789428930556D+03

 **********************************************************************

            Population analysis using the SCF density.

 **********************************************************************

 Orbital symmetries:
       Occupied  (A) (A) (A) (A) (A) (A) (A) (A) (A) (A) (A) (A)
                 (A) (A) (A) (A) (A) (A) (A) (A) (A) (A) (A) (A)
                 (A) (A) (A) (A) (A) (A) (A) (A) (A) (A) (A) (A)
                 (A) (A) (A) (A) (A) (A) (A) (A) (A) (A) (A) (A)
                 (A) (A) (A) (A) (A) (A) (A) (A) (A) (A) (A) (A)
                 (A) (A) (A) (A) (A) (A) (A) (A) (A) (A) (A) (A)
                 (A) (A) (A) (A) (A)
       Virtual   (A) (A) (A) (A) (A) (A) (A) (A) (A) (A) (A) (A)
                 (A) (A) (A) (A) (A) (A) (A) (A) (A) (A) (A) (A)
                 (A) (A) (A) (A) (A) (A) (A) (A) (A) (A) (A) (A)
                 (A) (A) (A) (A) (A) (A) (A) (A) (A) (A) (A) (A)
                 (A) (A) (A) (A) (A) (A) (A) (A) (A) (A) (A) (A)
                 (A) (A) (A) (A) (A) (A) (A) (A) (A) (A) (A) (A)
                 (A) (A) (A) (A) (A) (A) (A) (A) (A) (A) (A) (A)
                 (A) (A) (A) (A) (A) (A) (A) (A) (A) (A) (A) (A)
                 (A) (A) (A) (A) (A) (A) (A) (A) (A) (A) (A) (A)
                 (A) (A) (A) (A) (A) (A) (A) (A) (A) (A) (A) (A)
                 (A) (A) (A) (A) (A) (A) (A) (A) (A) (A) (A) (A)
                 (A) (A) (A) (A) (A) (A) (A) (A) (A) (A) (A) (A)
                 (A) (A) (A) (A) (A) (A) (A) (A) (A) (A) (A) (A)
                 (A) (A) (A) (A) (A) (A) (A) (A) (A) (A) (A) (A)
                 (A) (A) (A) (A) (A) (A) (A) (A) (A) (A) (A) (A)
                 (A) (A) (A) (A) (A) (A) (A) (A) (A) (A) (A) (A)
                 (A) (A) (A) (A) (A) (A) (A) (A) (A) (A) (A) (A)
                 (A) (A) (A) (A) (A) (A) (A) (A) (A) (A) (A) (A)
                 (A) (A) (A) (A) (A) (A) (A) (A) (A) (A) (A) (A)
                 (A) (A) (A) (A) (A) (A) (A) (A) (A) (A) (A) (A)
                 (A) (A) (A) (A) (A) (A) (A) (A) (A) (A) (A) (A)
                 (A) (A) (A) (A) (A) (A) (A) (A) (A) (A) (A) (A)
                 (A) (A) (A) (A) (A) (A) (A) (A) (A) (A) (A) (A)
                 (A) (A) (A) (A) (A) (A) (A) (A) (A) (A) (A) (A)
                 (A) (A) (A) (A) (A) (A) (A) (A) (A) (A) (A) (A)
                 (A) (A) (A) (A) (A) (A) (A) (A) (A) (A) (A) (A)
                 (A) (A) (A) (A) (A) (A) (A) (A) (A) (A) (A) (A)
                 (A) (A) (A) (A) (A) (A) (A) (A) (A) (A) (A) (A)
                 (A) (A) (A) (A) (A) (A) (A) (A) (A) (A) (A) (A)
                 (A) (A) (A) (A) (A) (A) (A) (A) (A) (A) (A) (A)
                 (A) (A) (A) (A) (A) (A) (A) (A) (A) (A) (A) (A)
                 (A) (A) (A) (A) (A) (A) (A) (A) (A) (A) (A) (A)
                 (A) (A) (A) (A) (A) (A) (A) (A) (A) (A) (A) (A)
                 (A) (A) (A) (A) (A) (A) (A) (A) (A) (A) (A) (A)
                 (A) (A) (A) (A) (A) (A) (A) (A) (A) (A) (A) (A)
                 (A) (A) (A) (A) (A) (A) (A) (A) (A) (A) (A) (A)
                 (A) (A) (A) (A) (A) (A) (A) (A) (A) (A) (A) (A)
                 (A) (A) (A) (A) (A) (A) (A) (A) (A) (A) (A) (A)
                 (A) (A) (A) (A) (A) (A) (A) (A) (A) (A) (A) (A)
                 (A) (A) (A) (A) (A) (A) (A) (A) (A) (A) (A) (A)
                 (A) (A) (A) (A) (A) (A) (A) (A) (A) (A) (A) (A)
                 (A) (A) (A) (A) (A) (A) (A) (A) (A) (A) (A) (A)
                 (A) (A) (A) (A) (A) (A) (A) (A) (A) (A) (A) (A)
                 (A) (A) (A) (A) (A) (A) (A) (A) (A) (A) (A) (A)
                 (A) (A) (A) (A) (A) (A) (A) (A) (A) (A) (A) (A)
                 (A) (A) (A) (A) (A) (A) (A) (A) (A) (A) (A) (A)
                 (A) (A) (A) (A) (A) (A) (A) (A) (A) (A) (A) (A)
                 (A) (A) (A) (A) (A) (A) (A) (A) (A) (A) (A) (A)
                 (A) (A) (A) (A) (A)
 The electronic state is 1-A.
 Alpha  occ. eigenvalues --  -20.55137 -20.54724 -20.53002 -20.52236 -15.61262
 Alpha  occ. eigenvalues --  -15.61007 -15.58884 -15.58705 -11.37575 -11.37495
 Alpha  occ. eigenvalues --  -11.35930 -11.35650 -11.29903 -11.29678 -11.29423
 Alpha  occ. eigenvalues --  -11.27923 -11.25089 -11.24101 -11.24061 -11.23065
 Alpha  occ. eigenvalues --   -1.40695  -1.40162  -1.38266  -1.37586  -1.25895
 Alpha  occ. eigenvalues --   -1.24829  -1.23536  -1.23312  -1.07461  -1.04864
 Alpha  occ. eigenvalues --   -1.03104  -0.98378  -0.96712  -0.91703  -0.89781
 Alpha  occ. eigenvalues --   -0.87123  -0.82017  -0.80649  -0.78561  -0.78249
 Alpha  occ. eigenvalues --   -0.74519  -0.72256  -0.69239  -0.67775  -0.66994
 Alpha  occ. eigenvalues --   -0.65702  -0.65315  -0.64654  -0.63159  -0.62717
 Alpha  occ. eigenvalues --   -0.62159  -0.60724  -0.60265  -0.58876  -0.58016
 Alpha  occ. eigenvalues --   -0.57807  -0.57008  -0.56353  -0.56155  -0.55681
 Alpha  occ. eigenvalues --   -0.55536  -0.54447  -0.54196  -0.53672  -0.52836
 Alpha  occ. eigenvalues --   -0.52157  -0.51760  -0.49885  -0.48933  -0.44454
 Alpha  occ. eigenvalues --   -0.44073  -0.43712  -0.41845  -0.41107  -0.40391
 Alpha  occ. eigenvalues --   -0.39092  -0.38649
 Alpha virt. eigenvalues --    0.02618   0.03069   0.03649   0.04185   0.04501
 Alpha virt. eigenvalues --    0.04777   0.04963   0.05795   0.06021   0.06448
 Alpha virt. eigenvalues --    0.06503   0.06987   0.07453   0.07721   0.07951
 Alpha virt. eigenvalues --    0.08303   0.08762   0.09075   0.09732   0.10302
 Alpha virt. eigenvalues --    0.11100   0.11518   0.11901   0.12087   0.12376
 Alpha virt. eigenvalues --    0.13205   0.13414   0.13732   0.14120   0.14360
 Alpha virt. eigenvalues --    0.14769   0.15098   0.15335   0.15370   0.15729
 Alpha virt. eigenvalues --    0.15929   0.16112   0.16357   0.16619   0.16880
 Alpha virt. eigenvalues --    0.17213   0.17256   0.17605   0.17885   0.18261
 Alpha virt. eigenvalues --    0.18706   0.18809   0.19094   0.19499   0.19630
 Alpha virt. eigenvalues --    0.19807   0.19987   0.20056   0.20463   0.20730
 Alpha virt. eigenvalues --    0.20990   0.21502   0.21848   0.22020   0.22136
 Alpha virt. eigenvalues --    0.22782   0.23002   0.23211   0.23706   0.24024
 Alpha virt. eigenvalues --    0.24465   0.24659   0.25218   0.25616   0.26255
 Alpha virt. eigenvalues --    0.26301   0.26652   0.27553   0.27641   0.28291
 Alpha virt. eigenvalues --    0.28641   0.28834   0.29094   0.29809   0.30082
 Alpha virt. eigenvalues --    0.30848   0.31208   0.31422   0.31480   0.32012
 Alpha virt. eigenvalues --    0.32125   0.32740   0.33238   0.33537   0.34273
 Alpha virt. eigenvalues --    0.34729   0.35283   0.35361   0.35602   0.35872
 Alpha virt. eigenvalues --    0.36019   0.36249   0.36735   0.37188   0.37300
 Alpha virt. eigenvalues --    0.37631   0.38418   0.38604   0.39116   0.39401
 Alpha virt. eigenvalues --    0.39629   0.40003   0.40091   0.40399   0.40801
 Alpha virt. eigenvalues --    0.41366   0.41489   0.41904   0.42214   0.42453
 Alpha virt. eigenvalues --    0.43064   0.43223   0.43520   0.43703   0.44068
 Alpha virt. eigenvalues --    0.44212   0.44496   0.44992   0.45197   0.45506
 Alpha virt. eigenvalues --    0.45808   0.46033   0.46379   0.46609   0.47090
 Alpha virt. eigenvalues --    0.47513   0.47766   0.48201   0.48473   0.48645
 Alpha virt. eigenvalues --    0.48936   0.49134   0.49711   0.50047   0.50283
 Alpha virt. eigenvalues --    0.50449   0.51117   0.51416   0.51551   0.51630
 Alpha virt. eigenvalues --    0.52044   0.52397   0.52638   0.53025   0.53848
 Alpha virt. eigenvalues --    0.54205   0.54333   0.54806   0.55467   0.55594
 Alpha virt. eigenvalues --    0.56197   0.56264   0.56748   0.57194   0.57463
 Alpha virt. eigenvalues --    0.57784   0.58337   0.58703   0.58961   0.59054
 Alpha virt. eigenvalues --    0.59373   0.59971   0.60490   0.60780   0.61092
 Alpha virt. eigenvalues --    0.61328   0.61610   0.61958   0.62287   0.62597
 Alpha virt. eigenvalues --    0.63049   0.63364   0.63778   0.64366   0.64485
 Alpha virt. eigenvalues --    0.64855   0.65017   0.65405   0.66031   0.66098
 Alpha virt. eigenvalues --    0.66335   0.66728   0.67165   0.67377   0.67966
 Alpha virt. eigenvalues --    0.68539   0.68590   0.69332   0.69530   0.69733
 Alpha virt. eigenvalues --    0.70051   0.70709   0.70982   0.71502   0.71680
 Alpha virt. eigenvalues --    0.72029   0.72494   0.72622   0.72974   0.73857
 Alpha virt. eigenvalues --    0.74172   0.74284   0.74677   0.74921   0.75123
 Alpha virt. eigenvalues --    0.75608   0.75731   0.76374   0.76616   0.77321
 Alpha virt. eigenvalues --    0.77596   0.78468   0.78648   0.79441   0.80119
 Alpha virt. eigenvalues --    0.80179   0.80285   0.80635   0.81037   0.81360
 Alpha virt. eigenvalues --    0.81864   0.82467   0.82670   0.83340   0.83921
 Alpha virt. eigenvalues --    0.84310   0.84511   0.84914   0.85099   0.85714
 Alpha virt. eigenvalues --    0.86441   0.86489   0.87312   0.87731   0.88491
 Alpha virt. eigenvalues --    0.88690   0.89075   0.89222   0.89922   0.91110
 Alpha virt. eigenvalues --    0.91548   0.91926   0.91976   0.92911   0.93414
 Alpha virt. eigenvalues --    0.93534   0.94476   0.94704   0.95205   0.96254
 Alpha virt. eigenvalues --    0.96341   0.97089   0.98026   0.98375   0.98659
 Alpha virt. eigenvalues --    0.99142   0.99397   0.99458   1.00695   1.00928
 Alpha virt. eigenvalues --    1.01404   1.01765   1.02084   1.02564   1.03004
 Alpha virt. eigenvalues --    1.03856   1.04376   1.05552   1.06409   1.07130
 Alpha virt. eigenvalues --    1.07627   1.08025   1.08560   1.09112   1.09966
 Alpha virt. eigenvalues --    1.10383   1.10737   1.11919   1.12132   1.12447
 Alpha virt. eigenvalues --    1.13351   1.13908   1.14251   1.15452   1.15997
 Alpha virt. eigenvalues --    1.16664   1.17226   1.18023   1.18382   1.19028
 Alpha virt. eigenvalues --    1.19345   1.19807   1.20087   1.20248   1.21384
 Alpha virt. eigenvalues --    1.22484   1.22859   1.23316   1.24077   1.24278
 Alpha virt. eigenvalues --    1.24922   1.25220   1.26316   1.27640   1.27885
 Alpha virt. eigenvalues --    1.28508   1.28973   1.29464   1.31122   1.31613
 Alpha virt. eigenvalues --    1.32032   1.33150   1.33633   1.35564   1.36118
 Alpha virt. eigenvalues --    1.37135   1.37408   1.37996   1.39083   1.39694
 Alpha virt. eigenvalues --    1.39936   1.42003   1.42305   1.43251   1.44329
 Alpha virt. eigenvalues --    1.45412   1.46020   1.46534   1.47761   1.49091
 Alpha virt. eigenvalues --    1.49368   1.50452   1.51174   1.52211   1.52699
 Alpha virt. eigenvalues --    1.53277   1.55202   1.55862   1.57347   1.57588
 Alpha virt. eigenvalues --    1.58472   1.58998   1.59394   1.60126   1.61380
 Alpha virt. eigenvalues --    1.62312   1.63962   1.64677   1.65647   1.67387
 Alpha virt. eigenvalues --    1.68164   1.69159   1.69907   1.70493   1.71416
 Alpha virt. eigenvalues --    1.71978   1.72669   1.73539   1.74578   1.74961
 Alpha virt. eigenvalues --    1.75828   1.77039   1.77633   1.78725   1.79367
 Alpha virt. eigenvalues --    1.79947   1.81399   1.81900   1.83552   1.84557
 Alpha virt. eigenvalues --    1.85257   1.85998   1.87088   1.87329   1.88421
 Alpha virt. eigenvalues --    1.89048   1.89243   1.89533   1.90140   1.90691
 Alpha virt. eigenvalues --    1.91056   1.92078   1.92755   1.93376   1.93854
 Alpha virt. eigenvalues --    1.94832   1.95453   1.96232   1.96911   1.97879
 Alpha virt. eigenvalues --    1.98355   1.99126   2.00134   2.00161   2.01724
 Alpha virt. eigenvalues --    2.02387   2.02629   2.02726   2.04379   2.05444
 Alpha virt. eigenvalues --    2.06380   2.07317   2.07811   2.08270   2.08810
 Alpha virt. eigenvalues --    2.09507   2.10312   2.10999   2.11898   2.12900
 Alpha virt. eigenvalues --    2.13618   2.13804   2.14589   2.15580   2.15677
 Alpha virt. eigenvalues --    2.17135   2.17730   2.18246   2.19060   2.19807
 Alpha virt. eigenvalues --    2.20670   2.21173   2.21910   2.22507   2.22694
 Alpha virt. eigenvalues --    2.23039   2.23634   2.25381   2.25757   2.27455
 Alpha virt. eigenvalues --    2.28459   2.28943   2.29755   2.30264   2.31304
 Alpha virt. eigenvalues --    2.31710   2.31923   2.32625   2.33148   2.33979
 Alpha virt. eigenvalues --    2.34847   2.35467   2.36302   2.36912   2.37498
 Alpha virt. eigenvalues --    2.38747   2.38974   2.40053   2.40953   2.41134
 Alpha virt. eigenvalues --    2.41809   2.42671   2.43874   2.44441   2.44844
 Alpha virt. eigenvalues --    2.45296   2.46212   2.47691   2.48477   2.50328
 Alpha virt. eigenvalues --    2.51686   2.52041   2.52628   2.52959   2.54185
 Alpha virt. eigenvalues --    2.54839   2.55697   2.56580   2.57020   2.58021
 Alpha virt. eigenvalues --    2.58507   2.59227   2.60382   2.60960   2.61734
 Alpha virt. eigenvalues --    2.63173   2.63542   2.64130   2.65473   2.66051
 Alpha virt. eigenvalues --    2.66568   2.67558   2.68582   2.69346   2.69927
 Alpha virt. eigenvalues --    2.71464   2.71897   2.73423   2.73887   2.74937
 Alpha virt. eigenvalues --    2.76246   2.76709   2.77353   2.78457   2.78780
 Alpha virt. eigenvalues --    2.80290   2.80891   2.82191   2.83635   2.85378
 Alpha virt. eigenvalues --    2.86098   2.87561   2.88838   2.90083   2.90142
 Alpha virt. eigenvalues --    2.91736   2.92120   2.92336   2.94092   2.95658
 Alpha virt. eigenvalues --    2.96890   2.97655   2.98234   2.99106   2.99449
 Alpha virt. eigenvalues --    3.00072   3.01798   3.03406   3.04192   3.05092
 Alpha virt. eigenvalues --    3.05718   3.07432   3.08118   3.08623   3.12369
 Alpha virt. eigenvalues --    3.15046   3.15625   3.15829   3.18648   3.19313
 Alpha virt. eigenvalues --    3.21450   3.22396   3.22927   3.24819   3.27183
 Alpha virt. eigenvalues --    3.29307   3.30679   3.32343   3.35217   3.42764
 Alpha virt. eigenvalues --    3.45727   3.46332   3.49034   3.53472   3.56568
 Alpha virt. eigenvalues --    3.59076   3.62492   3.65706   3.69275   3.71156
 Alpha virt. eigenvalues --    3.75682   3.82159   3.84241   3.84869   3.86037
 Alpha virt. eigenvalues --    3.86893   3.88822   3.89559   3.91108   3.92481
 Alpha virt. eigenvalues --    3.95075   3.96552   3.99899   4.03980   4.05834
 Alpha virt. eigenvalues --    4.06822   4.09469   4.11395   4.13859   4.15460
 Alpha virt. eigenvalues --    4.16607   4.21454   4.25757   4.34497   4.37413
 Alpha virt. eigenvalues --    4.40934
          Condensed to atoms (all electrons):
              1          2          3          4          5          6
     1  H    0.737959   0.375042  -0.055931  -0.072076  -0.070597   0.020329
     2  C    0.375042   4.598896   0.368821   0.323386   0.099857  -0.055433
     3  H   -0.055931   0.368821   0.738398  -0.079694  -0.101311   0.022148
     4  H   -0.072076   0.323386  -0.079694   1.134459   0.162362  -0.012415
     5  C   -0.070597   0.099857  -0.101311   0.162362   5.910169   0.177174
     6  O    0.020329  -0.055433   0.022148  -0.012415   0.177174   8.747235
     7  N    0.030498  -0.048350   0.080575  -0.266212  -0.036854  -0.107933
     8  H   -0.001109  -0.072486  -0.005085  -0.000160  -0.116043  -0.009449
     9  C    0.007712  -0.061516  -0.028817   0.021989  -0.170399   0.012380
    10  H    0.001868   0.008510  -0.004189   0.001853   0.093806  -0.003627
    11  C   -0.000817  -0.002184   0.003358  -0.021967  -0.154907   0.053219
    12  H   -0.000874   0.002524   0.000326  -0.002835  -0.009664   0.000969
    13  H    0.000598  -0.002706  -0.000032  -0.002177  -0.062774   0.006937
    14  H    0.000053   0.017455  -0.000455   0.003141   0.073155   0.015891
    15  C   -0.011646   0.049725   0.021851  -0.020852  -0.158757  -0.005652
    16  O    0.000232  -0.006223  -0.000429  -0.001042  -0.026954   0.000233
    17  N   -0.000643  -0.005540  -0.001410   0.005360  -0.015211   0.009268
    18  H   -0.000114  -0.001396  -0.000235   0.000373  -0.002524   0.000356
    19  C   -0.000143   0.002854  -0.000102   0.001086  -0.029909   0.002821
    20  H   -0.000012  -0.000087  -0.000026   0.000042  -0.003654   0.000091
    21  C    0.000025   0.000815   0.000060   0.000120   0.005815  -0.000058
    22  H    0.000003   0.000103   0.000008   0.000021   0.000469  -0.000072
    23  H    0.000001   0.000041   0.000002   0.000017   0.000404   0.000015
    24  H    0.000003  -0.000008   0.000006  -0.000053  -0.000171  -0.000037
    25  C    0.000025  -0.000261  -0.000072   0.000300  -0.003374  -0.000291
    26  O    0.000000   0.000034   0.000004   0.000013   0.000079   0.000004
    27  N   -0.000009   0.000205   0.000021   0.000044   0.003179  -0.000196
    28  H    0.000079  -0.000890  -0.000078  -0.000410  -0.002682   0.000041
    29  C    0.000103   0.002237   0.000044   0.001242   0.004365   0.000046
    30  H    0.000005   0.000288   0.000002   0.000201  -0.000053  -0.000001
    31  C   -0.000005  -0.000033   0.000005  -0.000029   0.000210  -0.000014
    32  H    0.000000   0.000011   0.000001   0.000003   0.000086  -0.000001
    33  H   -0.000001  -0.000007   0.000000  -0.000006   0.000000  -0.000001
    34  H   -0.000001  -0.000009   0.000000  -0.000003   0.000008  -0.000002
    35  C   -0.000057  -0.002753  -0.000046  -0.001302   0.001181  -0.000258
    36  O    0.000034   0.000029  -0.000011   0.000067  -0.001121   0.000015
    37  N    0.000001   0.000139   0.000003   0.000202   0.000196   0.000008
    38  H   -0.000001   0.000001   0.000000  -0.000011   0.000018   0.000003
    39  C   -0.000006  -0.000023  -0.000003  -0.000011  -0.000475   0.000004
    40  H    0.000012  -0.000142  -0.000003   0.000021   0.000408  -0.000057
    41  H   -0.000002  -0.000002   0.000000  -0.000053  -0.000078   0.000004
    42  H   -0.000001   0.000007   0.000000   0.000004  -0.000039   0.000001
              7          8          9         10         11         12
     1  H    0.030498  -0.001109   0.007712   0.001868  -0.000817  -0.000874
     2  C   -0.048350  -0.072486  -0.061516   0.008510  -0.002184   0.002524
     3  H    0.080575  -0.005085  -0.028817  -0.004189   0.003358   0.000326
     4  H   -0.266212  -0.000160   0.021989   0.001853  -0.021967  -0.002835
     5  C   -0.036854  -0.116043  -0.170399   0.093806  -0.154907  -0.009664
     6  O   -0.107933  -0.009449   0.012380  -0.003627   0.053219   0.000969
     7  N    8.202041   0.236389  -1.278637  -0.271416   0.156142  -0.178903
     8  H    0.236389   0.979466   0.212469   0.023660  -0.012724   0.002461
     9  C   -1.278637   0.212469   9.635907   0.330639  -0.208100   0.189627
    10  H   -0.271416   0.023660   0.330639   1.413416   0.000653   0.108534
    11  C    0.156142  -0.012724  -0.208100   0.000653   4.404761   0.283145
    12  H   -0.178903   0.002461   0.189627   0.108534   0.283145   1.299353
    13  H    0.165978   0.000685  -0.327013  -0.120119   0.251485  -0.146068
    14  H    0.027463  -0.009353  -0.144578  -0.043498   0.336960  -0.282709
    15  C    0.388192  -0.159535  -1.965708  -0.091440   0.002469  -0.114174
    16  O   -0.077265   0.085762   0.122437  -0.011793   0.006668   0.010554
    17  N    0.039822  -0.019817   0.085761  -0.216488  -0.010722  -0.041732
    18  H    0.010056   0.001313  -0.079781   0.003319  -0.020411  -0.003171
    19  C    0.028866  -0.026236  -0.296599  -0.077508   0.004535  -0.035050
    20  H    0.002385  -0.001519  -0.059631  -0.005538  -0.003820  -0.001903
    21  C   -0.008986  -0.000184   0.017243   0.009128  -0.007683  -0.003081
    22  H   -0.000695  -0.000310  -0.017836   0.001593  -0.002599  -0.000450
    23  H   -0.000499  -0.000005   0.022406   0.000546  -0.001254  -0.000141
    24  H    0.001657   0.000312  -0.034013  -0.001039   0.002903   0.000331
    25  C   -0.026308   0.002227   0.043324   0.005752   0.007433   0.014486
    26  O    0.000892   0.000033  -0.002534  -0.000057   0.000683   0.000416
    27  N    0.002179  -0.000940  -0.041810  -0.004856  -0.006712  -0.008495
    28  H    0.005633   0.000159  -0.019587   0.000414   0.007922   0.007039
    29  C   -0.007608  -0.013557   0.008298   0.000220  -0.018305  -0.012030
    30  H   -0.004597  -0.001435   0.006083   0.000518  -0.000566  -0.002017
    31  C    0.001606   0.000313  -0.001461  -0.000460   0.002676  -0.002885
    32  H    0.000121  -0.000108   0.001322  -0.000023  -0.000660  -0.001327
    33  H    0.000103   0.000119  -0.000834  -0.000034   0.000084   0.000395
    34  H    0.000251   0.000048   0.000222  -0.000066   0.000786  -0.000341
    35  C    0.040340   0.010356  -0.068702  -0.004278   0.013432   0.015106
    36  O   -0.004875  -0.001122   0.004655   0.000485  -0.019103  -0.012109
    37  N   -0.002880  -0.001535   0.014828   0.000508  -0.002343  -0.003586
    38  H    0.000463   0.000212  -0.001410  -0.000074   0.000270   0.000897
    39  C   -0.001634   0.000063   0.002372   0.000161   0.001074   0.000181
    40  H   -0.000678   0.000105   0.003043   0.000037  -0.000400  -0.003973
    41  H    0.000068  -0.000001  -0.000478  -0.000030   0.000296  -0.000786
    42  H   -0.000067   0.000023  -0.000125   0.000002   0.000099   0.000345
             13         14         15         16         17         18
     1  H    0.000598   0.000053  -0.011646   0.000232  -0.000643  -0.000114
     2  C   -0.002706   0.017455   0.049725  -0.006223  -0.005540  -0.001396
     3  H   -0.000032  -0.000455   0.021851  -0.000429  -0.001410  -0.000235
     4  H   -0.002177   0.003141  -0.020852  -0.001042   0.005360   0.000373
     5  C   -0.062774   0.073155  -0.158757  -0.026954  -0.015211  -0.002524
     6  O    0.006937   0.015891  -0.005652   0.000233   0.009268   0.000356
     7  N    0.165978   0.027463   0.388192  -0.077265   0.039822   0.010056
     8  H    0.000685  -0.009353  -0.159535   0.085762  -0.019817   0.001313
     9  C   -0.327013  -0.144578  -1.965708   0.122437   0.085761  -0.079781
    10  H   -0.120119  -0.043498  -0.091440  -0.011793  -0.216488   0.003319
    11  C    0.251485   0.336960   0.002469   0.006668  -0.010722  -0.020411
    12  H   -0.146068  -0.282709  -0.114174   0.010554  -0.041732  -0.003171
    13  H    1.438062  -0.234454   0.022577  -0.000464   0.087609   0.004999
    14  H   -0.234454   1.217907   0.111092  -0.008153   0.017251  -0.002934
    15  C    0.022577   0.111092   7.902059   0.250681  -0.547574   0.047003
    16  O   -0.000464  -0.008153   0.250681   8.744135  -0.261182  -0.000137
    17  N    0.087609   0.017251  -0.547574  -0.261182   8.773867   0.245455
    18  H    0.004999  -0.002934   0.047003  -0.000137   0.245455   0.993205
    19  C    0.050487   0.007416  -0.189334   0.077809  -0.904788  -0.115053
    20  H   -0.000314  -0.000137   0.040524   0.001395  -0.116092   0.004856
    21  C   -0.014582   0.003892   0.000727   0.007419   0.133707  -0.005289
    22  H   -0.004512   0.000542  -0.017506  -0.000502  -0.145407   0.018347
    23  H    0.000689   0.000071  -0.006363  -0.001273   0.196494  -0.010418
    24  H   -0.000839   0.000502   0.043730   0.001775  -0.167308   0.003215
    25  C   -0.006644  -0.003142  -0.297586  -0.096115   0.140982  -0.029786
    26  O    0.000444  -0.000054   0.064973   0.003611  -0.008784  -0.000742
    27  N   -0.010806   0.005371   0.105741   0.063036  -0.072051   0.017735
    28  H    0.020273  -0.008084  -0.011312  -0.008774   0.017778  -0.002949
    29  C   -0.002284   0.001013  -0.092299  -0.025956  -0.071207  -0.003811
    30  H   -0.000452   0.000335  -0.006917   0.000952   0.007134   0.000474
    31  C   -0.000459   0.000397  -0.017110   0.003199  -0.022196   0.003520
    32  H    0.000149   0.000052  -0.005606  -0.000047   0.000229   0.000380
    33  H   -0.000184   0.000045   0.001061   0.000365   0.001477  -0.000004
    34  H    0.000075   0.000000   0.004147  -0.000284  -0.005437   0.000574
    35  C    0.008021  -0.003720   0.000344   0.019863   0.103242   0.002624
    36  O    0.004522   0.000883   0.007861  -0.006909   0.000248  -0.000525
    37  N   -0.000325  -0.000176  -0.003104  -0.000185  -0.004543   0.000063
    38  H    0.000145  -0.000034   0.000494   0.000002  -0.000290   0.000074
    39  C   -0.000214  -0.000009   0.002370   0.000729   0.000554   0.000050
    40  H   -0.000026  -0.000097   0.001701   0.000043  -0.000256   0.000134
    41  H    0.000017   0.000065  -0.000105  -0.000026   0.000097   0.000013
    42  H   -0.000084   0.000043   0.000159   0.000038  -0.000017   0.000010
             19         20         21         22         23         24
     1  H   -0.000143  -0.000012   0.000025   0.000003   0.000001   0.000003
     2  C    0.002854  -0.000087   0.000815   0.000103   0.000041  -0.000008
     3  H   -0.000102  -0.000026   0.000060   0.000008   0.000002   0.000006
     4  H    0.001086   0.000042   0.000120   0.000021   0.000017  -0.000053
     5  C   -0.029909  -0.003654   0.005815   0.000469   0.000404  -0.000171
     6  O    0.002821   0.000091  -0.000058  -0.000072   0.000015  -0.000037
     7  N    0.028866   0.002385  -0.008986  -0.000695  -0.000499   0.001657
     8  H   -0.026236  -0.001519  -0.000184  -0.000310  -0.000005   0.000312
     9  C   -0.296599  -0.059631   0.017243  -0.017836   0.022406  -0.034013
    10  H   -0.077508  -0.005538   0.009128   0.001593   0.000546  -0.001039
    11  C    0.004535  -0.003820  -0.007683  -0.002599  -0.001254   0.002903
    12  H   -0.035050  -0.001903  -0.003081  -0.000450  -0.000141   0.000331
    13  H    0.050487  -0.000314  -0.014582  -0.004512   0.000689  -0.000839
    14  H    0.007416  -0.000137   0.003892   0.000542   0.000071   0.000502
    15  C   -0.189334   0.040524   0.000727  -0.017506  -0.006363   0.043730
    16  O    0.077809   0.001395   0.007419  -0.000502  -0.001273   0.001775
    17  N   -0.904788  -0.116092   0.133707  -0.145407   0.196494  -0.167308
    18  H   -0.115053   0.004856  -0.005289   0.018347  -0.010418   0.003215
    19  C    8.262898  -0.044868  -0.107918   0.032706  -0.313397   0.318271
    20  H   -0.044868   1.259543   0.007146   0.080877  -0.051167  -0.031826
    21  C   -0.107918   0.007146   4.582960   0.430749   0.438877   0.017080
    22  H    0.032706   0.080877   0.430749   1.136455  -0.189861  -0.219034
    23  H   -0.313397  -0.051167   0.438877  -0.189861   1.164966  -0.209863
    24  H    0.318271  -0.031826   0.017080  -0.219034  -0.209863   1.254785
    25  C   -0.361219  -0.037032  -0.351583  -0.092057  -0.018202   0.126219
    26  O   -0.068437   0.068925   0.071482   0.009060   0.028351  -0.008279
    27  N   -0.092635   0.107067   0.098517   0.028154  -0.020615  -0.010017
    28  H   -0.048195  -0.008992  -0.068913  -0.025066   0.011917  -0.002049
    29  C    0.030024   0.032678   0.051054   0.021410   0.023679  -0.005769
    30  H   -0.042931   0.002042   0.005007   0.000607   0.002512  -0.001084
    31  C    0.070605  -0.000677  -0.028463  -0.000599  -0.008938   0.000643
    32  H    0.007753   0.000350  -0.001668   0.002375  -0.000669  -0.000465
    33  H   -0.004790  -0.000764  -0.000041  -0.001163  -0.000493   0.000227
    34  H    0.017319   0.000302  -0.008638  -0.000634  -0.002561   0.000985
    35  C   -0.182209  -0.014311  -0.000293  -0.012995  -0.006563   0.007133
    36  O    0.038354   0.002184  -0.009084  -0.000057   0.000032  -0.000522
    37  N    0.012346   0.000750  -0.001674   0.000424   0.000075  -0.000172
    38  H   -0.001422  -0.000115  -0.000220  -0.000126  -0.000007  -0.000020
    39  C   -0.002134  -0.000129   0.000111  -0.000033  -0.000081   0.000052
    40  H    0.000335   0.000016   0.000041   0.000014  -0.000012   0.000001
    41  H   -0.000101  -0.000024   0.000022  -0.000001  -0.000005   0.000004
    42  H   -0.000164  -0.000005   0.000026  -0.000007  -0.000005   0.000004
             25         26         27         28         29         30
     1  H    0.000025   0.000000  -0.000009   0.000079   0.000103   0.000005
     2  C   -0.000261   0.000034   0.000205  -0.000890   0.002237   0.000288
     3  H   -0.000072   0.000004   0.000021  -0.000078   0.000044   0.000002
     4  H    0.000300   0.000013   0.000044  -0.000410   0.001242   0.000201
     5  C   -0.003374   0.000079   0.003179  -0.002682   0.004365  -0.000053
     6  O   -0.000291   0.000004  -0.000196   0.000041   0.000046  -0.000001
     7  N   -0.026308   0.000892   0.002179   0.005633  -0.007608  -0.004597
     8  H    0.002227   0.000033  -0.000940   0.000159  -0.013557  -0.001435
     9  C    0.043324  -0.002534  -0.041810  -0.019587   0.008298   0.006083
    10  H    0.005752  -0.000057  -0.004856   0.000414   0.000220   0.000518
    11  C    0.007433   0.000683  -0.006712   0.007922  -0.018305  -0.000566
    12  H    0.014486   0.000416  -0.008495   0.007039  -0.012030  -0.002017
    13  H   -0.006644   0.000444  -0.010806   0.020273  -0.002284  -0.000452
    14  H   -0.003142  -0.000054   0.005371  -0.008084   0.001013   0.000335
    15  C   -0.297586   0.064973   0.105741  -0.011312  -0.092299  -0.006917
    16  O   -0.096115   0.003611   0.063036  -0.008774  -0.025956   0.000952
    17  N    0.140982  -0.008784  -0.072051   0.017778  -0.071207   0.007134
    18  H   -0.029786  -0.000742   0.017735  -0.002949  -0.003811   0.000474
    19  C   -0.361219  -0.068437  -0.092635  -0.048195   0.030024  -0.042931
    20  H   -0.037032   0.068925   0.107067  -0.008992   0.032678   0.002042
    21  C   -0.351583   0.071482   0.098517  -0.068913   0.051054   0.005007
    22  H   -0.092057   0.009060   0.028154  -0.025066   0.021410   0.000607
    23  H   -0.018202   0.028351  -0.020615   0.011917   0.023679   0.002512
    24  H    0.126219  -0.008279  -0.010017  -0.002049  -0.005769  -0.001084
    25  C    6.334862  -0.072197  -0.330405  -0.013829   0.137548   0.192311
    26  O   -0.072197   8.930260  -0.045852  -0.011815  -0.091296  -0.000033
    27  N   -0.330405  -0.045852   8.438314   0.077737  -1.456019  -0.209855
    28  H   -0.013829  -0.011815   0.077737   1.159130  -0.014323   0.009310
    29  C    0.137548  -0.091296  -1.456019  -0.014323  10.346632   0.121236
    30  H    0.192311  -0.000033  -0.209855   0.009310   0.121236   1.393427
    31  C   -0.065454   0.027538   0.097372  -0.012345  -0.196330  -0.028204
    32  H    0.084936  -0.007349  -0.191232  -0.010154   0.318346   0.085637
    33  H   -0.081288   0.005714   0.247035   0.018827  -0.525745  -0.107423
    34  H    0.034026   0.020731  -0.044052  -0.013594  -0.018733  -0.023227
    35  C   -0.320905   0.050857   0.738055  -0.110887  -2.453776  -0.192488
    36  O    0.019707  -0.002748  -0.098158   0.069791   0.216232  -0.017817
    37  N    0.029345   0.002796  -0.079579   0.010714   0.380447  -0.035594
    38  H    0.006297  -0.000228   0.005798   0.001438  -0.138848   0.031578
    39  C   -0.006119   0.002142   0.014064  -0.006358  -0.073842  -0.004121
    40  H    0.000504   0.000172  -0.000579  -0.001935   0.053036   0.003519
    41  H   -0.001869   0.000111   0.000351   0.000392   0.005585  -0.000073
    42  H    0.001877   0.000033   0.005105   0.000767  -0.046492  -0.004379
             31         32         33         34         35         36
     1  H   -0.000005   0.000000  -0.000001  -0.000001  -0.000057   0.000034
     2  C   -0.000033   0.000011  -0.000007  -0.000009  -0.002753   0.000029
     3  H    0.000005   0.000001   0.000000   0.000000  -0.000046  -0.000011
     4  H   -0.000029   0.000003  -0.000006  -0.000003  -0.001302   0.000067
     5  C    0.000210   0.000086   0.000000   0.000008   0.001181  -0.001121
     6  O   -0.000014  -0.000001  -0.000001  -0.000002  -0.000258   0.000015
     7  N    0.001606   0.000121   0.000103   0.000251   0.040340  -0.004875
     8  H    0.000313  -0.000108   0.000119   0.000048   0.010356  -0.001122
     9  C   -0.001461   0.001322  -0.000834   0.000222  -0.068702   0.004655
    10  H   -0.000460  -0.000023  -0.000034  -0.000066  -0.004278   0.000485
    11  C    0.002676  -0.000660   0.000084   0.000786   0.013432  -0.019103
    12  H   -0.002885  -0.001327   0.000395  -0.000341   0.015106  -0.012109
    13  H   -0.000459   0.000149  -0.000184   0.000075   0.008021   0.004522
    14  H    0.000397   0.000052   0.000045   0.000000  -0.003720   0.000883
    15  C   -0.017110  -0.005606   0.001061   0.004147   0.000344   0.007861
    16  O    0.003199  -0.000047   0.000365  -0.000284   0.019863  -0.006909
    17  N   -0.022196   0.000229   0.001477  -0.005437   0.103242   0.000248
    18  H    0.003520   0.000380  -0.000004   0.000574   0.002624  -0.000525
    19  C    0.070605   0.007753  -0.004790   0.017319  -0.182209   0.038354
    20  H   -0.000677   0.000350  -0.000764   0.000302  -0.014311   0.002184
    21  C   -0.028463  -0.001668  -0.000041  -0.008638  -0.000293  -0.009084
    22  H   -0.000599   0.002375  -0.001163  -0.000634  -0.012995  -0.000057
    23  H   -0.008938  -0.000669  -0.000493  -0.002561  -0.006563   0.000032
    24  H    0.000643  -0.000465   0.000227   0.000985   0.007133  -0.000522
    25  C   -0.065454   0.084936  -0.081288   0.034026  -0.320905   0.019707
    26  O    0.027538  -0.007349   0.005714   0.020731   0.050857  -0.002748
    27  N    0.097372  -0.191232   0.247035  -0.044052   0.738055  -0.098158
    28  H   -0.012345  -0.010154   0.018827  -0.013594  -0.110887   0.069791
    29  C   -0.196330   0.318346  -0.525745  -0.018733  -2.453776   0.216232
    30  H   -0.028204   0.085637  -0.107423  -0.023227  -0.192488  -0.017817
    31  C    4.349309   0.245771   0.294508   0.391838  -0.023820   0.003469
    32  H    0.245771   1.127653  -0.221922  -0.174875  -0.230090   0.014390
    33  H    0.294508  -0.221922   1.367268  -0.178069   0.362939  -0.017743
    34  H    0.391838  -0.174875  -0.178069   1.030934  -0.021731   0.002106
    35  C   -0.023820  -0.230090   0.362939  -0.021731   7.337255   0.052825
    36  O    0.003469   0.014390  -0.017743   0.002106   0.052825   8.824853
    37  N   -0.003635   0.006009  -0.060975   0.025539  -0.334100  -0.213660
    38  H   -0.023353   0.006054   0.003203  -0.004143   0.121910   0.003674
    39  C    0.000004  -0.011633   0.007008   0.006304  -0.074449   0.001887
    40  H   -0.013289  -0.002138   0.001337   0.000361  -0.057476   0.002782
    41  H    0.001726   0.000244   0.000017  -0.000042  -0.034784   0.009467
    42  H    0.013280  -0.001244   0.001422   0.001084   0.024234   0.018891
             37         38         39         40         41         42
     1  H    0.000001  -0.000001  -0.000006   0.000012  -0.000002  -0.000001
     2  C    0.000139   0.000001  -0.000023  -0.000142  -0.000002   0.000007
     3  H    0.000003   0.000000  -0.000003  -0.000003   0.000000   0.000000
     4  H    0.000202  -0.000011  -0.000011   0.000021  -0.000053   0.000004
     5  C    0.000196   0.000018  -0.000475   0.000408  -0.000078  -0.000039
     6  O    0.000008   0.000003   0.000004  -0.000057   0.000004   0.000001
     7  N   -0.002880   0.000463  -0.001634  -0.000678   0.000068  -0.000067
     8  H   -0.001535   0.000212   0.000063   0.000105  -0.000001   0.000023
     9  C    0.014828  -0.001410   0.002372   0.003043  -0.000478  -0.000125
    10  H    0.000508  -0.000074   0.000161   0.000037  -0.000030   0.000002
    11  C   -0.002343   0.000270   0.001074  -0.000400   0.000296   0.000099
    12  H   -0.003586   0.000897   0.000181  -0.003973  -0.000786   0.000345
    13  H   -0.000325   0.000145  -0.000214  -0.000026   0.000017  -0.000084
    14  H   -0.000176  -0.000034  -0.000009  -0.000097   0.000065   0.000043
    15  C   -0.003104   0.000494   0.002370   0.001701  -0.000105   0.000159
    16  O   -0.000185   0.000002   0.000729   0.000043  -0.000026   0.000038
    17  N   -0.004543  -0.000290   0.000554  -0.000256   0.000097  -0.000017
    18  H    0.000063   0.000074   0.000050   0.000134   0.000013   0.000010
    19  C    0.012346  -0.001422  -0.002134   0.000335  -0.000101  -0.000164
    20  H    0.000750  -0.000115  -0.000129   0.000016  -0.000024  -0.000005
    21  C   -0.001674  -0.000220   0.000111   0.000041   0.000022   0.000026
    22  H    0.000424  -0.000126  -0.000033   0.000014  -0.000001  -0.000007
    23  H    0.000075  -0.000007  -0.000081  -0.000012  -0.000005  -0.000005
    24  H   -0.000172  -0.000020   0.000052   0.000001   0.000004   0.000004
    25  C    0.029345   0.006297  -0.006119   0.000504  -0.001869   0.001877
    26  O    0.002796  -0.000228   0.002142   0.000172   0.000111   0.000033
    27  N   -0.079579   0.005798   0.014064  -0.000579   0.000351   0.005105
    28  H    0.010714   0.001438  -0.006358  -0.001935   0.000392   0.000767
    29  C    0.380447  -0.138848  -0.073842   0.053036   0.005585  -0.046492
    30  H   -0.035594   0.031578  -0.004121   0.003519  -0.000073  -0.004379
    31  C   -0.003635  -0.023353   0.000004  -0.013289   0.001726   0.013280
    32  H    0.006009   0.006054  -0.011633  -0.002138   0.000244  -0.001244
    33  H   -0.060975   0.003203   0.007008   0.001337   0.000017   0.001422
    34  H    0.025539  -0.004143   0.006304   0.000361  -0.000042   0.001084
    35  C   -0.334100   0.121910  -0.074449  -0.057476  -0.034784   0.024234
    36  O   -0.213660   0.003674   0.001887   0.002782   0.009467   0.018891
    37  N    7.414901   0.174449   0.266876  -0.008623  -0.034102  -0.090266
    38  H    0.174449   1.050551  -0.124978  -0.004862   0.009778   0.008565
    39  C    0.266876  -0.124978   4.104257   0.467174   0.346600   0.341212
    40  H   -0.008623  -0.004862   0.467174   0.949266  -0.107913  -0.130183
    41  H   -0.034102   0.009778   0.346600  -0.107913   1.047872  -0.152700
    42  H   -0.090266   0.008565   0.341212  -0.130183  -0.152700   1.122407
 Mulliken atomic charges:
              1
     1  H    0.039465
     2  C    0.409071
     3  H    0.042294
     4  H   -0.174996
     5  C    0.434607
     6  O   -0.873698
     7  N   -0.097322
     8  H   -0.103467
     9  C    0.066849
    10  H   -0.149088
    11  C    0.954224
    12  H   -0.068387
    13  H   -0.126220
    14  H   -0.099405
    15  C    0.653098
    16  O   -0.867227
    17  N   -0.227642
    18  H   -0.078873
    19  C   -0.021344
    20  H   -0.228532
    21  C    0.736336
    22  H   -0.032394
    23  H   -0.048703
    24  H   -0.087269
    25  C    1.033578
    26  O   -0.968957
    27  N   -0.330210
    28  H   -0.016144
    29  C   -0.487245
    30  H   -0.179913
    31  C    0.941770
    32  H   -0.040664
    33  H   -0.111666
    34  H   -0.041195
    35  C    1.242278
    36  O   -0.893881
    37  N   -0.459564
    38  H   -0.125734
    39  C    0.741004
    40  H   -0.151420
    41  H   -0.089557
    42  H   -0.113859
 Sum of Mulliken atomic charges =   0.00000
 Mulliken charges with hydrogens summed into heavy atoms:
              1
     2  C    0.315834
     5  C    0.434607
     6  O   -0.873698
     7  N   -0.200789
     9  C   -0.082238
    11  C    0.660212
    15  C    0.653098
    16  O   -0.867227
    17  N   -0.306515
    19  C   -0.249875
    21  C    0.567970
    25  C    1.033578
    26  O   -0.968957
    27  N   -0.346353
    29  C   -0.667158
    31  C    0.748245
    35  C    1.242278
    36  O   -0.893881
    37  N   -0.585297
    39  C    0.386169
 Sum of Mulliken charges with hydrogens summed into heavy atoms =   0.00000
 Electronic spatial extent (au):  <R**2>=           7381.2959
 Charge=              0.0000 electrons
 Dipole moment (field-independent basis, Debye):
    X=             -3.4487    Y=              1.7793    Z=              0.4723  Tot=              3.9092
 Quadrupole moment (field-independent basis, Debye-Ang):
   XX=           -130.4047   YY=           -105.3082   ZZ=           -127.6651
   XY=            -14.1908   XZ=            -13.2845   YZ=            -17.8471
 Traceless Quadrupole moment (field-independent basis, Debye-Ang):
   XX=             -9.2787   YY=             15.8178   ZZ=             -6.5391
   XY=            -14.1908   XZ=            -13.2845   YZ=            -17.8471
 Octapole moment (field-independent basis, Debye-Ang**2):
  XXX=           -149.2144  YYY=             27.0139  ZZZ=              6.1315  XYY=             -8.5313
  XXY=             67.0522  XXZ=            -76.4731  XZZ=              9.9104  YZZ=             10.6725
  YYZ=              7.4651  XYZ=             15.0755
 Hexadecapole moment (field-independent basis, Debye-Ang**3):
 XXXX=          -6586.4316 YYYY=          -2667.1553 ZZZZ=           -717.3518 XXXY=           -149.5051
 XXXZ=           -396.9990 YYYX=           -142.4126 YYYZ=            -57.0896 ZZZX=             -8.5002
 ZZZY=            -37.5653 XXYY=          -1386.5750 XXZZ=          -1166.6052 YYZZ=           -624.9714
 XXYZ=           -139.5542 YYXZ=             -9.7062 ZZXY=            -38.2127
 N-N= 1.664633222928D+03 E-N=-5.637130600154D+03  KE= 9.830640103133D+02
 1\1\GINC-TACHIKOMA\SP\RMP2-FC\Aug-CC-pVDZ\C12H22N4O4\STEBOSS\18-Jan-20
 17\0\\#SP MP2/aug-cc-pVDZ\\Phi Psi fixed scan\\0,1\H,0,5.4655,2.4625,-
 0.9572\C,0,5.1131,1.4962,-1.3314\H,0,5.9934,0.9321,-1.6552\H,0,4.4596,
 1.6649,-2.1928\C,0,4.4403,0.744,-0.1923\O,0,5.0319,0.4727,0.8492\N,0,3
 .1382,0.4025,-0.4034\H,0,2.6893,0.5254,-1.3038\C,0,2.3932,-0.3957,0.54
 99\H,0,3.0611,-1.1747,0.9416\C,0,1.8786,0.4451,1.7359\H,0,1.1488,1.189
 8,1.4035\H,0,1.4033,-0.1862,2.4964\H,0,2.7308,0.9482,2.1991\C,0,1.2405
 ,-1.0518,-0.2265\O,0,0.9627,-0.7317,-1.3789\N,0,0.5321,-1.9986,0.453\H
 ,0,0.8244,-2.2565,1.3859\C,0,-0.5977,-2.706,-0.1475\H,0,-0.2631,-3.182
 6,-1.0749\C,0,-1.1193,-3.776,0.8166\H,0,-1.4727,-3.3266,1.7523\H,0,-1.
 9568,-4.3024,0.3522\H,0,-0.3372,-4.5076,1.0494\C,0,-1.7547,-1.7872,-0.
 5928\O,0,-2.512,-2.1478,-1.4875\N,0,-1.924,-0.645,0.1203\H,0,-1.203,-0
 .3181,0.7537\C,0,-2.8824,0.3654,-0.2832\H,0,-2.9457,0.3563,-1.379\C,0,
 -4.2849,0.0879,0.2905\H,0,-4.2597,0.0929,1.3851\H,0,-5.0117,0.8371,-0.
 0437\H,0,-4.6182,-0.8947,-0.0537\C,0,-2.3309,1.7199,0.1948\O,0,-1.4323
 ,1.7877,1.0324\N,0,-2.9285,2.8101,-0.3516\H,0,-3.6286,2.6652,-1.0655\C
 ,0,-2.565,4.1736,-0.0021\H,0,-1.8057,4.1204,0.7786\H,0,-2.1528,4.7063,
 -0.8668\H,0,-3.4329,4.726,0.3751\\Version=EM64L-G09RevA.02\State=1-A\H
 F=-984.6985704\MP2=-987.8942893\RMSD=2.898e-09\PG=C01 [X(C12H22N4O4)]\
 \@


 THE SECRET OF SUCCESS IN LIFE IS TO EAT WHAT YOU LIKE, AND LET THE FOOD
 FIGHT IT OUT INSIDE YOU. -- FROM A FORTUNE COOKIE
 Job cpu time:  0 days 14 hours 35 minutes 36.0 seconds.
 File lengths (MBytes):  RWF= 163815 Int=      0 D2E=      0 Chk=     19 Scr=      1
 Normal termination of Gaussian 09 at Wed Jan 18 20:05:02 2017.
