 Entering Gaussian System, Link 0=g09
 Initial command:
 /home/steboss/Software/g09/l1.exe /home/steboss/projects/phi_psi_scan/alanine/MP2/345/5631/Gau-11780.inp -scrdir=/home/steboss/projects/phi_psi_scan/alanine/MP2/345/5631/
 Entering Link 1 = /home/steboss/Software/g09/l1.exe PID=     11824.
  
 Copyright (c) 1988,1990,1992,1993,1995,1998,2003,2009, Gaussian, Inc.
                  All Rights Reserved.
  
 This is part of the Gaussian(R) 09 program.  It is based on
 the Gaussian(R) 03 system (copyright 2003, Gaussian, Inc.),
 the Gaussian(R) 98 system (copyright 1998, Gaussian, Inc.),
 the Gaussian(R) 94 system (copyright 1995, Gaussian, Inc.),
 the Gaussian 92(TM) system (copyright 1992, Gaussian, Inc.),
 the Gaussian 90(TM) system (copyright 1990, Gaussian, Inc.),
 the Gaussian 88(TM) system (copyright 1988, Gaussian, Inc.),
 the Gaussian 86(TM) system (copyright 1986, Carnegie Mellon
 University), and the Gaussian 82(TM) system (copyright 1983,
 Carnegie Mellon University). Gaussian is a federally registered
 trademark of Gaussian, Inc.
  
 This software contains proprietary and confidential information,
 including trade secrets, belonging to Gaussian, Inc.
  
 This software is provided under written license and may be
 used, copied, transmitted, or stored only in accord with that
 written license.
  
 The following legend is applicable only to US Government
 contracts under FAR:
  
                    RESTRICTED RIGHTS LEGEND
  
 Use, reproduction and disclosure by the US Government is
 subject to restrictions as set forth in subparagraphs (a)
 and (c) of the Commercial Computer Software - Restricted
 Rights clause in FAR 52.227-19.
  
 Gaussian, Inc.
 340 Quinnipiac St., Bldg. 40, Wallingford CT 06492
  
  
 ---------------------------------------------------------------
 Warning -- This program may not be used in any manner that
 competes with the business of Gaussian, Inc. or will provide
 assistance to any competitor of Gaussian, Inc.  The licensee
 of this program is prohibited from giving any competitor of
 Gaussian, Inc. access to this program.  By using this program,
 the user acknowledges that Gaussian, Inc. is engaged in the
 business of creating and licensing software in the field of
 computational chemistry and represents and warrants to the
 licensee that it is not a competitor of Gaussian, Inc. and that
 it will not use this program in any manner prohibited above.
 ---------------------------------------------------------------
  

 Cite this work as:
 Gaussian 09, Revision A.02,
 M. J. Frisch, G. W. Trucks, H. B. Schlegel, G. E. Scuseria, 
 M. A. Robb, J. R. Cheeseman, G. Scalmani, V. Barone, B. Mennucci, 
 G. A. Petersson, H. Nakatsuji, M. Caricato, X. Li, H. P. Hratchian, 
 A. F. Izmaylov, J. Bloino, G. Zheng, J. L. Sonnenberg, M. Hada, 
 M. Ehara, K. Toyota, R. Fukuda, J. Hasegawa, M. Ishida, T. Nakajima, 
 Y. Honda, O. Kitao, H. Nakai, T. Vreven, J. A. Montgomery, Jr., 
 J. E. Peralta, F. Ogliaro, M. Bearpark, J. J. Heyd, E. Brothers, 
 K. N. Kudin, V. N. Staroverov, R. Kobayashi, J. Normand, 
 K. Raghavachari, A. Rendell, J. C. Burant, S. S. Iyengar, J. Tomasi, 
 M. Cossi, N. Rega, J. M. Millam, M. Klene, J. E. Knox, J. B. Cross, 
 V. Bakken, C. Adamo, J. Jaramillo, R. Gomperts, R. E. Stratmann, 
 O. Yazyev, A. J. Austin, R. Cammi, C. Pomelli, J. W. Ochterski, 
 R. L. Martin, K. Morokuma, V. G. Zakrzewski, G. A. Voth, 
 P. Salvador, J. J. Dannenberg, S. Dapprich, A. D. Daniels, 
 O. Farkas, J. B. Foresman, J. V. Ortiz, J. Cioslowski, 
 and D. J. Fox, Gaussian, Inc., Wallingford CT, 2009.
 
 ******************************************
 Gaussian 09:  EM64L-G09RevA.02 11-Jun-2009
                13-Feb-2017 
 ******************************************
 %chk=structure_45.chk
 %NProcShared=8
 Will use up to    8 processors via shared memory.
 -------------------
 #SP MP2/aug-cc-pVDZ
 -------------------
 1/38=1/1;
 2/12=2,17=6,18=5,40=1/2;
 3/5=16,7=10,11=9,16=1,25=1,30=1/1,2,3;
 4//1;
 5/5=2,38=5/2;
 8/10=1/1;
 9/16=-3/6;
 6/7=2,8=2,9=2,10=2/1;
 99/5=1,9=1/99;
 -------------------------------
 Single Point calculation at MP2
 -------------------------------
 Symbolic Z-matrix:
 Charge =  0 Multiplicity = 1
 H                    -3.469    -0.7811    1.3606 
 C                    -3.3268   -0.4892    0.3148 
 H                    -3.779     0.4953    0.1609 
 H                    -3.8493   -1.2245   -0.3029 
 C                    -1.8383   -0.5575   -0.0071 
 O                    -1.2703   -1.6507   -0.0069 
 N                    -1.2681    0.6446   -0.2992 
 H                    -1.9162    1.4186   -0.2511 
 C                     0.1232    1.1382   -0.4823 
 H                     0.2798    1.2404   -1.5676 
 C                     0.1939    2.5352    0.1418 
 H                     0.0435    2.4839    1.2248 
 H                     1.1756    2.9711   -0.0409 
 H                    -0.5713    3.1903   -0.2937 
 C                     1.3486    0.2929   -0.0111 
 O                     2.3179    0.8914    0.4513 
 N                     1.3637   -1.0272   -0.2971 
 H                     0.456    -1.4891   -0.3881 
 C                     2.519    -1.8272    0.0788 
 H                     3.4313   -1.3585   -0.2983 
 H                     2.6179   -1.9271    1.1677 
 H                     2.4129   -2.8213   -0.3622 
 
                          Input orientation:                          
 ---------------------------------------------------------------------
 Center     Atomic      Atomic             Coordinates (Angstroms)
 Number     Number       Type             X           Y           Z
 ---------------------------------------------------------------------
      1          1           0       -3.469000   -0.781100    1.360600
      2          6           0       -3.326800   -0.489200    0.314800
      3          1           0       -3.779000    0.495300    0.160900
      4          1           0       -3.849300   -1.224500   -0.302900
      5          6           0       -1.838300   -0.557500   -0.007100
      6          8           0       -1.270300   -1.650700   -0.006900
      7          7           0       -1.268100    0.644600   -0.299200
      8          1           0       -1.916200    1.418600   -0.251100
      9          6           0        0.123200    1.138200   -0.482300
     10          1           0        0.279800    1.240400   -1.567600
     11          6           0        0.193900    2.535200    0.141800
     12          1           0        0.043500    2.483900    1.224800
     13          1           0        1.175600    2.971100   -0.040900
     14          1           0       -0.571300    3.190300   -0.293700
     15          6           0        1.348600    0.292900   -0.011100
     16          8           0        2.317900    0.891400    0.451300
     17          7           0        1.363700   -1.027200   -0.297100
     18          1           0        0.456000   -1.489100   -0.388100
     19          6           0        2.519000   -1.827200    0.078800
     20          1           0        3.431300   -1.358500   -0.298300
     21          1           0        2.617900   -1.927100    1.167700
     22          1           0        2.412900   -2.821300   -0.362200
 ---------------------------------------------------------------------
                    Distance matrix (angstroms):
                    1          2          3          4          5
     1  H    0.000000
     2  C    1.095045   0.000000
     3  H    1.778926   1.094262   0.000000
     4  H    1.763084   1.093264   1.782629   0.000000
     5  C    2.140043   1.524440   2.214256   2.139277   0.000000
     6  O    2.731399   2.383645   3.305609   2.630685   1.231954
     7  N    3.103469   2.429145   2.557069   3.186870   1.362166
     8  H    3.138064   2.439208   2.119493   3.274986   1.992630
     9  C    4.470335   3.896960   4.006768   4.625505   2.636038
    10  H    5.168590   4.420691   4.474008   4.972390   3.186527
    11  C    5.089220   4.644594   4.466038   5.539004   3.703620
    12  H    4.797533   4.585449   4.438234   5.589275   3.782706
    13  H    6.133149   5.689623   5.542416   6.551437   4.640663
    14  H    5.187041   4.637000   4.214146   5.498711   3.966539
    15  C    5.122920   4.751553   5.134475   5.422713   3.298413
    16  O    6.091986   5.812687   6.116651   6.563551   4.425318
    17  N    5.115029   4.760741   5.382856   5.216736   3.249234
    18  H    4.354864   3.975355   4.708978   4.314265   2.505365
    19  C    6.212365   6.001610   6.713088   6.408134   4.539337
    20  H    7.120357   6.841308   7.458945   7.281834   5.338079
    21  H    6.196844   6.175310   6.913899   6.669407   4.807669
    22  H    6.459660   6.232269   7.043656   6.462850   4.829450
                    6          7          8          9         10
     6  O    0.000000
     7  N    2.313838   0.000000
     8  H    3.146017   1.010655   0.000000
     9  C    3.153698   1.487576   2.071528   0.000000
    10  H    3.632775   2.088016   2.566582   1.101292   0.000000
    11  C    4.437088   2.430287   2.419440   1.531701   2.146144
    12  H    4.509775   2.725050   2.674616   2.175190   3.065881
    13  H    5.229208   3.383931   3.466074   2.159144   2.475600
    14  H    4.899606   2.639346   2.224745   2.174630   2.479779
    15  C    3.261324   2.655902   3.461751   1.561463   2.112530
    16  O    4.421244   3.671996   4.324223   2.397755   2.889915
    17  N    2.722301   3.117898   4.091674   2.502418   2.816207
    18  H    1.775258   2.744649   3.755106   2.649969   2.978664
    19  C    3.794376   4.538150   5.505911   3.853348   4.139423
    20  H    4.719676   5.108500   6.025800   4.148601   4.277541
    21  H    4.071140   4.885328   5.810746   4.282767   4.793916
    22  H    3.881044   5.056302   6.060545   4.575455   4.743470
                   11         12         13         14         15
    11  C    0.000000
    12  H    1.094596   0.000000
    13  H    1.089552   1.766638   0.000000
    14  H    1.097428   1.784047   1.778656   0.000000
    15  C    2.526781   2.833940   2.683947   3.487235   0.000000
    16  O    2.703561   2.882231   2.423275   3.766622   1.229455
    17  N    3.775150   4.048077   4.010913   4.640209   1.350810
    18  H    4.067491   4.307706   4.531198   4.791768   2.028395
    19  C    4.943743   5.101666   4.984249   5.904576   2.423374
    20  H    5.082848   5.344255   4.888750   6.059077   2.673433
    21  H    5.180769   5.107614   5.247219   6.204391   2.815864
    22  H    5.819800   6.023103   5.931782   6.711891   3.309720
                   16         17         18         19         20
    16  O    0.000000
    17  N    2.269719   0.000000
    18  H    3.136566   1.022522   0.000000
    19  C    2.751360   1.454654   2.142026   0.000000
    20  H    2.619849   2.093975   2.979518   1.092783   0.000000
    21  H    2.923555   2.128022   2.699291   1.097936   1.770334
    22  H    3.801966   2.079388   2.367464   1.092691   1.783537
                   21         22
    21  H    0.000000
    22  H    1.783876   0.000000
 Stoichiometry    C6H12N2O2
 Framework group  C1[X(C6H12N2O2)]
 Deg. of freedom    60
 Full point group                 C1      NOp   1
 Largest Abelian subgroup         C1      NOp   1
 Largest concise Abelian subgroup C1      NOp   1
                         Standard orientation:                         
 ---------------------------------------------------------------------
 Center     Atomic      Atomic             Coordinates (Angstroms)
 Number     Number       Type             X           Y           Z
 ---------------------------------------------------------------------
      1          1           0       -3.469003   -0.781073    1.360604
      2          6           0       -3.326801   -0.489174    0.314804
      3          1           0       -3.778994    0.495329    0.160904
      4          1           0       -3.849306   -1.224470   -0.302896
      5          6           0       -1.838301   -0.557484   -0.007096
      6          8           0       -1.270309   -1.650688   -0.006896
      7          7           0       -1.268093    0.644612   -0.299196
      8          1           0       -1.916187    1.418616   -0.251096
      9          6           0        0.123211    1.138202   -0.482296
     10          1           0        0.279811    1.240401   -1.567596
     11          6           0        0.193920    2.535201    0.141804
     12          1           0        0.043520    2.483902    1.224804
     13          1           0        1.175624    2.971094   -0.040896
     14          1           0       -0.571275    3.190307   -0.293696
     15          6           0        1.348605    0.292893   -0.011096
     16          8           0        2.317909    0.891386    0.451304
     17          7           0        1.363695   -1.027207   -0.297096
     18          1           0        0.455992   -1.489101   -0.388096
     19          6           0        2.518990   -1.827215    0.078804
     20          1           0        3.431293   -1.358522   -0.298296
     21          1           0        2.617889   -1.927116    1.167704
     22          1           0        2.412883   -2.821314   -0.362196
 ---------------------------------------------------------------------
 Rotational constants (GHZ):      1.7941033      0.9671607      0.6576716
 Standard basis: Aug-CC-pVDZ (5D, 7F)
 There are   338 symmetry adapted basis functions of A   symmetry.
 Integral buffers will be    131072 words long.
 Raffenetti 1 integral format.
 Two-electron integral symmetry is turned on.
   338 basis functions,   562 primitive gaussians,   358 cartesian basis functions
    39 alpha electrons       39 beta electrons
       nuclear repulsion energy       557.4520932587 Hartrees.
 NAtoms=   22 NActive=   22 NUniq=   22 SFac= 7.50D-01 NAtFMM=   80 NAOKFM=F Big=F
 One-electron integrals computed using PRISM.
 NBasis=   338 RedAO= T  NBF=   338
 NBsUse=   338 1.00D-06 NBFU=   338
 Harris functional with IExCor=  205 diagonalized for initial guess.
 ExpMin= 2.97D-02 ExpMax= 1.17D+04 ExpMxC= 4.01D+02 IAcc=3 IRadAn=         0 AccDes= 0.00D+00
 HarFok:  IExCor=  205 AccDes= 0.00D+00 IRadAn=         0 IDoV= 1
 ScaDFX=  1.000000  1.000000  1.000000  1.000000
 FoFCou: FMM=F IPFlag=           0 FMFlag=      100000 FMFlg1=           0
         NFxFlg=           0 DoJE=T BraDBF=F KetDBF=T FulRan=T
         Omega=  0.000000  0.000000  1.000000  0.000000  0.000000 ICntrl=     500 IOpCl=  0
         NMat0=    1 NMatS0=    1 NMatT0=    0 NMatD0=    1 NMtDS0=    0 NMtDT0=    0
         I1Cent=           4 NGrid=           0.
 Petite list used in FoFCou.
 Initial guess orbital symmetries:
       Occupied  (A) (A) (A) (A) (A) (A) (A) (A) (A) (A) (A) (A)
                 (A) (A) (A) (A) (A) (A) (A) (A) (A) (A) (A) (A)
                 (A) (A) (A) (A) (A) (A) (A) (A) (A) (A) (A) (A)
                 (A) (A) (A)
       Virtual   (A) (A) (A) (A) (A) (A) (A) (A) (A) (A) (A) (A)
                 (A) (A) (A) (A) (A) (A) (A) (A) (A) (A) (A) (A)
                 (A) (A) (A) (A) (A) (A) (A) (A) (A) (A) (A) (A)
                 (A) (A) (A) (A) (A) (A) (A) (A) (A) (A) (A) (A)
                 (A) (A) (A) (A) (A) (A) (A) (A) (A) (A) (A) (A)
                 (A) (A) (A) (A) (A) (A) (A) (A) (A) (A) (A) (A)
                 (A) (A) (A) (A) (A) (A) (A) (A) (A) (A) (A) (A)
                 (A) (A) (A) (A) (A) (A) (A) (A) (A) (A) (A) (A)
                 (A) (A) (A) (A) (A) (A) (A) (A) (A) (A) (A) (A)
                 (A) (A) (A) (A) (A) (A) (A) (A) (A) (A) (A) (A)
                 (A) (A) (A) (A) (A) (A) (A) (A) (A) (A) (A) (A)
                 (A) (A) (A) (A) (A) (A) (A) (A) (A) (A) (A) (A)
                 (A) (A) (A) (A) (A) (A) (A) (A) (A) (A) (A) (A)
                 (A) (A) (A) (A) (A) (A) (A) (A) (A) (A) (A) (A)
                 (A) (A) (A) (A) (A) (A) (A) (A) (A) (A) (A) (A)
                 (A) (A) (A) (A) (A) (A) (A) (A) (A) (A) (A) (A)
                 (A) (A) (A) (A) (A) (A) (A) (A) (A) (A) (A) (A)
                 (A) (A) (A) (A) (A) (A) (A) (A) (A) (A) (A) (A)
                 (A) (A) (A) (A) (A) (A) (A) (A) (A) (A) (A) (A)
                 (A) (A) (A) (A) (A) (A) (A) (A) (A) (A) (A) (A)
                 (A) (A) (A) (A) (A) (A) (A) (A) (A) (A) (A) (A)
                 (A) (A) (A) (A) (A) (A) (A) (A) (A) (A) (A) (A)
                 (A) (A) (A) (A) (A) (A) (A) (A) (A) (A) (A) (A)
                 (A) (A) (A) (A) (A) (A) (A) (A) (A) (A) (A) (A)
                 (A) (A) (A) (A) (A) (A) (A) (A) (A) (A) (A)
 The electronic state of the initial guess is 1-A.
 Requested convergence on RMS density matrix=1.00D-08 within 128 cycles.
 Requested convergence on MAX density matrix=1.00D-06.
 Requested convergence on             energy=1.00D-06.
 No special actions if energy rises.
 Initial convergence to 1.0D-05 achieved.  Increase integral accuracy.
 SCF Done:  E(RHF) =  -492.910818798     A.U. after   14 cycles
             Convg  =    0.7803D-08             -V/T =  2.0017
 ExpMin= 2.97D-02 ExpMax= 1.17D+04 ExpMxC= 4.01D+02 IAcc=3 IRadAn=         5 AccDes= 0.00D+00
 HarFok:  IExCor=  205 AccDes= 0.00D+00 IRadAn=         5 IDoV=-2
 ScaDFX=  1.000000  1.000000  1.000000  1.000000
 Range of M.O.s used for correlation:    11   338
 NBasis=   338 NAE=    39 NBE=    39 NFC=    10 NFV=     0
 NROrb=    328 NOA=    29 NOB=    29 NVA=   299 NVB=   299

 **** Warning!!: The largest alpha MO coefficient is  0.85272070D+02

 Disk-based method using OVN memory for 29 occupieds at a time.
 Estimated scratch disk usage=  1384577276 words.
 Actual    scratch disk usage=  1371755562 words.
 JobTyp=1 Pass  1:  I=   1 to  29 NPSUse=  8 ParTrn=T ParDer=T DoDerP=F.
 Spin components of T(2) and E(2):
     alpha-alpha T2 =       0.6822038319D-01 E2=     -0.2064295705D+00
     alpha-beta  T2 =       0.3776980543D+00 E2=     -0.1191880193D+01
     beta-beta   T2 =       0.6822038319D-01 E2=     -0.2064295705D+00
 ANorm=    0.1230503483D+01
 E2 =    -0.1604739333D+01 EUMP2 =    -0.49451555813147D+03

 **********************************************************************

            Population analysis using the SCF density.

 **********************************************************************

 Orbital symmetries:
       Occupied  (A) (A) (A) (A) (A) (A) (A) (A) (A) (A) (A) (A)
                 (A) (A) (A) (A) (A) (A) (A) (A) (A) (A) (A) (A)
                 (A) (A) (A) (A) (A) (A) (A) (A) (A) (A) (A) (A)
                 (A) (A) (A)
       Virtual   (A) (A) (A) (A) (A) (A) (A) (A) (A) (A) (A) (A)
                 (A) (A) (A) (A) (A) (A) (A) (A) (A) (A) (A) (A)
                 (A) (A) (A) (A) (A) (A) (A) (A) (A) (A) (A) (A)
                 (A) (A) (A) (A) (A) (A) (A) (A) (A) (A) (A) (A)
                 (A) (A) (A) (A) (A) (A) (A) (A) (A) (A) (A) (A)
                 (A) (A) (A) (A) (A) (A) (A) (A) (A) (A) (A) (A)
                 (A) (A) (A) (A) (A) (A) (A) (A) (A) (A) (A) (A)
                 (A) (A) (A) (A) (A) (A) (A) (A) (A) (A) (A) (A)
                 (A) (A) (A) (A) (A) (A) (A) (A) (A) (A) (A) (A)
                 (A) (A) (A) (A) (A) (A) (A) (A) (A) (A) (A) (A)
                 (A) (A) (A) (A) (A) (A) (A) (A) (A) (A) (A) (A)
                 (A) (A) (A) (A) (A) (A) (A) (A) (A) (A) (A) (A)
                 (A) (A) (A) (A) (A) (A) (A) (A) (A) (A) (A) (A)
                 (A) (A) (A) (A) (A) (A) (A) (A) (A) (A) (A) (A)
                 (A) (A) (A) (A) (A) (A) (A) (A) (A) (A) (A) (A)
                 (A) (A) (A) (A) (A) (A) (A) (A) (A) (A) (A) (A)
                 (A) (A) (A) (A) (A) (A) (A) (A) (A) (A) (A) (A)
                 (A) (A) (A) (A) (A) (A) (A) (A) (A) (A) (A) (A)
                 (A) (A) (A) (A) (A) (A) (A) (A) (A) (A) (A) (A)
                 (A) (A) (A) (A) (A) (A) (A) (A) (A) (A) (A) (A)
                 (A) (A) (A) (A) (A) (A) (A) (A) (A) (A) (A) (A)
                 (A) (A) (A) (A) (A) (A) (A) (A) (A) (A) (A) (A)
                 (A) (A) (A) (A) (A) (A) (A) (A) (A) (A) (A) (A)
                 (A) (A) (A) (A) (A) (A) (A) (A) (A) (A) (A) (A)
                 (A) (A) (A) (A) (A) (A) (A) (A) (A) (A) (A)
 The electronic state is 1-A.
 Alpha  occ. eigenvalues --  -20.54725 -20.52370 -15.61811 -15.56946 -11.38505
 Alpha  occ. eigenvalues --  -11.35463 -11.30691 -11.25989 -11.25294 -11.23775
 Alpha  occ. eigenvalues --   -1.40123  -1.37659  -1.25547  -1.21524  -1.06356
 Alpha  occ. eigenvalues --   -1.00014  -0.94964  -0.87596  -0.82114  -0.76609
 Alpha  occ. eigenvalues --   -0.71231  -0.70062  -0.67431  -0.63259  -0.62629
 Alpha  occ. eigenvalues --   -0.60720  -0.60380  -0.59403  -0.57914  -0.55627
 Alpha  occ. eigenvalues --   -0.53975  -0.53334  -0.52672  -0.52140  -0.50456
 Alpha  occ. eigenvalues --   -0.44090  -0.43056  -0.40320  -0.37636
 Alpha virt. eigenvalues --    0.02405   0.04040   0.04376   0.04554   0.05595
 Alpha virt. eigenvalues --    0.06207   0.06452   0.06907   0.07053   0.08000
 Alpha virt. eigenvalues --    0.09185   0.09783   0.11457   0.12281   0.12489
 Alpha virt. eigenvalues --    0.12981   0.13772   0.14463   0.14938   0.15222
 Alpha virt. eigenvalues --    0.15644   0.15999   0.16104   0.16736   0.16951
 Alpha virt. eigenvalues --    0.17716   0.18405   0.18559   0.19304   0.19413
 Alpha virt. eigenvalues --    0.19696   0.20086   0.20610   0.21843   0.22525
 Alpha virt. eigenvalues --    0.23365   0.24140   0.24739   0.25574   0.26381
 Alpha virt. eigenvalues --    0.27455   0.29274   0.29555   0.30596   0.31053
 Alpha virt. eigenvalues --    0.31304   0.31953   0.32687   0.32777   0.33499
 Alpha virt. eigenvalues --    0.34369   0.34642   0.34773   0.35583   0.35938
 Alpha virt. eigenvalues --    0.37617   0.38205   0.38680   0.39308   0.40069
 Alpha virt. eigenvalues --    0.40435   0.41369   0.41558   0.42290   0.42725
 Alpha virt. eigenvalues --    0.43403   0.44020   0.44466   0.45399   0.45804
 Alpha virt. eigenvalues --    0.46161   0.47268   0.47947   0.48569   0.49049
 Alpha virt. eigenvalues --    0.49370   0.49784   0.50335   0.51019   0.52605
 Alpha virt. eigenvalues --    0.52955   0.54033   0.54547   0.55131   0.56331
 Alpha virt. eigenvalues --    0.56677   0.57700   0.58277   0.58786   0.59308
 Alpha virt. eigenvalues --    0.60007   0.60771   0.60946   0.61720   0.61973
 Alpha virt. eigenvalues --    0.62962   0.63202   0.64781   0.65033   0.65586
 Alpha virt. eigenvalues --    0.66594   0.67182   0.67243   0.67377   0.68525
 Alpha virt. eigenvalues --    0.69206   0.69750   0.70521   0.71878   0.72242
 Alpha virt. eigenvalues --    0.72505   0.73401   0.73760   0.74593   0.75144
 Alpha virt. eigenvalues --    0.75888   0.76168   0.77289   0.78928   0.79243
 Alpha virt. eigenvalues --    0.79549   0.81874   0.82176   0.83038   0.83939
 Alpha virt. eigenvalues --    0.85769   0.86332   0.87423   0.87502   0.88542
 Alpha virt. eigenvalues --    0.89779   0.90947   0.91595   0.92180   0.93211
 Alpha virt. eigenvalues --    0.93925   0.94292   0.96606   0.97942   0.99777
 Alpha virt. eigenvalues --    1.01088   1.02588   1.03191   1.04599   1.05619
 Alpha virt. eigenvalues --    1.06369   1.06880   1.08346   1.08563   1.10147
 Alpha virt. eigenvalues --    1.12520   1.13550   1.14810   1.15865   1.17154
 Alpha virt. eigenvalues --    1.18117   1.18720   1.19293   1.20216   1.21735
 Alpha virt. eigenvalues --    1.23210   1.23874   1.25359   1.28941   1.29294
 Alpha virt. eigenvalues --    1.31966   1.33692   1.35209   1.36849   1.39017
 Alpha virt. eigenvalues --    1.41001   1.41752   1.43318   1.44584   1.45462
 Alpha virt. eigenvalues --    1.49007   1.49962   1.51586   1.52951   1.54246
 Alpha virt. eigenvalues --    1.55682   1.55940   1.57034   1.62922   1.64156
 Alpha virt. eigenvalues --    1.67768   1.69286   1.71233   1.72072   1.73114
 Alpha virt. eigenvalues --    1.74906   1.75238   1.76846   1.78092   1.80424
 Alpha virt. eigenvalues --    1.82519   1.83312   1.85150   1.86048   1.86784
 Alpha virt. eigenvalues --    1.88334   1.89321   1.91396   1.92519   1.93404
 Alpha virt. eigenvalues --    1.95778   1.97477   1.98391   1.98964   2.00777
 Alpha virt. eigenvalues --    2.02348   2.04870   2.05441   2.06824   2.08046
 Alpha virt. eigenvalues --    2.09907   2.11968   2.14308   2.14609   2.15262
 Alpha virt. eigenvalues --    2.18038   2.18139   2.19813   2.20963   2.22560
 Alpha virt. eigenvalues --    2.24967   2.25941   2.26374   2.27686   2.28146
 Alpha virt. eigenvalues --    2.30221   2.30574   2.31523   2.35301   2.36335
 Alpha virt. eigenvalues --    2.38958   2.39995   2.41500   2.43523   2.43747
 Alpha virt. eigenvalues --    2.44565   2.46432   2.49319   2.51099   2.53137
 Alpha virt. eigenvalues --    2.54905   2.57117   2.58031   2.59083   2.61093
 Alpha virt. eigenvalues --    2.63401   2.64927   2.65359   2.66796   2.69066
 Alpha virt. eigenvalues --    2.71424   2.72461   2.76017   2.76916   2.79107
 Alpha virt. eigenvalues --    2.82174   2.83254   2.85883   2.87191   2.89280
 Alpha virt. eigenvalues --    2.89680   2.92310   2.94370   2.95187   2.97060
 Alpha virt. eigenvalues --    2.99489   3.02681   3.04605   3.09338   3.10086
 Alpha virt. eigenvalues --    3.12040   3.13708   3.18184   3.23202   3.24511
 Alpha virt. eigenvalues --    3.29657   3.39060   3.42437   3.44002   3.51329
 Alpha virt. eigenvalues --    3.64246   3.67291   3.73791   3.80989   3.83374
 Alpha virt. eigenvalues --    3.85868   3.87489   3.92595   3.96517   4.02718
 Alpha virt. eigenvalues --    4.05117   4.14874   4.20956   4.29937
          Condensed to atoms (all electrons):
              1          2          3          4          5          6
     1  H    0.739670   0.324462  -0.061737  -0.049257  -0.082339   0.018645
     2  C    0.324462   4.612575   0.167582   0.455540  -0.016048  -0.023563
     3  H   -0.061737   0.167582   1.116757  -0.091814   0.306092  -0.004769
     4  H   -0.049257   0.455540  -0.091814   0.752454  -0.157233   0.016742
     5  C   -0.082339  -0.016048   0.306092  -0.157233   5.925586   0.111643
     6  O    0.018645  -0.023563  -0.004769   0.016742   0.111643   8.844655
     7  N    0.046914   0.084358  -0.190499   0.056346  -0.067510  -0.068703
     8  H   -0.003470  -0.014123  -0.006147  -0.003365  -0.221187  -0.007600
     9  C    0.027868   0.010031  -0.048925  -0.006498  -0.300208   0.057848
    10  H    0.001124  -0.008929  -0.003605  -0.002478  -0.030004   0.005239
    11  C   -0.002346  -0.003349   0.000452   0.001260  -0.023011   0.008714
    12  H   -0.000610  -0.011808  -0.002217  -0.000635  -0.014209   0.001782
    13  H    0.000095   0.003602   0.001226   0.000001  -0.005353   0.001407
    14  H   -0.000195  -0.001977  -0.000558   0.000076  -0.009290  -0.000151
    15  C   -0.003831  -0.006734  -0.001985   0.004625  -0.082778   0.010966
    16  O    0.000143  -0.000610  -0.000422   0.000105   0.022330  -0.006630
    17  N   -0.001101  -0.023218   0.001140  -0.000671   0.088769  -0.074701
    18  H   -0.001233  -0.008155   0.005875  -0.004809  -0.035901   0.021024
    19  C    0.000255   0.005958   0.000412  -0.000207   0.010366   0.001650
    20  H    0.000059  -0.000303  -0.000069   0.000010  -0.005702  -0.002843
    21  H    0.000089   0.000626  -0.000035  -0.000057   0.004187   0.000975
    22  H    0.000002   0.003419   0.000102   0.000207   0.004620   0.005864
              7          8          9         10         11         12
     1  H    0.046914  -0.003470   0.027868   0.001124  -0.002346  -0.000610
     2  C    0.084358  -0.014123   0.010031  -0.008929  -0.003349  -0.011808
     3  H   -0.190499  -0.006147  -0.048925  -0.003605   0.000452  -0.002217
     4  H    0.056346  -0.003365  -0.006498  -0.002478   0.001260  -0.000635
     5  C   -0.067510  -0.221187  -0.300208  -0.030004  -0.023011  -0.014209
     6  O   -0.068703  -0.007600   0.057848   0.005239   0.008714   0.001782
     7  N    7.651310   0.438501  -0.523974  -0.073679   0.040763  -0.055966
     8  H    0.438501   0.991630  -0.183898   0.018378  -0.034041   0.007608
     9  C   -0.523974  -0.183898   7.666079   0.130372   0.023176  -0.094425
    10  H   -0.073679   0.018378   0.130372   1.013175  -0.065770   0.071766
    11  C    0.040763  -0.034041   0.023176  -0.065770   4.373703   0.342158
    12  H   -0.055966   0.007608  -0.094425   0.071766   0.342158   1.101728
    13  H    0.059192  -0.007681  -0.043440  -0.056570   0.313509  -0.145192
    14  H   -0.049350   0.020652   0.136055  -0.033997   0.304561  -0.183254
    15  C    0.231913   0.050387  -1.035416   0.055923   0.118790   0.007581
    16  O   -0.026495   0.001760   0.037429  -0.002481  -0.066743   0.023943
    17  N   -0.061690   0.001394   0.111376   0.001350  -0.051294   0.000556
    18  H    0.022345  -0.010928  -0.049875   0.009343   0.023511   0.001039
    19  C    0.008606   0.001313  -0.096767   0.003257   0.009454   0.000330
    20  H    0.000376   0.000421   0.001829   0.000354   0.000503   0.000298
    21  H   -0.000152   0.000890   0.035351   0.002786  -0.005885  -0.000516
    22  H    0.000675  -0.000484  -0.028493  -0.002505   0.002339  -0.000093
             13         14         15         16         17         18
     1  H    0.000095  -0.000195  -0.003831   0.000143  -0.001101  -0.001233
     2  C    0.003602  -0.001977  -0.006734  -0.000610  -0.023218  -0.008155
     3  H    0.001226  -0.000558  -0.001985  -0.000422   0.001140   0.005875
     4  H    0.000001   0.000076   0.004625   0.000105  -0.000671  -0.004809
     5  C   -0.005353  -0.009290  -0.082778   0.022330   0.088769  -0.035901
     6  O    0.001407  -0.000151   0.010966  -0.006630  -0.074701   0.021024
     7  N    0.059192  -0.049350   0.231913  -0.026495  -0.061690   0.022345
     8  H   -0.007681   0.020652   0.050387   0.001760   0.001394  -0.010928
     9  C   -0.043440   0.136055  -1.035416   0.037429   0.111376  -0.049875
    10  H   -0.056570  -0.033997   0.055923  -0.002481   0.001350   0.009343
    11  C    0.313509   0.304561   0.118790  -0.066743  -0.051294   0.023511
    12  H   -0.145192  -0.183254   0.007581   0.023943   0.000556   0.001039
    13  H    1.083930  -0.187070   0.098752  -0.051731  -0.001861  -0.000215
    14  H   -0.187070   1.123439  -0.067332   0.013530  -0.002945   0.002016
    15  C    0.098752  -0.067332   5.591504   0.239983   0.137358   0.018310
    16  O   -0.051731   0.013530   0.239983   8.774328  -0.168748  -0.000533
    17  N   -0.001861  -0.002945   0.137358  -0.168748   7.114414   0.189011
    18  H   -0.000215   0.002016   0.018310  -0.000533   0.189011   0.969960
    19  C    0.004561  -0.001437  -0.054711   0.016840   0.192763  -0.158726
    20  H    0.000197  -0.000667   0.048165  -0.007899  -0.051013   0.005967
    21  H    0.000222  -0.000193  -0.043875   0.001214   0.126767  -0.028717
    22  H    0.000406   0.000220  -0.002940   0.007755  -0.158272   0.024906
             19         20         21         22
     1  H    0.000255   0.000059   0.000089   0.000002
     2  C    0.005958  -0.000303   0.000626   0.003419
     3  H    0.000412  -0.000069  -0.000035   0.000102
     4  H   -0.000207   0.000010  -0.000057   0.000207
     5  C    0.010366  -0.005702   0.004187   0.004620
     6  O    0.001650  -0.002843   0.000975   0.005864
     7  N    0.008606   0.000376  -0.000152   0.000675
     8  H    0.001313   0.000421   0.000890  -0.000484
     9  C   -0.096767   0.001829   0.035351  -0.028493
    10  H    0.003257   0.000354   0.002786  -0.002505
    11  C    0.009454   0.000503  -0.005885   0.002339
    12  H    0.000330   0.000298  -0.000516  -0.000093
    13  H    0.004561   0.000197   0.000222   0.000406
    14  H   -0.001437  -0.000667  -0.000193   0.000220
    15  C   -0.054711   0.048165  -0.043875  -0.002940
    16  O    0.016840  -0.007899   0.001214   0.007755
    17  N    0.192763  -0.051013   0.126767  -0.158272
    18  H   -0.158726   0.005967  -0.028717   0.024906
    19  C    4.152774   0.408502   0.275652   0.455963
    20  H    0.408502   1.006754  -0.089202  -0.203006
    21  H    0.275652  -0.089202   0.933067  -0.160276
    22  H    0.455963  -0.203006  -0.160276   1.248785
 Mulliken atomic charges:
              1
     1  H    0.046793
     2  C    0.450665
     3  H   -0.186858
     4  H    0.029657
     5  C    0.577180
     6  O   -0.918195
     7  N   -0.523282
     8  H   -0.040006
     9  C    0.174507
    10  H   -0.033048
    11  C    0.689546
    12  H   -0.049861
    13  H   -0.067987
    14  H   -0.062132
    15  C    0.685346
    16  O   -0.807069
    17  N   -0.369386
    18  H    0.005784
    19  C    0.763189
    20  H   -0.112734
    21  H   -0.052915
    22  H   -0.199194
 Sum of Mulliken atomic charges =   0.00000
 Mulliken charges with hydrogens summed into heavy atoms:
              1
     2  C    0.340257
     5  C    0.577180
     6  O   -0.918195
     7  N   -0.563288
     9  C    0.141459
    11  C    0.509565
    15  C    0.685346
    16  O   -0.807069
    17  N   -0.363601
    19  C    0.398346
 Sum of Mulliken charges with hydrogens summed into heavy atoms =   0.00000
 Electronic spatial extent (au):  <R**2>=           1763.4324
 Charge=              0.0000 electrons
 Dipole moment (field-independent basis, Debye):
    X=             -4.4444    Y=              1.4579    Z=             -0.9030  Tot=              4.7638
 Quadrupole moment (field-independent basis, Debye-Ang):
   XX=            -59.7925   YY=            -61.8223   ZZ=            -61.5209
   XY=             -9.7284   XZ=             -3.0212   YZ=             -1.9955
 Traceless Quadrupole moment (field-independent basis, Debye-Ang):
   XX=              1.2527   YY=             -0.7770   ZZ=             -0.4757
   XY=             -9.7284   XZ=             -3.0212   YZ=             -1.9955
 Octapole moment (field-independent basis, Debye-Ang**2):
  XXX=            -48.2353  YYY=              6.9800  ZZZ=              2.4525  XYY=              5.4427
  XXY=            -15.0614  XXZ=             -4.3422  XZZ=             -2.4311  YZZ=             -1.0727
  YYZ=             -3.6286  XYZ=             -2.9040
 Hexadecapole moment (field-independent basis, Debye-Ang**3):
 XXXX=          -1364.0251 YYYY=           -791.2100 ZZZZ=           -114.6406 XXXY=            -29.0515
 XXXZ=            -19.2943 YYYX=            -27.1871 YYYZ=              2.4737 ZZZX=             -1.1297
 ZZZY=             -3.2192 XXYY=           -359.9513 XXZZ=           -257.0244 YYZZ=           -152.4358
 XXYZ=            -10.0621 YYXZ=              1.0418 ZZXY=              5.2506
 N-N= 5.574520932587D+02 E-N=-2.270091594020D+03  KE= 4.920539710822D+02
 1\1\GINC-NODE006\SP\RMP2-FC\Aug-CC-pVDZ\C6H12N2O2\STEBOSS\14-Feb-2017\
 0\\#SP MP2/aug-cc-pVDZ\\Single Point calculation at MP2\\0,1\H,0,-3.46
 9,-0.7811,1.3606\C,0,-3.3268,-0.4892,0.3148\H,0,-3.779,0.4953,0.1609\H
 ,0,-3.8493,-1.2245,-0.3029\C,0,-1.8383,-0.5575,-0.0071\O,0,-1.2703,-1.
 6507,-0.0069\N,0,-1.2681,0.6446,-0.2992\H,0,-1.9162,1.4186,-0.2511\C,0
 ,0.1232,1.1382,-0.4823\H,0,0.2798,1.2404,-1.5676\C,0,0.1939,2.5352,0.1
 418\H,0,0.0435,2.4839,1.2248\H,0,1.1756,2.9711,-0.0409\H,0,-0.5713,3.1
 903,-0.2937\C,0,1.3486,0.2929,-0.0111\O,0,2.3179,0.8914,0.4513\N,0,1.3
 637,-1.0272,-0.2971\H,0,0.456,-1.4891,-0.3881\C,0,2.519,-1.8272,0.0788
 \H,0,3.4313,-1.3585,-0.2983\H,0,2.6179,-1.9271,1.1677\H,0,2.4129,-2.82
 13,-0.3622\\Version=EM64L-G09RevA.02\State=1-A\HF=-492.9108188\MP2=-49
 4.5155581\RMSD=7.803e-09\PG=C01 [X(C6H12N2O2)]\\@


 A politician is a person who can make waves and then
 make you think he's the only one who can save the ship.
 -- Ivern Ball
 Job cpu time:  1 days 12 hours 22 minutes 10.9 seconds.
 File lengths (MBytes):  RWF=  10582 Int=      0 D2E=      0 Chk=      7 Scr=      2
 Normal termination of Gaussian 09 at Tue Feb 14 02:54:46 2017.
