 Entering Gaussian System, Link 0=g09
 Initial command:
 /home/steboss/Software/g09/l1.exe /home/steboss/projects/phi_psi_scan/alanine/MP2/135/5236/Gau-1375.inp -scrdir=/home/steboss/projects/phi_psi_scan/alanine/MP2/135/5236/
 Entering Link 1 = /home/steboss/Software/g09/l1.exe PID=      1380.
  
 Copyright (c) 1988,1990,1992,1993,1995,1998,2003,2009, Gaussian, Inc.
                  All Rights Reserved.
  
 This is part of the Gaussian(R) 09 program.  It is based on
 the Gaussian(R) 03 system (copyright 2003, Gaussian, Inc.),
 the Gaussian(R) 98 system (copyright 1998, Gaussian, Inc.),
 the Gaussian(R) 94 system (copyright 1995, Gaussian, Inc.),
 the Gaussian 92(TM) system (copyright 1992, Gaussian, Inc.),
 the Gaussian 90(TM) system (copyright 1990, Gaussian, Inc.),
 the Gaussian 88(TM) system (copyright 1988, Gaussian, Inc.),
 the Gaussian 86(TM) system (copyright 1986, Carnegie Mellon
 University), and the Gaussian 82(TM) system (copyright 1983,
 Carnegie Mellon University). Gaussian is a federally registered
 trademark of Gaussian, Inc.
  
 This software contains proprietary and confidential information,
 including trade secrets, belonging to Gaussian, Inc.
  
 This software is provided under written license and may be
 used, copied, transmitted, or stored only in accord with that
 written license.
  
 The following legend is applicable only to US Government
 contracts under FAR:
  
                    RESTRICTED RIGHTS LEGEND
  
 Use, reproduction and disclosure by the US Government is
 subject to restrictions as set forth in subparagraphs (a)
 and (c) of the Commercial Computer Software - Restricted
 Rights clause in FAR 52.227-19.
  
 Gaussian, Inc.
 340 Quinnipiac St., Bldg. 40, Wallingford CT 06492
  
  
 ---------------------------------------------------------------
 Warning -- This program may not be used in any manner that
 competes with the business of Gaussian, Inc. or will provide
 assistance to any competitor of Gaussian, Inc.  The licensee
 of this program is prohibited from giving any competitor of
 Gaussian, Inc. access to this program.  By using this program,
 the user acknowledges that Gaussian, Inc. is engaged in the
 business of creating and licensing software in the field of
 computational chemistry and represents and warrants to the
 licensee that it is not a competitor of Gaussian, Inc. and that
 it will not use this program in any manner prohibited above.
 ---------------------------------------------------------------
  

 Cite this work as:
 Gaussian 09, Revision A.02,
 M. J. Frisch, G. W. Trucks, H. B. Schlegel, G. E. Scuseria, 
 M. A. Robb, J. R. Cheeseman, G. Scalmani, V. Barone, B. Mennucci, 
 G. A. Petersson, H. Nakatsuji, M. Caricato, X. Li, H. P. Hratchian, 
 A. F. Izmaylov, J. Bloino, G. Zheng, J. L. Sonnenberg, M. Hada, 
 M. Ehara, K. Toyota, R. Fukuda, J. Hasegawa, M. Ishida, T. Nakajima, 
 Y. Honda, O. Kitao, H. Nakai, T. Vreven, J. A. Montgomery, Jr., 
 J. E. Peralta, F. Ogliaro, M. Bearpark, J. J. Heyd, E. Brothers, 
 K. N. Kudin, V. N. Staroverov, R. Kobayashi, J. Normand, 
 K. Raghavachari, A. Rendell, J. C. Burant, S. S. Iyengar, J. Tomasi, 
 M. Cossi, N. Rega, J. M. Millam, M. Klene, J. E. Knox, J. B. Cross, 
 V. Bakken, C. Adamo, J. Jaramillo, R. Gomperts, R. E. Stratmann, 
 O. Yazyev, A. J. Austin, R. Cammi, C. Pomelli, J. W. Ochterski, 
 R. L. Martin, K. Morokuma, V. G. Zakrzewski, G. A. Voth, 
 P. Salvador, J. J. Dannenberg, S. Dapprich, A. D. Daniels, 
 O. Farkas, J. B. Foresman, J. V. Ortiz, J. Cioslowski, 
 and D. J. Fox, Gaussian, Inc., Wallingford CT, 2009.
 
 ******************************************
 Gaussian 09:  EM64L-G09RevA.02 11-Jun-2009
                12-Feb-2017 
 ******************************************
 %chk=structure_180.chk
 %NProcShared=8
 Will use up to    8 processors via shared memory.
 -------------------
 #SP MP2/aug-cc-pVDZ
 -------------------
 1/38=1/1;
 2/12=2,17=6,18=5,40=1/2;
 3/5=16,7=10,11=9,16=1,25=1,30=1/1,2,3;
 4//1;
 5/5=2,38=5/2;
 8/10=1/1;
 9/16=-3/6;
 6/7=2,8=2,9=2,10=2/1;
 99/5=1,9=1/99;
 -------------------------------
 Single Point calculation at MP2
 -------------------------------
 Symbolic Z-matrix:
 Charge =  0 Multiplicity = 1
 H                    -4.1788   -1.0752    0.1461 
 C                    -3.1192   -1.3116    0.2593 
 H                    -2.8576   -2.1474   -0.3978 
 H                    -2.9494   -1.6272    1.2959 
 C                    -2.3055   -0.0524   -0.0253 
 O                    -2.7666    1.0643    0.1758 
 N                    -1.059    -0.3101   -0.5434 
 H                    -0.7587   -1.2801   -0.4856 
 C                     0.1057    0.5712   -0.5655 
 H                     0.2965    0.8908   -1.6021 
 C                    -0.0165    1.832     0.3104 
 H                    -0.0923    1.568     1.3699 
 H                     0.8607    2.4751    0.1769 
 H                    -0.9087    2.3947    0.0423 
 C                     1.3133   -0.3042   -0.1311 
 O                     1.1823   -1.5022    0.1097 
 N                     2.512     0.3331   -0.0849 
 H                     2.5418    1.323    -0.279 
 C                     3.7501   -0.338     0.276 
 H                     3.5257   -1.3977    0.3996 
 H                     4.5017   -0.2172   -0.5121 
 H                     4.1555    0.0542    1.2162 
 
                          Input orientation:                          
 ---------------------------------------------------------------------
 Center     Atomic      Atomic             Coordinates (Angstroms)
 Number     Number       Type             X           Y           Z
 ---------------------------------------------------------------------
      1          1           0       -4.178800   -1.075200    0.146100
      2          6           0       -3.119200   -1.311600    0.259300
      3          1           0       -2.857600   -2.147400   -0.397800
      4          1           0       -2.949400   -1.627200    1.295900
      5          6           0       -2.305500   -0.052400   -0.025300
      6          8           0       -2.766600    1.064300    0.175800
      7          7           0       -1.059000   -0.310100   -0.543400
      8          1           0       -0.758700   -1.280100   -0.485600
      9          6           0        0.105700    0.571200   -0.565500
     10          1           0        0.296500    0.890800   -1.602100
     11          6           0       -0.016500    1.832000    0.310400
     12          1           0       -0.092300    1.568000    1.369900
     13          1           0        0.860700    2.475100    0.176900
     14          1           0       -0.908700    2.394700    0.042300
     15          6           0        1.313300   -0.304200   -0.131100
     16          8           0        1.182300   -1.502200    0.109700
     17          7           0        2.512000    0.333100   -0.084900
     18          1           0        2.541800    1.323000   -0.279000
     19          6           0        3.750100   -0.338000    0.276000
     20          1           0        3.525700   -1.397700    0.399600
     21          1           0        4.501700   -0.217200   -0.512100
     22          1           0        4.155500    0.054200    1.216200
 ---------------------------------------------------------------------
                    Distance matrix (angstroms):
                    1          2          3          4          5
     1  H    0.000000
     2  C    1.091536   0.000000
     3  H    1.786340   1.094887   0.000000
     4  H    1.771488   1.096802   1.774163   0.000000
     5  C    2.141203   1.526004   2.198317   2.154106   0.000000
     6  O    2.563718   2.403373   3.263788   2.920995   1.224775
     7  N    3.285413   2.427293   2.575234   2.948116   1.374263
     8  H    3.483979   2.475445   2.272729   2.844888   2.027736
     9  C    4.644776   3.824292   4.024929   4.198977   2.548446
    10  H    5.191307   4.470166   4.541954   5.027384   3.185330
    11  C    5.079719   4.417191   4.940549   4.641032   2.983820
    12  H    5.018334   4.322922   4.957403   4.286934   3.077423
    13  H    6.164587   5.494132   5.960163   5.709456   4.056349
    14  H    4.769123   4.320886   4.962114   4.680988   2.818496
    15  C    5.552877   4.562272   4.567814   4.685858   3.629092
    16  O    5.378201   4.308319   4.122455   4.300423   3.779536
    17  N    6.841306   5.876557   5.923123   5.964585   4.833267
    18  H    7.148324   6.267201   6.419604   6.429406   5.045038
    19  C    7.964157   6.937972   6.884013   6.898227   6.069814
    20  H    7.715412   6.646939   6.476451   6.540867   5.999439
    21  H    8.747598   7.737628   7.609076   7.795887   6.826573
    22  H    8.478279   7.463399   7.525663   7.301579   6.580061
                    6          7          8          9         10
     6  O    0.000000
     7  N    2.306972   0.000000
     8  H    3.156790   1.017065   0.000000
     9  C    3.007122   1.460720   2.044721   0.000000
    10  H    3.545929   2.097710   2.659479   1.101403   0.000000
    11  C    2.858414   2.530686   3.296914   1.540049   2.154410
    12  H    2.971779   2.849997   3.463906   2.185998   3.072873
    13  H    3.892000   3.458528   4.142812   2.178536   2.448095
    14  H    2.289013   2.771566   3.715553   2.173380   2.533431
    15  C    4.314228   2.407869   2.317593   1.553488   2.150755
    16  O    4.710106   2.621272   2.042350   2.431861   3.072678
    17  N    5.335376   3.657317   3.668849   2.465349   2.742511
    18  H    5.334124   3.962661   4.208576   2.565515   2.641735
    19  C    6.666623   4.878487   4.668711   3.849210   4.118806
    20  H    6.760515   4.805372   4.376470   4.062559   4.435287
    21  H    7.412397   5.561564   5.366774   4.466457   4.483243
    22  H    7.072355   5.515425   5.368970   4.454506   4.851247
                   11         12         13         14         15
    11  C    0.000000
    12  H    1.094524   0.000000
    13  H    1.095847   1.776032   0.000000
    14  H    1.088361   1.764218   1.776333   0.000000
    15  C    2.554729   2.780979   2.832705   3.500202   0.000000
    16  O    3.548844   3.555114   3.990847   4.422969   1.228963
    17  N    2.965852   3.228591   2.717259   3.995943   1.358369
    18  H    2.674205   3.117271   2.088367   3.627358   2.044228
    19  C    4.347109   4.426454   4.033855   5.406171   2.470803
    20  H    4.794382   4.777738   4.706421   5.845842   2.524302
    21  H    5.028902   5.275765   4.580402   6.033391   3.212262
    22  H    4.624568   4.512097   4.218603   5.701062   3.165718
                   16         17         18         19         20
    16  O    0.000000
    17  N    2.274708   0.000000
    18  H    3.159285   1.009190   0.000000
    19  C    2.824290   1.453794   2.127659   0.000000
    20  H    2.363575   2.063491   2.971660   1.090228   0.000000
    21  H    3.613347   2.108136   2.503549   1.095717   1.782513
    22  H    3.533644   2.114649   2.539587   1.096424   1.780870
                   21         22
    21  H    0.000000
    22  H    1.783405   0.000000
 Stoichiometry    C6H12N2O2
 Framework group  C1[X(C6H12N2O2)]
 Deg. of freedom    60
 Full point group                 C1      NOp   1
 Largest Abelian subgroup         C1      NOp   1
 Largest concise Abelian subgroup C1      NOp   1
                         Standard orientation:                         
 ---------------------------------------------------------------------
 Center     Atomic      Atomic             Coordinates (Angstroms)
 Number     Number       Type             X           Y           Z
 ---------------------------------------------------------------------
      1          1           0       -4.178798   -1.075237    0.146113
      2          6           0       -3.119197   -1.311630    0.259313
      3          1           0       -2.857591   -2.147429   -0.397787
      4          1           0       -2.949395   -1.627229    1.295913
      5          6           0       -2.305505   -0.052425   -0.025287
      6          8           0       -2.766612    1.064272    0.175813
      7          7           0       -1.059003   -0.310117   -0.543387
      8          1           0       -0.758697   -1.280115   -0.485587
      9          6           0        0.105691    0.571190   -0.565487
     10          1           0        0.296489    0.890792   -1.602087
     11          6           0       -0.016517    1.831990    0.310413
     12          1           0       -0.092315    1.567989    1.369913
     13          1           0        0.860679    2.475095    0.176913
     14          1           0       -0.908721    2.394684    0.042313
     15          6           0        1.313297   -0.304202   -0.131087
     16          8           0        1.182305   -1.502203    0.109713
     17          7           0        2.511993    0.333106   -0.084887
     18          1           0        2.541786    1.323006   -0.278987
     19          6           0        3.750097   -0.337986    0.276013
     20          1           0        3.525704   -1.397687    0.399613
     21          1           0        4.501696   -0.217181   -0.512087
     22          1           0        4.155495    0.054217    1.216213
 ---------------------------------------------------------------------
 Rotational constants (GHZ):      2.9094370      0.6890999      0.5834545
 Standard basis: Aug-CC-pVDZ (5D, 7F)
 There are   338 symmetry adapted basis functions of A   symmetry.
 Integral buffers will be    131072 words long.
 Raffenetti 1 integral format.
 Two-electron integral symmetry is turned on.
   338 basis functions,   562 primitive gaussians,   358 cartesian basis functions
    39 alpha electrons       39 beta electrons
       nuclear repulsion energy       551.2033705072 Hartrees.
 NAtoms=   22 NActive=   22 NUniq=   22 SFac= 7.50D-01 NAtFMM=   80 NAOKFM=F Big=F
 One-electron integrals computed using PRISM.
 NBasis=   338 RedAO= T  NBF=   338
 NBsUse=   338 1.00D-06 NBFU=   338
 Harris functional with IExCor=  205 diagonalized for initial guess.
 ExpMin= 2.97D-02 ExpMax= 1.17D+04 ExpMxC= 4.01D+02 IAcc=3 IRadAn=         0 AccDes= 0.00D+00
 HarFok:  IExCor=  205 AccDes= 0.00D+00 IRadAn=         0 IDoV= 1
 ScaDFX=  1.000000  1.000000  1.000000  1.000000
 FoFCou: FMM=F IPFlag=           0 FMFlag=      100000 FMFlg1=           0
         NFxFlg=           0 DoJE=T BraDBF=F KetDBF=T FulRan=T
         Omega=  0.000000  0.000000  1.000000  0.000000  0.000000 ICntrl=     500 IOpCl=  0
         NMat0=    1 NMatS0=    1 NMatT0=    0 NMatD0=    1 NMtDS0=    0 NMtDT0=    0
         I1Cent=           4 NGrid=           0.
 Petite list used in FoFCou.
 Initial guess orbital symmetries:
       Occupied  (A) (A) (A) (A) (A) (A) (A) (A) (A) (A) (A) (A)
                 (A) (A) (A) (A) (A) (A) (A) (A) (A) (A) (A) (A)
                 (A) (A) (A) (A) (A) (A) (A) (A) (A) (A) (A) (A)
                 (A) (A) (A)
       Virtual   (A) (A) (A) (A) (A) (A) (A) (A) (A) (A) (A) (A)
                 (A) (A) (A) (A) (A) (A) (A) (A) (A) (A) (A) (A)
                 (A) (A) (A) (A) (A) (A) (A) (A) (A) (A) (A) (A)
                 (A) (A) (A) (A) (A) (A) (A) (A) (A) (A) (A) (A)
                 (A) (A) (A) (A) (A) (A) (A) (A) (A) (A) (A) (A)
                 (A) (A) (A) (A) (A) (A) (A) (A) (A) (A) (A) (A)
                 (A) (A) (A) (A) (A) (A) (A) (A) (A) (A) (A) (A)
                 (A) (A) (A) (A) (A) (A) (A) (A) (A) (A) (A) (A)
                 (A) (A) (A) (A) (A) (A) (A) (A) (A) (A) (A) (A)
                 (A) (A) (A) (A) (A) (A) (A) (A) (A) (A) (A) (A)
                 (A) (A) (A) (A) (A) (A) (A) (A) (A) (A) (A) (A)
                 (A) (A) (A) (A) (A) (A) (A) (A) (A) (A) (A) (A)
                 (A) (A) (A) (A) (A) (A) (A) (A) (A) (A) (A) (A)
                 (A) (A) (A) (A) (A) (A) (A) (A) (A) (A) (A) (A)
                 (A) (A) (A) (A) (A) (A) (A) (A) (A) (A) (A) (A)
                 (A) (A) (A) (A) (A) (A) (A) (A) (A) (A) (A) (A)
                 (A) (A) (A) (A) (A) (A) (A) (A) (A) (A) (A) (A)
                 (A) (A) (A) (A) (A) (A) (A) (A) (A) (A) (A) (A)
                 (A) (A) (A) (A) (A) (A) (A) (A) (A) (A) (A) (A)
                 (A) (A) (A) (A) (A) (A) (A) (A) (A) (A) (A) (A)
                 (A) (A) (A) (A) (A) (A) (A) (A) (A) (A) (A) (A)
                 (A) (A) (A) (A) (A) (A) (A) (A) (A) (A) (A) (A)
                 (A) (A) (A) (A) (A) (A) (A) (A) (A) (A) (A) (A)
                 (A) (A) (A) (A) (A) (A) (A) (A) (A) (A) (A) (A)
                 (A) (A) (A) (A) (A) (A) (A) (A) (A) (A) (A)
 The electronic state of the initial guess is 1-A.
 Requested convergence on RMS density matrix=1.00D-08 within 128 cycles.
 Requested convergence on MAX density matrix=1.00D-06.
 Requested convergence on             energy=1.00D-06.
 No special actions if energy rises.
 Initial convergence to 1.0D-05 achieved.  Increase integral accuracy.
 SCF Done:  E(RHF) =  -492.917323780     A.U. after   14 cycles
             Convg  =    0.4838D-08             -V/T =  2.0017
 ExpMin= 2.97D-02 ExpMax= 1.17D+04 ExpMxC= 4.01D+02 IAcc=3 IRadAn=         5 AccDes= 0.00D+00
 HarFok:  IExCor=  205 AccDes= 0.00D+00 IRadAn=         5 IDoV=-2
 ScaDFX=  1.000000  1.000000  1.000000  1.000000
 Range of M.O.s used for correlation:    11   338
 NBasis=   338 NAE=    39 NBE=    39 NFC=    10 NFV=     0
 NROrb=    328 NOA=    29 NOB=    29 NVA=   299 NVB=   299

 **** Warning!!: The largest alpha MO coefficient is  0.64602765D+02

 Disk-based method using OVN memory for 29 occupieds at a time.
 Estimated scratch disk usage=  1372556677 words.
 Actual    scratch disk usage=  1359734197 words.
 JobTyp=1 Pass  1:  I=   1 to  29 NPSUse=  8 ParTrn=T ParDer=T DoDerP=F.
 Spin components of T(2) and E(2):
     alpha-alpha T2 =       0.6796500215D-01 E2=     -0.2059715778D+00
     alpha-beta  T2 =       0.3762549174D+00 E2=     -0.1189846196D+01
     beta-beta   T2 =       0.6796500215D-01 E2=     -0.2059715778D+00
 ANorm=    0.1229709283D+01
 E2 =    -0.1601789352D+01 EUMP2 =    -0.49451911313196D+03

 **********************************************************************

            Population analysis using the SCF density.

 **********************************************************************

 Orbital symmetries:
       Occupied  (A) (A) (A) (A) (A) (A) (A) (A) (A) (A) (A) (A)
                 (A) (A) (A) (A) (A) (A) (A) (A) (A) (A) (A) (A)
                 (A) (A) (A) (A) (A) (A) (A) (A) (A) (A) (A) (A)
                 (A) (A) (A)
       Virtual   (A) (A) (A) (A) (A) (A) (A) (A) (A) (A) (A) (A)
                 (A) (A) (A) (A) (A) (A) (A) (A) (A) (A) (A) (A)
                 (A) (A) (A) (A) (A) (A) (A) (A) (A) (A) (A) (A)
                 (A) (A) (A) (A) (A) (A) (A) (A) (A) (A) (A) (A)
                 (A) (A) (A) (A) (A) (A) (A) (A) (A) (A) (A) (A)
                 (A) (A) (A) (A) (A) (A) (A) (A) (A) (A) (A) (A)
                 (A) (A) (A) (A) (A) (A) (A) (A) (A) (A) (A) (A)
                 (A) (A) (A) (A) (A) (A) (A) (A) (A) (A) (A) (A)
                 (A) (A) (A) (A) (A) (A) (A) (A) (A) (A) (A) (A)
                 (A) (A) (A) (A) (A) (A) (A) (A) (A) (A) (A) (A)
                 (A) (A) (A) (A) (A) (A) (A) (A) (A) (A) (A) (A)
                 (A) (A) (A) (A) (A) (A) (A) (A) (A) (A) (A) (A)
                 (A) (A) (A) (A) (A) (A) (A) (A) (A) (A) (A) (A)
                 (A) (A) (A) (A) (A) (A) (A) (A) (A) (A) (A) (A)
                 (A) (A) (A) (A) (A) (A) (A) (A) (A) (A) (A) (A)
                 (A) (A) (A) (A) (A) (A) (A) (A) (A) (A) (A) (A)
                 (A) (A) (A) (A) (A) (A) (A) (A) (A) (A) (A) (A)
                 (A) (A) (A) (A) (A) (A) (A) (A) (A) (A) (A) (A)
                 (A) (A) (A) (A) (A) (A) (A) (A) (A) (A) (A) (A)
                 (A) (A) (A) (A) (A) (A) (A) (A) (A) (A) (A) (A)
                 (A) (A) (A) (A) (A) (A) (A) (A) (A) (A) (A) (A)
                 (A) (A) (A) (A) (A) (A) (A) (A) (A) (A) (A) (A)
                 (A) (A) (A) (A) (A) (A) (A) (A) (A) (A) (A) (A)
                 (A) (A) (A) (A) (A) (A) (A) (A) (A) (A) (A) (A)
                 (A) (A) (A) (A) (A) (A) (A) (A) (A) (A) (A)
 The electronic state is 1-A.
 Alpha  occ. eigenvalues --  -20.54627 -20.52398 -15.60811 -15.58475 -11.37362
 Alpha  occ. eigenvalues --  -11.35802 -11.30171 -11.27812 -11.23823 -11.23677
 Alpha  occ. eigenvalues --   -1.40148  -1.37594  -1.24687  -1.23134  -1.05652
 Alpha  occ. eigenvalues --   -0.98675  -0.96123  -0.89151  -0.80798  -0.75975
 Alpha  occ. eigenvalues --   -0.73254  -0.68179  -0.66390  -0.64931  -0.62926
 Alpha  occ. eigenvalues --   -0.61984  -0.59636  -0.58600  -0.56718  -0.55764
 Alpha  occ. eigenvalues --   -0.55435  -0.54669  -0.52608  -0.52165  -0.49993
 Alpha  occ. eigenvalues --   -0.43954  -0.41440  -0.40857  -0.38825
 Alpha virt. eigenvalues --    0.02613   0.04090   0.04269   0.04418   0.05785
 Alpha virt. eigenvalues --    0.06136   0.06491   0.06617   0.07391   0.08000
 Alpha virt. eigenvalues --    0.09550   0.09969   0.11129   0.12055   0.12620
 Alpha virt. eigenvalues --    0.13335   0.13851   0.14264   0.14959   0.15128
 Alpha virt. eigenvalues --    0.15461   0.15673   0.16220   0.16857   0.17020
 Alpha virt. eigenvalues --    0.17588   0.18245   0.18564   0.18853   0.19230
 Alpha virt. eigenvalues --    0.19636   0.20510   0.21069   0.21812   0.23330
 Alpha virt. eigenvalues --    0.23513   0.23942   0.24833   0.25475   0.25756
 Alpha virt. eigenvalues --    0.27417   0.27942   0.28542   0.30021   0.30360
 Alpha virt. eigenvalues --    0.30980   0.31450   0.31941   0.32426   0.32886
 Alpha virt. eigenvalues --    0.34241   0.34472   0.35039   0.35880   0.36740
 Alpha virt. eigenvalues --    0.37110   0.37554   0.38789   0.39313   0.39656
 Alpha virt. eigenvalues --    0.39912   0.41094   0.42194   0.42619   0.43154
 Alpha virt. eigenvalues --    0.43445   0.44447   0.44867   0.45268   0.46048
 Alpha virt. eigenvalues --    0.46609   0.47051   0.47519   0.47803   0.49345
 Alpha virt. eigenvalues --    0.49683   0.50780   0.50950   0.51227   0.51618
 Alpha virt. eigenvalues --    0.53291   0.53947   0.54244   0.54909   0.56064
 Alpha virt. eigenvalues --    0.56554   0.57262   0.57703   0.58769   0.58943
 Alpha virt. eigenvalues --    0.59549   0.60510   0.61149   0.61827   0.63148
 Alpha virt. eigenvalues --    0.63348   0.64001   0.64853   0.65131   0.65475
 Alpha virt. eigenvalues --    0.66145   0.67117   0.67206   0.68551   0.69229
 Alpha virt. eigenvalues --    0.69664   0.70261   0.70683   0.71350   0.72043
 Alpha virt. eigenvalues --    0.72396   0.72939   0.73763   0.74098   0.74493
 Alpha virt. eigenvalues --    0.75632   0.76803   0.77783   0.78491   0.80407
 Alpha virt. eigenvalues --    0.81109   0.81368   0.82293   0.82667   0.83322
 Alpha virt. eigenvalues --    0.83706   0.84512   0.85845   0.86926   0.87834
 Alpha virt. eigenvalues --    0.88852   0.89304   0.91474   0.91790   0.93481
 Alpha virt. eigenvalues --    0.93875   0.94708   0.95903   0.97299   1.00013
 Alpha virt. eigenvalues --    1.00650   1.01347   1.02501   1.03719   1.05500
 Alpha virt. eigenvalues --    1.06530   1.06860   1.08016   1.10272   1.10885
 Alpha virt. eigenvalues --    1.12104   1.13208   1.14083   1.15120   1.15417
 Alpha virt. eigenvalues --    1.16815   1.17915   1.18985   1.20068   1.22957
 Alpha virt. eigenvalues --    1.23729   1.24961   1.26140   1.26728   1.31111
 Alpha virt. eigenvalues --    1.32674   1.33124   1.35494   1.35980   1.38659
 Alpha virt. eigenvalues --    1.39769   1.42778   1.44551   1.46083   1.46496
 Alpha virt. eigenvalues --    1.49840   1.50620   1.51061   1.53787   1.54254
 Alpha virt. eigenvalues --    1.56130   1.59618   1.59873   1.62096   1.63594
 Alpha virt. eigenvalues --    1.66583   1.68316   1.68924   1.70400   1.72172
 Alpha virt. eigenvalues --    1.73658   1.75085   1.77104   1.78052   1.78155
 Alpha virt. eigenvalues --    1.81707   1.82988   1.84825   1.85230   1.87404
 Alpha virt. eigenvalues --    1.88234   1.89316   1.90840   1.91586   1.93402
 Alpha virt. eigenvalues --    1.95278   1.97060   1.98067   1.99873   2.00866
 Alpha virt. eigenvalues --    2.01701   2.03757   2.04069   2.04986   2.06779
 Alpha virt. eigenvalues --    2.09437   2.10436   2.11125   2.13540   2.16462
 Alpha virt. eigenvalues --    2.17831   2.18555   2.19242   2.21206   2.22655
 Alpha virt. eigenvalues --    2.23763   2.24997   2.27240   2.28827   2.30152
 Alpha virt. eigenvalues --    2.31060   2.31603   2.34825   2.35906   2.36684
 Alpha virt. eigenvalues --    2.38662   2.39421   2.41575   2.43105   2.44493
 Alpha virt. eigenvalues --    2.45906   2.47585   2.48487   2.49432   2.50615
 Alpha virt. eigenvalues --    2.51824   2.53819   2.57429   2.58591   2.59337
 Alpha virt. eigenvalues --    2.61110   2.62479   2.63775   2.67197   2.70772
 Alpha virt. eigenvalues --    2.70965   2.73285   2.74766   2.76525   2.79666
 Alpha virt. eigenvalues --    2.81565   2.82911   2.84728   2.87610   2.88786
 Alpha virt. eigenvalues --    2.91370   2.92943   2.93339   2.95420   2.99065
 Alpha virt. eigenvalues --    3.00319   3.02068   3.02152   3.04330   3.06882
 Alpha virt. eigenvalues --    3.09885   3.14633   3.16335   3.19042   3.23918
 Alpha virt. eigenvalues --    3.26801   3.30850   3.44198   3.47336   3.49697
 Alpha virt. eigenvalues --    3.60991   3.68299   3.73753   3.82984   3.83767
 Alpha virt. eigenvalues --    3.85546   3.86066   3.93436   3.99690   4.05367
 Alpha virt. eigenvalues --    4.09267   4.14108   4.19267   4.23351
          Condensed to atoms (all electrons):
              1          2          3          4          5          6
     1  H    0.823321   0.367862  -0.111929  -0.063853  -0.037760   0.027760
     2  C    0.367862   4.506287   0.340449   0.353043   0.226704  -0.020098
     3  H   -0.111929   0.340449   0.945844  -0.055971   0.050496  -0.004230
     4  H   -0.063853   0.353043  -0.055971   0.739076  -0.060941   0.013781
     5  C   -0.037760   0.226704   0.050496  -0.060941   5.238400   0.164151
     6  O    0.027760  -0.020098  -0.004230   0.013781   0.164151   8.730934
     7  N    0.042711  -0.008787  -0.105363   0.015980   0.229886  -0.152913
     8  H   -0.006150  -0.080379   0.022415  -0.008760  -0.113989   0.007519
     9  C   -0.015215  -0.024295  -0.017477   0.012502  -0.375382   0.132931
    10  H   -0.002388  -0.001467   0.001651  -0.000065   0.005472   0.011937
    11  C    0.005484  -0.012165  -0.000258  -0.006270   0.026610  -0.037047
    12  H   -0.000670  -0.000059   0.001580  -0.001614   0.001212   0.019275
    13  H    0.000075  -0.003314  -0.000919   0.000057  -0.041358   0.005935
    14  H    0.000856   0.007951   0.000777   0.000072   0.063672  -0.066475
    15  C    0.002450   0.010426  -0.023754   0.012380  -0.028816  -0.004313
    16  O   -0.001120  -0.006762   0.004584  -0.001451  -0.004627  -0.000060
    17  N   -0.000185   0.002353   0.001779  -0.000054  -0.000314  -0.000590
    18  H    0.000009  -0.001224  -0.000271  -0.000090   0.002293   0.000114
    19  C   -0.000001   0.002196   0.000106   0.000334  -0.004119   0.000484
    20  H    0.000018   0.000235  -0.000019   0.000064  -0.000520  -0.000024
    21  H    0.000011   0.000153  -0.000015   0.000013   0.000512   0.000057
    22  H    0.000005   0.000190  -0.000006   0.000018  -0.000269   0.000016
              7          8          9         10         11         12
     1  H    0.042711  -0.006150  -0.015215  -0.002388   0.005484  -0.000670
     2  C   -0.008787  -0.080379  -0.024295  -0.001467  -0.012165  -0.000059
     3  H   -0.105363   0.022415  -0.017477   0.001651  -0.000258   0.001580
     4  H    0.015980  -0.008760   0.012502  -0.000065  -0.006270  -0.001614
     5  C    0.229886  -0.113989  -0.375382   0.005472   0.026610   0.001212
     6  O   -0.152913   0.007519   0.132931   0.011937  -0.037047   0.019275
     7  N    7.598680   0.312576  -0.541254  -0.250179   0.113808  -0.088630
     8  H    0.312576   0.916703  -0.003466   0.028030  -0.004002  -0.001622
     9  C   -0.541254  -0.003466   7.679449   0.357821  -0.102565   0.163390
    10  H   -0.250179   0.028030   0.357821   1.128466  -0.024162   0.081081
    11  C    0.113808  -0.004002  -0.102565  -0.024162   4.301539   0.252437
    12  H   -0.088630  -0.001622   0.163390   0.081081   0.252437   1.048535
    13  H    0.073905   0.005598  -0.201940  -0.072339   0.341962  -0.152942
    14  H    0.033853  -0.010107  -0.146863  -0.029189   0.396530  -0.172467
    15  C    0.261701  -0.110910  -0.763755  -0.156374   0.057176  -0.140599
    16  O   -0.028097   0.052548   0.011702  -0.004810   0.006714   0.002441
    17  N   -0.024478   0.002319   0.055501  -0.020353   0.010779   0.005709
    18  H    0.000504   0.004938  -0.070066   0.019207  -0.026859   0.008869
    19  C   -0.007447  -0.009185   0.010638  -0.004660  -0.000577  -0.010173
    20  H   -0.001025  -0.001366   0.008651   0.001796  -0.007164  -0.001809
    21  H    0.001685  -0.000354  -0.002749  -0.002532  -0.002436  -0.000130
    22  H    0.000713  -0.000167  -0.021000  -0.001965   0.015210  -0.000380
             13         14         15         16         17         18
     1  H    0.000075   0.000856   0.002450  -0.001120  -0.000185   0.000009
     2  C   -0.003314   0.007951   0.010426  -0.006762   0.002353  -0.001224
     3  H   -0.000919   0.000777  -0.023754   0.004584   0.001779  -0.000271
     4  H    0.000057   0.000072   0.012380  -0.001451  -0.000054  -0.000090
     5  C   -0.041358   0.063672  -0.028816  -0.004627  -0.000314   0.002293
     6  O    0.005935  -0.066475  -0.004313  -0.000060  -0.000590   0.000114
     7  N    0.073905   0.033853   0.261701  -0.028097  -0.024478   0.000504
     8  H    0.005598  -0.010107  -0.110910   0.052548   0.002319   0.004938
     9  C   -0.201940  -0.146863  -0.763755   0.011702   0.055501  -0.070066
    10  H   -0.072339  -0.029189  -0.156374  -0.004810  -0.020353   0.019207
    11  C    0.341962   0.396530   0.057176   0.006714   0.010779  -0.026859
    12  H   -0.152942  -0.172467  -0.140599   0.002441   0.005709   0.008869
    13  H    1.382809  -0.235823   0.156827  -0.006112  -0.077135   0.004553
    14  H   -0.235823   1.034908   0.035962   0.000719   0.032137  -0.005815
    15  C    0.156827   0.035962   5.344604   0.305694   0.053569   0.047316
    16  O   -0.006112   0.000719   0.305694   8.688208  -0.189157   0.004152
    17  N   -0.077135   0.032137   0.053569  -0.189157   7.258036   0.212319
    18  H    0.004553  -0.005815   0.047316   0.004152   0.212319   1.049087
    19  C   -0.010523   0.009038  -0.170300  -0.002731   0.333784  -0.145584
    20  H    0.002894  -0.000023  -0.015854   0.000140  -0.038547  -0.002425
    21  H   -0.000755  -0.000099   0.005862   0.008957  -0.073526   0.009584
    22  H   -0.001528   0.001585  -0.005396   0.009491  -0.019663   0.003690
             19         20         21         22
     1  H   -0.000001   0.000018   0.000011   0.000005
     2  C    0.002196   0.000235   0.000153   0.000190
     3  H    0.000106  -0.000019  -0.000015  -0.000006
     4  H    0.000334   0.000064   0.000013   0.000018
     5  C   -0.004119  -0.000520   0.000512  -0.000269
     6  O    0.000484  -0.000024   0.000057   0.000016
     7  N   -0.007447  -0.001025   0.001685   0.000713
     8  H   -0.009185  -0.001366  -0.000354  -0.000167
     9  C    0.010638   0.008651  -0.002749  -0.021000
    10  H   -0.004660   0.001796  -0.002532  -0.001965
    11  C   -0.000577  -0.007164  -0.002436   0.015210
    12  H   -0.010173  -0.001809  -0.000130  -0.000380
    13  H   -0.010523   0.002894  -0.000755  -0.001528
    14  H    0.009038  -0.000023  -0.000099   0.001585
    15  C   -0.170300  -0.015854   0.005862  -0.005396
    16  O   -0.002731   0.000140   0.008957   0.009491
    17  N    0.333784  -0.038547  -0.073526  -0.019663
    18  H   -0.145584  -0.002425   0.009584   0.003690
    19  C    4.149482   0.487477   0.343165   0.326021
    20  H    0.487477   0.965308  -0.129255  -0.118591
    21  H    0.343165  -0.129255   1.089728  -0.139685
    22  H    0.326021  -0.118591  -0.139685   1.043609
 Mulliken atomic charges:
              1
     1  H   -0.031288
     2  C    0.340700
     3  H   -0.049468
     4  H    0.051750
     5  C    0.658688
     6  O   -0.829142
     7  N   -0.477828
     8  H   -0.002189
     9  C   -0.146556
    10  H   -0.064975
    11  C    0.695255
    12  H   -0.013435
    13  H   -0.169927
    14  H    0.048802
    15  C    1.126102
    16  O   -0.850425
    17  N   -0.524283
    18  H   -0.114300
    19  C    0.702576
    20  H   -0.149964
    21  H   -0.108193
    22  H   -0.091898
 Sum of Mulliken atomic charges =   0.00000
 Mulliken charges with hydrogens summed into heavy atoms:
              1
     2  C    0.311693
     5  C    0.658688
     6  O   -0.829142
     7  N   -0.480017
     9  C   -0.211531
    11  C    0.560695
    15  C    1.126102
    16  O   -0.850425
    17  N   -0.638584
    19  C    0.352521
 Sum of Mulliken charges with hydrogens summed into heavy atoms =   0.00000
 Electronic spatial extent (au):  <R**2>=           1950.9760
 Charge=              0.0000 electrons
 Dipole moment (field-independent basis, Debye):
    X=              3.8112    Y=              0.4295    Z=             -0.6241  Tot=              3.8858
 Quadrupole moment (field-independent basis, Debye-Ang):
   XX=            -58.4846   YY=            -63.9781   ZZ=            -61.0297
   XY=             14.0904   XZ=             -0.0291   YZ=             -0.8605
 Traceless Quadrupole moment (field-independent basis, Debye-Ang):
   XX=              2.6795   YY=             -2.8140   ZZ=              0.1344
   XY=             14.0904   XZ=             -0.0291   YZ=             -0.8605
 Octapole moment (field-independent basis, Debye-Ang**2):
  XXX=             56.1847  YYY=              5.1624  ZZZ=              1.8605  XYY=              3.7331
  XXY=            -22.9588  XXZ=             -0.8615  XZZ=              0.8816  YZZ=             -0.3695
  YYZ=             -3.1917  XYZ=              1.3501
 Hexadecapole moment (field-independent basis, Debye-Ang**3):
 XXXX=          -1855.4413 YYYY=           -486.4354 ZZZZ=           -123.7923 XXXY=             80.2536
 XXXZ=             13.9026 YYYX=             19.3690 YYYZ=              0.3710 ZZZX=             -3.4831
 ZZZY=             -2.8984 XXYY=           -413.6528 XXZZ=           -346.2675 YYZZ=           -101.5283
 XXYZ=            -10.8213 YYXZ=             -0.1849 ZZXY=              0.1080
 N-N= 5.512033705072D+02 E-N=-2.257609624892D+03  KE= 4.920726705263D+02
 1\1\GINC-NODE006\SP\RMP2-FC\Aug-CC-pVDZ\C6H12N2O2\STEBOSS\13-Feb-2017\
 0\\#SP MP2/aug-cc-pVDZ\\Single Point calculation at MP2\\0,1\H,0,-4.17
 88,-1.0752,0.1461\C,0,-3.1192,-1.3116,0.2593\H,0,-2.8576,-2.1474,-0.39
 78\H,0,-2.9494,-1.6272,1.2959\C,0,-2.3055,-0.0524,-0.0253\O,0,-2.7666,
 1.0643,0.1758\N,0,-1.059,-0.3101,-0.5434\H,0,-0.7587,-1.2801,-0.4856\C
 ,0,0.1057,0.5712,-0.5655\H,0,0.2965,0.8908,-1.6021\C,0,-0.0165,1.832,0
 .3104\H,0,-0.0923,1.568,1.3699\H,0,0.8607,2.4751,0.1769\H,0,-0.9087,2.
 3947,0.0423\C,0,1.3133,-0.3042,-0.1311\O,0,1.1823,-1.5022,0.1097\N,0,2
 .512,0.3331,-0.0849\H,0,2.5418,1.323,-0.279\C,0,3.7501,-0.338,0.276\H,
 0,3.5257,-1.3977,0.3996\H,0,4.5017,-0.2172,-0.5121\H,0,4.1555,0.0542,1
 .2162\\Version=EM64L-G09RevA.02\State=1-A\HF=-492.9173238\MP2=-494.519
 1131\RMSD=4.838e-09\PG=C01 [X(C6H12N2O2)]\\@


 ERROR IS A HARDY PLANT... IT FLOURISHETH IN EVERY SOIL.
            MARTIN FARQUHAR TUPPER
 Job cpu time:  2 days  9 hours 33 minutes 53.6 seconds.
 File lengths (MBytes):  RWF=  10490 Int=      0 D2E=      0 Chk=      7 Scr=      2
 Normal termination of Gaussian 09 at Mon Feb 13 01:03:41 2017.
