 Entering Gaussian System, Link 0=g09
 Initial command:
 /home/steboss/Software/g09/l1.exe /home/steboss/projects/phi_psi_scan/alanine/MP2/135/5231/Gau-15822.inp -scrdir=/home/steboss/projects/phi_psi_scan/alanine/MP2/135/5231/
 Entering Link 1 = /home/steboss/Software/g09/l1.exe PID=     15824.
  
 Copyright (c) 1988,1990,1992,1993,1995,1998,2003,2009, Gaussian, Inc.
                  All Rights Reserved.
  
 This is part of the Gaussian(R) 09 program.  It is based on
 the Gaussian(R) 03 system (copyright 2003, Gaussian, Inc.),
 the Gaussian(R) 98 system (copyright 1998, Gaussian, Inc.),
 the Gaussian(R) 94 system (copyright 1995, Gaussian, Inc.),
 the Gaussian 92(TM) system (copyright 1992, Gaussian, Inc.),
 the Gaussian 90(TM) system (copyright 1990, Gaussian, Inc.),
 the Gaussian 88(TM) system (copyright 1988, Gaussian, Inc.),
 the Gaussian 86(TM) system (copyright 1986, Carnegie Mellon
 University), and the Gaussian 82(TM) system (copyright 1983,
 Carnegie Mellon University). Gaussian is a federally registered
 trademark of Gaussian, Inc.
  
 This software contains proprietary and confidential information,
 including trade secrets, belonging to Gaussian, Inc.
  
 This software is provided under written license and may be
 used, copied, transmitted, or stored only in accord with that
 written license.
  
 The following legend is applicable only to US Government
 contracts under FAR:
  
                    RESTRICTED RIGHTS LEGEND
  
 Use, reproduction and disclosure by the US Government is
 subject to restrictions as set forth in subparagraphs (a)
 and (c) of the Commercial Computer Software - Restricted
 Rights clause in FAR 52.227-19.
  
 Gaussian, Inc.
 340 Quinnipiac St., Bldg. 40, Wallingford CT 06492
  
  
 ---------------------------------------------------------------
 Warning -- This program may not be used in any manner that
 competes with the business of Gaussian, Inc. or will provide
 assistance to any competitor of Gaussian, Inc.  The licensee
 of this program is prohibited from giving any competitor of
 Gaussian, Inc. access to this program.  By using this program,
 the user acknowledges that Gaussian, Inc. is engaged in the
 business of creating and licensing software in the field of
 computational chemistry and represents and warrants to the
 licensee that it is not a competitor of Gaussian, Inc. and that
 it will not use this program in any manner prohibited above.
 ---------------------------------------------------------------
  

 Cite this work as:
 Gaussian 09, Revision A.02,
 M. J. Frisch, G. W. Trucks, H. B. Schlegel, G. E. Scuseria, 
 M. A. Robb, J. R. Cheeseman, G. Scalmani, V. Barone, B. Mennucci, 
 G. A. Petersson, H. Nakatsuji, M. Caricato, X. Li, H. P. Hratchian, 
 A. F. Izmaylov, J. Bloino, G. Zheng, J. L. Sonnenberg, M. Hada, 
 M. Ehara, K. Toyota, R. Fukuda, J. Hasegawa, M. Ishida, T. Nakajima, 
 Y. Honda, O. Kitao, H. Nakai, T. Vreven, J. A. Montgomery, Jr., 
 J. E. Peralta, F. Ogliaro, M. Bearpark, J. J. Heyd, E. Brothers, 
 K. N. Kudin, V. N. Staroverov, R. Kobayashi, J. Normand, 
 K. Raghavachari, A. Rendell, J. C. Burant, S. S. Iyengar, J. Tomasi, 
 M. Cossi, N. Rega, J. M. Millam, M. Klene, J. E. Knox, J. B. Cross, 
 V. Bakken, C. Adamo, J. Jaramillo, R. Gomperts, R. E. Stratmann, 
 O. Yazyev, A. J. Austin, R. Cammi, C. Pomelli, J. W. Ochterski, 
 R. L. Martin, K. Morokuma, V. G. Zakrzewski, G. A. Voth, 
 P. Salvador, J. J. Dannenberg, S. Dapprich, A. D. Daniels, 
 O. Farkas, J. B. Foresman, J. V. Ortiz, J. Cioslowski, 
 and D. J. Fox, Gaussian, Inc., Wallingford CT, 2009.
 
 ******************************************
 Gaussian 09:  EM64L-G09RevA.02 11-Jun-2009
                12-Feb-2017 
 ******************************************
 %chk=structure_120.chk
 %NProcShared=8
 Will use up to    8 processors via shared memory.
 -------------------
 #SP MP2/aug-cc-pVDZ
 -------------------
 1/38=1/1;
 2/12=2,17=6,18=5,40=1/2;
 3/5=16,7=10,11=9,16=1,25=1,30=1/1,2,3;
 4//1;
 5/5=2,38=5/2;
 8/10=1/1;
 9/16=-3/6;
 6/7=2,8=2,9=2,10=2/1;
 99/5=1,9=1/99;
 -------------------------------
 Single Point calculation at MP2
 -------------------------------
 Symbolic Z-matrix:
 Charge =  0 Multiplicity = 1
 H                    -4.0692   -1.3624   -0.0691 
 C                    -2.9985   -1.5173    0.0724 
 H                    -2.6552   -2.32     -0.5894 
 H                    -2.8274   -1.8351    1.1081 
 C                    -2.2767   -0.1976   -0.1818 
 O                    -2.8504    0.8785   -0.1025 
 N                    -0.9516   -0.35     -0.535 
 H                    -0.6086   -1.2944   -0.4111 
 C                     0.1089    0.6646   -0.4277 
 H                     0.3481    1.0268   -1.4388 
 C                    -0.2217    1.8753    0.4593 
 H                    -0.4184    1.5449    1.4825 
 H                     0.6457    2.5458    0.4725 
 H                    -1.0934    2.4109    0.0884 
 C                     1.3406   -0.0372    0.1803 
 O                     1.2852   -0.5943    1.2702 
 N                     2.4573   -0.0209   -0.6029 
 H                     2.4198    0.4724   -1.4833 
 C                     3.7296   -0.5725   -0.1685 
 H                     3.5584   -1.0714    0.7863 
 H                     4.1065   -1.301    -0.895 
 H                     4.4819    0.2138   -0.0322 
 
                          Input orientation:                          
 ---------------------------------------------------------------------
 Center     Atomic      Atomic             Coordinates (Angstroms)
 Number     Number       Type             X           Y           Z
 ---------------------------------------------------------------------
      1          1           0       -4.069200   -1.362400   -0.069100
      2          6           0       -2.998500   -1.517300    0.072400
      3          1           0       -2.655200   -2.320000   -0.589400
      4          1           0       -2.827400   -1.835100    1.108100
      5          6           0       -2.276700   -0.197600   -0.181800
      6          8           0       -2.850400    0.878500   -0.102500
      7          7           0       -0.951600   -0.350000   -0.535000
      8          1           0       -0.608600   -1.294400   -0.411100
      9          6           0        0.108900    0.664600   -0.427700
     10          1           0        0.348100    1.026800   -1.438800
     11          6           0       -0.221700    1.875300    0.459300
     12          1           0       -0.418400    1.544900    1.482500
     13          1           0        0.645700    2.545800    0.472500
     14          1           0       -1.093400    2.410900    0.088400
     15          6           0        1.340600   -0.037200    0.180300
     16          8           0        1.285200   -0.594300    1.270200
     17          7           0        2.457300   -0.020900   -0.602900
     18          1           0        2.419800    0.472400   -1.483300
     19          6           0        3.729600   -0.572500   -0.168500
     20          1           0        3.558400   -1.071400    0.786300
     21          1           0        4.106500   -1.301000   -0.895000
     22          1           0        4.481900    0.213800   -0.032200
 ---------------------------------------------------------------------
                    Distance matrix (angstroms):
                    1          2          3          4          5
     1  H    0.000000
     2  C    1.091061   0.000000
     3  H    1.785247   1.095519   0.000000
     4  H    1.775194   1.096789   1.773778   0.000000
     5  C    2.140681   1.525523   2.194079   2.156042   0.000000
     6  O    2.551122   2.406737   3.241231   2.971482   1.222052
     7  N    3.310808   2.433377   2.605017   2.902400   1.379807
     8  H    3.478123   2.448485   2.296131   2.742881   2.009504
     9  C    4.657665   3.829716   4.071146   4.150788   2.548518
    10  H    5.205468   4.467203   4.576282   4.976040   3.157337
    11  C    5.056201   4.401141   4.962080   4.580140   2.988469
    12  H    4.918150   4.245276   4.922753   4.167476   3.042939
    13  H    6.147979   5.472573   5.974913   5.626606   4.061376
    14  H    4.808117   4.365824   5.027927   4.698410   2.877061
    15  C    5.575329   4.585862   4.665837   4.633085   3.638915
    16  O    5.572549   4.542768   4.686460   4.298760   3.866886
    17  N    6.684293   5.697455   5.605685   5.843535   4.755976
    18  H    6.890107   5.978050   5.861073   6.290709   4.919341
    19  C    7.839331   6.798383   6.632992   6.798391   6.018004
    20  H    7.680929   6.610705   6.485397   6.439350   5.979058
    21  H    8.217539   7.173819   6.844877   7.237171   6.517008
    22  H    8.695233   7.678804   7.593998   7.676206   6.772762
                    6          7          8          9         10
     6  O    0.000000
     7  N    2.302544   0.000000
     8  H    3.137259   1.012369   0.000000
     9  C    2.984789   1.471593   2.086328   0.000000
    10  H    3.469595   2.098012   2.712824   1.100331   0.000000
    11  C    2.866931   2.544277   3.309726   1.536834   2.155785
    12  H    2.978412   2.818733   3.418117   2.168372   3.064301
    13  H    3.915767   3.457178   4.135354   2.153469   2.459470
    14  H    2.339175   2.833955   3.770117   2.182074   2.515153
    15  C    4.299182   2.421503   2.393676   1.542489   2.176841
    16  O    4.599634   2.884736   2.627430   2.418962   3.293145
    17  N    5.406570   3.425422   3.325407   2.452670   2.499026
    18  H    5.463198   3.597493   3.666388   2.547840   2.145060
    19  C    6.738409   4.700794   4.404540   3.834980   3.950439
    20  H    6.757573   4.754614   4.341357   4.048029   4.433908
    21  H    7.333262   5.159300   4.739870   4.479147   4.454205
    22  H    7.362703   5.485763   5.322727   4.413929   4.441598
                   11         12         13         14         15
    11  C    0.000000
    12  H    1.093066   0.000000
    13  H    1.096416   1.776009   0.000000
    14  H    1.088253   1.774569   1.786113   0.000000
    15  C    2.485212   2.700527   2.690754   3.453403   0.000000
    16  O    3.004535   2.742900   3.302350   4.010688   1.225280
    17  N    3.449766   3.882045   3.320592   4.358786   1.364070
    18  H    3.566419   4.242830   3.357316   4.309362   2.047420
    19  C    4.690270   4.941163   4.432281   5.676971   2.472959
    20  H    4.804074   4.810890   4.654721   5.852582   2.521000
    21  H    5.536815   5.850331   5.352108   6.464073   3.225471
    22  H    5.012585   5.298970   4.517674   5.993810   3.158468
                   16         17         18         19         20
    16  O    0.000000
    17  N    2.282785   0.000000
    18  H    3.163373   1.009879   0.000000
    19  C    2.836446   1.453173   2.129810   0.000000
    20  H    2.372598   2.060546   2.971668   1.090804   0.000000
    21  H    3.625914   2.108042   2.517142   1.095704   1.783227
    22  H    3.545160   2.116551   2.534723   1.096723   1.781722
                   21         22
    21  H    0.000000
    22  H    1.783246   0.000000
 Stoichiometry    C6H12N2O2
 Framework group  C1[X(C6H12N2O2)]
 Deg. of freedom    60
 Full point group                 C1      NOp   1
 Largest Abelian subgroup         C1      NOp   1
 Largest concise Abelian subgroup C1      NOp   1
                         Standard orientation:                         
 ---------------------------------------------------------------------
 Center     Atomic      Atomic             Coordinates (Angstroms)
 Number     Number       Type             X           Y           Z
 ---------------------------------------------------------------------
      1          1           0       -4.069199   -1.362384   -0.069090
      2          6           0       -2.998499   -1.517286    0.072410
      3          1           0       -2.655201   -2.319987   -0.589390
      4          1           0       -2.827400   -1.835086    1.108110
      5          6           0       -2.276697   -0.197588   -0.181790
      6          8           0       -2.850394    0.878514   -0.102490
      7          7           0       -0.951597   -0.349990   -0.534990
      8          1           0       -0.608599   -1.294391   -0.411090
      9          6           0        0.108905    0.664607   -0.427690
     10          1           0        0.348106    1.026807   -1.438790
     11          6           0       -0.221692    1.875308    0.459310
     12          1           0       -0.418393    1.544909    1.482510
     13          1           0        0.645709    2.545806    0.472510
     14          1           0       -1.093391    2.410910    0.088410
     15          6           0        1.340604   -0.037195    0.180310
     16          8           0        1.285203   -0.594295    1.270210
     17          7           0        2.457304   -0.020897   -0.602890
     18          1           0        2.419805    0.472403   -1.483290
     19          6           0        3.729603   -0.572500   -0.168490
     20          1           0        3.558402   -1.071400    0.786310
     21          1           0        4.106501   -1.301001   -0.894990
     22          1           0        4.481904    0.213798   -0.032190
 ---------------------------------------------------------------------
 Rotational constants (GHZ):      2.7869476      0.6703452      0.6062667
 Standard basis: Aug-CC-pVDZ (5D, 7F)
 There are   338 symmetry adapted basis functions of A   symmetry.
 Integral buffers will be    131072 words long.
 Raffenetti 1 integral format.
 Two-electron integral symmetry is turned on.
   338 basis functions,   562 primitive gaussians,   358 cartesian basis functions
    39 alpha electrons       39 beta electrons
       nuclear repulsion energy       550.1530048264 Hartrees.
 NAtoms=   22 NActive=   22 NUniq=   22 SFac= 7.50D-01 NAtFMM=   80 NAOKFM=F Big=F
 One-electron integrals computed using PRISM.
 NBasis=   338 RedAO= T  NBF=   338
 NBsUse=   338 1.00D-06 NBFU=   338
 Harris functional with IExCor=  205 diagonalized for initial guess.
 ExpMin= 2.97D-02 ExpMax= 1.17D+04 ExpMxC= 4.01D+02 IAcc=3 IRadAn=         0 AccDes= 0.00D+00
 HarFok:  IExCor=  205 AccDes= 0.00D+00 IRadAn=         0 IDoV= 1
 ScaDFX=  1.000000  1.000000  1.000000  1.000000
 FoFCou: FMM=F IPFlag=           0 FMFlag=      100000 FMFlg1=           0
         NFxFlg=           0 DoJE=T BraDBF=F KetDBF=T FulRan=T
         Omega=  0.000000  0.000000  1.000000  0.000000  0.000000 ICntrl=     500 IOpCl=  0
         NMat0=    1 NMatS0=    1 NMatT0=    0 NMatD0=    1 NMtDS0=    0 NMtDT0=    0
         I1Cent=           4 NGrid=           0.
 Petite list used in FoFCou.
 Initial guess orbital symmetries:
       Occupied  (A) (A) (A) (A) (A) (A) (A) (A) (A) (A) (A) (A)
                 (A) (A) (A) (A) (A) (A) (A) (A) (A) (A) (A) (A)
                 (A) (A) (A) (A) (A) (A) (A) (A) (A) (A) (A) (A)
                 (A) (A) (A)
       Virtual   (A) (A) (A) (A) (A) (A) (A) (A) (A) (A) (A) (A)
                 (A) (A) (A) (A) (A) (A) (A) (A) (A) (A) (A) (A)
                 (A) (A) (A) (A) (A) (A) (A) (A) (A) (A) (A) (A)
                 (A) (A) (A) (A) (A) (A) (A) (A) (A) (A) (A) (A)
                 (A) (A) (A) (A) (A) (A) (A) (A) (A) (A) (A) (A)
                 (A) (A) (A) (A) (A) (A) (A) (A) (A) (A) (A) (A)
                 (A) (A) (A) (A) (A) (A) (A) (A) (A) (A) (A) (A)
                 (A) (A) (A) (A) (A) (A) (A) (A) (A) (A) (A) (A)
                 (A) (A) (A) (A) (A) (A) (A) (A) (A) (A) (A) (A)
                 (A) (A) (A) (A) (A) (A) (A) (A) (A) (A) (A) (A)
                 (A) (A) (A) (A) (A) (A) (A) (A) (A) (A) (A) (A)
                 (A) (A) (A) (A) (A) (A) (A) (A) (A) (A) (A) (A)
                 (A) (A) (A) (A) (A) (A) (A) (A) (A) (A) (A) (A)
                 (A) (A) (A) (A) (A) (A) (A) (A) (A) (A) (A) (A)
                 (A) (A) (A) (A) (A) (A) (A) (A) (A) (A) (A) (A)
                 (A) (A) (A) (A) (A) (A) (A) (A) (A) (A) (A) (A)
                 (A) (A) (A) (A) (A) (A) (A) (A) (A) (A) (A) (A)
                 (A) (A) (A) (A) (A) (A) (A) (A) (A) (A) (A) (A)
                 (A) (A) (A) (A) (A) (A) (A) (A) (A) (A) (A) (A)
                 (A) (A) (A) (A) (A) (A) (A) (A) (A) (A) (A) (A)
                 (A) (A) (A) (A) (A) (A) (A) (A) (A) (A) (A) (A)
                 (A) (A) (A) (A) (A) (A) (A) (A) (A) (A) (A) (A)
                 (A) (A) (A) (A) (A) (A) (A) (A) (A) (A) (A) (A)
                 (A) (A) (A) (A) (A) (A) (A) (A) (A) (A) (A) (A)
                 (A) (A) (A) (A) (A) (A) (A) (A) (A) (A) (A)
 The electronic state of the initial guess is 1-A.
 Requested convergence on RMS density matrix=1.00D-08 within 128 cycles.
 Requested convergence on MAX density matrix=1.00D-06.
 Requested convergence on             energy=1.00D-06.
 No special actions if energy rises.
 Initial convergence to 1.0D-05 achieved.  Increase integral accuracy.
 SCF Done:  E(RHF) =  -492.914096469     A.U. after   14 cycles
             Convg  =    0.8399D-08             -V/T =  2.0017
 ExpMin= 2.97D-02 ExpMax= 1.17D+04 ExpMxC= 4.01D+02 IAcc=3 IRadAn=         5 AccDes= 0.00D+00
 HarFok:  IExCor=  205 AccDes= 0.00D+00 IRadAn=         5 IDoV=-2
 ScaDFX=  1.000000  1.000000  1.000000  1.000000
 Range of M.O.s used for correlation:    11   338
 NBasis=   338 NAE=    39 NBE=    39 NFC=    10 NFV=     0
 NROrb=    328 NOA=    29 NOB=    29 NVA=   299 NVB=   299

 **** Warning!!: The largest alpha MO coefficient is  0.71924610D+02

 Disk-based method using OVN memory for 29 occupieds at a time.
 Estimated scratch disk usage=  1371991797 words.
 Actual    scratch disk usage=  1358836049 words.
 JobTyp=1 Pass  1:  I=   1 to  29 NPSUse=  8 ParTrn=T ParDer=T DoDerP=F.
 Spin components of T(2) and E(2):
     alpha-alpha T2 =       0.6796433797D-01 E2=     -0.2057392562D+00
     alpha-beta  T2 =       0.3770265351D+00 E2=     -0.1190662511D+01
     beta-beta   T2 =       0.6796433797D-01 E2=     -0.2057392562D+00
 ANorm=    0.1230022443D+01
 E2 =    -0.1602141023D+01 EUMP2 =    -0.49451623749164D+03

 **********************************************************************

            Population analysis using the SCF density.

 **********************************************************************

 Orbital symmetries:
       Occupied  (A) (A) (A) (A) (A) (A) (A) (A) (A) (A) (A) (A)
                 (A) (A) (A) (A) (A) (A) (A) (A) (A) (A) (A) (A)
                 (A) (A) (A) (A) (A) (A) (A) (A) (A) (A) (A) (A)
                 (A) (A) (A)
       Virtual   (A) (A) (A) (A) (A) (A) (A) (A) (A) (A) (A) (A)
                 (A) (A) (A) (A) (A) (A) (A) (A) (A) (A) (A) (A)
                 (A) (A) (A) (A) (A) (A) (A) (A) (A) (A) (A) (A)
                 (A) (A) (A) (A) (A) (A) (A) (A) (A) (A) (A) (A)
                 (A) (A) (A) (A) (A) (A) (A) (A) (A) (A) (A) (A)
                 (A) (A) (A) (A) (A) (A) (A) (A) (A) (A) (A) (A)
                 (A) (A) (A) (A) (A) (A) (A) (A) (A) (A) (A) (A)
                 (A) (A) (A) (A) (A) (A) (A) (A) (A) (A) (A) (A)
                 (A) (A) (A) (A) (A) (A) (A) (A) (A) (A) (A) (A)
                 (A) (A) (A) (A) (A) (A) (A) (A) (A) (A) (A) (A)
                 (A) (A) (A) (A) (A) (A) (A) (A) (A) (A) (A) (A)
                 (A) (A) (A) (A) (A) (A) (A) (A) (A) (A) (A) (A)
                 (A) (A) (A) (A) (A) (A) (A) (A) (A) (A) (A) (A)
                 (A) (A) (A) (A) (A) (A) (A) (A) (A) (A) (A) (A)
                 (A) (A) (A) (A) (A) (A) (A) (A) (A) (A) (A) (A)
                 (A) (A) (A) (A) (A) (A) (A) (A) (A) (A) (A) (A)
                 (A) (A) (A) (A) (A) (A) (A) (A) (A) (A) (A) (A)
                 (A) (A) (A) (A) (A) (A) (A) (A) (A) (A) (A) (A)
                 (A) (A) (A) (A) (A) (A) (A) (A) (A) (A) (A) (A)
                 (A) (A) (A) (A) (A) (A) (A) (A) (A) (A) (A) (A)
                 (A) (A) (A) (A) (A) (A) (A) (A) (A) (A) (A) (A)
                 (A) (A) (A) (A) (A) (A) (A) (A) (A) (A) (A) (A)
                 (A) (A) (A) (A) (A) (A) (A) (A) (A) (A) (A) (A)
                 (A) (A) (A) (A) (A) (A) (A) (A) (A) (A) (A) (A)
                 (A) (A) (A) (A) (A) (A) (A) (A) (A) (A) (A)
 The electronic state is 1-A.
 Alpha  occ. eigenvalues --  -20.53993 -20.52943 -15.60987 -15.59487 -11.36917
 Alpha  occ. eigenvalues --  -11.36186 -11.29928 -11.27748 -11.24307 -11.22549
 Alpha  occ. eigenvalues --   -1.39569  -1.38137  -1.24566  -1.23410  -1.05557
 Alpha  occ. eigenvalues --   -0.98849  -0.96503  -0.88097  -0.80262  -0.76894
 Alpha  occ. eigenvalues --   -0.73146  -0.68274  -0.66644  -0.64095  -0.63069
 Alpha  occ. eigenvalues --   -0.62010  -0.60209  -0.58487  -0.56484  -0.55699
 Alpha  occ. eigenvalues --   -0.55082  -0.54201  -0.52592  -0.51441  -0.50244
 Alpha  occ. eigenvalues --   -0.43838  -0.41323  -0.40507  -0.39580
 Alpha virt. eigenvalues --    0.02481   0.03890   0.04162   0.04517   0.05750
 Alpha virt. eigenvalues --    0.06079   0.06341   0.06646   0.07874   0.07928
 Alpha virt. eigenvalues --    0.08793   0.09064   0.11585   0.12146   0.12368
 Alpha virt. eigenvalues --    0.13106   0.13811   0.14554   0.15039   0.15329
 Alpha virt. eigenvalues --    0.15473   0.15910   0.16391   0.16473   0.17136
 Alpha virt. eigenvalues --    0.17695   0.17923   0.18559   0.19083   0.19402
 Alpha virt. eigenvalues --    0.20003   0.20432   0.20533   0.21546   0.21876
 Alpha virt. eigenvalues --    0.23094   0.24120   0.24550   0.25005   0.25635
 Alpha virt. eigenvalues --    0.27199   0.27664   0.29766   0.29959   0.30275
 Alpha virt. eigenvalues --    0.31099   0.31910   0.32620   0.32979   0.33515
 Alpha virt. eigenvalues --    0.34239   0.35056   0.35764   0.36313   0.36829
 Alpha virt. eigenvalues --    0.37231   0.37689   0.38466   0.38530   0.39065
 Alpha virt. eigenvalues --    0.39428   0.39945   0.41873   0.42657   0.43119
 Alpha virt. eigenvalues --    0.43810   0.44170   0.44783   0.45292   0.46080
 Alpha virt. eigenvalues --    0.46581   0.47377   0.47840   0.48447   0.49220
 Alpha virt. eigenvalues --    0.49796   0.50755   0.51104   0.52224   0.52568
 Alpha virt. eigenvalues --    0.53456   0.53834   0.54616   0.54996   0.55565
 Alpha virt. eigenvalues --    0.56545   0.56892   0.57316   0.58256   0.58827
 Alpha virt. eigenvalues --    0.59870   0.60544   0.61112   0.61802   0.62336
 Alpha virt. eigenvalues --    0.62652   0.62805   0.63644   0.64851   0.65816
 Alpha virt. eigenvalues --    0.66171   0.66562   0.67640   0.67815   0.68341
 Alpha virt. eigenvalues --    0.68851   0.69325   0.69632   0.70832   0.71593
 Alpha virt. eigenvalues --    0.72651   0.73353   0.73589   0.74382   0.74588
 Alpha virt. eigenvalues --    0.75638   0.75694   0.76955   0.77847   0.78318
 Alpha virt. eigenvalues --    0.79596   0.80080   0.80375   0.81170   0.82856
 Alpha virt. eigenvalues --    0.83720   0.84274   0.85150   0.85670   0.86977
 Alpha virt. eigenvalues --    0.88253   0.90238   0.91965   0.92980   0.93103
 Alpha virt. eigenvalues --    0.94119   0.95389   0.97415   0.98928   0.99259
 Alpha virt. eigenvalues --    1.00221   1.01532   1.01975   1.03134   1.04737
 Alpha virt. eigenvalues --    1.05718   1.06905   1.08088   1.09043   1.10555
 Alpha virt. eigenvalues --    1.11598   1.12005   1.13110   1.14253   1.16555
 Alpha virt. eigenvalues --    1.17236   1.18838   1.19577   1.20743   1.22588
 Alpha virt. eigenvalues --    1.23389   1.24485   1.25778   1.27259   1.28780
 Alpha virt. eigenvalues --    1.32047   1.32893   1.34306   1.37374   1.38303
 Alpha virt. eigenvalues --    1.41070   1.42378   1.43676   1.46008   1.47391
 Alpha virt. eigenvalues --    1.48958   1.51624   1.52450   1.53831   1.54843
 Alpha virt. eigenvalues --    1.56270   1.58105   1.59362   1.61677   1.64953
 Alpha virt. eigenvalues --    1.65360   1.65984   1.70096   1.71991   1.73180
 Alpha virt. eigenvalues --    1.73905   1.76612   1.77170   1.77940   1.79204
 Alpha virt. eigenvalues --    1.79802   1.82642   1.84321   1.86117   1.86857
 Alpha virt. eigenvalues --    1.88461   1.89793   1.90392   1.93324   1.94934
 Alpha virt. eigenvalues --    1.95860   1.96903   1.98594   1.99691   2.01507
 Alpha virt. eigenvalues --    2.01688   2.03351   2.04256   2.05964   2.08526
 Alpha virt. eigenvalues --    2.10167   2.11226   2.14051   2.16821   2.17242
 Alpha virt. eigenvalues --    2.17759   2.19394   2.20863   2.21854   2.23219
 Alpha virt. eigenvalues --    2.24173   2.25961   2.27620   2.28276   2.28638
 Alpha virt. eigenvalues --    2.31114   2.32311   2.33358   2.35123   2.36841
 Alpha virt. eigenvalues --    2.39201   2.40227   2.41925   2.42354   2.45529
 Alpha virt. eigenvalues --    2.46409   2.48129   2.49659   2.51043   2.53173
 Alpha virt. eigenvalues --    2.53608   2.54729   2.58596   2.59230   2.61629
 Alpha virt. eigenvalues --    2.62473   2.64180   2.65725   2.67509   2.70068
 Alpha virt. eigenvalues --    2.70575   2.73174   2.73791   2.76359   2.78836
 Alpha virt. eigenvalues --    2.81488   2.83086   2.84714   2.87290   2.88391
 Alpha virt. eigenvalues --    2.91772   2.91903   2.95512   2.96737   2.99624
 Alpha virt. eigenvalues --    3.00729   3.02781   3.04815   3.06333   3.06952
 Alpha virt. eigenvalues --    3.08884   3.11167   3.15086   3.19105   3.22132
 Alpha virt. eigenvalues --    3.26688   3.33137   3.40224   3.44911   3.49246
 Alpha virt. eigenvalues --    3.58994   3.65829   3.77238   3.83336   3.84270
 Alpha virt. eigenvalues --    3.84616   3.87036   3.93497   3.96243   4.03163
 Alpha virt. eigenvalues --    4.04797   4.15655   4.21192   4.37867
          Condensed to atoms (all electrons):
              1          2          3          4          5          6
     1  H    0.857220   0.351540  -0.116818  -0.071445  -0.023684   0.025960
     2  C    0.351540   4.519540   0.349992   0.360660   0.210394  -0.019383
     3  H   -0.116818   0.349992   0.956263  -0.066617   0.025560   0.000059
     4  H   -0.071445   0.360660  -0.066617   0.741067  -0.055511   0.011685
     5  C   -0.023684   0.210394   0.025560  -0.055511   5.241214   0.183702
     6  O    0.025960  -0.019383   0.000059   0.011685   0.183702   8.707413
     7  N    0.042689  -0.011249  -0.097616   0.014197   0.260525  -0.171612
     8  H   -0.009158  -0.071767   0.026148  -0.006502  -0.115268   0.004277
     9  C   -0.003411   0.040126  -0.033486   0.007760  -0.543098   0.165064
    10  H   -0.001973   0.001389   0.000176   0.000528  -0.000409   0.018427
    11  C    0.004849  -0.022048  -0.001679  -0.003006   0.063470  -0.047965
    12  H   -0.000837  -0.004627   0.001400  -0.001809  -0.001870   0.024839
    13  H   -0.000071  -0.002517  -0.000374   0.000043  -0.027933   0.000989
    14  H    0.001896   0.008772   0.000084   0.000256   0.070083  -0.074294
    15  C   -0.001329  -0.030263  -0.002864   0.006802   0.023263  -0.020120
    16  O   -0.000054   0.000563   0.000334  -0.001410   0.002340  -0.000646
    17  N    0.000175   0.001320  -0.000225  -0.000059  -0.014042   0.001812
    18  H    0.000065  -0.000803   0.000224  -0.000191   0.004321  -0.000758
    19  C   -0.000100  -0.000951  -0.000106   0.000158  -0.005198   0.000450
    20  H    0.000010   0.000039  -0.000136   0.000149  -0.001983  -0.000065
    21  H   -0.000015  -0.000062   0.000054  -0.000007  -0.000643   0.000063
    22  H    0.000010   0.000197   0.000041   0.000015   0.001647  -0.000003
              7          8          9         10         11         12
     1  H    0.042689  -0.009158  -0.003411  -0.001973   0.004849  -0.000837
     2  C   -0.011249  -0.071767   0.040126   0.001389  -0.022048  -0.004627
     3  H   -0.097616   0.026148  -0.033486   0.000176  -0.001679   0.001400
     4  H    0.014197  -0.006502   0.007760   0.000528  -0.003006  -0.001809
     5  C    0.260525  -0.115268  -0.543098  -0.000409   0.063470  -0.001870
     6  O   -0.171612   0.004277   0.165064   0.018427  -0.047965   0.024839
     7  N    7.493207   0.322214  -0.537678  -0.208391   0.094514  -0.052223
     8  H    0.322214   0.926321  -0.092264   0.032270  -0.019272   0.000822
     9  C   -0.537678  -0.092264   8.625423   0.003160  -0.249644  -0.041013
    10  H   -0.208391   0.032270   0.003160   1.478844   0.058838   0.078972
    11  C    0.094514  -0.019272  -0.249644   0.058838   4.422593   0.375069
    12  H   -0.052223   0.000822  -0.041013   0.078972   0.375069   0.998448
    13  H    0.078875   0.001442  -0.159384  -0.073344   0.350362  -0.124897
    14  H   -0.000213  -0.008500  -0.027142  -0.030990   0.280234  -0.195331
    15  C    0.134965   0.021601  -0.808431  -0.018042  -0.037075  -0.067901
    16  O    0.003216   0.001862  -0.021832  -0.015909   0.002644   0.009258
    17  N    0.038014  -0.000041  -0.031918  -0.067210   0.056302   0.000936
    18  H    0.003147  -0.000589  -0.087428   0.011174   0.002555   0.001112
    19  C    0.007303   0.001337  -0.049841  -0.003953  -0.010033  -0.007073
    20  H   -0.006685   0.001240   0.023687   0.005919  -0.014579  -0.001296
    21  H    0.001333  -0.003387  -0.018657  -0.002899   0.009375   0.000396
    22  H    0.001388   0.000640   0.024380  -0.001136  -0.004100  -0.001113
             13         14         15         16         17         18
     1  H   -0.000071   0.001896  -0.001329  -0.000054   0.000175   0.000065
     2  C   -0.002517   0.008772  -0.030263   0.000563   0.001320  -0.000803
     3  H   -0.000374   0.000084  -0.002864   0.000334  -0.000225   0.000224
     4  H    0.000043   0.000256   0.006802  -0.001410  -0.000059  -0.000191
     5  C   -0.027933   0.070083   0.023263   0.002340  -0.014042   0.004321
     6  O    0.000989  -0.074294  -0.020120  -0.000646   0.001812  -0.000758
     7  N    0.078875  -0.000213   0.134965   0.003216   0.038014   0.003147
     8  H    0.001442  -0.008500   0.021601   0.001862  -0.000041  -0.000589
     9  C   -0.159384  -0.027142  -0.808431  -0.021832  -0.031918  -0.087428
    10  H   -0.073344  -0.030990  -0.018042  -0.015909  -0.067210   0.011174
    11  C    0.350362   0.280234  -0.037075   0.002644   0.056302   0.002555
    12  H   -0.124897  -0.195331  -0.067901   0.009258   0.000936   0.001112
    13  H    1.315527  -0.249195  -0.011859   0.001578  -0.000869   0.006463
    14  H   -0.249195   1.112441   0.051824  -0.000696   0.003550  -0.002986
    15  C   -0.011859   0.051824   5.421973   0.233664   0.172556  -0.020164
    16  O    0.001578  -0.000696   0.233664   8.745155  -0.180544   0.012373
    17  N   -0.000869   0.003550   0.172556  -0.180544   7.126924   0.279953
    18  H    0.006463  -0.002986  -0.020164   0.012373   0.279953   0.997588
    19  C   -0.006442   0.002827  -0.076629   0.021152   0.225100  -0.103060
    20  H   -0.001468  -0.000277   0.000490   0.016006  -0.038204   0.000501
    21  H   -0.000130   0.000638  -0.016344   0.013951  -0.103850   0.008575
    22  H   -0.000718   0.000129  -0.042991   0.010308  -0.006727  -0.000445
             19         20         21         22
     1  H   -0.000100   0.000010  -0.000015   0.000010
     2  C   -0.000951   0.000039  -0.000062   0.000197
     3  H   -0.000106  -0.000136   0.000054   0.000041
     4  H    0.000158   0.000149  -0.000007   0.000015
     5  C   -0.005198  -0.001983  -0.000643   0.001647
     6  O    0.000450  -0.000065   0.000063  -0.000003
     7  N    0.007303  -0.006685   0.001333   0.001388
     8  H    0.001337   0.001240  -0.003387   0.000640
     9  C   -0.049841   0.023687  -0.018657   0.024380
    10  H   -0.003953   0.005919  -0.002899  -0.001136
    11  C   -0.010033  -0.014579   0.009375  -0.004100
    12  H   -0.007073  -0.001296   0.000396  -0.001113
    13  H   -0.006442  -0.001468  -0.000130  -0.000718
    14  H    0.002827  -0.000277   0.000638   0.000129
    15  C   -0.076629   0.000490  -0.016344  -0.042991
    16  O    0.021152   0.016006   0.013951   0.010308
    17  N    0.225100  -0.038204  -0.103850  -0.006727
    18  H   -0.103060   0.000501   0.008575  -0.000445
    19  C    4.102167   0.463888   0.382332   0.323520
    20  H    0.463888   0.931409  -0.123301  -0.105370
    21  H    0.382332  -0.123301   1.120920  -0.150107
    22  H    0.323520  -0.105370  -0.150107   1.039004
 Mulliken atomic charges:
              1
     1  H   -0.055521
     2  C    0.319139
     3  H   -0.040414
     4  H    0.063236
     5  C    0.703119
     6  O   -0.809895
     7  N   -0.409920
     8  H   -0.013425
     9  C   -0.184371
    10  H   -0.265441
    11  C    0.688595
    12  H    0.008735
    13  H   -0.096079
    14  H    0.056888
    15  C    1.086873
    16  O   -0.853315
    17  N   -0.462954
    18  H   -0.111628
    19  C    0.733154
    20  H   -0.149974
    21  H   -0.118235
    22  H   -0.088568
 Sum of Mulliken atomic charges =   0.00000
 Mulliken charges with hydrogens summed into heavy atoms:
              1
     2  C    0.286440
     5  C    0.703119
     6  O   -0.809895
     7  N   -0.423345
     9  C   -0.449812
    11  C    0.658139
    15  C    1.086873
    16  O   -0.853315
    17  N   -0.574581
    19  C    0.376377
 Sum of Mulliken charges with hydrogens summed into heavy atoms =   0.00000
 Electronic spatial extent (au):  <R**2>=           1946.4908
 Charge=              0.0000 electrons
 Dipole moment (field-independent basis, Debye):
    X=              3.5795    Y=             -1.4684    Z=             -2.9748  Tot=              4.8804
 Quadrupole moment (field-independent basis, Debye-Ang):
   XX=            -60.0869   YY=            -59.5517   ZZ=            -63.4763
   XY=             10.1474   XZ=             -6.5056   YZ=              1.0714
 Traceless Quadrupole moment (field-independent basis, Debye-Ang):
   XX=              0.9514   YY=              1.4866   ZZ=             -2.4380
   XY=             10.1474   XZ=             -6.5056   YZ=              1.0714
 Octapole moment (field-independent basis, Debye-Ang**2):
  XXX=             58.1834  YYY=             -4.6814  ZZZ=             -6.4333  XYY=              1.6225
  XXY=            -28.2717  XXZ=             -7.5742  XZZ=              0.0803  YZZ=              4.1395
  YYZ=             -1.7780  XYZ=              0.1509
 Hexadecapole moment (field-independent basis, Debye-Ang**3):
 XXXX=          -1852.4425 YYYY=           -440.0255 ZZZZ=           -194.2480 XXXY=             64.7553
 XXXZ=            -18.4127 YYYX=             -0.0192 YYYZ=              1.1872 ZZZX=            -20.2601
 ZZZY=             -5.6380 XXYY=           -394.5738 XXZZ=           -344.8163 YYZZ=           -105.4615
 XXYZ=             -1.6366 YYXZ=             -2.4058 ZZXY=              4.8762
 N-N= 5.501530048264D+02 E-N=-2.255519873653D+03  KE= 4.920619698672D+02
 1\1\GINC-NODE002\SP\RMP2-FC\Aug-CC-pVDZ\C6H12N2O2\STEBOSS\12-Feb-2017\
 0\\#SP MP2/aug-cc-pVDZ\\Single Point calculation at MP2\\0,1\H,0,-4.06
 92,-1.3624,-0.0691\C,0,-2.9985,-1.5173,0.0724\H,0,-2.6552,-2.32,-0.589
 4\H,0,-2.8274,-1.8351,1.1081\C,0,-2.2767,-0.1976,-0.1818\O,0,-2.8504,0
 .8785,-0.1025\N,0,-0.9516,-0.35,-0.535\H,0,-0.6086,-1.2944,-0.4111\C,0
 ,0.1089,0.6646,-0.4277\H,0,0.3481,1.0268,-1.4388\C,0,-0.2217,1.8753,0.
 4593\H,0,-0.4184,1.5449,1.4825\H,0,0.6457,2.5458,0.4725\H,0,-1.0934,2.
 4109,0.0884\C,0,1.3406,-0.0372,0.1803\O,0,1.2852,-0.5943,1.2702\N,0,2.
 4573,-0.0209,-0.6029\H,0,2.4198,0.4724,-1.4833\C,0,3.7296,-0.5725,-0.1
 685\H,0,3.5584,-1.0714,0.7863\H,0,4.1065,-1.301,-0.895\H,0,4.4819,0.21
 38,-0.0322\\Version=EM64L-G09RevA.02\State=1-A\HF=-492.9140965\MP2=-49
 4.5162375\RMSD=8.399e-09\PG=C01 [X(C6H12N2O2)]\\@


 I am not a vegetarian because I love animals;
 I am a vegetarian because I hate plants.
                               -- A. Whitney Brown
 Job cpu time:  0 days 12 hours 43 minutes 54.1 seconds.
 File lengths (MBytes):  RWF=  10484 Int=      0 D2E=      0 Chk=      7 Scr=      2
 Normal termination of Gaussian 09 at Sun Feb 12 18:09:12 2017.
