 Entering Gaussian System, Link 0=g09
 Initial command:
 /home/steboss/Software/g09/l1.exe /home/steboss/projects/phi_psi_scan/alanine/MP2/210/5390/Gau-11181.inp -scrdir=/home/steboss/projects/phi_psi_scan/alanine/MP2/210/5390/
 Entering Link 1 = /home/steboss/Software/g09/l1.exe PID=     11183.
  
 Copyright (c) 1988,1990,1992,1993,1995,1998,2003,2009, Gaussian, Inc.
                  All Rights Reserved.
  
 This is part of the Gaussian(R) 09 program.  It is based on
 the Gaussian(R) 03 system (copyright 2003, Gaussian, Inc.),
 the Gaussian(R) 98 system (copyright 1998, Gaussian, Inc.),
 the Gaussian(R) 94 system (copyright 1995, Gaussian, Inc.),
 the Gaussian 92(TM) system (copyright 1992, Gaussian, Inc.),
 the Gaussian 90(TM) system (copyright 1990, Gaussian, Inc.),
 the Gaussian 88(TM) system (copyright 1988, Gaussian, Inc.),
 the Gaussian 86(TM) system (copyright 1986, Carnegie Mellon
 University), and the Gaussian 82(TM) system (copyright 1983,
 Carnegie Mellon University). Gaussian is a federally registered
 trademark of Gaussian, Inc.
  
 This software contains proprietary and confidential information,
 including trade secrets, belonging to Gaussian, Inc.
  
 This software is provided under written license and may be
 used, copied, transmitted, or stored only in accord with that
 written license.
  
 The following legend is applicable only to US Government
 contracts under FAR:
  
                    RESTRICTED RIGHTS LEGEND
  
 Use, reproduction and disclosure by the US Government is
 subject to restrictions as set forth in subparagraphs (a)
 and (c) of the Commercial Computer Software - Restricted
 Rights clause in FAR 52.227-19.
  
 Gaussian, Inc.
 340 Quinnipiac St., Bldg. 40, Wallingford CT 06492
  
  
 ---------------------------------------------------------------
 Warning -- This program may not be used in any manner that
 competes with the business of Gaussian, Inc. or will provide
 assistance to any competitor of Gaussian, Inc.  The licensee
 of this program is prohibited from giving any competitor of
 Gaussian, Inc. access to this program.  By using this program,
 the user acknowledges that Gaussian, Inc. is engaged in the
 business of creating and licensing software in the field of
 computational chemistry and represents and warrants to the
 licensee that it is not a competitor of Gaussian, Inc. and that
 it will not use this program in any manner prohibited above.
 ---------------------------------------------------------------
  

 Cite this work as:
 Gaussian 09, Revision A.02,
 M. J. Frisch, G. W. Trucks, H. B. Schlegel, G. E. Scuseria, 
 M. A. Robb, J. R. Cheeseman, G. Scalmani, V. Barone, B. Mennucci, 
 G. A. Petersson, H. Nakatsuji, M. Caricato, X. Li, H. P. Hratchian, 
 A. F. Izmaylov, J. Bloino, G. Zheng, J. L. Sonnenberg, M. Hada, 
 M. Ehara, K. Toyota, R. Fukuda, J. Hasegawa, M. Ishida, T. Nakajima, 
 Y. Honda, O. Kitao, H. Nakai, T. Vreven, J. A. Montgomery, Jr., 
 J. E. Peralta, F. Ogliaro, M. Bearpark, J. J. Heyd, E. Brothers, 
 K. N. Kudin, V. N. Staroverov, R. Kobayashi, J. Normand, 
 K. Raghavachari, A. Rendell, J. C. Burant, S. S. Iyengar, J. Tomasi, 
 M. Cossi, N. Rega, J. M. Millam, M. Klene, J. E. Knox, J. B. Cross, 
 V. Bakken, C. Adamo, J. Jaramillo, R. Gomperts, R. E. Stratmann, 
 O. Yazyev, A. J. Austin, R. Cammi, C. Pomelli, J. W. Ochterski, 
 R. L. Martin, K. Morokuma, V. G. Zakrzewski, G. A. Voth, 
 P. Salvador, J. J. Dannenberg, S. Dapprich, A. D. Daniels, 
 O. Farkas, J. B. Foresman, J. V. Ortiz, J. Cioslowski, 
 and D. J. Fox, Gaussian, Inc., Wallingford CT, 2009.
 
 ******************************************
 Gaussian 09:  EM64L-G09RevA.02 11-Jun-2009
                13-Feb-2017 
 ******************************************
 %chk=structure_330.chk
 %NProcShared=8
 Will use up to    8 processors via shared memory.
 -------------------
 #SP MP2/aug-cc-pVDZ
 -------------------
 1/38=1/1;
 2/12=2,17=6,18=5,40=1/2;
 3/5=16,7=10,11=9,16=1,25=1,30=1/1,2,3;
 4//1;
 5/5=2,38=5/2;
 8/10=1/1;
 9/16=-3/6;
 6/7=2,8=2,9=2,10=2/1;
 99/5=1,9=1/99;
 -------------------------------
 Single Point calculation at MP2
 -------------------------------
 Symbolic Z-matrix:
 Charge =  0 Multiplicity = 1
 H                    -3.924    -1.5213   -0.5046 
 C                    -3.1725   -1.3145    0.2605 
 H                    -2.6569   -2.2433    0.5249 
 H                    -3.6968   -0.9414    1.1485 
 C                    -2.2323   -0.2364   -0.2582 
 O                    -2.6158    0.6806   -0.9656 
 N                    -0.9039   -0.3915    0.1156 
 H                    -0.7837   -0.9517    0.9542 
 C                     0.0181    0.7443   -0.0052 
 H                    -0.3132    1.2977   -0.8856 
 C                    -0.029     1.6794    1.2148 
 H                     0.2599    1.1485    2.1303 
 H                     0.6638    2.513     1.0693 
 H                    -1.0403    2.0788    1.3393 
 C                     1.4717    0.3288   -0.2772 
 O                     2.2534    1.1246   -0.7799 
 N                     1.8706   -0.8827    0.2311 
 H                     1.1546   -1.5933    0.3049 
 C                     3.2303   -1.3536    0.0001 
 H                     3.9142   -0.5176    0.1529 
 H                     3.4615   -2.1489    0.714 
 H                     3.3764   -1.7311   -1.0205 
 
                          Input orientation:                          
 ---------------------------------------------------------------------
 Center     Atomic      Atomic             Coordinates (Angstroms)
 Number     Number       Type             X           Y           Z
 ---------------------------------------------------------------------
      1          1           0       -3.924000   -1.521300   -0.504600
      2          6           0       -3.172500   -1.314500    0.260500
      3          1           0       -2.656900   -2.243300    0.524900
      4          1           0       -3.696800   -0.941400    1.148500
      5          6           0       -2.232300   -0.236400   -0.258200
      6          8           0       -2.615800    0.680600   -0.965600
      7          7           0       -0.903900   -0.391500    0.115600
      8          1           0       -0.783700   -0.951700    0.954200
      9          6           0        0.018100    0.744300   -0.005200
     10          1           0       -0.313200    1.297700   -0.885600
     11          6           0       -0.029000    1.679400    1.214800
     12          1           0        0.259900    1.148500    2.130300
     13          1           0        0.663800    2.513000    1.069300
     14          1           0       -1.040300    2.078800    1.339300
     15          6           0        1.471700    0.328800   -0.277200
     16          8           0        2.253400    1.124600   -0.779900
     17          7           0        1.870600   -0.882700    0.231100
     18          1           0        1.154600   -1.593300    0.304900
     19          6           0        3.230300   -1.353600    0.000100
     20          1           0        3.914200   -0.517600    0.152900
     21          1           0        3.461500   -2.148900    0.714000
     22          1           0        3.376400   -1.731100   -1.020500
 ---------------------------------------------------------------------
                    Distance matrix (angstroms):
                    1          2          3          4          5
     1  H    0.000000
     2  C    1.092198   0.000000
     3  H    1.785132   1.094724   0.000000
     4  H    1.766534   1.096649   1.779104   0.000000
     5  C    2.138581   1.521619   2.195718   2.149556   0.000000
     6  O    2.602359   2.407002   3.282144   2.875563   1.219990
     7  N    3.283611   2.453461   2.582576   3.028129   1.388679
     8  H    3.509135   2.513804   2.315471   2.919591   2.019903
     9  C    4.574112   3.806466   4.045044   4.239468   2.467809
    10  H    4.596716   4.038902   4.474497   4.538709   2.535752
    11  C    5.326522   4.444740   4.771729   4.508408   3.270252
    12  H    5.619213   4.619945   4.752824   4.581167   3.719401
    13  H    6.308775   5.479152   5.826303   5.563631   4.208189
    14  H    4.967536   4.150250   4.685850   4.026786   3.054999
    15  C    5.708604   4.955618   4.929949   5.509938   3.746922
    16  O    6.725834   6.039208   6.095597   6.587258   4.716566
    17  N    5.875922   5.061637   4.736645   5.642784   4.182213
    18  H    5.143214   4.336300   3.872781   4.967164   3.691795
    19  C    7.174040   6.408212   5.977132   7.033736   5.581653
    20  H    7.929508   7.132177   6.804100   7.687532   6.166647
    21  H    7.511623   6.701630   6.122049   7.272421   6.084586
    22  H    7.321612   6.686001   6.249105   7.440319   5.854293
                    6          7          8          9         10
     6  O    0.000000
     7  N    2.291068   0.000000
     8  H    3.115546   1.015639   0.000000
     9  C    2.804257   1.467896   2.107071   0.000000
    10  H    2.385200   2.050543   2.943813   1.091382   0.000000
    11  C    3.527503   2.502462   2.749577   1.537866   2.153635
    12  H    4.251256   2.790170   2.623576   2.186825   3.073493
    13  H    4.272503   3.435600   3.756681   2.167897   2.500623
    14  H    3.122455   2.760150   3.065628   2.169973   2.467584
    15  C    4.159966   2.513285   2.871037   1.536092   2.120091
    16  O    4.892926   3.615110   4.067198   2.396112   2.574601
    17  N    4.899366   2.820012   2.751898   2.476837   3.281790
    18  H    4.582653   2.391146   2.142486   2.617665   3.453926
    19  C    6.264777   4.246244   4.145362   3.836592   4.513341
    20  H    6.732579   4.819894   4.785477   4.098412   4.716429
    21  H    6.910912   4.743760   4.417319   4.554652   5.355944
    22  H    6.459549   4.626686   4.670475   4.293788   4.775456
                   11         12         13         14         15
    11  C    0.000000
    12  H    1.097022   0.000000
    13  H    1.093632   1.775026   0.000000
    14  H    1.094417   1.783721   1.779153   0.000000
    15  C    2.510435   2.817166   2.690073   3.462039   0.000000
    16  O    3.081555   3.527588   2.806069   4.031125   1.223544
    17  N    3.337739   3.213579   3.699963   4.297898   1.373034
    18  H    3.597137   3.413216   4.205579   4.401351   2.033190
    19  C    4.614935   4.429620   4.762427   5.640288   2.449498
    20  H    4.637162   4.476596   4.537557   5.718034   2.620531
    21  H    5.204832   4.809261   5.448548   6.207306   3.328780
    22  H    5.312704   5.285093   5.453242   6.292156   2.902338
                   16         17         18         19         20
    16  O    0.000000
    17  N    2.279893   0.000000
    18  H    3.125881   1.011462   0.000000
    19  C    2.775646   1.457358   2.111608   0.000000
    20  H    2.514994   2.077430   2.965742   1.090854   0.000000
    21  H    3.795661   2.089837   2.407871   1.093439   1.783511
    22  H    3.077993   2.133944   2.590766   1.097942   1.771632
                   21         22
    21  H    0.000000
    22  H    1.786138   0.000000
 Stoichiometry    C6H12N2O2
 Framework group  C1[X(C6H12N2O2)]
 Deg. of freedom    60
 Full point group                 C1      NOp   1
 Largest Abelian subgroup         C1      NOp   1
 Largest concise Abelian subgroup C1      NOp   1
                         Standard orientation:                         
 ---------------------------------------------------------------------
 Center     Atomic      Atomic             Coordinates (Angstroms)
 Number     Number       Type             X           Y           Z
 ---------------------------------------------------------------------
      1          1           0       -3.924007   -1.521311   -0.504591
      2          6           0       -3.172507   -1.314508    0.260509
      3          1           0       -2.656904   -2.243306    0.524909
      4          1           0       -3.696809   -0.941410    1.148509
      5          6           0       -2.232312   -0.236404   -0.258191
      6          8           0       -2.615816    0.680594   -0.965591
      7          7           0       -0.903911   -0.391499    0.115609
      8          1           0       -0.783709   -0.951698    0.954209
      9          6           0        0.018084    0.744305   -0.005191
     10          1           0       -0.313218    1.297704   -0.885591
     11          6           0       -0.029020    1.679405    1.214809
     12          1           0        0.259882    1.148506    2.130309
     13          1           0        0.663777    2.513008    1.069309
     14          1           0       -1.040321    2.078801    1.339309
     15          6           0        1.471686    0.328811   -0.277191
     16          8           0        2.253383    1.124614   -0.779891
     17          7           0        1.870591   -0.882687    0.231109
     18          1           0        1.154594   -1.593290    0.304909
     19          6           0        3.230293   -1.353581    0.000109
     20          1           0        3.914189   -0.517579    0.152909
     21          1           0        3.461496   -2.148880    0.714009
     22          1           0        3.376394   -1.731081   -1.020491
 ---------------------------------------------------------------------
 Rotational constants (GHZ):      2.3232919      0.7017154      0.6153089
 Standard basis: Aug-CC-pVDZ (5D, 7F)
 There are   338 symmetry adapted basis functions of A   symmetry.
 Integral buffers will be    131072 words long.
 Raffenetti 1 integral format.
 Two-electron integral symmetry is turned on.
   338 basis functions,   562 primitive gaussians,   358 cartesian basis functions
    39 alpha electrons       39 beta electrons
       nuclear repulsion energy       548.3439545047 Hartrees.
 NAtoms=   22 NActive=   22 NUniq=   22 SFac= 7.50D-01 NAtFMM=   80 NAOKFM=F Big=F
 One-electron integrals computed using PRISM.
 NBasis=   338 RedAO= T  NBF=   338
 NBsUse=   338 1.00D-06 NBFU=   338
 Harris functional with IExCor=  205 diagonalized for initial guess.
 ExpMin= 2.97D-02 ExpMax= 1.17D+04 ExpMxC= 4.01D+02 IAcc=3 IRadAn=         0 AccDes= 0.00D+00
 HarFok:  IExCor=  205 AccDes= 0.00D+00 IRadAn=         0 IDoV= 1
 ScaDFX=  1.000000  1.000000  1.000000  1.000000
 FoFCou: FMM=F IPFlag=           0 FMFlag=      100000 FMFlg1=           0
         NFxFlg=           0 DoJE=T BraDBF=F KetDBF=T FulRan=T
         Omega=  0.000000  0.000000  1.000000  0.000000  0.000000 ICntrl=     500 IOpCl=  0
         NMat0=    1 NMatS0=    1 NMatT0=    0 NMatD0=    1 NMtDS0=    0 NMtDT0=    0
         I1Cent=           4 NGrid=           0.
 Petite list used in FoFCou.
 Initial guess orbital symmetries:
       Occupied  (A) (A) (A) (A) (A) (A) (A) (A) (A) (A) (A) (A)
                 (A) (A) (A) (A) (A) (A) (A) (A) (A) (A) (A) (A)
                 (A) (A) (A) (A) (A) (A) (A) (A) (A) (A) (A) (A)
                 (A) (A) (A)
       Virtual   (A) (A) (A) (A) (A) (A) (A) (A) (A) (A) (A) (A)
                 (A) (A) (A) (A) (A) (A) (A) (A) (A) (A) (A) (A)
                 (A) (A) (A) (A) (A) (A) (A) (A) (A) (A) (A) (A)
                 (A) (A) (A) (A) (A) (A) (A) (A) (A) (A) (A) (A)
                 (A) (A) (A) (A) (A) (A) (A) (A) (A) (A) (A) (A)
                 (A) (A) (A) (A) (A) (A) (A) (A) (A) (A) (A) (A)
                 (A) (A) (A) (A) (A) (A) (A) (A) (A) (A) (A) (A)
                 (A) (A) (A) (A) (A) (A) (A) (A) (A) (A) (A) (A)
                 (A) (A) (A) (A) (A) (A) (A) (A) (A) (A) (A) (A)
                 (A) (A) (A) (A) (A) (A) (A) (A) (A) (A) (A) (A)
                 (A) (A) (A) (A) (A) (A) (A) (A) (A) (A) (A) (A)
                 (A) (A) (A) (A) (A) (A) (A) (A) (A) (A) (A) (A)
                 (A) (A) (A) (A) (A) (A) (A) (A) (A) (A) (A) (A)
                 (A) (A) (A) (A) (A) (A) (A) (A) (A) (A) (A) (A)
                 (A) (A) (A) (A) (A) (A) (A) (A) (A) (A) (A) (A)
                 (A) (A) (A) (A) (A) (A) (A) (A) (A) (A) (A) (A)
                 (A) (A) (A) (A) (A) (A) (A) (A) (A) (A) (A) (A)
                 (A) (A) (A) (A) (A) (A) (A) (A) (A) (A) (A) (A)
                 (A) (A) (A) (A) (A) (A) (A) (A) (A) (A) (A) (A)
                 (A) (A) (A) (A) (A) (A) (A) (A) (A) (A) (A) (A)
                 (A) (A) (A) (A) (A) (A) (A) (A) (A) (A) (A) (A)
                 (A) (A) (A) (A) (A) (A) (A) (A) (A) (A) (A) (A)
                 (A) (A) (A) (A) (A) (A) (A) (A) (A) (A) (A) (A)
                 (A) (A) (A) (A) (A) (A) (A) (A) (A) (A) (A) (A)
                 (A) (A) (A) (A) (A) (A) (A) (A) (A) (A) (A)
 The electronic state of the initial guess is 1-A.
 Requested convergence on RMS density matrix=1.00D-08 within 128 cycles.
 Requested convergence on MAX density matrix=1.00D-06.
 Requested convergence on             energy=1.00D-06.
 No special actions if energy rises.
 Initial convergence to 1.0D-05 achieved.  Increase integral accuracy.
 SCF Done:  E(RHF) =  -492.919683297     A.U. after   14 cycles
             Convg  =    0.6698D-08             -V/T =  2.0017
 ExpMin= 2.97D-02 ExpMax= 1.17D+04 ExpMxC= 4.01D+02 IAcc=3 IRadAn=         5 AccDes= 0.00D+00
 HarFok:  IExCor=  205 AccDes= 0.00D+00 IRadAn=         5 IDoV=-2
 ScaDFX=  1.000000  1.000000  1.000000  1.000000
 Range of M.O.s used for correlation:    11   338
 NBasis=   338 NAE=    39 NBE=    39 NFC=    10 NFV=     0
 NROrb=    328 NOA=    29 NOB=    29 NVA=   299 NVB=   299

 **** Warning!!: The largest alpha MO coefficient is  0.65018033D+02

 Disk-based method using OVN memory for 29 occupieds at a time.
 Estimated scratch disk usage=  1378426664 words.
 Actual    scratch disk usage=  1365378180 words.
 JobTyp=1 Pass  1:  I=   1 to  29 NPSUse=  8 ParTrn=T ParDer=T DoDerP=F.
 Spin components of T(2) and E(2):
     alpha-alpha T2 =       0.6793014074D-01 E2=     -0.2055342479D+00
     alpha-beta  T2 =       0.3770364742D+00 E2=     -0.1190102028D+01
     beta-beta   T2 =       0.6793014074D-01 E2=     -0.2055342479D+00
 ANorm=    0.1229998681D+01
 E2 =    -0.1601170524D+01 EUMP2 =    -0.49452085382069D+03

 **********************************************************************

            Population analysis using the SCF density.

 **********************************************************************

 Orbital symmetries:
       Occupied  (A) (A) (A) (A) (A) (A) (A) (A) (A) (A) (A) (A)
                 (A) (A) (A) (A) (A) (A) (A) (A) (A) (A) (A) (A)
                 (A) (A) (A) (A) (A) (A) (A) (A) (A) (A) (A) (A)
                 (A) (A) (A)
       Virtual   (A) (A) (A) (A) (A) (A) (A) (A) (A) (A) (A) (A)
                 (A) (A) (A) (A) (A) (A) (A) (A) (A) (A) (A) (A)
                 (A) (A) (A) (A) (A) (A) (A) (A) (A) (A) (A) (A)
                 (A) (A) (A) (A) (A) (A) (A) (A) (A) (A) (A) (A)
                 (A) (A) (A) (A) (A) (A) (A) (A) (A) (A) (A) (A)
                 (A) (A) (A) (A) (A) (A) (A) (A) (A) (A) (A) (A)
                 (A) (A) (A) (A) (A) (A) (A) (A) (A) (A) (A) (A)
                 (A) (A) (A) (A) (A) (A) (A) (A) (A) (A) (A) (A)
                 (A) (A) (A) (A) (A) (A) (A) (A) (A) (A) (A) (A)
                 (A) (A) (A) (A) (A) (A) (A) (A) (A) (A) (A) (A)
                 (A) (A) (A) (A) (A) (A) (A) (A) (A) (A) (A) (A)
                 (A) (A) (A) (A) (A) (A) (A) (A) (A) (A) (A) (A)
                 (A) (A) (A) (A) (A) (A) (A) (A) (A) (A) (A) (A)
                 (A) (A) (A) (A) (A) (A) (A) (A) (A) (A) (A) (A)
                 (A) (A) (A) (A) (A) (A) (A) (A) (A) (A) (A) (A)
                 (A) (A) (A) (A) (A) (A) (A) (A) (A) (A) (A) (A)
                 (A) (A) (A) (A) (A) (A) (A) (A) (A) (A) (A) (A)
                 (A) (A) (A) (A) (A) (A) (A) (A) (A) (A) (A) (A)
                 (A) (A) (A) (A) (A) (A) (A) (A) (A) (A) (A) (A)
                 (A) (A) (A) (A) (A) (A) (A) (A) (A) (A) (A) (A)
                 (A) (A) (A) (A) (A) (A) (A) (A) (A) (A) (A) (A)
                 (A) (A) (A) (A) (A) (A) (A) (A) (A) (A) (A) (A)
                 (A) (A) (A) (A) (A) (A) (A) (A) (A) (A) (A) (A)
                 (A) (A) (A) (A) (A) (A) (A) (A) (A) (A) (A) (A)
                 (A) (A) (A) (A) (A) (A) (A) (A) (A) (A) (A)
 The electronic state is 1-A.
 Alpha  occ. eigenvalues --  -20.54552 -20.53600 -15.60861 -15.60051 -11.37495
 Alpha  occ. eigenvalues --  -11.36207 -11.29076 -11.27163 -11.25807 -11.23903
 Alpha  occ. eigenvalues --   -1.39904  -1.38893  -1.25407  -1.22903  -1.05806
 Alpha  occ. eigenvalues --   -1.00011  -0.95993  -0.88245  -0.80326  -0.78652
 Alpha  occ. eigenvalues --   -0.73250  -0.68269  -0.65946  -0.63649  -0.63209
 Alpha  occ. eigenvalues --   -0.62865  -0.59465  -0.59054  -0.58662  -0.57129
 Alpha  occ. eigenvalues --   -0.55144  -0.54641  -0.52644  -0.52098  -0.49966
 Alpha  occ. eigenvalues --   -0.44306  -0.43798  -0.40209  -0.40082
 Alpha virt. eigenvalues --    0.02078   0.03674   0.04075   0.04811   0.05545
 Alpha virt. eigenvalues --    0.05844   0.06444   0.06713   0.07453   0.08321
 Alpha virt. eigenvalues --    0.08345   0.09006   0.11271   0.11956   0.12506
 Alpha virt. eigenvalues --    0.13103   0.13847   0.14377   0.14850   0.14943
 Alpha virt. eigenvalues --    0.15441   0.15882   0.16423   0.17067   0.17393
 Alpha virt. eigenvalues --    0.17894   0.18031   0.18228   0.18438   0.19274
 Alpha virt. eigenvalues --    0.19628   0.20558   0.20708   0.21131   0.22051
 Alpha virt. eigenvalues --    0.22373   0.23112   0.24870   0.25054   0.25971
 Alpha virt. eigenvalues --    0.26302   0.27166   0.28731   0.29375   0.30137
 Alpha virt. eigenvalues --    0.31184   0.31717   0.32211   0.32927   0.33468
 Alpha virt. eigenvalues --    0.33562   0.34237   0.35393   0.36140   0.37107
 Alpha virt. eigenvalues --    0.37359   0.38056   0.38427   0.39281   0.39729
 Alpha virt. eigenvalues --    0.39975   0.41081   0.41346   0.42214   0.42620
 Alpha virt. eigenvalues --    0.43707   0.44137   0.44804   0.44983   0.45390
 Alpha virt. eigenvalues --    0.45807   0.46370   0.47109   0.47507   0.48786
 Alpha virt. eigenvalues --    0.48944   0.49903   0.50323   0.51096   0.52140
 Alpha virt. eigenvalues --    0.52943   0.53471   0.54384   0.54679   0.55655
 Alpha virt. eigenvalues --    0.56130   0.56319   0.56878   0.57401   0.57736
 Alpha virt. eigenvalues --    0.59046   0.59603   0.59852   0.60670   0.61195
 Alpha virt. eigenvalues --    0.62690   0.63375   0.63816   0.63988   0.64759
 Alpha virt. eigenvalues --    0.65064   0.65853   0.66286   0.66384   0.67081
 Alpha virt. eigenvalues --    0.68348   0.68837   0.70136   0.70848   0.71234
 Alpha virt. eigenvalues --    0.72053   0.72617   0.73289   0.73679   0.74893
 Alpha virt. eigenvalues --    0.75626   0.76407   0.77079   0.78169   0.79490
 Alpha virt. eigenvalues --    0.79815   0.80242   0.81001   0.82417   0.83841
 Alpha virt. eigenvalues --    0.84673   0.85859   0.86079   0.86484   0.88766
 Alpha virt. eigenvalues --    0.89411   0.90319   0.91414   0.93018   0.93345
 Alpha virt. eigenvalues --    0.94291   0.95811   0.96539   0.97918   0.98586
 Alpha virt. eigenvalues --    0.99489   1.00178   1.01504   1.03012   1.03857
 Alpha virt. eigenvalues --    1.06295   1.06639   1.08998   1.10856   1.11270
 Alpha virt. eigenvalues --    1.11827   1.13244   1.13806   1.15646   1.15786
 Alpha virt. eigenvalues --    1.17171   1.17738   1.18716   1.19237   1.21059
 Alpha virt. eigenvalues --    1.23293   1.24512   1.25288   1.28362   1.28682
 Alpha virt. eigenvalues --    1.30765   1.31678   1.33167   1.34829   1.36182
 Alpha virt. eigenvalues --    1.36920   1.38600   1.42247   1.42706   1.43072
 Alpha virt. eigenvalues --    1.46304   1.49918   1.50605   1.52778   1.54259
 Alpha virt. eigenvalues --    1.55236   1.56652   1.59108   1.59386   1.63849
 Alpha virt. eigenvalues --    1.65173   1.67621   1.68823   1.70812   1.73034
 Alpha virt. eigenvalues --    1.74251   1.74569   1.77542   1.78897   1.80194
 Alpha virt. eigenvalues --    1.82628   1.84034   1.84529   1.85262   1.87333
 Alpha virt. eigenvalues --    1.88418   1.89579   1.90405   1.91903   1.92892
 Alpha virt. eigenvalues --    1.94347   1.94878   1.95789   1.98946   1.99869
 Alpha virt. eigenvalues --    2.02218   2.03963   2.04782   2.07114   2.07710
 Alpha virt. eigenvalues --    2.09911   2.11658   2.13508   2.14263   2.16093
 Alpha virt. eigenvalues --    2.16847   2.17892   2.20196   2.20763   2.21492
 Alpha virt. eigenvalues --    2.25311   2.26276   2.26588   2.30176   2.30682
 Alpha virt. eigenvalues --    2.32358   2.32619   2.34582   2.36158   2.36995
 Alpha virt. eigenvalues --    2.37437   2.39231   2.42376   2.44030   2.45024
 Alpha virt. eigenvalues --    2.45667   2.47976   2.49060   2.49686   2.51723
 Alpha virt. eigenvalues --    2.53773   2.54618   2.56686   2.59126   2.59768
 Alpha virt. eigenvalues --    2.61782   2.63081   2.65379   2.66836   2.68239
 Alpha virt. eigenvalues --    2.70707   2.72354   2.74288   2.76970   2.77276
 Alpha virt. eigenvalues --    2.80332   2.84181   2.84889   2.87847   2.88306
 Alpha virt. eigenvalues --    2.88818   2.92083   2.93652   2.94887   2.99069
 Alpha virt. eigenvalues --    3.00260   3.02710   3.04128   3.04790   3.09843
 Alpha virt. eigenvalues --    3.12317   3.13354   3.14822   3.17835   3.23046
 Alpha virt. eigenvalues --    3.27676   3.30051   3.39637   3.44140   3.48930
 Alpha virt. eigenvalues --    3.58041   3.63426   3.71000   3.81899   3.83141
 Alpha virt. eigenvalues --    3.83892   3.85956   3.89139   3.91827   3.94537
 Alpha virt. eigenvalues --    4.01290   4.03093   4.19544   4.22993
          Condensed to atoms (all electrons):
              1          2          3          4          5          6
     1  H    0.780541   0.388961  -0.104177  -0.055589  -0.074350   0.031602
     2  C    0.388961   4.579802   0.327818   0.347725   0.127906  -0.031809
     3  H   -0.104177   0.327818   1.044625  -0.067209   0.112244  -0.006997
     4  H   -0.055589   0.347725  -0.067209   0.722542  -0.071201   0.010874
     5  C   -0.074350   0.127906   0.112244  -0.071201   5.564819   0.220932
     6  O    0.031602  -0.031809  -0.006997   0.010874   0.220932   8.685130
     7  N    0.050030   0.014559  -0.183570   0.041656   0.090985  -0.144737
     8  H   -0.008497  -0.064930   0.003372   0.002622  -0.183963   0.020100
     9  C   -0.005037  -0.034958  -0.014484   0.016382  -0.257060   0.051516
    10  H   -0.000278   0.002691   0.000925  -0.000949   0.023035  -0.040370
    11  C    0.000705  -0.012026  -0.008281  -0.002818  -0.027498   0.014184
    12  H    0.000343  -0.006915  -0.001563  -0.001318   0.009008  -0.005908
    13  H   -0.000052   0.001610  -0.000331   0.000152  -0.031877   0.006010
    14  H   -0.001452   0.007944   0.002534   0.000875   0.022308   0.011362
    15  C   -0.003445   0.002310  -0.003100   0.004927  -0.053427   0.008831
    16  O    0.000021  -0.002239   0.000068  -0.000153   0.000453  -0.001463
    17  N    0.000218   0.000809  -0.007666   0.001637  -0.048650  -0.001855
    18  H    0.001063   0.003444   0.000471  -0.001251   0.011510  -0.000034
    19  C   -0.000175   0.002085  -0.000946   0.000405  -0.018156   0.000534
    20  H   -0.000013   0.000561   0.000374   0.000035   0.000132   0.000008
    21  H    0.000011  -0.000015  -0.000416   0.000048  -0.000088   0.000051
    22  H   -0.000031  -0.000508  -0.000280   0.000007   0.000108   0.000062
              7          8          9         10         11         12
     1  H    0.050030  -0.008497  -0.005037  -0.000278   0.000705   0.000343
     2  C    0.014559  -0.064930  -0.034958   0.002691  -0.012026  -0.006915
     3  H   -0.183570   0.003372  -0.014484   0.000925  -0.008281  -0.001563
     4  H    0.041656   0.002622   0.016382  -0.000949  -0.002818  -0.001318
     5  C    0.090985  -0.183963  -0.257060   0.023035  -0.027498   0.009008
     6  O   -0.144737   0.020100   0.051516  -0.040370   0.014184  -0.005908
     7  N    7.560189   0.208499  -0.302938   0.020896   0.097476  -0.060065
     8  H    0.208499   0.991856   0.102016  -0.006951  -0.043002   0.015918
     9  C   -0.302938   0.102016   6.940586  -0.228532   0.148157  -0.123898
    10  H    0.020896  -0.006951  -0.228532   1.301604   0.044546   0.068575
    11  C    0.097476  -0.043002   0.148157   0.044546   4.190108   0.342132
    12  H   -0.060065   0.015918  -0.123898   0.068575   0.342132   1.104029
    13  H    0.025837  -0.002920  -0.096980  -0.041093   0.327263  -0.136441
    14  H   -0.019944  -0.007335   0.125290  -0.032212   0.247733  -0.186259
    15  C   -0.056784  -0.003702  -0.125385  -0.123670  -0.137504  -0.023351
    16  O    0.024234  -0.000550  -0.070269   0.029543   0.052094   0.005159
    17  N   -0.054744   0.019027  -0.060860   0.048785   0.085340   0.029085
    18  H    0.005804   0.014751  -0.013284  -0.008505  -0.001100  -0.003962
    19  C   -0.048790   0.012358   0.040462   0.011230  -0.019661   0.005693
    20  H   -0.004404  -0.000322  -0.010809   0.000974  -0.010079  -0.001531
    21  H   -0.004423   0.001058   0.021486   0.000529  -0.001007   0.000396
    22  H    0.014193  -0.000129  -0.020018  -0.001442   0.003165   0.000305
             13         14         15         16         17         18
     1  H   -0.000052  -0.001452  -0.003445   0.000021   0.000218   0.001063
     2  C    0.001610   0.007944   0.002310  -0.002239   0.000809   0.003444
     3  H   -0.000331   0.002534  -0.003100   0.000068  -0.007666   0.000471
     4  H    0.000152   0.000875   0.004927  -0.000153   0.001637  -0.001251
     5  C   -0.031877   0.022308  -0.053427   0.000453  -0.048650   0.011510
     6  O    0.006010   0.011362   0.008831  -0.001463  -0.001855  -0.000034
     7  N    0.025837  -0.019944  -0.056784   0.024234  -0.054744   0.005804
     8  H   -0.002920  -0.007335  -0.003702  -0.000550   0.019027   0.014751
     9  C   -0.096980   0.125290  -0.125385  -0.070269  -0.060860  -0.013284
    10  H   -0.041093  -0.032212  -0.123670   0.029543   0.048785  -0.008505
    11  C    0.327263   0.247733  -0.137504   0.052094   0.085340  -0.001100
    12  H   -0.136441  -0.186259  -0.023351   0.005159   0.029085  -0.003962
    13  H    1.067638  -0.148776   0.054869   0.009798   0.000613   0.003060
    14  H   -0.148776   1.053569   0.018190  -0.004125  -0.008114  -0.001910
    15  C    0.054869   0.018190   5.313693   0.136301   0.146682  -0.020311
    16  O    0.009798  -0.004125   0.136301   8.798544  -0.100164   0.007182
    17  N    0.000613  -0.008114   0.146682  -0.100164   7.087095   0.283979
    18  H    0.003060  -0.001910  -0.020311   0.007182   0.283979   0.967113
    19  C    0.002250  -0.001161  -0.104394  -0.005452   0.202222  -0.150842
    20  H    0.000191   0.000032   0.063833  -0.025520  -0.051981   0.004283
    21  H   -0.000130  -0.000118  -0.059469   0.011727  -0.159867   0.005332
    22  H   -0.000114   0.000239   0.018789   0.000105   0.133898  -0.012962
             19         20         21         22
     1  H   -0.000175  -0.000013   0.000011  -0.000031
     2  C    0.002085   0.000561  -0.000015  -0.000508
     3  H   -0.000946   0.000374  -0.000416  -0.000280
     4  H    0.000405   0.000035   0.000048   0.000007
     5  C   -0.018156   0.000132  -0.000088   0.000108
     6  O    0.000534   0.000008   0.000051   0.000062
     7  N   -0.048790  -0.004404  -0.004423   0.014193
     8  H    0.012358  -0.000322   0.001058  -0.000129
     9  C    0.040462  -0.010809   0.021486  -0.020018
    10  H    0.011230   0.000974   0.000529  -0.001442
    11  C   -0.019661  -0.010079  -0.001007   0.003165
    12  H    0.005693  -0.001531   0.000396   0.000305
    13  H    0.002250   0.000191  -0.000130  -0.000114
    14  H   -0.001161   0.000032  -0.000118   0.000239
    15  C   -0.104394   0.063833  -0.059469   0.018789
    16  O   -0.005452  -0.025520   0.011727   0.000105
    17  N    0.202222  -0.051981  -0.159867   0.133898
    18  H   -0.150842   0.004283   0.005332  -0.012962
    19  C    4.165033   0.428950   0.467866   0.237140
    20  H    0.428950   0.978731  -0.181434  -0.083658
    21  H    0.467866  -0.181434   1.254572  -0.179794
    22  H    0.237140  -0.083658  -0.179794   0.945345
 Mulliken atomic charges:
              1
     1  H   -0.000398
     2  C    0.345175
     3  H   -0.093410
     4  H    0.050602
     5  C    0.582832
     6  O   -0.828022
     7  N   -0.273958
     8  H   -0.069272
     9  C   -0.081384
    10  H   -0.069332
    11  C    0.710073
    12  H   -0.029431
    13  H   -0.040576
    14  H   -0.078671
    15  C    0.946118
    16  O   -0.865294
    17  N   -0.545487
    18  H   -0.093830
    19  C    0.773350
    20  H   -0.108351
    21  H   -0.176317
    22  H   -0.054418
 Sum of Mulliken atomic charges =   0.00000
 Mulliken charges with hydrogens summed into heavy atoms:
              1
     2  C    0.301969
     5  C    0.582832
     6  O   -0.828022
     7  N   -0.343230
     9  C   -0.150715
    11  C    0.561395
    15  C    0.946118
    16  O   -0.865294
    17  N   -0.639317
    19  C    0.434264
 Sum of Mulliken charges with hydrogens summed into heavy atoms =   0.00000
 Electronic spatial extent (au):  <R**2>=           1932.7713
 Charge=              0.0000 electrons
 Dipole moment (field-independent basis, Debye):
    X=             -0.6450    Y=             -4.9945    Z=              3.9435  Tot=              6.3963
 Quadrupole moment (field-independent basis, Debye-Ang):
   XX=            -66.9140   YY=            -59.3546   ZZ=            -63.7080
   XY=             -0.6912   XZ=             -2.9952   YZ=              2.9553
 Traceless Quadrupole moment (field-independent basis, Debye-Ang):
   XX=             -3.5885   YY=              3.9709   ZZ=             -0.3824
   XY=             -0.6912   XZ=             -2.9952   YZ=              2.9553
 Octapole moment (field-independent basis, Debye-Ang**2):
  XXX=              3.2801  YYY=             -7.2513  ZZZ=             -0.9052  XYY=             -1.7133
  XXY=            -41.4250  XXZ=             22.9840  XZZ=             -0.3591  YZZ=             -4.2533
  YYZ=              5.7660  XYZ=              0.8445
 Hexadecapole moment (field-independent basis, Debye-Ang**3):
 XXXX=          -1767.5752 YYYY=           -497.6541 ZZZZ=           -228.2301 XXXY=             10.1742
 XXXZ=            -20.8640 YYYX=            -11.6771 YYYZ=             -5.8125 ZZZX=             -4.9540
 ZZZY=             -3.4234 XXYY=           -387.0882 XXZZ=           -355.2002 YYZZ=           -124.0485
 XXYZ=             28.2621 YYXZ=              7.1098 ZZXY=              0.0929
 N-N= 5.483439545047D+02 E-N=-2.251604194860D+03  KE= 4.920617653230D+02
 1\1\GINC-NODE010\SP\RMP2-FC\Aug-CC-pVDZ\C6H12N2O2\MANAGER\13-Feb-2017\
 0\\#SP MP2/aug-cc-pVDZ\\Single Point calculation at MP2\\0,1\H,0,-3.92
 4,-1.5213,-0.5046\C,0,-3.1725,-1.3145,0.2605\H,0,-2.6569,-2.2433,0.524
 9\H,0,-3.6968,-0.9414,1.1485\C,0,-2.2323,-0.2364,-0.2582\O,0,-2.6158,0
 .6806,-0.9656\N,0,-0.9039,-0.3915,0.1156\H,0,-0.7837,-0.9517,0.9542\C,
 0,0.0181,0.7443,-0.0052\H,0,-0.3132,1.2977,-0.8856\C,0,-0.029,1.6794,1
 .2148\H,0,0.2599,1.1485,2.1303\H,0,0.6638,2.513,1.0693\H,0,-1.0403,2.0
 788,1.3393\C,0,1.4717,0.3288,-0.2772\O,0,2.2534,1.1246,-0.7799\N,0,1.8
 706,-0.8827,0.2311\H,0,1.1546,-1.5933,0.3049\C,0,3.2303,-1.3536,0.0001
 \H,0,3.9142,-0.5176,0.1529\H,0,3.4615,-2.1489,0.714\H,0,3.3764,-1.7311
 ,-1.0205\\Version=EM64L-G09RevA.02\State=1-A\HF=-492.9196833\MP2=-494.
 5208538\RMSD=6.698e-09\PG=C01 [X(C6H12N2O2)]\\@


 BE CAREFUL NOT TO BECOME TOO GOOD OF A SONGBIRD OR 
 THEY'LL THROW YOU INTO A CAGE.

                                    -- SNOOPY TO WOODSTOCK
 Job cpu time:  0 days 13 hours  7 minutes 19.9 seconds.
 File lengths (MBytes):  RWF=  10534 Int=      0 D2E=      0 Chk=      7 Scr=      2
 Normal termination of Gaussian 09 at Mon Feb 13 05:22:00 2017.
