 Entering Gaussian System, Link 0=g09
 Initial command:
 /home/steboss/Software/g09/l1.exe /home/steboss/projects/phi_psi_scan/alanine/MP2/210/5380/Gau-28085.inp -scrdir=/home/steboss/projects/phi_psi_scan/alanine/MP2/210/5380/
 Entering Link 1 = /home/steboss/Software/g09/l1.exe PID=     28087.
  
 Copyright (c) 1988,1990,1992,1993,1995,1998,2003,2009, Gaussian, Inc.
                  All Rights Reserved.
  
 This is part of the Gaussian(R) 09 program.  It is based on
 the Gaussian(R) 03 system (copyright 2003, Gaussian, Inc.),
 the Gaussian(R) 98 system (copyright 1998, Gaussian, Inc.),
 the Gaussian(R) 94 system (copyright 1995, Gaussian, Inc.),
 the Gaussian 92(TM) system (copyright 1992, Gaussian, Inc.),
 the Gaussian 90(TM) system (copyright 1990, Gaussian, Inc.),
 the Gaussian 88(TM) system (copyright 1988, Gaussian, Inc.),
 the Gaussian 86(TM) system (copyright 1986, Carnegie Mellon
 University), and the Gaussian 82(TM) system (copyright 1983,
 Carnegie Mellon University). Gaussian is a federally registered
 trademark of Gaussian, Inc.
  
 This software contains proprietary and confidential information,
 including trade secrets, belonging to Gaussian, Inc.
  
 This software is provided under written license and may be
 used, copied, transmitted, or stored only in accord with that
 written license.
  
 The following legend is applicable only to US Government
 contracts under FAR:
  
                    RESTRICTED RIGHTS LEGEND
  
 Use, reproduction and disclosure by the US Government is
 subject to restrictions as set forth in subparagraphs (a)
 and (c) of the Commercial Computer Software - Restricted
 Rights clause in FAR 52.227-19.
  
 Gaussian, Inc.
 340 Quinnipiac St., Bldg. 40, Wallingford CT 06492
  
  
 ---------------------------------------------------------------
 Warning -- This program may not be used in any manner that
 competes with the business of Gaussian, Inc. or will provide
 assistance to any competitor of Gaussian, Inc.  The licensee
 of this program is prohibited from giving any competitor of
 Gaussian, Inc. access to this program.  By using this program,
 the user acknowledges that Gaussian, Inc. is engaged in the
 business of creating and licensing software in the field of
 computational chemistry and represents and warrants to the
 licensee that it is not a competitor of Gaussian, Inc. and that
 it will not use this program in any manner prohibited above.
 ---------------------------------------------------------------
  

 Cite this work as:
 Gaussian 09, Revision A.02,
 M. J. Frisch, G. W. Trucks, H. B. Schlegel, G. E. Scuseria, 
 M. A. Robb, J. R. Cheeseman, G. Scalmani, V. Barone, B. Mennucci, 
 G. A. Petersson, H. Nakatsuji, M. Caricato, X. Li, H. P. Hratchian, 
 A. F. Izmaylov, J. Bloino, G. Zheng, J. L. Sonnenberg, M. Hada, 
 M. Ehara, K. Toyota, R. Fukuda, J. Hasegawa, M. Ishida, T. Nakajima, 
 Y. Honda, O. Kitao, H. Nakai, T. Vreven, J. A. Montgomery, Jr., 
 J. E. Peralta, F. Ogliaro, M. Bearpark, J. J. Heyd, E. Brothers, 
 K. N. Kudin, V. N. Staroverov, R. Kobayashi, J. Normand, 
 K. Raghavachari, A. Rendell, J. C. Burant, S. S. Iyengar, J. Tomasi, 
 M. Cossi, N. Rega, J. M. Millam, M. Klene, J. E. Knox, J. B. Cross, 
 V. Bakken, C. Adamo, J. Jaramillo, R. Gomperts, R. E. Stratmann, 
 O. Yazyev, A. J. Austin, R. Cammi, C. Pomelli, J. W. Ochterski, 
 R. L. Martin, K. Morokuma, V. G. Zakrzewski, G. A. Voth, 
 P. Salvador, J. J. Dannenberg, S. Dapprich, A. D. Daniels, 
 O. Farkas, J. B. Foresman, J. V. Ortiz, J. Cioslowski, 
 and D. J. Fox, Gaussian, Inc., Wallingford CT, 2009.
 
 ******************************************
 Gaussian 09:  EM64L-G09RevA.02 11-Jun-2009
                13-Feb-2017 
 ******************************************
 %chk=structure_195.chk
 %NProcShared=8
 Will use up to    8 processors via shared memory.
 -------------------
 #SP MP2/aug-cc-pVDZ
 -------------------
 1/38=1/1;
 2/12=2,17=6,18=5,40=1/2;
 3/5=16,7=10,11=9,16=1,25=1,30=1/1,2,3;
 4//1;
 5/5=2,38=5/2;
 8/10=1/1;
 9/16=-3/6;
 6/7=2,8=2,9=2,10=2/1;
 99/5=1,9=1/99;
 -------------------------------
 Single Point calculation at MP2
 -------------------------------
 Symbolic Z-matrix:
 Charge =  0 Multiplicity = 1
 H                    -4.2175   -0.6555    0.6701 
 C                    -3.3431   -1.1339    0.2197 
 H                    -3.6771   -1.6232   -0.7015 
 H                    -2.9562   -1.8933    0.9057 
 C                    -2.3241   -0.0613   -0.1344 
 O                    -2.6239    0.9341   -0.7863 
 N                    -1.0582   -0.2718    0.3427 
 H                    -0.7808   -1.2113    0.6107 
 C                     0.0477    0.5452   -0.1321 
 H                    -0.1332    0.7924   -1.189 
 C                     0.1376    1.8645    0.6533 
 H                     0.3782    1.6825    1.7056 
 H                     0.8848    2.5491    0.2331 
 H                    -0.8315    2.3651    0.5911 
 C                     1.3109   -0.3376   -0.0609 
 O                     1.2274   -1.5551    0.0907 
 N                     2.4983    0.3164   -0.1566 
 H                     2.4896    1.3148   -0.302 
 C                     3.7773   -0.3741   -0.1709 
 H                     3.5906   -1.4186    0.0799 
 H                     4.2497   -0.3237   -1.1595 
 H                     4.4575    0.0607    0.5695 
 
                          Input orientation:                          
 ---------------------------------------------------------------------
 Center     Atomic      Atomic             Coordinates (Angstroms)
 Number     Number       Type             X           Y           Z
 ---------------------------------------------------------------------
      1          1           0       -4.217500   -0.655500    0.670100
      2          6           0       -3.343100   -1.133900    0.219700
      3          1           0       -3.677100   -1.623200   -0.701500
      4          1           0       -2.956200   -1.893300    0.905700
      5          6           0       -2.324100   -0.061300   -0.134400
      6          8           0       -2.623900    0.934100   -0.786300
      7          7           0       -1.058200   -0.271800    0.342700
      8          1           0       -0.780800   -1.211300    0.610700
      9          6           0        0.047700    0.545200   -0.132100
     10          1           0       -0.133200    0.792400   -1.189000
     11          6           0        0.137600    1.864500    0.653300
     12          1           0        0.378200    1.682500    1.705600
     13          1           0        0.884800    2.549100    0.233100
     14          1           0       -0.831500    2.365100    0.591100
     15          6           0        1.310900   -0.337600   -0.060900
     16          8           0        1.227400   -1.555100    0.090700
     17          7           0        2.498300    0.316400   -0.156600
     18          1           0        2.489600    1.314800   -0.302000
     19          6           0        3.777300   -0.374100   -0.170900
     20          1           0        3.590600   -1.418600    0.079900
     21          1           0        4.249700   -0.323700   -1.159500
     22          1           0        4.457500    0.060700    0.569500
 ---------------------------------------------------------------------
                    Distance matrix (angstroms):
                    1          2          3          4          5
     1  H    0.000000
     2  C    1.093756   0.000000
     3  H    1.763452   1.095253   0.000000
     4  H    1.782844   1.094064   1.782061   0.000000
     5  C    2.141321   1.521256   2.142835   2.199450   0.000000
     6  O    2.680949   2.409545   2.766985   3.311718   1.227059
     7  N    3.199311   2.445223   3.126543   2.559030   1.369101
     8  H    3.481860   2.593116   3.206257   2.298807   2.063843
     9  C    4.503014   3.800087   4.347449   4.005837   2.448118
    10  H    4.715313   3.999816   4.316481   4.423808   2.577019
    11  C    5.031658   4.614508   5.343358   4.874050   3.223219
    12  H    5.259179   4.897763   5.759101   4.954231   3.705248
    13  H    6.041018   5.607121   6.252399   5.911057   4.152865
    14  H    4.538200   4.323086   5.067030   4.769412   2.939664
    15  C    5.585573   4.729963   5.190692   4.643561   3.646227
    16  O    5.549047   4.591680   4.968535   4.275642   3.859438
    17  N    6.835934   6.030500   6.495732   5.980203   4.837219
    18  H    7.057779   6.347337   6.842487   6.434841   5.009336
    19  C    8.043836   7.171469   7.576930   6.986205   6.109522
    20  H    7.867470   6.940950   7.312449   6.615729   6.072221
    21  H    8.668968   7.759461   8.045659   7.658570   6.658418
    22  H    8.705096   7.899290   8.403730   7.674249   6.819124
                    6          7          8          9         10
     6  O    0.000000
     7  N    2.276017   0.000000
     8  H    3.154579   1.015596   0.000000
     9  C    2.777889   1.454627   2.079292   0.000000
    10  H    2.527021   2.081887   2.770040   1.100396   0.000000
    11  C    3.250227   2.467831   3.210268   1.538014   2.148674
    12  H    3.972691   2.782091   3.303962   2.186281   3.071240
    13  H    3.994794   3.427060   4.130062   2.202209   2.478848
    14  H    2.675386   2.658258   3.576813   2.146636   2.475836
    15  C    4.198342   2.404133   2.364235   1.542751   2.152890
    16  O    4.668807   2.633312   2.102728   2.419213   2.999937
    17  N    5.197596   3.639227   3.697988   2.461380   2.866569
    18  H    5.150472   3.939521   4.231988   2.565936   2.817579
    19  C    6.562428   4.863775   4.699796   3.841423   4.205860
    20  H    6.701157   4.795368   4.408385   4.056303   4.512795
    21  H    6.997694   5.516620   5.406235   4.412181   4.522871
    22  H    7.262730   5.530365   5.390683   4.491472   4.970134
                   11         12         13         14         15
    11  C    0.000000
    12  H    1.094691   0.000000
    13  H    1.097066   1.782104   0.000000
    14  H    1.092531   1.780850   1.762869   0.000000
    15  C    2.595373   2.840996   2.932752   3.509924   0.000000
    16  O    3.632884   3.716328   4.120936   4.456168   1.229740
    17  N    2.936913   3.135098   2.782121   3.980426   1.358968
    18  H    2.597436   2.936609   2.094090   3.595895   2.043988
    19  C    4.351787   4.393716   4.132175   5.415247   2.469122
    20  H    4.799036   4.751761   4.804942   5.842318   2.526938
    21  H    4.998383   5.217485   4.638412   6.009396   3.137461
    22  H    4.682121   4.534495   4.366862   5.769250   3.233750
                   16         17         18         19         20
    16  O    0.000000
    17  N    2.275710   0.000000
    18  H    3.159697   1.008969   0.000000
    19  C    2.822266   1.453560   2.127849   0.000000
    20  H    2.367164   2.063801   2.971452   1.090293   0.000000
    21  H    3.494802   2.117295   2.553026   1.096828   1.780262
    22  H    3.643296   2.105010   2.490966   1.095406   1.783130
                   21         22
    21  H    0.000000
    22  H    1.783363   0.000000
 Stoichiometry    C6H12N2O2
 Framework group  C1[X(C6H12N2O2)]
 Deg. of freedom    60
 Full point group                 C1      NOp   1
 Largest Abelian subgroup         C1      NOp   1
 Largest concise Abelian subgroup C1      NOp   1
                         Standard orientation:                         
 ---------------------------------------------------------------------
 Center     Atomic      Atomic             Coordinates (Angstroms)
 Number     Number       Type             X           Y           Z
 ---------------------------------------------------------------------
      1          1           0       -4.217507   -0.655502    0.670103
      2          6           0       -3.343107   -1.133901    0.219703
      3          1           0       -3.677107   -1.623202   -0.701497
      4          1           0       -2.956207   -1.893301    0.905703
      5          6           0       -2.324108   -0.061301   -0.134397
      6          8           0       -2.623908    0.934099   -0.786297
      7          7           0       -1.058208   -0.271800    0.342703
      8          1           0       -0.780807   -1.211300    0.610703
      9          6           0        0.047692    0.545200   -0.132097
     10          1           0       -0.133208    0.792400   -1.188997
     11          6           0        0.137591    1.864500    0.653303
     12          1           0        0.378192    1.682500    1.705603
     13          1           0        0.884791    2.549100    0.233103
     14          1           0       -0.831509    2.365100    0.591103
     15          6           0        1.310892   -0.337599   -0.060897
     16          8           0        1.227393   -1.555099    0.090703
     17          7           0        2.498292    0.316401   -0.156597
     18          1           0        2.489592    1.314801   -0.301997
     19          6           0        3.777292   -0.374098   -0.170897
     20          1           0        3.590593   -1.418598    0.079903
     21          1           0        4.249692   -0.323698   -1.159497
     22          1           0        4.457492    0.060702    0.569503
 ---------------------------------------------------------------------
 Rotational constants (GHZ):      2.9137031      0.6686736      0.5775750
 Standard basis: Aug-CC-pVDZ (5D, 7F)
 There are   338 symmetry adapted basis functions of A   symmetry.
 Integral buffers will be    131072 words long.
 Raffenetti 1 integral format.
 Two-electron integral symmetry is turned on.
   338 basis functions,   562 primitive gaussians,   358 cartesian basis functions
    39 alpha electrons       39 beta electrons
       nuclear repulsion energy       549.4551069819 Hartrees.
 NAtoms=   22 NActive=   22 NUniq=   22 SFac= 7.50D-01 NAtFMM=   80 NAOKFM=F Big=F
 One-electron integrals computed using PRISM.
 NBasis=   338 RedAO= T  NBF=   338
 NBsUse=   338 1.00D-06 NBFU=   338
 Harris functional with IExCor=  205 diagonalized for initial guess.
 ExpMin= 2.97D-02 ExpMax= 1.17D+04 ExpMxC= 4.01D+02 IAcc=3 IRadAn=         0 AccDes= 0.00D+00
 HarFok:  IExCor=  205 AccDes= 0.00D+00 IRadAn=         0 IDoV= 1
 ScaDFX=  1.000000  1.000000  1.000000  1.000000
 FoFCou: FMM=F IPFlag=           0 FMFlag=      100000 FMFlg1=           0
         NFxFlg=           0 DoJE=T BraDBF=F KetDBF=T FulRan=T
         Omega=  0.000000  0.000000  1.000000  0.000000  0.000000 ICntrl=     500 IOpCl=  0
         NMat0=    1 NMatS0=    1 NMatT0=    0 NMatD0=    1 NMtDS0=    0 NMtDT0=    0
         I1Cent=           4 NGrid=           0.
 Petite list used in FoFCou.
 Initial guess orbital symmetries:
       Occupied  (A) (A) (A) (A) (A) (A) (A) (A) (A) (A) (A) (A)
                 (A) (A) (A) (A) (A) (A) (A) (A) (A) (A) (A) (A)
                 (A) (A) (A) (A) (A) (A) (A) (A) (A) (A) (A) (A)
                 (A) (A) (A)
       Virtual   (A) (A) (A) (A) (A) (A) (A) (A) (A) (A) (A) (A)
                 (A) (A) (A) (A) (A) (A) (A) (A) (A) (A) (A) (A)
                 (A) (A) (A) (A) (A) (A) (A) (A) (A) (A) (A) (A)
                 (A) (A) (A) (A) (A) (A) (A) (A) (A) (A) (A) (A)
                 (A) (A) (A) (A) (A) (A) (A) (A) (A) (A) (A) (A)
                 (A) (A) (A) (A) (A) (A) (A) (A) (A) (A) (A) (A)
                 (A) (A) (A) (A) (A) (A) (A) (A) (A) (A) (A) (A)
                 (A) (A) (A) (A) (A) (A) (A) (A) (A) (A) (A) (A)
                 (A) (A) (A) (A) (A) (A) (A) (A) (A) (A) (A) (A)
                 (A) (A) (A) (A) (A) (A) (A) (A) (A) (A) (A) (A)
                 (A) (A) (A) (A) (A) (A) (A) (A) (A) (A) (A) (A)
                 (A) (A) (A) (A) (A) (A) (A) (A) (A) (A) (A) (A)
                 (A) (A) (A) (A) (A) (A) (A) (A) (A) (A) (A) (A)
                 (A) (A) (A) (A) (A) (A) (A) (A) (A) (A) (A) (A)
                 (A) (A) (A) (A) (A) (A) (A) (A) (A) (A) (A) (A)
                 (A) (A) (A) (A) (A) (A) (A) (A) (A) (A) (A) (A)
                 (A) (A) (A) (A) (A) (A) (A) (A) (A) (A) (A) (A)
                 (A) (A) (A) (A) (A) (A) (A) (A) (A) (A) (A) (A)
                 (A) (A) (A) (A) (A) (A) (A) (A) (A) (A) (A) (A)
                 (A) (A) (A) (A) (A) (A) (A) (A) (A) (A) (A) (A)
                 (A) (A) (A) (A) (A) (A) (A) (A) (A) (A) (A) (A)
                 (A) (A) (A) (A) (A) (A) (A) (A) (A) (A) (A) (A)
                 (A) (A) (A) (A) (A) (A) (A) (A) (A) (A) (A) (A)
                 (A) (A) (A) (A) (A) (A) (A) (A) (A) (A) (A) (A)
                 (A) (A) (A) (A) (A) (A) (A) (A) (A) (A) (A)
 The electronic state of the initial guess is 1-A.
 Requested convergence on RMS density matrix=1.00D-08 within 128 cycles.
 Requested convergence on MAX density matrix=1.00D-06.
 Requested convergence on             energy=1.00D-06.
 No special actions if energy rises.
 Initial convergence to 1.0D-05 achieved.  Increase integral accuracy.
 SCF Done:  E(RHF) =  -492.926564394     A.U. after   14 cycles
             Convg  =    0.7350D-08             -V/T =  2.0017
 ExpMin= 2.97D-02 ExpMax= 1.17D+04 ExpMxC= 4.01D+02 IAcc=3 IRadAn=         5 AccDes= 0.00D+00
 HarFok:  IExCor=  205 AccDes= 0.00D+00 IRadAn=         5 IDoV=-2
 ScaDFX=  1.000000  1.000000  1.000000  1.000000
 Range of M.O.s used for correlation:    11   338
 NBasis=   338 NAE=    39 NBE=    39 NFC=    10 NFV=     0
 NROrb=    328 NOA=    29 NOB=    29 NVA=   299 NVB=   299

 **** Warning!!: The largest alpha MO coefficient is  0.86408687D+02

 Disk-based method using OVN memory for 29 occupieds at a time.
 Estimated scratch disk usage=  1371514690 words.
 Actual    scratch disk usage=  1358671300 words.
 JobTyp=1 Pass  1:  I=   1 to  29 NPSUse=  8 ParTrn=T ParDer=T DoDerP=F.
 Spin components of T(2) and E(2):
     alpha-alpha T2 =       0.6792116023D-01 E2=     -0.2059001563D+00
     alpha-beta  T2 =       0.3759104395D+00 E2=     -0.1189282468D+01
     beta-beta   T2 =       0.6792116023D-01 E2=     -0.2059001563D+00
 ANorm=    0.1229533554D+01
 E2 =    -0.1601082781D+01 EUMP2 =    -0.49452764717481D+03

 **********************************************************************

            Population analysis using the SCF density.

 **********************************************************************

 Orbital symmetries:
       Occupied  (A) (A) (A) (A) (A) (A) (A) (A) (A) (A) (A) (A)
                 (A) (A) (A) (A) (A) (A) (A) (A) (A) (A) (A) (A)
                 (A) (A) (A) (A) (A) (A) (A) (A) (A) (A) (A) (A)
                 (A) (A) (A)
       Virtual   (A) (A) (A) (A) (A) (A) (A) (A) (A) (A) (A) (A)
                 (A) (A) (A) (A) (A) (A) (A) (A) (A) (A) (A) (A)
                 (A) (A) (A) (A) (A) (A) (A) (A) (A) (A) (A) (A)
                 (A) (A) (A) (A) (A) (A) (A) (A) (A) (A) (A) (A)
                 (A) (A) (A) (A) (A) (A) (A) (A) (A) (A) (A) (A)
                 (A) (A) (A) (A) (A) (A) (A) (A) (A) (A) (A) (A)
                 (A) (A) (A) (A) (A) (A) (A) (A) (A) (A) (A) (A)
                 (A) (A) (A) (A) (A) (A) (A) (A) (A) (A) (A) (A)
                 (A) (A) (A) (A) (A) (A) (A) (A) (A) (A) (A) (A)
                 (A) (A) (A) (A) (A) (A) (A) (A) (A) (A) (A) (A)
                 (A) (A) (A) (A) (A) (A) (A) (A) (A) (A) (A) (A)
                 (A) (A) (A) (A) (A) (A) (A) (A) (A) (A) (A) (A)
                 (A) (A) (A) (A) (A) (A) (A) (A) (A) (A) (A) (A)
                 (A) (A) (A) (A) (A) (A) (A) (A) (A) (A) (A) (A)
                 (A) (A) (A) (A) (A) (A) (A) (A) (A) (A) (A) (A)
                 (A) (A) (A) (A) (A) (A) (A) (A) (A) (A) (A) (A)
                 (A) (A) (A) (A) (A) (A) (A) (A) (A) (A) (A) (A)
                 (A) (A) (A) (A) (A) (A) (A) (A) (A) (A) (A) (A)
                 (A) (A) (A) (A) (A) (A) (A) (A) (A) (A) (A) (A)
                 (A) (A) (A) (A) (A) (A) (A) (A) (A) (A) (A) (A)
                 (A) (A) (A) (A) (A) (A) (A) (A) (A) (A) (A) (A)
                 (A) (A) (A) (A) (A) (A) (A) (A) (A) (A) (A) (A)
                 (A) (A) (A) (A) (A) (A) (A) (A) (A) (A) (A) (A)
                 (A) (A) (A) (A) (A) (A) (A) (A) (A) (A) (A) (A)
                 (A) (A) (A) (A) (A) (A) (A) (A) (A) (A) (A)
 The electronic state is 1-A.
 Alpha  occ. eigenvalues --  -20.54380 -20.52685 -15.60708 -15.58656 -11.37259
 Alpha  occ. eigenvalues --  -11.35779 -11.29457 -11.27686 -11.24174 -11.23948
 Alpha  occ. eigenvalues --   -1.39928  -1.37900  -1.24536  -1.23329  -1.05509
 Alpha  occ. eigenvalues --   -0.99042  -0.96132  -0.88831  -0.80542  -0.77863
 Alpha  occ. eigenvalues --   -0.73099  -0.67459  -0.65889  -0.65465  -0.62904
 Alpha  occ. eigenvalues --   -0.61688  -0.59547  -0.58868  -0.56602  -0.56417
 Alpha  occ. eigenvalues --   -0.55470  -0.54418  -0.53452  -0.52430  -0.49094
 Alpha  occ. eigenvalues --   -0.43599  -0.42126  -0.40747  -0.39265
 Alpha virt. eigenvalues --    0.02805   0.03979   0.04350   0.04452   0.05848
 Alpha virt. eigenvalues --    0.06036   0.06358   0.06740   0.07408   0.07918
 Alpha virt. eigenvalues --    0.09173   0.10410   0.11343   0.11738   0.12749
 Alpha virt. eigenvalues --    0.13577   0.14396   0.14574   0.14652   0.15084
 Alpha virt. eigenvalues --    0.15275   0.15781   0.16140   0.16542   0.17038
 Alpha virt. eigenvalues --    0.17914   0.18434   0.18631   0.19088   0.19508
 Alpha virt. eigenvalues --    0.19582   0.19996   0.20588   0.21575   0.22085
 Alpha virt. eigenvalues --    0.24047   0.24403   0.24838   0.25148   0.26064
 Alpha virt. eigenvalues --    0.27429   0.28719   0.29575   0.29740   0.30335
 Alpha virt. eigenvalues --    0.30567   0.31864   0.31998   0.32466   0.33502
 Alpha virt. eigenvalues --    0.33916   0.34510   0.35282   0.35896   0.36852
 Alpha virt. eigenvalues --    0.37288   0.37432   0.37872   0.38271   0.40254
 Alpha virt. eigenvalues --    0.40751   0.41770   0.42057   0.42216   0.43595
 Alpha virt. eigenvalues --    0.43857   0.44350   0.44734   0.45025   0.46109
 Alpha virt. eigenvalues --    0.46390   0.46774   0.47255   0.48195   0.48628
 Alpha virt. eigenvalues --    0.48778   0.50218   0.50664   0.51214   0.52149
 Alpha virt. eigenvalues --    0.52608   0.54102   0.54262   0.55209   0.55587
 Alpha virt. eigenvalues --    0.55990   0.56838   0.57597   0.58503   0.59026
 Alpha virt. eigenvalues --    0.59491   0.60038   0.60587   0.61780   0.62366
 Alpha virt. eigenvalues --    0.62669   0.63756   0.64137   0.64796   0.65106
 Alpha virt. eigenvalues --    0.65864   0.66285   0.67508   0.67663   0.68511
 Alpha virt. eigenvalues --    0.69773   0.69976   0.70615   0.71316   0.72155
 Alpha virt. eigenvalues --    0.72667   0.73178   0.74123   0.74387   0.74816
 Alpha virt. eigenvalues --    0.75926   0.77015   0.78009   0.78755   0.79592
 Alpha virt. eigenvalues --    0.79963   0.81154   0.82167   0.82574   0.82881
 Alpha virt. eigenvalues --    0.83843   0.84944   0.85588   0.86612   0.88987
 Alpha virt. eigenvalues --    0.89344   0.90247   0.91577   0.92336   0.93856
 Alpha virt. eigenvalues --    0.94637   0.96184   0.96883   0.97734   0.98935
 Alpha virt. eigenvalues --    1.00712   1.00955   1.01988   1.03771   1.04526
 Alpha virt. eigenvalues --    1.06160   1.07303   1.08502   1.09236   1.11336
 Alpha virt. eigenvalues --    1.12670   1.13188   1.14567   1.15154   1.15598
 Alpha virt. eigenvalues --    1.17338   1.17490   1.18440   1.20258   1.21192
 Alpha virt. eigenvalues --    1.23160   1.24940   1.25600   1.27437   1.29098
 Alpha virt. eigenvalues --    1.30320   1.33010   1.34440   1.35563   1.36994
 Alpha virt. eigenvalues --    1.40410   1.41703   1.43117   1.45848   1.46825
 Alpha virt. eigenvalues --    1.49548   1.50874   1.51771   1.53931   1.54829
 Alpha virt. eigenvalues --    1.56344   1.56677   1.59723   1.62638   1.64564
 Alpha virt. eigenvalues --    1.65187   1.66458   1.69799   1.70927   1.72886
 Alpha virt. eigenvalues --    1.74746   1.76754   1.77210   1.78537   1.80821
 Alpha virt. eigenvalues --    1.82580   1.84100   1.84718   1.85249   1.87542
 Alpha virt. eigenvalues --    1.88891   1.89432   1.89980   1.90234   1.93510
 Alpha virt. eigenvalues --    1.94287   1.97419   1.98448   2.00665   2.01442
 Alpha virt. eigenvalues --    2.02330   2.03238   2.03811   2.05457   2.07848
 Alpha virt. eigenvalues --    2.08620   2.09340   2.11015   2.13614   2.16282
 Alpha virt. eigenvalues --    2.17863   2.19131   2.19581   2.20084   2.21784
 Alpha virt. eigenvalues --    2.23773   2.24827   2.26429   2.29467   2.30382
 Alpha virt. eigenvalues --    2.31479   2.32991   2.34012   2.35366   2.36563
 Alpha virt. eigenvalues --    2.37595   2.39471   2.41039   2.41962   2.43682
 Alpha virt. eigenvalues --    2.44424   2.45535   2.47652   2.50628   2.51976
 Alpha virt. eigenvalues --    2.53523   2.55108   2.56992   2.59719   2.61693
 Alpha virt. eigenvalues --    2.62495   2.63825   2.65133   2.67366   2.68335
 Alpha virt. eigenvalues --    2.71586   2.72635   2.74492   2.76385   2.78446
 Alpha virt. eigenvalues --    2.81306   2.82332   2.84672   2.85251   2.87893
 Alpha virt. eigenvalues --    2.89941   2.93118   2.93127   2.96380   2.97420
 Alpha virt. eigenvalues --    3.00251   3.01564   3.02343   3.05879   3.07296
 Alpha virt. eigenvalues --    3.09840   3.15459   3.17505   3.20274   3.22918
 Alpha virt. eigenvalues --    3.27744   3.31634   3.44456   3.48636   3.54053
 Alpha virt. eigenvalues --    3.58445   3.65464   3.76115   3.83343   3.83760
 Alpha virt. eigenvalues --    3.85856   3.87155   3.97501   4.00096   4.01873
 Alpha virt. eigenvalues --    4.05383   4.10842   4.21360   4.22114
          Condensed to atoms (all electrons):
              1          2          3          4          5          6
     1  H    0.732840   0.400079  -0.045312  -0.085415  -0.098493   0.024151
     2  C    0.400079   4.518243   0.347567   0.335725   0.159316  -0.055097
     3  H   -0.045312   0.347567   0.717927  -0.063261  -0.069885   0.019114
     4  H   -0.085415   0.335725  -0.063261   1.048116   0.085392  -0.009304
     5  C   -0.098493   0.159316  -0.069885   0.085392   5.302007   0.216064
     6  O    0.024151  -0.055097   0.019114  -0.009304   0.216064   8.729226
     7  N    0.045600  -0.041034   0.039932  -0.178578   0.101084  -0.107468
     8  H   -0.003323  -0.053862  -0.005757   0.009551  -0.089031  -0.001946
     9  C   -0.001762  -0.002748  -0.009448   0.007213  -0.034758  -0.001786
    10  H   -0.000171  -0.002769  -0.000658   0.001192   0.062357  -0.014316
    11  C    0.000497  -0.009254  -0.000772  -0.006984  -0.035218   0.035757
    12  H    0.000056   0.003307  -0.000059   0.001200   0.037128  -0.006285
    13  H    0.000335   0.000435  -0.000014  -0.001602  -0.038352   0.009152
    14  H   -0.000557   0.006800  -0.000515   0.002637   0.022816   0.018009
    15  C   -0.001845   0.004038   0.012335  -0.017293  -0.102576  -0.000819
    16  O   -0.000153   0.000439   0.000368   0.002484  -0.005729  -0.000120
    17  N   -0.000308   0.001089  -0.000349   0.002201   0.000876   0.004196
    18  H   -0.000026  -0.001019  -0.000053  -0.000232  -0.002137  -0.000764
    19  C   -0.000012   0.001609   0.000059   0.000500  -0.004298   0.001312
    20  H    0.000003   0.000364   0.000040   0.000038  -0.000560   0.000210
    21  H    0.000007   0.000101   0.000012   0.000013   0.001233  -0.000016
    22  H   -0.000007   0.000040   0.000002   0.000021  -0.000892   0.000072
              7          8          9         10         11         12
     1  H    0.045600  -0.003323  -0.001762  -0.000171   0.000497   0.000056
     2  C   -0.041034  -0.053862  -0.002748  -0.002769  -0.009254   0.003307
     3  H    0.039932  -0.005757  -0.009448  -0.000658  -0.000772  -0.000059
     4  H   -0.178578   0.009551   0.007213   0.001192  -0.006984   0.001200
     5  C    0.101084  -0.089031  -0.034758   0.062357  -0.035218   0.037128
     6  O   -0.107468  -0.001946  -0.001786  -0.014316   0.035757  -0.006285
     7  N    7.543960   0.311562  -0.432347  -0.143889   0.066774  -0.079163
     8  H    0.311562   0.913261  -0.014850   0.023245   0.001217   0.003503
     9  C   -0.432347  -0.014850   6.932385   0.284014   0.124268   0.076519
    10  H   -0.143889   0.023245   0.284014   1.081056  -0.043187   0.066179
    11  C    0.066774   0.001217   0.124268  -0.043187   4.285185   0.229496
    12  H   -0.079163   0.003503   0.076519   0.066179   0.229496   1.086980
    13  H    0.090351   0.007486  -0.159263  -0.090325   0.286231  -0.125056
    14  H   -0.017887  -0.012574  -0.024669  -0.022787   0.425584  -0.186640
    15  C    0.198148  -0.089681  -0.625886  -0.154595  -0.088778  -0.074766
    16  O   -0.021474   0.050353   0.003815  -0.006355   0.019278  -0.003275
    17  N   -0.020408   0.004870  -0.020852  -0.004531  -0.005913   0.006617
    18  H    0.010654   0.002529  -0.110657   0.008871   0.001297   0.003260
    19  C   -0.012860  -0.009517  -0.005544  -0.002710   0.007260  -0.007345
    20  H   -0.002043  -0.000853   0.007569   0.001080  -0.008729  -0.001025
    21  H    0.001546   0.000070   0.039151  -0.001388  -0.004042   0.000012
    22  H    0.000398  -0.001071  -0.048135  -0.001623   0.021631  -0.000971
             13         14         15         16         17         18
     1  H    0.000335  -0.000557  -0.001845  -0.000153  -0.000308  -0.000026
     2  C    0.000435   0.006800   0.004038   0.000439   0.001089  -0.001019
     3  H   -0.000014  -0.000515   0.012335   0.000368  -0.000349  -0.000053
     4  H   -0.001602   0.002637  -0.017293   0.002484   0.002201  -0.000232
     5  C   -0.038352   0.022816  -0.102576  -0.005729   0.000876  -0.002137
     6  O    0.009152   0.018009  -0.000819  -0.000120   0.004196  -0.000764
     7  N    0.090351  -0.017887   0.198148  -0.021474  -0.020408   0.010654
     8  H    0.007486  -0.012574  -0.089681   0.050353   0.004870   0.002529
     9  C   -0.159263  -0.024669  -0.625886   0.003815  -0.020852  -0.110657
    10  H   -0.090325  -0.022787  -0.154595  -0.006355  -0.004531   0.008871
    11  C    0.286231   0.425584  -0.088778   0.019278  -0.005913   0.001297
    12  H   -0.125056  -0.186640  -0.074766  -0.003275   0.006617   0.003260
    13  H    1.181019  -0.163250   0.126716  -0.001678  -0.051218   0.020870
    14  H   -0.163250   1.014358  -0.007881   0.001316   0.016137  -0.002791
    15  C    0.126716  -0.007881   5.479336   0.275823   0.133056   0.045609
    16  O   -0.001678   0.001316   0.275823   8.742795  -0.181929   0.004140
    17  N   -0.051218   0.016137   0.133056  -0.181929   7.211753   0.214678
    18  H    0.020870  -0.002791   0.045609   0.004140   0.214678   1.048451
    19  C   -0.007584   0.007245  -0.161548  -0.007787   0.322388  -0.140294
    20  H    0.002133  -0.000155  -0.013198  -0.006028  -0.045174   0.003045
    21  H   -0.000551  -0.000031  -0.050328   0.009728   0.030839  -0.002764
    22  H   -0.000312   0.001491   0.015070   0.009465  -0.098862   0.008912
             19         20         21         22
     1  H   -0.000012   0.000003   0.000007  -0.000007
     2  C    0.001609   0.000364   0.000101   0.000040
     3  H    0.000059   0.000040   0.000012   0.000002
     4  H    0.000500   0.000038   0.000013   0.000021
     5  C   -0.004298  -0.000560   0.001233  -0.000892
     6  O    0.001312   0.000210  -0.000016   0.000072
     7  N   -0.012860  -0.002043   0.001546   0.000398
     8  H   -0.009517  -0.000853   0.000070  -0.001071
     9  C   -0.005544   0.007569   0.039151  -0.048135
    10  H   -0.002710   0.001080  -0.001388  -0.001623
    11  C    0.007260  -0.008729  -0.004042   0.021631
    12  H   -0.007345  -0.001025   0.000012  -0.000971
    13  H   -0.007584   0.002133  -0.000551  -0.000312
    14  H    0.007245  -0.000155  -0.000031   0.001491
    15  C   -0.161548  -0.013198  -0.050328   0.015070
    16  O   -0.007787  -0.006028   0.009728   0.009465
    17  N    0.322388  -0.045174   0.030839  -0.098862
    18  H   -0.140294   0.003045  -0.002764   0.008912
    19  C    4.159952   0.487339   0.293798   0.379154
    20  H    0.487339   0.983892  -0.112327  -0.146969
    21  H    0.293798  -0.112327   1.030906  -0.149417
    22  H    0.379154  -0.146969  -0.149417   1.125995
 Mulliken atomic charges:
              1
     1  H    0.033816
     2  C    0.386630
     3  H    0.058729
     4  H   -0.133615
     5  C    0.493655
     6  O   -0.859343
     7  N   -0.352858
     8  H   -0.045183
     9  C    0.017770
    10  H   -0.038689
    11  C    0.698403
    12  H   -0.029672
    13  H   -0.085522
    14  H   -0.076658
    15  C    1.099064
    16  O   -0.885477
    17  N   -0.519158
    18  H   -0.111578
    19  C    0.698881
    20  H   -0.148650
    21  H   -0.086554
    22  H   -0.113991
 Sum of Mulliken atomic charges =   0.00000
 Mulliken charges with hydrogens summed into heavy atoms:
              1
     2  C    0.345560
     5  C    0.493655
     6  O   -0.859343
     7  N   -0.398041
     9  C   -0.020919
    11  C    0.506551
    15  C    1.099064
    16  O   -0.885477
    17  N   -0.630736
    19  C    0.349686
 Sum of Mulliken charges with hydrogens summed into heavy atoms =   0.00000
 Electronic spatial extent (au):  <R**2>=           1986.5293
 Charge=              0.0000 electrons
 Dipole moment (field-independent basis, Debye):
    X=              3.0596    Y=              0.6086    Z=              1.0098  Tot=              3.2789
 Quadrupole moment (field-independent basis, Debye-Ang):
   XX=            -55.4768   YY=            -64.1685   ZZ=            -62.6039
   XY=             13.2821   XZ=             -6.0617   YZ=              1.3749
 Traceless Quadrupole moment (field-independent basis, Debye-Ang):
   XX=              5.2730   YY=             -3.4188   ZZ=             -1.8542
   XY=             13.2821   XZ=             -6.0617   YZ=              1.3749
 Octapole moment (field-independent basis, Debye-Ang**2):
  XXX=             42.1608  YYY=              6.7263  ZZZ=             -1.7791  XYY=              1.1905
  XXY=            -19.6373  XXZ=             10.9556  XZZ=              4.3953  YZZ=             -3.2760
  YYZ=              1.5383  XYZ=             -6.6759
 Hexadecapole moment (field-independent basis, Debye-Ang**3):
 XXXX=          -1861.8180 YYYY=           -471.6020 ZZZZ=           -142.1593 XXXY=             64.2317
 XXXZ=            -48.5778 YYYX=             20.1618 YYYZ=             -6.3156 ZZZX=              0.9394
 ZZZY=             -0.8287 XXYY=           -413.3861 XXZZ=           -366.2373 YYZZ=           -101.8766
 XXYZ=             17.4477 YYXZ=             -7.4546 ZZXY=              5.3652
 N-N= 5.494551069819D+02 E-N=-2.254110397621D+03  KE= 4.920847105460D+02
 1\1\GINC-NODE012\SP\RMP2-FC\Aug-CC-pVDZ\C6H12N2O2\MANAGER\13-Feb-2017\
 0\\#SP MP2/aug-cc-pVDZ\\Single Point calculation at MP2\\0,1\H,0,-4.21
 75,-0.6555,0.6701\C,0,-3.3431,-1.1339,0.2197\H,0,-3.6771,-1.6232,-0.70
 15\H,0,-2.9562,-1.8933,0.9057\C,0,-2.3241,-0.0613,-0.1344\O,0,-2.6239,
 0.9341,-0.7863\N,0,-1.0582,-0.2718,0.3427\H,0,-0.7808,-1.2113,0.6107\C
 ,0,0.0477,0.5452,-0.1321\H,0,-0.1332,0.7924,-1.189\C,0,0.1376,1.8645,0
 .6533\H,0,0.3782,1.6825,1.7056\H,0,0.8848,2.5491,0.2331\H,0,-0.8315,2.
 3651,0.5911\C,0,1.3109,-0.3376,-0.0609\O,0,1.2274,-1.5551,0.0907\N,0,2
 .4983,0.3164,-0.1566\H,0,2.4896,1.3148,-0.302\C,0,3.7773,-0.3741,-0.17
 09\H,0,3.5906,-1.4186,0.0799\H,0,4.2497,-0.3237,-1.1595\H,0,4.4575,0.0
 607,0.5695\\Version=EM64L-G09RevA.02\State=1-A\HF=-492.9265644\MP2=-49
 4.5276472\RMSD=7.350e-09\PG=C01 [X(C6H12N2O2)]\\@


 HE THAT FOLLOWS NATURE IS NEVER LOST.

                             -- BACON
 Job cpu time:  0 days  9 hours 55 minutes 43.9 seconds.
 File lengths (MBytes):  RWF=  10482 Int=      0 D2E=      0 Chk=      7 Scr=      2
 Normal termination of Gaussian 09 at Mon Feb 13 04:20:31 2017.
