 Entering Gaussian System, Link 0=g09
 Initial command:
 /home/steboss/Software/g09/l1.exe /tmp/Gau-11126.inp -scrdir=/tmp/
 Entering Link 1 = /home/steboss/Software/g09/l1.exe PID=     11128.
  
 Copyright (c) 1988,1990,1992,1993,1995,1998,2003,2009, Gaussian, Inc.
                  All Rights Reserved.
  
 This is part of the Gaussian(R) 09 program.  It is based on
 the Gaussian(R) 03 system (copyright 2003, Gaussian, Inc.),
 the Gaussian(R) 98 system (copyright 1998, Gaussian, Inc.),
 the Gaussian(R) 94 system (copyright 1995, Gaussian, Inc.),
 the Gaussian 92(TM) system (copyright 1992, Gaussian, Inc.),
 the Gaussian 90(TM) system (copyright 1990, Gaussian, Inc.),
 the Gaussian 88(TM) system (copyright 1988, Gaussian, Inc.),
 the Gaussian 86(TM) system (copyright 1986, Carnegie Mellon
 University), and the Gaussian 82(TM) system (copyright 1983,
 Carnegie Mellon University). Gaussian is a federally registered
 trademark of Gaussian, Inc.
  
 This software contains proprietary and confidential information,
 including trade secrets, belonging to Gaussian, Inc.
  
 This software is provided under written license and may be
 used, copied, transmitted, or stored only in accord with that
 written license.
  
 The following legend is applicable only to US Government
 contracts under FAR:
  
                    RESTRICTED RIGHTS LEGEND
  
 Use, reproduction and disclosure by the US Government is
 subject to restrictions as set forth in subparagraphs (a)
 and (c) of the Commercial Computer Software - Restricted
 Rights clause in FAR 52.227-19.
  
 Gaussian, Inc.
 340 Quinnipiac St., Bldg. 40, Wallingford CT 06492
  
  
 ---------------------------------------------------------------
 Warning -- This program may not be used in any manner that
 competes with the business of Gaussian, Inc. or will provide
 assistance to any competitor of Gaussian, Inc.  The licensee
 of this program is prohibited from giving any competitor of
 Gaussian, Inc. access to this program.  By using this program,
 the user acknowledges that Gaussian, Inc. is engaged in the
 business of creating and licensing software in the field of
 computational chemistry and represents and warrants to the
 licensee that it is not a competitor of Gaussian, Inc. and that
 it will not use this program in any manner prohibited above.
 ---------------------------------------------------------------
  

 Cite this work as:
 Gaussian 09, Revision A.02,
 M. J. Frisch, G. W. Trucks, H. B. Schlegel, G. E. Scuseria, 
 M. A. Robb, J. R. Cheeseman, G. Scalmani, V. Barone, B. Mennucci, 
 G. A. Petersson, H. Nakatsuji, M. Caricato, X. Li, H. P. Hratchian, 
 A. F. Izmaylov, J. Bloino, G. Zheng, J. L. Sonnenberg, M. Hada, 
 M. Ehara, K. Toyota, R. Fukuda, J. Hasegawa, M. Ishida, T. Nakajima, 
 Y. Honda, O. Kitao, H. Nakai, T. Vreven, J. A. Montgomery, Jr., 
 J. E. Peralta, F. Ogliaro, M. Bearpark, J. J. Heyd, E. Brothers, 
 K. N. Kudin, V. N. Staroverov, R. Kobayashi, J. Normand, 
 K. Raghavachari, A. Rendell, J. C. Burant, S. S. Iyengar, J. Tomasi, 
 M. Cossi, N. Rega, J. M. Millam, M. Klene, J. E. Knox, J. B. Cross, 
 V. Bakken, C. Adamo, J. Jaramillo, R. Gomperts, R. E. Stratmann, 
 O. Yazyev, A. J. Austin, R. Cammi, C. Pomelli, J. W. Ochterski, 
 R. L. Martin, K. Morokuma, V. G. Zakrzewski, G. A. Voth, 
 P. Salvador, J. J. Dannenberg, S. Dapprich, A. D. Daniels, 
 O. Farkas, J. B. Foresman, J. V. Ortiz, J. Cioslowski, 
 and D. J. Fox, Gaussian, Inc., Wallingford CT, 2009.
 
 ******************************************
 Gaussian 09:  EM64L-G09RevA.02 11-Jun-2009
                10-Feb-2017 
 ******************************************
 %chk=structure_240.chk
 %NProcShared=8
 Will use up to    8 processors via shared memory.
 -------------------------------------------
 # HF/6-31G* Opt=(ModRedundant) geom=nocrowd
 -------------------------------------------
 1/18=120,19=15,38=1/1,3;
 2/9=110,12=1,17=6,18=5,40=1/2;
 3/5=1,6=6,7=1,11=9,16=1,25=1,30=1,71=1/1,2,3;
 4//1;
 5/5=2,38=5/2;
 6/7=2,8=2,9=2,10=2,28=1/1;
 7//1,2,3,16;
 1/18=20,19=15/3(2);
 2/9=110,12=1/2;
 99//99;
 2/9=110,12=1/2;
 3/5=1,6=6,7=1,11=9,16=1,25=1,30=1,71=1/1,2,3;
 4/5=5,16=3/1;
 5/5=2,38=5/2;
 7//1,2,3,16;
 1/18=20,19=15/3(-5);
 2/9=110,12=1/2;
 6/7=2,8=2,9=2,10=2,19=2,28=1/1;
 99/9=1/99;
 ------------------
 Phi Psi fixed scan
 ------------------
 Symbolic Z-matrix:
 Charge =  0 Multiplicity = 1
 H                     0.6872    3.6446    1.7047 
 C                     1.3383    3.4229    0.8591 
 H                     0.8517    3.7322   -0.0658 
 H                     1.537     2.3517    0.824 
 C                     2.6715    4.1636    0.9815 
 O                     2.893     4.8943    1.9446 
 N                     3.5554    3.9697    0. 
 H                     3.3273    3.3591   -0.7716 
 C                     4.8533    4.6139    0. 
 H                     5.4076    4.3155    0.8898 
 C                     5.6613    4.2208   -1.2322 
 H                     5.1233    4.5214   -2.1312 
 H                     6.6305    4.7189   -1.2058 
 H                     5.8085    3.1409   -1.2414 
 C                     4.7127    6.1294    0. 
 O                     4.1278    6.7016    0.9171 
 N                     5.2518    6.7798   -1.0338 
 H                     5.7229    6.2651   -1.764 
 C                     5.1851    8.2226   -1.1497 
 H                     4.6503    8.6321   -0.2928 
 H                     6.1948    8.6324   -1.1769 
 H                     4.6601    8.4901   -2.0667 
 
 The following ModRedundant input section has been read:
 D    5    7    9   15 F                                                       
 D    7    9   15   17 F                                                       

 GradGradGradGradGradGradGradGradGradGradGradGradGradGradGradGradGradGrad
 Berny optimization.
 Initialization pass.
                           ----------------------------
                           !    Initial Parameters    !
                           ! (Angstroms and Degrees)  !
 --------------------------                            --------------------------
 ! Name  Definition              Value          Derivative Info.                !
 --------------------------------------------------------------------------------
 ! R1    R(1,2)                  1.09           estimate D2E/DX2                !
 ! R2    R(2,3)                  1.0899         estimate D2E/DX2                !
 ! R3    R(2,4)                  1.09           estimate D2E/DX2                !
 ! R4    R(2,5)                  1.53           estimate D2E/DX2                !
 ! R5    R(5,6)                  1.229          estimate D2E/DX2                !
 ! R6    R(5,7)                  1.335          estimate D2E/DX2                !
 ! R7    R(7,8)                  1.0101         estimate D2E/DX2                !
 ! R8    R(7,9)                  1.449          estimate D2E/DX2                !
 ! R9    R(9,10)                 1.09           estimate D2E/DX2                !
 ! R10   R(9,11)                 1.525          estimate D2E/DX2                !
 ! R11   R(9,15)                 1.522          estimate D2E/DX2                !
 ! R12   R(11,12)                1.09           estimate D2E/DX2                !
 ! R13   R(11,13)                1.09           estimate D2E/DX2                !
 ! R14   R(11,14)                1.0899         estimate D2E/DX2                !
 ! R15   R(15,16)                1.2291         estimate D2E/DX2                !
 ! R16   R(15,17)                1.3351         estimate D2E/DX2                !
 ! R17   R(17,18)                1.01           estimate D2E/DX2                !
 ! R18   R(17,19)                1.449          estimate D2E/DX2                !
 ! R19   R(19,20)                1.0899         estimate D2E/DX2                !
 ! R20   R(19,21)                1.09           estimate D2E/DX2                !
 ! R21   R(19,22)                1.09           estimate D2E/DX2                !
 ! A1    A(1,2,3)              109.5069         estimate D2E/DX2                !
 ! A2    A(1,2,4)              109.4962         estimate D2E/DX2                !
 ! A3    A(1,2,5)              111.0979         estimate D2E/DX2                !
 ! A4    A(3,2,4)              109.4474         estimate D2E/DX2                !
 ! A5    A(3,2,5)              108.6344         estimate D2E/DX2                !
 ! A6    A(4,2,5)              108.6313         estimate D2E/DX2                !
 ! A7    A(2,5,6)              120.4998         estimate D2E/DX2                !
 ! A8    A(2,5,7)              116.6019         estimate D2E/DX2                !
 ! A9    A(6,5,7)              122.8982         estimate D2E/DX2                !
 ! A10   A(5,7,8)              119.9944         estimate D2E/DX2                !
 ! A11   A(5,7,9)              121.9035         estimate D2E/DX2                !
 ! A12   A(8,7,9)              118.102          estimate D2E/DX2                !
 ! A13   A(7,9,10)             109.5            estimate D2E/DX2                !
 ! A14   A(7,9,11)             111.0992         estimate D2E/DX2                !
 ! A15   A(7,9,15)             111.0966         estimate D2E/DX2                !
 ! A16   A(10,9,11)            108.6382         estimate D2E/DX2                !
 ! A17   A(10,9,15)            108.6373         estimate D2E/DX2                !
 ! A18   A(11,9,15)            107.7947         estimate D2E/DX2                !
 ! A19   A(9,11,12)            109.5007         estimate D2E/DX2                !
 ! A20   A(9,11,13)            109.4959         estimate D2E/DX2                !
 ! A21   A(9,11,14)            109.4978         estimate D2E/DX2                !
 ! A22   A(12,11,13)           109.441          estimate D2E/DX2                !
 ! A23   A(12,11,14)           109.4482         estimate D2E/DX2                !
 ! A24   A(13,11,14)           109.4436         estimate D2E/DX2                !
 ! A25   A(9,15,16)            120.4994         estimate D2E/DX2                !
 ! A26   A(9,15,17)            116.6015         estimate D2E/DX2                !
 ! A27   A(16,15,17)           122.8991         estimate D2E/DX2                !
 ! A28   A(15,17,18)           119.9952         estimate D2E/DX2                !
 ! A29   A(15,17,19)           121.9            estimate D2E/DX2                !
 ! A30   A(18,17,19)           118.1048         estimate D2E/DX2                !
 ! A31   A(17,19,20)           109.4999         estimate D2E/DX2                !
 ! A32   A(17,19,21)           109.4937         estimate D2E/DX2                !
 ! A33   A(17,19,22)           109.5016         estimate D2E/DX2                !
 ! A34   A(20,19,21)           109.4435         estimate D2E/DX2                !
 ! A35   A(20,19,22)           109.4435         estimate D2E/DX2                !
 ! A36   A(21,19,22)           109.4451         estimate D2E/DX2                !
 ! D1    D(1,2,5,6)             -0.0045         estimate D2E/DX2                !
 ! D2    D(1,2,5,7)            179.9929         estimate D2E/DX2                !
 ! D3    D(3,2,5,6)            120.5139         estimate D2E/DX2                !
 ! D4    D(3,2,5,7)            -59.4887         estimate D2E/DX2                !
 ! D5    D(4,2,5,6)           -120.5077         estimate D2E/DX2                !
 ! D6    D(4,2,5,7)             59.4897         estimate D2E/DX2                !
 ! D7    D(2,5,7,8)             -0.0001         estimate D2E/DX2                !
 ! D8    D(2,5,7,9)           -179.9972         estimate D2E/DX2                !
 ! D9    D(6,5,7,8)            179.9972         estimate D2E/DX2                !
 ! D10   D(6,5,7,9)              0.0002         estimate D2E/DX2                !
 ! D11   D(5,7,9,10)            59.9992         estimate D2E/DX2                !
 ! D12   D(5,7,9,11)          -179.9982         estimate D2E/DX2                !
 ! D13   D(5,7,9,15)           -60.0006         Frozen                          !
 ! D14   D(8,7,9,10)          -119.9979         estimate D2E/DX2                !
 ! D15   D(8,7,9,11)             0.0047         estimate D2E/DX2                !
 ! D16   D(8,7,9,15)           120.0023         estimate D2E/DX2                !
 ! D17   D(7,9,11,12)           60.0024         estimate D2E/DX2                !
 ! D18   D(7,9,11,13)          179.9986         estimate D2E/DX2                !
 ! D19   D(7,9,11,14)          -60.0038         estimate D2E/DX2                !
 ! D20   D(10,9,11,12)        -179.4843         estimate D2E/DX2                !
 ! D21   D(10,9,11,13)         -59.4881         estimate D2E/DX2                !
 ! D22   D(10,9,11,14)          60.5095         estimate D2E/DX2                !
 ! D23   D(15,9,11,12)         -61.938          estimate D2E/DX2                !
 ! D24   D(15,9,11,13)          58.0582         estimate D2E/DX2                !
 ! D25   D(15,9,11,14)         178.0558         estimate D2E/DX2                !
 ! D26   D(7,9,15,16)           59.9975         estimate D2E/DX2                !
 ! D27   D(7,9,15,17)         -120.0005         Frozen                          !
 ! D28   D(10,9,15,16)         -60.5135         estimate D2E/DX2                !
 ! D29   D(10,9,15,17)         119.4884         estimate D2E/DX2                !
 ! D30   D(11,9,15,16)        -178.0604         estimate D2E/DX2                !
 ! D31   D(11,9,15,17)           1.9415         estimate D2E/DX2                !
 ! D32   D(9,15,17,18)           0.0029         estimate D2E/DX2                !
 ! D33   D(9,15,17,19)         179.9981         estimate D2E/DX2                !
 ! D34   D(16,15,17,18)       -179.9951         estimate D2E/DX2                !
 ! D35   D(16,15,17,19)          0.0            estimate D2E/DX2                !
 ! D36   D(15,17,19,20)          0.0044         estimate D2E/DX2                !
 ! D37   D(15,17,19,21)        120.0018         estimate D2E/DX2                !
 ! D38   D(15,17,19,22)       -119.9978         estimate D2E/DX2                !
 ! D39   D(18,17,19,20)        179.9996         estimate D2E/DX2                !
 ! D40   D(18,17,19,21)        -60.003          estimate D2E/DX2                !
 ! D41   D(18,17,19,22)         59.9974         estimate D2E/DX2                !
 --------------------------------------------------------------------------------
 Trust Radius=3.00D-01 FncErr=1.00D-07 GrdErr=1.00D-07
 Number of steps in this run= 108 maximum allowed number of steps= 132.
 GradGradGradGradGradGradGradGradGradGradGradGradGradGradGradGradGradGrad

                          Input orientation:                          
 ---------------------------------------------------------------------
 Center     Atomic      Atomic             Coordinates (Angstroms)
 Number     Number       Type             X           Y           Z
 ---------------------------------------------------------------------
      1          1           0        0.687200    3.644600    1.704700
      2          6           0        1.338300    3.422900    0.859100
      3          1           0        0.851700    3.732200   -0.065800
      4          1           0        1.537000    2.351700    0.824000
      5          6           0        2.671500    4.163600    0.981500
      6          8           0        2.893000    4.894300    1.944600
      7          7           0        3.555400    3.969700    0.000000
      8          1           0        3.327300    3.359100   -0.771600
      9          6           0        4.853300    4.613900    0.000000
     10          1           0        5.407600    4.315500    0.889800
     11          6           0        5.661300    4.220800   -1.232200
     12          1           0        5.123300    4.521400   -2.131200
     13          1           0        6.630500    4.718900   -1.205800
     14          1           0        5.808500    3.140900   -1.241400
     15          6           0        4.712700    6.129400    0.000000
     16          8           0        4.127800    6.701600    0.917100
     17          7           0        5.251800    6.779800   -1.033800
     18          1           0        5.722900    6.265100   -1.764000
     19          6           0        5.185100    8.222600   -1.149700
     20          1           0        4.650300    8.632100   -0.292800
     21          1           0        6.194800    8.632400   -1.176900
     22          1           0        4.660100    8.490100   -2.066700
 ---------------------------------------------------------------------
                    Distance matrix (angstroms):
                    1          2          3          4          5
     1  H    0.000000
     2  C    1.090010   0.000000
     3  H    1.780282   1.089902   0.000000
     4  H    1.780276   1.090038   1.779652   0.000000
     5  C    2.174816   1.530046   2.143505   2.143567   0.000000
     6  O    2.546538   2.400088   3.091778   3.091811   1.229043
     7  N    3.352352   2.439790   2.714909   2.714929   1.334998
     8  H    3.630937   2.572814   2.601144   2.601147   2.037315
     9  C    4.604556   3.809430   4.098113   4.098094   2.434412
    10  H    4.836977   4.166159   4.691443   4.340782   2.741847
    11  C    5.805089   4.868111   4.973075   4.973062   3.720570
    12  H    5.929746   4.947203   4.809915   5.128582   3.978473
    13  H    6.704323   5.826732   5.972245   5.972225   4.557008
    14  H    5.929665   4.947152   5.128502   4.809826   3.978438
    15  C    5.028408   4.410189   4.545131   5.003505   2.999035
    16  O    4.669399   4.305177   4.529488   5.063847   2.926841
    17  N    6.177737   5.492479   5.439280   6.071180   4.190929
    18  H    6.652607   5.846663   5.747004   6.287623   4.611411
    19  C    7.024015   6.470724   6.333789   7.188295   5.228353
    20  H    6.676176   6.279489   6.204024   7.098120   5.050444
    21  H    7.969657   7.407414   7.334523   8.071301   6.086256
    22  H    7.313430   6.728386   6.414446   7.469261   5.653729
                    6          7          8          9         10
     6  O    0.000000
     7  N    2.252804   0.000000
     8  H    3.150111   1.010064   0.000000
     9  C    2.775404   1.448978   2.120982   0.000000
    10  H    2.787620   2.083739   2.828887   1.089970   0.000000
    11  C    4.267218   2.452791   2.530264   1.525027   2.139209
    12  H    4.661055   2.702720   2.534772   2.150225   3.041326
    13  H    4.891287   3.386959   3.598432   2.150214   2.459625
    14  H    4.661024   2.702673   2.534695   2.150165   2.466256
    15  C    2.935685   2.450234   3.192062   1.522008   2.136554
    16  O    2.418020   2.938025   3.829467   2.392888   2.707786
    17  N    4.241452   3.441392   3.933654   2.432831   3.130062
    18  H    4.862216   3.616437   3.894688   2.567949   3.308022
    19  C    5.089793   4.697328   5.219963   3.801923   4.412992
    20  H    4.697362   4.798178   5.457482   4.033965   4.539282
    21  H    5.883794   5.485645   6.016188   4.396937   4.850418
    22  H    5.669475   5.091721   5.457179   4.396988   5.169810
                   11         12         13         14         15
    11  C    0.000000
    12  H    1.089957   0.000000
    13  H    1.090023   1.779613   0.000000
    14  H    1.089925   1.779613   1.779617   0.000000
    15  C    2.461892   2.701161   2.668599   3.416575   0.000000
    16  O    3.622911   3.877683   3.834229   4.490263   1.229062
    17  N    2.599141   2.514194   2.485499   3.687086   1.335062
    18  H    2.113236   1.880119   1.877780   3.168764   2.037306
    19  C    4.030878   3.829627   3.790546   5.120616   2.434432
    20  H    4.622138   4.527836   4.479720   5.691621   2.520542
    21  H    4.444085   4.354207   3.937785   5.505448   3.137949
    22  H    4.463823   3.996160   4.341149   5.532981   3.137980
                   16         17         18         19         20
    16  O    0.000000
    17  N    2.252887   0.000000
    18  H    3.150107   1.009972   0.000000
    19  C    2.775425   1.448984   2.120943   0.000000
    20  H    2.337455   2.083722   2.986233   1.089944   0.000000
    21  H    3.519277   2.083711   2.484247   1.090032   1.779638
    22  H    3.519252   2.083775   2.484310   1.089986   1.779601
                   21         22
    21  H    0.000000
    22  H    1.779690   0.000000
 Stoichiometry    C6H12N2O2
 Framework group  C1[X(C6H12N2O2)]
 Deg. of freedom    60
 Full point group                 C1      NOp   1
 Largest Abelian subgroup         C1      NOp   1
 Largest concise Abelian subgroup C1      NOp   1
                         Standard orientation:                         
 ---------------------------------------------------------------------
 Center     Atomic      Atomic             Coordinates (Angstroms)
 Number     Number       Type             X           Y           Z
 ---------------------------------------------------------------------
      1          1           0       -3.872133   -1.147163    0.624206
      2          6           0       -3.277144   -0.256965    0.828309
      3          1           0       -3.010517   -0.231772    1.884794
      4          1           0       -3.855784    0.632457    0.578735
      5          6           0       -1.991165   -0.252029   -0.000710
      6          8           0       -1.743023   -1.175735   -0.772551
      7          7           0       -1.177491    0.793388    0.164390
      8          1           0       -1.425006    1.528717    0.811116
      9          6           0        0.070022    0.915110   -0.562544
     10          1           0       -0.132870    0.930746   -1.633350
     11          6           0        0.801610    2.199218   -0.186305
     12          1           0        1.019860    2.194105    0.881565
     13          1           0        1.734170    2.264201   -0.746891
     14          1           0        0.174529    3.058289   -0.424431
     15          6           0        0.996633   -0.253828   -0.260080
     16          8           0        0.649767   -1.405914   -0.511030
     17          7           0        2.179650    0.045658    0.281370
     18          1           0        2.419631    1.008511    0.469433
     19          6           0        3.149826   -0.977409    0.615505
     20          1           0        2.749276   -1.957303    0.355992
     21          1           0        4.069888   -0.802220    0.057864
     22          1           0        3.361192   -0.943274    1.684256
 ---------------------------------------------------------------------
 Rotational constants (GHZ):      2.2942056      0.8586129      0.7032857
 Standard basis: 6-31G(d) (6D, 7F)
 There are   174 symmetry adapted basis functions of A   symmetry.
 Integral buffers will be    131072 words long.
 Raffenetti 1 integral format.
 Two-electron integral symmetry is turned on.
   174 basis functions,   328 primitive gaussians,   174 cartesian basis functions
    39 alpha electrons       39 beta electrons
       nuclear repulsion energy       567.9495058741 Hartrees.
 NAtoms=   22 NActive=   22 NUniq=   22 SFac= 7.50D-01 NAtFMM=   80 NAOKFM=F Big=F
 One-electron integrals computed using PRISM.
 NBasis=   174 RedAO= T  NBF=   174
 NBsUse=   174 1.00D-06 NBFU=   174
 Harris functional with IExCor=  205 diagonalized for initial guess.
 ExpMin= 1.61D-01 ExpMax= 5.48D+03 ExpMxC= 8.25D+02 IAcc=1 IRadAn=         1 AccDes= 0.00D+00
 HarFok:  IExCor=  205 AccDes= 0.00D+00 IRadAn=         1 IDoV= 1
 ScaDFX=  1.000000  1.000000  1.000000  1.000000
 FoFCou: FMM=F IPFlag=           0 FMFlag=      100000 FMFlg1=           0
         NFxFlg=           0 DoJE=T BraDBF=F KetDBF=T FulRan=T
         Omega=  0.000000  0.000000  1.000000  0.000000  0.000000 ICntrl=     500 IOpCl=  0
         NMat0=    1 NMatS0=    1 NMatT0=    0 NMatD0=    1 NMtDS0=    0 NMtDT0=    0
         I1Cent=           4 NGrid=           0.
 Petite list used in FoFCou.
 Initial guess orbital symmetries:
       Occupied  (A) (A) (A) (A) (A) (A) (A) (A) (A) (A) (A) (A)
                 (A) (A) (A) (A) (A) (A) (A) (A) (A) (A) (A) (A)
                 (A) (A) (A) (A) (A) (A) (A) (A) (A) (A) (A) (A)
                 (A) (A) (A)
       Virtual   (A) (A) (A) (A) (A) (A) (A) (A) (A) (A) (A) (A)
                 (A) (A) (A) (A) (A) (A) (A) (A) (A) (A) (A) (A)
                 (A) (A) (A) (A) (A) (A) (A) (A) (A) (A) (A) (A)
                 (A) (A) (A) (A) (A) (A) (A) (A) (A) (A) (A) (A)
                 (A) (A) (A) (A) (A) (A) (A) (A) (A) (A) (A) (A)
                 (A) (A) (A) (A) (A) (A) (A) (A) (A) (A) (A) (A)
                 (A) (A) (A) (A) (A) (A) (A) (A) (A) (A) (A) (A)
                 (A) (A) (A) (A) (A) (A) (A) (A) (A) (A) (A) (A)
                 (A) (A) (A) (A) (A) (A) (A) (A) (A) (A) (A) (A)
                 (A) (A) (A) (A) (A) (A) (A) (A) (A) (A) (A) (A)
                 (A) (A) (A) (A) (A) (A) (A) (A) (A) (A) (A) (A)
                 (A) (A) (A)
 The electronic state of the initial guess is 1-A.
 Requested convergence on RMS density matrix=1.00D-08 within 128 cycles.
 Requested convergence on MAX density matrix=1.00D-06.
 Requested convergence on             energy=1.00D-06.
 No special actions if energy rises.
 Integral accuracy reduced to 1.0D-05 until final iterations.
 Initial convergence to 1.0D-05 achieved.  Increase integral accuracy.
 SCF Done:  E(RHF) =  -492.808987486     A.U. after   16 cycles
             Convg  =    0.3066D-08             -V/T =  2.0017

 **********************************************************************

            Population analysis using the SCF density.

 **********************************************************************

 Orbital symmetries:
       Occupied  (A) (A) (A) (A) (A) (A) (A) (A) (A) (A) (A) (A)
                 (A) (A) (A) (A) (A) (A) (A) (A) (A) (A) (A) (A)
                 (A) (A) (A) (A) (A) (A) (A) (A) (A) (A) (A) (A)
                 (A) (A) (A)
       Virtual   (A) (A) (A) (A) (A) (A) (A) (A) (A) (A) (A) (A)
                 (A) (A) (A) (A) (A) (A) (A) (A) (A) (A) (A) (A)
                 (A) (A) (A) (A) (A) (A) (A) (A) (A) (A) (A) (A)
                 (A) (A) (A) (A) (A) (A) (A) (A) (A) (A) (A) (A)
                 (A) (A) (A) (A) (A) (A) (A) (A) (A) (A) (A) (A)
                 (A) (A) (A) (A) (A) (A) (A) (A) (A) (A) (A) (A)
                 (A) (A) (A) (A) (A) (A) (A) (A) (A) (A) (A) (A)
                 (A) (A) (A) (A) (A) (A) (A) (A) (A) (A) (A) (A)
                 (A) (A) (A) (A) (A) (A) (A) (A) (A) (A) (A) (A)
                 (A) (A) (A) (A) (A) (A) (A) (A) (A) (A) (A) (A)
                 (A) (A) (A) (A) (A) (A) (A) (A) (A) (A) (A) (A)
                 (A) (A) (A)
 The electronic state is 1-A.
 Alpha  occ. eigenvalues --  -20.49619 -20.49419 -15.59138 -15.58570 -11.33338
 Alpha  occ. eigenvalues --  -11.33239 -11.28518 -11.25498 -11.24929 -11.22787
 Alpha  occ. eigenvalues --   -1.36755  -1.34533  -1.23926  -1.22573  -1.06762
 Alpha  occ. eigenvalues --   -0.98632  -0.95128  -0.89180  -0.80167  -0.78471
 Alpha  occ. eigenvalues --   -0.71804  -0.68612  -0.65233  -0.62853  -0.61647
 Alpha  occ. eigenvalues --   -0.60990  -0.59143  -0.58243  -0.56098  -0.55416
 Alpha  occ. eigenvalues --   -0.54811  -0.54224  -0.52378  -0.50257  -0.48984
 Alpha  occ. eigenvalues --   -0.42805  -0.39059  -0.37445  -0.35144
 Alpha virt. eigenvalues --    0.19646   0.21539   0.21816   0.23023   0.25789
 Alpha virt. eigenvalues --    0.27563   0.27675   0.28526   0.29298   0.31529
 Alpha virt. eigenvalues --    0.32670   0.32932   0.33027   0.34371   0.37827
 Alpha virt. eigenvalues --    0.39452   0.40532   0.45011   0.47409   0.51152
 Alpha virt. eigenvalues --    0.53817   0.59186   0.62485   0.70853   0.71746
 Alpha virt. eigenvalues --    0.73529   0.75050   0.76049   0.76833   0.80640
 Alpha virt. eigenvalues --    0.81881   0.82658   0.83975   0.89145   0.90870
 Alpha virt. eigenvalues --    0.94532   0.96127   0.97432   0.97938   0.99232
 Alpha virt. eigenvalues --    1.00369   1.02677   1.05195   1.07293   1.08583
 Alpha virt. eigenvalues --    1.10388   1.12830   1.13495   1.14438   1.15875
 Alpha virt. eigenvalues --    1.16172   1.17442   1.17609   1.18378   1.21080
 Alpha virt. eigenvalues --    1.21499   1.22645   1.23220   1.24288   1.26890
 Alpha virt. eigenvalues --    1.31824   1.33547   1.37291   1.38525   1.43636
 Alpha virt. eigenvalues --    1.48604   1.55656   1.56736   1.62108   1.64778
 Alpha virt. eigenvalues --    1.67042   1.68781   1.70377   1.74818   1.77197
 Alpha virt. eigenvalues --    1.82214   1.82437   1.87993   1.92993   2.01710
 Alpha virt. eigenvalues --    2.03407   2.07948   2.09954   2.11237   2.14563
 Alpha virt. eigenvalues --    2.16767   2.18252   2.19188   2.22308   2.23850
 Alpha virt. eigenvalues --    2.26818   2.29745   2.33384   2.34365   2.35872
 Alpha virt. eigenvalues --    2.37738   2.41258   2.42889   2.46189   2.47861
 Alpha virt. eigenvalues --    2.52829   2.55107   2.59447   2.60413   2.62773
 Alpha virt. eigenvalues --    2.64781   2.66266   2.70836   2.72436   2.75570
 Alpha virt. eigenvalues --    2.78986   2.81471   2.89330   2.94467   2.99470
 Alpha virt. eigenvalues --    3.03015   3.05970   3.07929   3.12492   3.23909
 Alpha virt. eigenvalues --    3.34333   3.36852   3.42062   3.56144   3.60073
 Alpha virt. eigenvalues --    4.40215   4.44288   4.49228   4.59938   4.64207
 Alpha virt. eigenvalues --    4.68068   4.69972   4.85748   4.88028   5.14731
          Condensed to atoms (all electrons):
              1          2          3          4          5          6
     1  H    0.451449   0.385656  -0.018027  -0.018792  -0.029012   0.003919
     2  C    0.385656   5.264343   0.372663   0.371858   0.372372  -0.067098
     3  H   -0.018027   0.372663   0.527078  -0.026183  -0.037414   0.000934
     4  H   -0.018792   0.371858  -0.026183   0.529318  -0.035957   0.001199
     5  C   -0.029012   0.372372  -0.037414  -0.035957   4.216544   0.605808
     6  O    0.003919  -0.067098   0.000934   0.001199   0.605808   8.156454
     7  N    0.003770  -0.129158   0.004866   0.004426   0.205615  -0.108836
     8  H   -0.000038  -0.000309   0.000398   0.000692  -0.016729   0.002471
     9  C   -0.000083   0.004764  -0.000179  -0.000231  -0.027127   0.017482
    10  H    0.000001   0.000021   0.000000  -0.000005  -0.000900   0.001831
    11  C    0.000001  -0.000053   0.000003  -0.000011   0.004148   0.000314
    12  H    0.000000  -0.000013   0.000000   0.000001  -0.000259  -0.000008
    13  H    0.000000   0.000002   0.000000   0.000000  -0.000002   0.000003
    14  H    0.000000  -0.000005   0.000000   0.000000  -0.000153   0.000000
    15  C    0.000003  -0.000267   0.000026   0.000013  -0.000925  -0.000046
    16  O    0.000007  -0.000097   0.000030  -0.000002   0.009890  -0.040927
    17  N    0.000000  -0.000003  -0.000001   0.000000   0.000062  -0.000025
    18  H    0.000000   0.000000   0.000000   0.000000  -0.000009   0.000005
    19  C    0.000000   0.000000   0.000000   0.000000   0.000002   0.000003
    20  H    0.000000   0.000000   0.000000   0.000000  -0.000004   0.000010
    21  H    0.000000   0.000000   0.000000   0.000000   0.000000   0.000000
    22  H    0.000000   0.000000   0.000000   0.000000   0.000001   0.000000
              7          8          9         10         11         12
     1  H    0.003770  -0.000038  -0.000083   0.000001   0.000001   0.000000
     2  C   -0.129158  -0.000309   0.004764   0.000021  -0.000053  -0.000013
     3  H    0.004866   0.000398  -0.000179   0.000000   0.000003   0.000000
     4  H    0.004426   0.000692  -0.000231  -0.000005  -0.000011   0.000001
     5  C    0.205615  -0.016729  -0.027127  -0.000900   0.004148  -0.000259
     6  O   -0.108836   0.002471   0.017482   0.001831   0.000314  -0.000008
     7  N    7.452168   0.324615   0.190497  -0.042844  -0.055238  -0.001479
     8  H    0.324615   0.329425  -0.028169   0.001996  -0.005535   0.001828
     9  C    0.190497  -0.028169   5.048697   0.409778   0.308070  -0.039602
    10  H   -0.042844   0.001996   0.409778   0.479389  -0.037301   0.004445
    11  C   -0.055238  -0.005535   0.308070  -0.037301   5.276462   0.383453
    12  H   -0.001479   0.001828  -0.039602   0.004445   0.383453   0.539191
    13  H    0.004005   0.000072  -0.040192  -0.002284   0.397751  -0.030413
    14  H   -0.001002   0.001536  -0.030587  -0.003624   0.386394  -0.023469
    15  C   -0.048307   0.002654   0.364871  -0.037991  -0.063036  -0.005105
    16  O    0.002100  -0.000096  -0.084911   0.001111   0.003113  -0.000106
    17  N    0.001512  -0.000194  -0.103117   0.001768  -0.021760  -0.001746
    18  H    0.000142   0.000003  -0.002815   0.000026  -0.002153  -0.000373
    19  C   -0.000171   0.000005   0.004574  -0.000133   0.000113  -0.000119
    20  H   -0.000017   0.000000   0.000629  -0.000015  -0.000059  -0.000017
    21  H   -0.000001   0.000000  -0.000072   0.000013   0.000006   0.000028
    22  H    0.000013   0.000000  -0.000121  -0.000001   0.000000  -0.000025
             13         14         15         16         17         18
     1  H    0.000000   0.000000   0.000003   0.000007   0.000000   0.000000
     2  C    0.000002  -0.000005  -0.000267  -0.000097  -0.000003   0.000000
     3  H    0.000000   0.000000   0.000026   0.000030  -0.000001   0.000000
     4  H    0.000000   0.000000   0.000013  -0.000002   0.000000   0.000000
     5  C   -0.000002  -0.000153  -0.000925   0.009890   0.000062  -0.000009
     6  O    0.000003   0.000000  -0.000046  -0.040927  -0.000025   0.000005
     7  N    0.004005  -0.001002  -0.048307   0.002100   0.001512   0.000142
     8  H    0.000072   0.001536   0.002654  -0.000096  -0.000194   0.000003
     9  C   -0.040192  -0.030587   0.364871  -0.084911  -0.103117  -0.002815
    10  H   -0.002284  -0.003624  -0.037991   0.001111   0.001768   0.000026
    11  C    0.397751   0.386394  -0.063036   0.003113  -0.021760  -0.002153
    12  H   -0.030413  -0.023469  -0.005105  -0.000106  -0.001746  -0.000373
    13  H    0.498894  -0.016986  -0.000430  -0.000068  -0.003312  -0.001005
    14  H   -0.016986   0.490350   0.003544  -0.000058   0.000613   0.000595
    15  C   -0.000430   0.003544   4.174364   0.594620   0.284381  -0.016416
    16  O   -0.000068  -0.000058   0.594620   8.192275  -0.095171   0.002475
    17  N   -0.003312   0.000613   0.284381  -0.095171   7.375416   0.319336
    18  H   -0.001005   0.000595  -0.016416   0.002475   0.319336   0.325063
    19  C    0.000020   0.000006  -0.025093  -0.004624   0.185321  -0.022237
    20  H   -0.000015   0.000001  -0.001378   0.012400  -0.032381   0.002365
    21  H   -0.000040   0.000000   0.000951   0.000373  -0.048667  -0.000896
    22  H    0.000024   0.000000   0.001183   0.000400  -0.048383  -0.001047
             19         20         21         22
     1  H    0.000000   0.000000   0.000000   0.000000
     2  C    0.000000   0.000000   0.000000   0.000000
     3  H    0.000000   0.000000   0.000000   0.000000
     4  H    0.000000   0.000000   0.000000   0.000000
     5  C    0.000002  -0.000004   0.000000   0.000001
     6  O    0.000003   0.000010   0.000000   0.000000
     7  N   -0.000171  -0.000017  -0.000001   0.000013
     8  H    0.000005   0.000000   0.000000   0.000000
     9  C    0.004574   0.000629  -0.000072  -0.000121
    10  H   -0.000133  -0.000015   0.000013  -0.000001
    11  C    0.000113  -0.000059   0.000006   0.000000
    12  H   -0.000119  -0.000017   0.000028  -0.000025
    13  H    0.000020  -0.000015  -0.000040   0.000024
    14  H    0.000006   0.000001   0.000000   0.000000
    15  C   -0.025093  -0.001378   0.000951   0.001183
    16  O   -0.004624   0.012400   0.000373   0.000400
    17  N    0.185321  -0.032381  -0.048667  -0.048383
    18  H   -0.022237   0.002365  -0.000896  -0.001047
    19  C    4.949473   0.395564   0.403245   0.402246
    20  H    0.395564   0.425638  -0.022136  -0.022273
    21  H    0.403245  -0.022136   0.539161  -0.037480
    22  H    0.402246  -0.022273  -0.037480   0.541101
 Mulliken atomic charges:
              1
     1  H    0.221145
     2  C   -0.574679
     3  H    0.175805
     4  H    0.173674
     5  C    0.734048
     6  O   -0.573493
     7  N   -0.806676
     8  H    0.385375
     9  C    0.007846
    10  H    0.224717
    11  C   -0.574682
    12  H    0.173788
    13  H    0.193978
    14  H    0.192845
    15  C    0.772385
    16  O   -0.592734
    17  N   -0.813650
    18  H    0.396940
    19  C   -0.288196
    20  H    0.241686
    21  H    0.165516
    22  H    0.164363
 Sum of Mulliken atomic charges =   0.00000
 Mulliken charges with hydrogens summed into heavy atoms:
              1
     2  C   -0.004056
     5  C    0.734048
     6  O   -0.573493
     7  N   -0.421301
     9  C    0.232563
    11  C   -0.014071
    15  C    0.772385
    16  O   -0.592734
    17  N   -0.416711
    19  C    0.283369
 Sum of Mulliken charges with hydrogens summed into heavy atoms =   0.00000
 Electronic spatial extent (au):  <R**2>=           1722.6842
 Charge=              0.0000 electrons
 Dipole moment (field-independent basis, Debye):
    X=              1.7895    Y=              6.3618    Z=              3.1750  Tot=              7.3318
 Quadrupole moment (field-independent basis, Debye-Ang):
   XX=            -49.8986   YY=            -63.0886   ZZ=            -60.5875
   XY=             -2.6990   XZ=             -3.1054   YZ=             -3.7196
 Traceless Quadrupole moment (field-independent basis, Debye-Ang):
   XX=              7.9597   YY=             -5.2304   ZZ=             -2.7293
   XY=             -2.6990   XZ=             -3.1054   YZ=             -3.7196
 Octapole moment (field-independent basis, Debye-Ang**2):
  XXX=              7.6972  YYY=              7.6568  ZZZ=             -1.5021  XYY=              4.7666
  XXY=              2.8007  XXZ=             12.7196  XZZ=              1.8326  YZZ=              2.9649
  YYZ=              6.9325  XYZ=              1.7841
 Hexadecapole moment (field-independent basis, Debye-Ang**3):
 XXXX=          -1424.5726 YYYY=           -532.7161 ZZZZ=           -180.0436 XXXY=             -4.1343
 XXXZ=              0.4470 YYYX=            -12.0431 YYYZ=             -0.2118 ZZZX=              2.4408
 ZZZY=              2.7803 XXYY=           -329.0274 XXZZ=           -290.8536 YYZZ=           -120.4703
 XXYZ=             -7.6298 YYXZ=             -3.9596 ZZXY=             -3.1215
 N-N= 5.679495058741D+02 E-N=-2.291741023002D+03  KE= 4.919506167175D+02
 Calling FoFJK, ICntrl=      2127 FMM=F ISym2X=0 I1Cent= 0 IOpClX= 0 NMat=1 NMatS=1 NMatT=0.
 ***** Axes restored to original set *****
 -------------------------------------------------------------------
 Center     Atomic                   Forces (Hartrees/Bohr)
 Number     Number              X              Y              Z
 -------------------------------------------------------------------
      1        1           0.008375963    0.000898818   -0.005191978
      2        6           0.008775866    0.001665998   -0.005630242
      3        1          -0.001592549   -0.004496737    0.002283016
      4        1          -0.004503506    0.001871528   -0.001743745
      5        6          -0.022038970    0.035557746    0.075116417
      6        8          -0.015875938   -0.055489657   -0.037200476
      7        7           0.011991177   -0.009040877   -0.029310192
      8        1           0.002504812    0.009431856    0.011997462
      9        6           0.013564819    0.002440850   -0.007257598
     10        1          -0.004789494    0.005316271   -0.001430783
     11        6          -0.002958134   -0.021795029    0.002846653
     12        1           0.004053024   -0.007528981    0.000301970
     13        1          -0.003032504   -0.009807688   -0.000826779
     14        1           0.002442635    0.003952706   -0.003927308
     15        6          -0.036408357    0.026027415    0.061286586
     16        8           0.036935160   -0.005650469   -0.050848193
     17        7           0.010752448    0.007415473   -0.020516080
     18        1          -0.010995264    0.019166603    0.014774949
     19        6           0.000235249    0.002522761   -0.000564935
     20        1           0.004724064   -0.005694646   -0.007211516
     21        1          -0.004666909    0.001291050   -0.000573343
     22        1           0.002506410    0.001945012    0.003626116
 -------------------------------------------------------------------
 Cartesian Forces:  Max     0.075116417 RMS     0.019809269

 GradGradGradGradGradGradGradGradGradGradGradGradGradGradGradGradGradGrad
 Berny optimization.
 Internal  Forces:  Max     0.065002283 RMS     0.016910312
 Search for a local minimum.
 Step number   1 out of a maximum of  108
 All quantities printed in internal units (Hartrees-Bohrs-Radians)
 Mixed Optimization -- RFO/linear search
 Second derivative matrix not updated -- first step.
     Eigenvalues ---    0.00368   0.00435   0.00998   0.01044   0.01269
     Eigenvalues ---    0.01422   0.01660   0.02551   0.02552   0.03503
     Eigenvalues ---    0.05232   0.05841   0.05844   0.05844   0.07165
     Eigenvalues ---    0.07464   0.07685   0.07686   0.15421   0.16000
     Eigenvalues ---    0.16000   0.16000   0.16000   0.16000   0.16000
     Eigenvalues ---    0.16000   0.16000   0.16000   0.16000   0.16000
     Eigenvalues ---    0.16180   0.22000   0.22000   0.25000   0.25000
     Eigenvalues ---    0.25000   0.25000   0.29419   0.29887   0.30174
     Eigenvalues ---    0.34808   0.34809   0.34810   0.34812   0.34814
     Eigenvalues ---    0.34816   0.34818   0.34819   0.34821   0.34824
     Eigenvalues ---    0.38378   0.38379   0.45962   0.45977   0.58326
     Eigenvalues ---    0.58341   0.91478   0.914861000.000001000.00000
     Eigenvalues --- 1000.000001000.000001000.000001000.000001000.00000
     Eigenvalues --- 1000.000001000.000001000.000001000.000001000.00000
     Eigenvalues --- 1000.000001000.000001000.000001000.000001000.00000
     Eigenvalues --- 1000.000001000.000001000.000001000.000001000.00000
     Eigenvalues --- 1000.000001000.000001000.000001000.000001000.00000
     Eigenvalues --- 1000.000001000.000001000.000001000.000001000.00000
     Eigenvalues --- 1000.000001000.000001000.000001000.000001000.00000
     Eigenvalues --- 1000.000001000.000001000.00000
 RFO step:  Lambda=-7.77333208D-02 EMin= 3.68497635D-03
 Linear search not attempted -- first point.
 Maximum step size (   0.300) exceeded in Quadratic search.
    -- Step size scaled by   0.531
 Iteration  1 RMS(Cart)=  0.13714109 RMS(Int)=  0.00482623
 Iteration  2 RMS(Cart)=  0.00887466 RMS(Int)=  0.00055598
 Iteration  3 RMS(Cart)=  0.00002403 RMS(Int)=  0.00055573
 Iteration  4 RMS(Cart)=  0.00000003 RMS(Int)=  0.00055573
 Iteration  1 RMS(Cart)=  0.00035840 RMS(Int)=  0.00015386
 Iteration  2 RMS(Cart)=  0.00023523 RMS(Int)=  0.00017010
 Iteration  3 RMS(Cart)=  0.00015718 RMS(Int)=  0.00019506
 Iteration  4 RMS(Cart)=  0.00010612 RMS(Int)=  0.00021578
 Iteration  5 RMS(Cart)=  0.00007204 RMS(Int)=  0.00023097
 Iteration  6 RMS(Cart)=  0.00004905 RMS(Int)=  0.00024167
 Iteration  7 RMS(Cart)=  0.00003343 RMS(Int)=  0.00024909
 Iteration  8 RMS(Cart)=  0.00002280 RMS(Int)=  0.00025419
 Iteration  9 RMS(Cart)=  0.00001555 RMS(Int)=  0.00025768
 Iteration 10 RMS(Cart)=  0.00001060 RMS(Int)=  0.00026007
 Iteration 11 RMS(Cart)=  0.00000723 RMS(Int)=  0.00026170
 Iteration 12 RMS(Cart)=  0.00000493 RMS(Int)=  0.00026281
 Iteration 13 RMS(Cart)=  0.00000336 RMS(Int)=  0.00026357
 Iteration 14 RMS(Cart)=  0.00000229 RMS(Int)=  0.00026408
 Iteration 15 RMS(Cart)=  0.00000156 RMS(Int)=  0.00026443
 Iteration 16 RMS(Cart)=  0.00000106 RMS(Int)=  0.00026467
 Iteration 17 RMS(Cart)=  0.00000072 RMS(Int)=  0.00026483
 Variable       Old X    -DE/DX   Delta X   Delta X   Delta X     New X
                                 (Linear)    (Quad)   (Total)
    R1        2.05982  -0.00885   0.00000  -0.01103  -0.01103   2.04879
    R2        2.05962  -0.00250   0.00000  -0.00312  -0.00312   2.05650
    R3        2.05987  -0.00260   0.00000  -0.00325  -0.00325   2.05663
    R4        2.89137  -0.00878   0.00000  -0.01253  -0.01253   2.87883
    R5        2.32255  -0.06500   0.00000  -0.03476  -0.03476   2.28779
    R6        2.52278   0.03520   0.00000   0.02826   0.02826   2.55104
    R7        1.90874  -0.01543   0.00000  -0.01525  -0.01525   1.89350
    R8        2.73817   0.01979   0.00000   0.02276   0.02276   2.76093
    R9        2.05975  -0.00506   0.00000  -0.00631  -0.00631   2.05344
   R10        2.88188   0.01063   0.00000   0.01499   0.01499   2.89687
   R11        2.87618   0.04654   0.00000   0.06510   0.06510   2.94128
   R12        2.05972  -0.00433   0.00000  -0.00539  -0.00539   2.05433
   R13        2.05984  -0.00720   0.00000  -0.00897  -0.00897   2.05087
   R14        2.05966  -0.00355   0.00000  -0.00443  -0.00443   2.05523
   R15        2.32259  -0.05815   0.00000  -0.03110  -0.03110   2.29149
   R16        2.52290   0.02212   0.00000   0.01776   0.01776   2.54067
   R17        1.90857  -0.02558   0.00000  -0.02526  -0.02526   1.88331
   R18        2.73818   0.00031   0.00000   0.00036   0.00036   2.73854
   R19        2.05970  -0.01013   0.00000  -0.01262  -0.01262   2.04707
   R20        2.05986  -0.00382   0.00000  -0.00477  -0.00477   2.05510
   R21        2.05978  -0.00378   0.00000  -0.00471  -0.00471   2.05506
    A1        1.91126   0.00024   0.00000  -0.00006   0.00000   1.91126
    A2        1.91107   0.00040   0.00000   0.00025   0.00032   1.91139
    A3        1.93902  -0.00881   0.00000  -0.02028  -0.02022   1.91881
    A4        1.91022  -0.00506   0.00000  -0.00999  -0.01013   1.90009
    A5        1.89603   0.00681   0.00000   0.01550   0.01547   1.91149
    A6        1.89597   0.00647   0.00000   0.01474   0.01470   1.91067
    A7        2.10312  -0.00326   0.00000  -0.00529  -0.00552   2.09760
    A8        2.03509  -0.02226   0.00000  -0.03606  -0.03631   1.99878
    A9        2.14498   0.02553   0.00000   0.04135   0.04108   2.18606
   A10        2.09430  -0.03074   0.00000  -0.05522  -0.05523   2.03907
   A11        2.12762   0.05968   0.00000   0.10641   0.10641   2.23402
   A12        2.06127  -0.02894   0.00000  -0.05119  -0.05120   2.01007
   A13        1.91114   0.00631   0.00000  -0.00689  -0.00758   1.90355
   A14        1.93905  -0.03787   0.00000  -0.06784  -0.07109   1.86796
   A15        1.93900   0.02117   0.00000   0.05264   0.05403   1.99303
   A16        1.89609  -0.00036   0.00000  -0.01459  -0.01543   1.88066
   A17        1.89608  -0.01037   0.00000  -0.03422  -0.03394   1.86214
   A18        1.88137   0.02127   0.00000   0.07081   0.07210   1.95347
   A19        1.91115   0.00719   0.00000   0.01772   0.01758   1.92873
   A20        1.91106   0.00443   0.00000   0.01073   0.01061   1.92167
   A21        1.91110   0.00356   0.00000   0.00547   0.00545   1.91655
   A22        1.91011  -0.00209   0.00000   0.00031   0.00008   1.91018
   A23        1.91023  -0.00663   0.00000  -0.01647  -0.01649   1.89374
   A24        1.91015  -0.00649   0.00000  -0.01779  -0.01778   1.89237
   A25        2.10311   0.01850   0.00000   0.02997   0.02990   2.13301
   A26        2.03508   0.01818   0.00000   0.02945   0.02940   2.06448
   A27        2.14499  -0.03669   0.00000  -0.05943  -0.05946   2.08553
   A28        2.09431   0.00746   0.00000   0.01640   0.01640   2.11071
   A29        2.12756  -0.00116   0.00000  -0.00206  -0.00207   2.12549
   A30        2.06132  -0.00630   0.00000  -0.01433  -0.01433   2.04699
   A31        1.91113  -0.00465   0.00000  -0.01095  -0.01092   1.90021
   A32        1.91103   0.00437   0.00000   0.01004   0.01002   1.92105
   A33        1.91116   0.00430   0.00000   0.00989   0.00986   1.92103
   A34        1.91015  -0.00043   0.00000  -0.00151  -0.00148   1.90867
   A35        1.91015  -0.00043   0.00000  -0.00154  -0.00152   1.90863
   A36        1.91018  -0.00317   0.00000  -0.00594  -0.00601   1.90417
    D1       -0.00008   0.00340   0.00000   0.01999   0.01973   0.01966
    D2        3.14147  -0.00339   0.00000  -0.01990  -0.01964   3.12183
    D3        2.10336   0.00265   0.00000   0.01739   0.01704   2.12040
    D4       -1.03827  -0.00414   0.00000  -0.02251  -0.02233  -1.06061
    D5       -2.10326   0.00418   0.00000   0.02270   0.02252  -2.08073
    D6        1.03829  -0.00262   0.00000  -0.01719  -0.01685   1.02144
    D7        0.00000  -0.00997   0.00000  -0.02476  -0.02414  -0.02414
    D8       -3.14154  -0.00186   0.00000  -0.03100  -0.03088   3.11076
    D9        3.14154  -0.01694   0.00000  -0.06570  -0.06582   3.07573
   D10        0.00000  -0.00884   0.00000  -0.07194  -0.07256  -0.07256
   D11        1.04718  -0.00902   0.00000  -0.01380  -0.01330   1.03389
   D12       -3.14156  -0.02929   0.00000  -0.07928  -0.07772   3.06391
   D13       -1.04721  -0.01359   0.00000   0.00000   0.00000  -1.04721
   D14       -2.09436  -0.00106   0.00000  -0.01993  -0.01995  -2.11430
   D15        0.00008  -0.02133   0.00000  -0.08541  -0.08437  -0.08428
   D16        2.09444  -0.00563   0.00000  -0.00613  -0.00665   2.08779
   D17        1.04724   0.00898   0.00000   0.03630   0.03507   1.08231
   D18        3.14157   0.01355   0.00000   0.05413   0.05301  -3.08860
   D19       -1.04726   0.01051   0.00000   0.04226   0.04107  -1.00619
   D20       -3.13259  -0.00688   0.00000  -0.02365  -0.02315   3.12745
   D21       -1.03826  -0.00230   0.00000  -0.00582  -0.00520  -1.04346
   D22        1.05609  -0.00535   0.00000  -0.01769  -0.01714   1.03895
   D23       -1.08102  -0.00771   0.00000  -0.03324  -0.03267  -1.11369
   D24        1.01331  -0.00314   0.00000  -0.01541  -0.01472   0.99858
   D25        3.10766  -0.00618   0.00000  -0.02728  -0.02667   3.08099
   D26        1.04715   0.01483   0.00000   0.02025   0.01967   1.06683
   D27       -2.09440   0.01287   0.00000   0.00000   0.00000  -2.09441
   D28       -1.05616   0.00063   0.00000   0.01833   0.01866  -1.03750
   D29        2.08547  -0.00133   0.00000  -0.00193  -0.00101   2.08445
   D30       -3.10774  -0.00501   0.00000   0.01522   0.01708  -3.09066
   D31        0.03389  -0.00697   0.00000  -0.00503  -0.00259   0.03129
   D32        0.00005   0.00137   0.00000   0.01232   0.01150   0.01155
   D33        3.14156   0.00118   0.00000   0.01126   0.01042  -3.13121
   D34       -3.14151  -0.00064   0.00000  -0.00846  -0.00763   3.13405
   D35        0.00000  -0.00083   0.00000  -0.00953  -0.00871  -0.00871
   D36        0.00008   0.00011   0.00000   0.00063   0.00063   0.00071
   D37        2.09443  -0.00059   0.00000  -0.00177  -0.00181   2.09262
   D38       -2.09436   0.00085   0.00000   0.00317   0.00321  -2.09115
   D39        3.14159  -0.00008   0.00000  -0.00041  -0.00041   3.14118
   D40       -1.04725  -0.00078   0.00000  -0.00281  -0.00285  -1.05010
   D41        1.04715   0.00066   0.00000   0.00213   0.00217   1.04932
         Item               Value     Threshold  Converged?
 Maximum Force            0.065002     0.000450     NO 
 RMS     Force            0.016861     0.000300     NO 
 Maximum Displacement     0.370639     0.001800     NO 
 RMS     Displacement     0.137914     0.001200     NO 
 Predicted change in Energy=-3.371634D-02
 GradGradGradGradGradGradGradGradGradGradGradGradGradGradGradGradGradGrad

                          Input orientation:                          
 ---------------------------------------------------------------------
 Center     Atomic      Atomic             Coordinates (Angstroms)
 Number     Number       Type             X           Y           Z
 ---------------------------------------------------------------------
      1          1           0        0.657366    3.448466    1.632296
      2          6           0        1.348999    3.319162    0.807460
      3          1           0        0.880624    3.655147   -0.115595
      4          1           0        1.604789    2.265901    0.709208
      5          6           0        2.615168    4.127913    1.059502
      6          8           0        2.734912    4.769159    2.079370
      7          7           0        3.553819    4.014022    0.096000
      8          1           0        3.343883    3.403083   -0.669947
      9          6           0        4.851267    4.681527    0.020803
     10          1           0        5.437479    4.417687    0.896882
     11          6           0        5.573128    4.122183   -1.210462
     12          1           0        5.014862    4.349427   -2.115167
     13          1           0        6.569009    4.547175   -1.284103
     14          1           0        5.665877    3.041996   -1.124278
     15          6           0        4.768254    6.235463   -0.010200
     16          8           0        4.281224    6.874996    0.897657
     17          7           0        5.277238    6.879550   -1.074937
     18          1           0        5.688345    6.375670   -1.830130
     19          6           0        5.251981    8.324945   -1.176433
     20          1           0        4.778953    8.730254   -0.290187
     21          1           0        6.265627    8.711431   -1.252784
     22          1           0        4.688595    8.627442   -2.056053
 ---------------------------------------------------------------------
                    Distance matrix (angstroms):
                    1          2          3          4          5
     1  H    0.000000
     2  C    1.084173   0.000000
     3  H    1.774171   1.088252   0.000000
     4  H    1.774306   1.088320   1.770513   0.000000
     5  C    2.150054   1.523413   2.147791   2.147245   0.000000
     6  O    2.502060   2.375079   3.081765   3.069336   1.210646
     7  N    3.327086   2.418726   2.705464   2.688991   1.349953
     8  H    3.538327   2.483815   2.537418   2.493933   2.011815
     9  C    4.658987   3.839368   4.103421   4.104726   2.526959
    10  H    4.932516   4.234433   4.729853   4.399423   2.841804
    11  C    5.718382   4.749749   4.841121   4.783162   3.728578
    12  H    5.817472   4.800181   4.644592   4.893544   3.985740
    13  H    6.682819   5.755967   5.875275   5.815581   4.615314
    14  H    5.731414   4.737496   4.928696   4.522879   3.905757
    15  C    5.231113   4.567787   4.667205   5.126644   3.197156
    16  O    5.041146   4.609776   4.791471   5.333159   3.216894
    17  N    6.359612   5.625908   5.536003   6.160829   4.383373
    18  H    6.772567   5.926976   5.784035   6.325652   4.779833
    19  C    7.264950   6.650335   6.483915   7.319130   5.437579
    20  H    6.969986   6.499948   6.401888   7.270624   5.261670
    21  H    8.214321   7.582506   7.473785   8.192538   6.299298
    22  H    7.528381   6.894232   6.556656   7.591161   5.852482
                    6          7          8          9         10
     6  O    0.000000
     7  N    2.274773   0.000000
     8  H    3.129816   1.001996   0.000000
     9  C    2.953698   1.461023   2.093743   0.000000
    10  H    2.970804   2.086273   2.804910   1.086633   0.000000
    11  C    4.392840   2.407520   2.403913   1.532959   2.132281
    12  H    4.792545   2.671405   2.403414   2.167815   3.042319
    13  H    5.105147   3.358617   3.476719   2.161358   2.460452
    14  H    4.673008   2.625777   2.393420   2.159366   2.455561
    15  C    3.263561   2.533955   3.238282   1.556460   2.138917
    16  O    2.867417   3.058913   3.923032   2.430047   2.715749
    17  N    4.568022   3.542953   3.998463   2.492669   3.158246
    18  H    5.156339   3.720694   3.959647   2.645141   3.366485
    19  C    5.438704   4.804883   5.303027   3.855961   4.427155
    20  H    5.048086   4.888040   5.530135   4.061297   4.521175
    21  H    6.253855   5.589166   6.087270   4.456743   4.872692
    22  H    5.983723   5.215620   5.569872   4.462066   5.196411
                   11         12         13         14         15
    11  C    0.000000
    12  H    1.087103   0.000000
    13  H    1.085274   1.773456   0.000000
    14  H    1.087582   1.764953   1.762598   0.000000
    15  C    2.560156   2.837046   2.777745   3.499303   0.000000
    16  O    3.700157   3.999229   3.925913   4.549437   1.212603
    17  N    2.776507   2.748170   2.674396   3.857498   1.344462
    18  H    2.339972   2.154179   2.101692   3.407655   2.044106
    19  C    4.215151   4.091722   4.002212   5.299394   2.441317
    20  H    4.765704   4.751615   4.657287   5.817097   2.510476
    21  H    4.641395   4.619004   4.175411   5.702518   3.149057
    22  H    4.668488   4.290846   4.558558   5.746346   3.148559
                   16         17         18         19         20
    16  O    0.000000
    17  N    2.209795   0.000000
    18  H    3.109684   0.996604   0.000000
    19  C    2.710456   1.449174   2.101762   0.000000
    20  H    2.258470   2.071045   2.956769   1.083265   0.000000
    21  H    3.454670   2.089098   2.474341   1.087510   1.771198
    22  H    3.458529   2.089071   2.474069   1.087493   1.771163
                   21         22
    21  H    0.000000
    22  H    1.771814   0.000000
 Stoichiometry    C6H12N2O2
 Framework group  C1[X(C6H12N2O2)]
 Deg. of freedom    60
 Full point group                 C1      NOp   1
 Largest Abelian subgroup         C1      NOp   1
 Largest concise Abelian subgroup C1      NOp   1
                         Standard orientation:                         
 ---------------------------------------------------------------------
 Center     Atomic      Atomic             Coordinates (Angstroms)
 Number     Number       Type             X           Y           Z
 ---------------------------------------------------------------------
      1          1           0       -3.962883   -1.063277    0.738061
      2          6           0       -3.314718   -0.206211    0.882116
      3          1           0       -3.014394   -0.149196    1.926551
      4          1           0       -3.851412    0.703589    0.620077
      5          6           0       -2.077397   -0.337007    0.003073
      6          8           0       -1.949877   -1.291820   -0.730231
      7          7           0       -1.214694    0.697459    0.092488
      8          1           0       -1.473421    1.450865    0.700300
      9          6           0        0.068994    0.859395   -0.586122
     10          1           0       -0.091391    0.830996   -1.660479
     11          6           0        0.592909    2.254937   -0.228435
     12          1           0        0.755927    2.337423    0.843206
     13          1           0        1.523733    2.449317   -0.751504
     14          1           0       -0.132561    3.008499   -0.526211
     15          6           0        1.107833   -0.252708   -0.259616
     16          8           0        0.906638   -1.420648   -0.516216
     17          7           0        2.272652    0.109650    0.305603
     18          1           0        2.463157    1.064162    0.519691
     19          6           0        3.298451   -0.861350    0.629640
     20          1           0        2.951638   -1.846583    0.342411
     21          1           0        4.214453   -0.630371    0.090876
     22          1           0        3.500933   -0.847789    1.698030
 ---------------------------------------------------------------------
 Rotational constants (GHZ):      2.2524905      0.7936578      0.6577900
 Standard basis: 6-31G(d) (6D, 7F)
 There are   174 symmetry adapted basis functions of A   symmetry.
 Integral buffers will be    131072 words long.
 Raffenetti 1 integral format.
 Two-electron integral symmetry is turned on.
   174 basis functions,   328 primitive gaussians,   174 cartesian basis functions
    39 alpha electrons       39 beta electrons
       nuclear repulsion energy       557.4954653246 Hartrees.
 NAtoms=   22 NActive=   22 NUniq=   22 SFac= 7.50D-01 NAtFMM=   80 NAOKFM=F Big=F
 One-electron integrals computed using PRISM.
 NBasis=   174 RedAO= T  NBF=   174
 NBsUse=   174 1.00D-06 NBFU=   174
 Initial guess read from the read-write file.
 B after Tr=     0.000000    0.000000    0.000000
         Rot=    1.000000    0.000000    0.000000    0.000000 Ang=   0.00 deg.
 Initial guess orbital symmetries:
       Occupied  (A) (A) (A) (A) (A) (A) (A) (A) (A) (A) (A) (A)
                 (A) (A) (A) (A) (A) (A) (A) (A) (A) (A) (A) (A)
                 (A) (A) (A) (A) (A) (A) (A) (A) (A) (A) (A) (A)
                 (A) (A) (A)
       Virtual   (A) (A) (A) (A) (A) (A) (A) (A) (A) (A) (A) (A)
                 (A) (A) (A) (A) (A) (A) (A) (A) (A) (A) (A) (A)
                 (A) (A) (A) (A) (A) (A) (A) (A) (A) (A) (A) (A)
                 (A) (A) (A) (A) (A) (A) (A) (A) (A) (A) (A) (A)
                 (A) (A) (A) (A) (A) (A) (A) (A) (A) (A) (A) (A)
                 (A) (A) (A) (A) (A) (A) (A) (A) (A) (A) (A) (A)
                 (A) (A) (A) (A) (A) (A) (A) (A) (A) (A) (A) (A)
                 (A) (A) (A) (A) (A) (A) (A) (A) (A) (A) (A) (A)
                 (A) (A) (A) (A) (A) (A) (A) (A) (A) (A) (A) (A)
                 (A) (A) (A) (A) (A) (A) (A) (A) (A) (A) (A) (A)
                 (A) (A) (A) (A) (A) (A) (A) (A) (A) (A) (A) (A)
                 (A) (A) (A)
 Harris functional with IExCor=  205 diagonalized for initial guess.
 ExpMin= 1.61D-01 ExpMax= 5.48D+03 ExpMxC= 8.25D+02 IAcc=1 IRadAn=         1 AccDes= 0.00D+00
 HarFok:  IExCor=  205 AccDes= 0.00D+00 IRadAn=         1 IDoV= 1
 ScaDFX=  1.000000  1.000000  1.000000  1.000000
 FoFCou: FMM=F IPFlag=           0 FMFlag=      100000 FMFlg1=           0
         NFxFlg=           0 DoJE=T BraDBF=F KetDBF=T FulRan=T
         Omega=  0.000000  0.000000  1.000000  0.000000  0.000000 ICntrl=     500 IOpCl=  0
         NMat0=    1 NMatS0=    1 NMatT0=    0 NMatD0=    1 NMtDS0=    0 NMtDT0=    0
         I1Cent=           4 NGrid=           0.
 Petite list used in FoFCou.
 Requested convergence on RMS density matrix=1.00D-08 within 128 cycles.
 Requested convergence on MAX density matrix=1.00D-06.
 Requested convergence on             energy=1.00D-06.
 No special actions if energy rises.
 Integral accuracy reduced to 1.0D-05 until final iterations.
 Initial convergence to 1.0D-05 achieved.  Increase integral accuracy.
 SCF Done:  E(RHF) =  -492.829674851     A.U. after   14 cycles
             Convg  =    0.5575D-08             -V/T =  2.0019
 Calling FoFJK, ICntrl=      2127 FMM=F ISym2X=0 I1Cent= 0 IOpClX= 0 NMat=1 NMatS=1 NMatT=0.
 ***** Axes restored to original set *****
 -------------------------------------------------------------------
 Center     Atomic                   Forces (Hartrees/Bohr)
 Number     Number              X              Y              Z
 -------------------------------------------------------------------
      1        1           0.004319815    0.000875554   -0.002197806
      2        6           0.004416969    0.001252536   -0.005467262
      3        1          -0.001136868   -0.003041477    0.001237847
      4        1          -0.002897524    0.000911338   -0.000970997
      5        6          -0.012513752    0.011702703    0.044807151
      6        8           0.002906254   -0.017086864   -0.026223650
      7        7           0.007597244    0.004454327   -0.018042650
      8        1          -0.000042945    0.006359072    0.005265724
      9        6           0.004030096    0.001296315   -0.002876418
     10        1          -0.003661207    0.005120948    0.000945669
     11        6          -0.000927757   -0.003419226    0.005120845
     12        1           0.001999962   -0.001682961   -0.000525208
     13        1          -0.000710091   -0.003597308   -0.001400655
     14        1           0.001048831    0.002549687   -0.001029518
     15        6          -0.019898095    0.016023165    0.028886509
     16        8           0.009447299   -0.022154494   -0.014184339
     17        7           0.007183200   -0.003463746   -0.014363323
     18        1          -0.003220876    0.003805808    0.004466389
     19        6           0.000451392    0.001432391   -0.000340270
     20        1           0.002519211   -0.002639888   -0.004664268
     21        1          -0.002363263    0.000610651   -0.000205296
     22        1           0.001452106    0.000691470    0.001761526
 -------------------------------------------------------------------
 Cartesian Forces:  Max     0.044807151 RMS     0.010020384

 GradGradGradGradGradGradGradGradGradGradGradGradGradGradGradGradGradGrad
 Berny optimization.
 Using GEDIIS/GDIIS optimizer.
 Internal  Forces:  Max     0.030854200 RMS     0.005626097
 Search for a local minimum.
 Step number   2 out of a maximum of  108
 All quantities printed in internal units (Hartrees-Bohrs-Radians)
 Mixed Optimization -- RFO/linear search
 Update second derivatives using D2CorX and points    1    2
 DE= -2.07D-02 DEPred=-3.37D-02 R= 6.14D-01
 SS=  1.41D+00  RLast= 3.00D-01 DXNew= 5.0454D-01 8.9939D-01
 Trust test= 6.14D-01 RLast= 3.00D-01 DXMaxT set to 5.05D-01
 Use linear search instead of GDIIS.
     Eigenvalues ---    0.00368   0.00435   0.00966   0.01044   0.01331
     Eigenvalues ---    0.01446   0.01672   0.02551   0.02663   0.03316
     Eigenvalues ---    0.05303   0.05678   0.05782   0.06194   0.07237
     Eigenvalues ---    0.07323   0.07591   0.07715   0.15514   0.15983
     Eigenvalues ---    0.16000   0.16000   0.16000   0.16000   0.16000
     Eigenvalues ---    0.16000   0.16000   0.16000   0.16001   0.16023
     Eigenvalues ---    0.17735   0.21914   0.22915   0.24811   0.24983
     Eigenvalues ---    0.24999   0.28706   0.29415   0.29889   0.34572
     Eigenvalues ---    0.34799   0.34808   0.34809   0.34813   0.34815
     Eigenvalues ---    0.34815   0.34817   0.34821   0.34824   0.37549
     Eigenvalues ---    0.38378   0.44994   0.45891   0.54509   0.57809
     Eigenvalues ---    0.61578   0.86079   0.914961000.000001000.00000
     Eigenvalues --- 1000.000001000.000001000.000001000.000001000.00000
     Eigenvalues --- 1000.000001000.000001000.000001000.000001000.00000
     Eigenvalues --- 1000.000001000.000001000.000001000.000001000.00000
     Eigenvalues --- 1000.000001000.000001000.000001000.000001000.00000
     Eigenvalues --- 1000.000001000.000001000.000001000.000001000.00000
     Eigenvalues --- 1000.000001000.000001000.000001000.000001000.00000
     Eigenvalues --- 1000.000001000.000001000.000001000.000001000.00000
     Eigenvalues --- 1000.000001000.000001000.00000
 RFO step:  Lambda=-1.16502435D-02 EMin= 3.68497662D-03
 Quartic linear search produced a step of  0.17873.
 Iteration  1 RMS(Cart)=  0.08961708 RMS(Int)=  0.00370182
 Iteration  2 RMS(Cart)=  0.00577133 RMS(Int)=  0.00043443
 Iteration  3 RMS(Cart)=  0.00001296 RMS(Int)=  0.00043437
 Iteration  4 RMS(Cart)=  0.00000001 RMS(Int)=  0.00043437
 Iteration  1 RMS(Cart)=  0.00016758 RMS(Int)=  0.00006112
 Iteration  2 RMS(Cart)=  0.00008810 RMS(Int)=  0.00006832
 Iteration  3 RMS(Cart)=  0.00004634 RMS(Int)=  0.00007683
 Iteration  4 RMS(Cart)=  0.00002440 RMS(Int)=  0.00008221
 Iteration  5 RMS(Cart)=  0.00001286 RMS(Int)=  0.00008523
 Iteration  6 RMS(Cart)=  0.00000679 RMS(Int)=  0.00008687
 Iteration  7 RMS(Cart)=  0.00000359 RMS(Int)=  0.00008774
 Iteration  8 RMS(Cart)=  0.00000191 RMS(Int)=  0.00008820
 Iteration  9 RMS(Cart)=  0.00000102 RMS(Int)=  0.00008845
 Iteration 10 RMS(Cart)=  0.00000055 RMS(Int)=  0.00008858
 Variable       Old X    -DE/DX   Delta X   Delta X   Delta X     New X
                                 (Linear)    (Quad)   (Total)
    R1        2.04879  -0.00432  -0.00197  -0.01202  -0.01400   2.03479
    R2        2.05650  -0.00150  -0.00056  -0.00430  -0.00485   2.05164
    R3        2.05663  -0.00148  -0.00058  -0.00420  -0.00478   2.05185
    R4        2.87883  -0.00268  -0.00224  -0.00800  -0.01024   2.86859
    R5        2.28779  -0.03085  -0.00621  -0.03228  -0.03850   2.24929
    R6        2.55104   0.01094   0.00505   0.01620   0.02125   2.57229
    R7        1.89350  -0.00789  -0.00272  -0.01673  -0.01946   1.87404
    R8        2.76093  -0.00491   0.00407  -0.01859  -0.01452   2.74641
    R9        2.05344  -0.00246  -0.00113  -0.00682  -0.00795   2.04549
   R10        2.89687   0.00117   0.00268   0.00173   0.00441   2.90128
   R11        2.94128  -0.00548   0.01164  -0.03191  -0.02027   2.92101
   R12        2.05433  -0.00094  -0.00096  -0.00208  -0.00305   2.05128
   R13        2.05087  -0.00197  -0.00160  -0.00476  -0.00636   2.04451
   R14        2.05523  -0.00252  -0.00079  -0.00738  -0.00817   2.04706
   R15        2.29149  -0.02610  -0.00556  -0.02699  -0.03255   2.25894
   R16        2.54067   0.01306   0.00317   0.02229   0.02547   2.56613
   R17        1.88331  -0.00664  -0.00452  -0.01179  -0.01631   1.86700
   R18        2.73854   0.00030   0.00006   0.00082   0.00088   2.73943
   R19        2.04707  -0.00590  -0.00226  -0.01685  -0.01911   2.02797
   R20        2.05510  -0.00197  -0.00085  -0.00553  -0.00638   2.04871
   R21        2.05506  -0.00198  -0.00084  -0.00558  -0.00642   2.04864
    A1        1.91126  -0.00015   0.00000  -0.00294  -0.00265   1.90860
    A2        1.91139  -0.00008   0.00006  -0.00374  -0.00346   1.90793
    A3        1.91881  -0.00495  -0.00361  -0.03281  -0.03617   1.88264
    A4        1.90009  -0.00328  -0.00181  -0.01544  -0.01789   1.88220
    A5        1.91149   0.00453   0.00276   0.02977   0.03233   1.94383
    A6        1.91067   0.00395   0.00263   0.02537   0.02776   1.93844
    A7        2.09760   0.00860  -0.00099   0.03905   0.03788   2.13548
    A8        1.99878  -0.00501  -0.00649  -0.01625  -0.02290   1.97588
    A9        2.18606  -0.00361   0.00734  -0.02354  -0.01634   2.16971
   A10        2.03907  -0.00175  -0.00987  -0.00089  -0.01120   2.02787
   A11        2.23402   0.00197   0.01902  -0.00848   0.01010   2.24412
   A12        2.01007  -0.00020  -0.00915   0.00908  -0.00051   2.00956
   A13        1.90355   0.00207  -0.00136  -0.01797  -0.02087   1.88268
   A14        1.86796  -0.00265  -0.01271   0.01704   0.00369   1.87165
   A15        1.99303  -0.00436   0.00966  -0.03308  -0.02557   1.96746
   A16        1.88066  -0.00149  -0.00276   0.00130  -0.00062   1.88004
   A17        1.86214  -0.00174  -0.00607  -0.04270  -0.04986   1.81229
   A18        1.95347   0.00826   0.01289   0.07494   0.08842   2.04189
   A19        1.92873   0.00294   0.00314   0.02089   0.02370   1.95243
   A20        1.92167   0.00344   0.00190   0.02236   0.02395   1.94562
   A21        1.91655   0.00036   0.00097  -0.00294  -0.00192   1.91464
   A22        1.91018  -0.00230   0.00001  -0.00690  -0.00750   1.90269
   A23        1.89374  -0.00182  -0.00295  -0.01099  -0.01392   1.87982
   A24        1.89237  -0.00282  -0.00318  -0.02380  -0.02690   1.86547
   A25        2.13301  -0.00749   0.00534  -0.03865  -0.03335   2.09966
   A26        2.06448  -0.00787   0.00525  -0.04026  -0.03507   2.02941
   A27        2.08553   0.01535  -0.01063   0.07865   0.06794   2.15347
   A28        2.11071  -0.00180   0.00293  -0.01086  -0.00794   2.10277
   A29        2.12549   0.00466  -0.00037   0.02380   0.02342   2.14892
   A30        2.04699  -0.00286  -0.00256  -0.01294  -0.01551   2.03148
   A31        1.90021  -0.00135  -0.00195  -0.00828  -0.01019   1.89002
   A32        1.92105   0.00194   0.00179   0.01209   0.01384   1.93488
   A33        1.92103   0.00171   0.00176   0.01033   0.01205   1.93307
   A34        1.90867  -0.00041  -0.00027  -0.00331  -0.00354   1.90513
   A35        1.90863  -0.00037  -0.00027  -0.00335  -0.00359   1.90505
   A36        1.90417  -0.00153  -0.00107  -0.00761  -0.00880   1.89537
    D1        0.01966   0.00018   0.00353   0.00958   0.01327   0.03293
    D2        3.12183  -0.00035  -0.00351  -0.01074  -0.01437   3.10746
    D3        2.12040  -0.00024   0.00305   0.00420   0.00702   2.12743
    D4       -1.06061  -0.00077  -0.00399  -0.01611  -0.02062  -1.08123
    D5       -2.08073   0.00088   0.00403   0.01868   0.02320  -2.05754
    D6        1.02144   0.00035  -0.00301  -0.00163  -0.00445   1.01700
    D7       -0.02414  -0.00305  -0.00431  -0.02733  -0.03183  -0.05597
    D8        3.11076  -0.00109  -0.00552  -0.08426  -0.09003   3.02073
    D9        3.07573  -0.00330  -0.01176  -0.04719  -0.05870   3.01703
   D10       -0.07256  -0.00134  -0.01297  -0.10412  -0.11690  -0.18945
   D11        1.03389  -0.00585  -0.00238  -0.08851  -0.09062   0.94327
   D12        3.06391  -0.00797  -0.01389  -0.08704  -0.09998   2.96393
   D13       -1.04721  -0.00228   0.00000   0.00000   0.00000  -1.04721
   D14       -2.11430  -0.00393  -0.00356  -0.14467  -0.14834  -2.26265
   D15       -0.08428  -0.00604  -0.01508  -0.14320  -0.15771  -0.24199
   D16        2.08779  -0.00035  -0.00119  -0.05616  -0.05773   2.03006
   D17        1.08231  -0.00111   0.00627   0.01193   0.01862   1.10093
   D18       -3.08860   0.00019   0.00948   0.03160   0.04184  -3.04676
   D19       -1.00619  -0.00093   0.00734   0.01429   0.02220  -0.98399
   D20        3.12745  -0.00082  -0.00414   0.00044  -0.00411   3.12334
   D21       -1.04346   0.00047  -0.00093   0.02011   0.01911  -1.02435
   D22        1.03895  -0.00065  -0.00306   0.00280  -0.00053   1.03842
   D23       -1.11369   0.00081  -0.00584  -0.00842  -0.01476  -1.12845
   D24        0.99858   0.00211  -0.00263   0.01125   0.00846   1.00705
   D25        3.08099   0.00099  -0.00477  -0.00605  -0.01118   3.06982
   D26        1.06683   0.00053   0.00352   0.01420   0.01754   1.08437
   D27       -2.09441   0.00043   0.00000   0.00000   0.00000  -2.09440
   D28       -1.03750   0.00183   0.00334   0.08692   0.08901  -0.94849
   D29        2.08445   0.00172  -0.00018   0.07272   0.07147   2.15592
   D30       -3.09066   0.00015   0.00305   0.07029   0.07391  -3.01675
   D31        0.03129   0.00004  -0.00046   0.05608   0.05637   0.08766
   D32        0.01155   0.00064   0.00205   0.02241   0.02488   0.03643
   D33       -3.13121   0.00050   0.00186   0.01672   0.01899  -3.11222
   D34        3.13405   0.00028  -0.00136   0.00729   0.00553   3.13957
   D35       -0.00871   0.00014  -0.00156   0.00160  -0.00037  -0.00907
   D36        0.00071   0.00005   0.00011   0.00300   0.00311   0.00382
   D37        2.09262  -0.00012  -0.00032   0.00114   0.00075   2.09336
   D38       -2.09115   0.00030   0.00057   0.00597   0.00660  -2.08455
   D39        3.14118  -0.00008  -0.00007  -0.00249  -0.00256   3.13862
   D40       -1.05010  -0.00025  -0.00051  -0.00436  -0.00492  -1.05502
   D41        1.04932   0.00017   0.00039   0.00048   0.00093   1.05025
         Item               Value     Threshold  Converged?
 Maximum Force            0.030854     0.000450     NO 
 RMS     Force            0.005673     0.000300     NO 
 Maximum Displacement     0.320009     0.001800     NO 
 RMS     Displacement     0.090890     0.001200     NO 
 Predicted change in Energy=-5.566716D-03
 GradGradGradGradGradGradGradGradGradGradGradGradGradGradGradGradGradGrad

                          Input orientation:                          
 ---------------------------------------------------------------------
 Center     Atomic      Atomic             Coordinates (Angstroms)
 Number     Number       Type             X           Y           Z
 ---------------------------------------------------------------------
      1          1           0        0.706374    3.471770    1.614623
      2          6           0        1.358665    3.386503    0.762172
      3          1           0        0.875517    3.824488   -0.105840
      4          1           0        1.536484    2.336680    0.549575
      5          6           0        2.655017    4.103135    1.094153
      6          8           0        2.848408    4.612273    2.152516
      7          7           0        3.580717    4.025809    0.099183
      8          1           0        3.329876    3.481046   -0.690613
      9          6           0        4.866573    4.696347    0.003535
     10          1           0        5.424888    4.474022    0.903815
     11          6           0        5.619076    4.070677   -1.179427
     12          1           0        5.104497    4.238707   -2.120312
     13          1           0        6.627429    4.455334   -1.255513
     14          1           0        5.700769    3.000176   -1.035205
     15          6           0        4.739354    6.236765    0.018382
     16          8           0        4.279548    6.794828    0.970261
     17          7           0        5.214818    6.889800   -1.073167
     18          1           0        5.587613    6.384980   -1.836235
     19          6           0        5.203043    8.333847   -1.199856
     20          1           0        4.772439    8.746691   -0.307781
     21          1           0        6.209250    8.719031   -1.320374
     22          1           0        4.611046    8.639690   -2.054993
 ---------------------------------------------------------------------
                    Distance matrix (angstroms):
                    1          2          3          4          5
     1  H    0.000000
     2  C    1.076767   0.000000
     3  H    1.764374   1.085683   0.000000
     4  H    1.764041   1.085793   1.754998   0.000000
     5  C    2.113462   1.517992   2.164312   2.160565   0.000000
     6  O    2.485636   2.378003   3.100496   3.077156   1.190275
     7  N    3.296265   2.405365   2.720417   2.689777   1.361199
     8  H    3.492415   2.450550   2.546328   2.462497   2.006942
     9  C    4.626279   3.820555   4.086640   4.117728   2.536204
    10  H    4.875872   4.211523   4.705111   4.451225   2.801066
    11  C    5.683313   4.731702   4.869758   4.760646   3.735755
    12  H    5.820775   4.802731   4.702546   4.845278   4.043651
    13  H    6.653118   5.742241   5.899509   5.802134   4.628718
    14  H    5.673444   4.715260   4.982596   4.504778   3.876505
    15  C    5.143745   4.484002   4.556726   5.074565   3.170824
    16  O    4.921940   4.493499   4.644172   5.251329   3.146373
    17  N    6.263642   5.523719   5.400129   6.074071   4.360661
    18  H    6.649940   5.798843   5.635089   6.204229   4.732241
    19  C    7.195910   6.565440   6.344971   7.243630   5.445534
    20  H    6.932050   6.444398   6.281310   7.231508   5.292590
    21  H    8.150436   7.503401   7.340323   8.128091   6.306268
    22  H    7.444458   6.790462   6.398402   7.480952   5.858626
                    6          7          8          9         10
     6  O    0.000000
     7  N    2.257519   0.000000
     8  H    3.097559   0.991699   0.000000
     9  C    2.949268   1.453340   2.078518   0.000000
    10  H    2.866464   2.061382   2.813766   1.082426   0.000000
    11  C    4.367124   2.406608   2.413926   1.535292   2.130796
    12  H    4.846292   2.700628   2.401535   2.185582   3.050143
    13  H    5.091198   3.361867   3.484567   2.178050   2.471670
    14  H    4.571256   2.614074   2.443587   2.156817   2.451149
    15  C    3.281643   2.497458   3.175420   1.545734   2.088351
    16  O    2.865211   2.985734   3.826425   2.383858   2.588891
    17  N    4.603483   3.499591   3.913944   2.468157   3.128669
    18  H    5.153238   3.652281   3.852617   2.599256   3.344564
    19  C    5.534692   4.783161   5.226639   3.846137   4.401465
    20  H    5.181541   4.885954   5.473077   4.063381   4.488803
    21  H    6.342057   5.563332   6.010315   4.442691   4.856166
    22  H    6.085237   5.195185   5.487672   4.455647   5.173942
                   11         12         13         14         15
    11  C    0.000000
    12  H    1.085491   0.000000
    13  H    1.081909   1.764689   0.000000
    14  H    1.083258   1.751274   1.739172   0.000000
    15  C    2.626898   2.949504   2.891562   3.536930   0.000000
    16  O    3.719743   4.094623   3.992474   4.521189   1.195379
    17  N    2.849942   2.852538   2.820522   3.920047   1.357940
[...]
    12  H    5.913362   4.898036   4.960927   4.790295   4.092395
    13  H    6.676153   5.786802   5.950253   5.892800   4.604307
    14  H    5.828312   4.970897   5.385886   4.842301   3.900197
    15  C    4.909213   4.116446   3.944383   4.672296   3.056764
    16  O    4.521754   3.924087   3.668065   4.711582   2.957750
    17  N    6.032064   5.153446   4.815793   5.589054   4.270593
    18  H    6.587585   5.643027   5.390529   5.921410   4.736075
    19  C    6.830684   6.033361   5.500596   6.582685   5.298182
    20  H    6.389237   5.651177   4.970623   6.263183   5.139334
    21  H    7.292129   6.589434   6.125404   7.237851   5.711425
    22  H    7.685963   6.825175   6.253779   7.267441   6.160139
                    6          7          8          9         10
     6  O    0.000000
     7  N    2.263220   0.000000
     8  H    3.086301   0.999300   0.000000
     9  C    2.893021   1.457023   2.051972   0.000000
    10  H    2.642770   2.043911   2.895383   1.082344   0.000000
    11  C    4.279153   2.425096   2.588969   1.525749   2.133433
    12  H    4.851096   2.729399   2.475057   2.180920   3.054236
    13  H    4.971365   3.378942   3.622371   2.171981   2.482959
    14  H    4.406596   2.621910   2.833959   2.139255   2.444253
    15  C    3.351235   2.480579   2.846613   1.542991   2.091886
    16  O    2.986699   2.942483   3.412672   2.393884   2.624848
    17  N    4.687797   3.491374   3.563833   2.474689   3.150256
    18  H    5.231734   3.715645   3.695759   2.612856   3.332279
    19  C    5.617483   4.749853   4.790239   3.831674   4.387705
    20  H    5.496569   4.809326   4.780331   4.175242   4.782782
    21  H    5.814353   5.272426   5.487732   4.217586   4.527956
    22  H    6.578804   5.468519   5.373718   4.538175   5.176228
                   11         12         13         14         15
    11  C    0.000000
    12  H    1.087114   0.000000
    13  H    1.084990   1.762404   0.000000
    14  H    1.082483   1.753076   1.751744   0.000000
    15  C    2.614018   2.933933   2.880916   3.519525   0.000000
    16  O    3.718146   4.073380   4.005904   4.516868   1.198178
    17  N    2.858368   2.847058   2.837536   3.926199   1.353310
    18  H    2.422375   2.279186   2.225640   3.496615   2.038094
    19  C    4.296493   4.216097   4.155893   5.368469   2.435478
    20  H    4.860735   4.710133   4.920613   5.901126   2.704834
    21  H    4.777111   4.903703   4.477530   5.814917   2.803187
    22  H    4.690281   4.430807   4.451008   5.770666   3.309673
                   16         17         18         19         20
    16  O    0.000000
    17  N    2.227607   0.000000
    18  H    3.105602   0.991054   0.000000
    19  C    2.730823   1.448546   2.105099   0.000000
    20  H    2.648527   2.083395   2.888603   1.080602   0.000000
    21  H    2.873065   2.105760   2.737051   1.084021   1.753957
    22  H    3.772315   2.066477   2.286724   1.082035   1.761409
                   21         22
    21  H    0.000000
    22  H    1.764412   0.000000
 Stoichiometry    C6H12N2O2
 Framework group  C1[X(C6H12N2O2)]
 Deg. of freedom    60
 Full point group                 C1      NOp   1
 Largest Abelian subgroup         C1      NOp   1
 Largest concise Abelian subgroup C1      NOp   1
                         Standard orientation:                         
 ---------------------------------------------------------------------
 Center     Atomic      Atomic             Coordinates (Angstroms)
 Number     Number       Type             X           Y           Z
 ---------------------------------------------------------------------
      1          1           0       -3.670438   -1.339721    0.712757
      2          6           0       -2.829691   -0.782928    1.098985
      3          1           0       -2.192176   -1.455406    1.665575
      4          1           0       -3.182647   -0.004926    1.768265
      5          6           0       -2.043218   -0.209816   -0.059204
      6          8           0       -2.208732   -0.559504   -1.185024
      7          7           0       -1.171547    0.810882    0.287545
      8          1           0       -1.075437    0.917644    1.276466
      9          6           0        0.093237    1.010888   -0.407605
     10          1           0       -0.146129    1.069439   -1.461523
     11          6           0        0.688392    2.345701    0.030545
     12          1           0        0.929199    2.357363    1.090589
     13          1           0        1.587499    2.582519   -0.528674
     14          1           0       -0.033256    3.131243   -0.153625
     15          6           0        1.004556   -0.228915   -0.292684
     16          8           0        0.636028   -1.306344   -0.665464
     17          7           0        2.209637   -0.059263    0.299304
     18          1           0        2.537665    0.853734    0.501842
     19          6           0        3.150179   -1.157181    0.390089
     20          1           0        2.681919   -2.008582    0.862898
     21          1           0        3.503721   -1.463824   -0.587704
     22          1           0        3.994344   -0.840523    0.988346
 ---------------------------------------------------------------------
 Rotational constants (GHZ):      2.0608485      0.8485819      0.7108763

 **********************************************************************

            Population analysis using the SCF density.

 **********************************************************************

 Orbital symmetries:
       Occupied  (A) (A) (A) (A) (A) (A) (A) (A) (A) (A) (A) (A)
                 (A) (A) (A) (A) (A) (A) (A) (A) (A) (A) (A) (A)
                 (A) (A) (A) (A) (A) (A) (A) (A) (A) (A) (A) (A)
                 (A) (A) (A)
       Virtual   (A) (A) (A) (A) (A) (A) (A) (A) (A) (A) (A) (A)
                 (A) (A) (A) (A) (A) (A) (A) (A) (A) (A) (A) (A)
                 (A) (A) (A) (A) (A) (A) (A) (A) (A) (A) (A) (A)
                 (A) (A) (A) (A) (A) (A) (A) (A) (A) (A) (A) (A)
                 (A) (A) (A) (A) (A) (A) (A) (A) (A) (A) (A) (A)
                 (A) (A) (A) (A) (A) (A) (A) (A) (A) (A) (A) (A)
                 (A) (A) (A) (A) (A) (A) (A) (A) (A) (A) (A) (A)
                 (A) (A) (A) (A) (A) (A) (A) (A) (A) (A) (A) (A)
                 (A) (A) (A) (A) (A) (A) (A) (A) (A) (A) (A) (A)
                 (A) (A) (A) (A) (A) (A) (A) (A) (A) (A) (A) (A)
                 (A) (A) (A) (A) (A) (A) (A) (A) (A) (A) (A) (A)
                 (A) (A) (A)
 The electronic state is 1-A.
 Alpha  occ. eigenvalues --  -20.52138 -20.51835 -15.59018 -15.58095 -11.34478
 Alpha  occ. eigenvalues --  -11.34044 -11.28290 -11.26048 -11.24199 -11.22657
 Alpha  occ. eigenvalues --   -1.39628  -1.38332  -1.23851  -1.23050  -1.05739
 Alpha  occ. eigenvalues --   -0.99053  -0.95880  -0.88814  -0.79498  -0.78422
 Alpha  occ. eigenvalues --   -0.72418  -0.66963  -0.66017  -0.64458  -0.62599
 Alpha  occ. eigenvalues --   -0.61379  -0.59315  -0.58467  -0.57519  -0.56419
 Alpha  occ. eigenvalues --   -0.55775  -0.55065  -0.53216  -0.50632  -0.50172
 Alpha  occ. eigenvalues --   -0.44180  -0.41205  -0.39223  -0.37502
 Alpha virt. eigenvalues --    0.18282   0.20416   0.22257   0.23531   0.25478
 Alpha virt. eigenvalues --    0.27812   0.27929   0.29321   0.30318   0.31211
 Alpha virt. eigenvalues --    0.32461   0.33127   0.33451   0.34002   0.37903
 Alpha virt. eigenvalues --    0.40241   0.40730   0.45245   0.46834   0.49383
 Alpha virt. eigenvalues --    0.52745   0.57502   0.62815   0.69796   0.72873
 Alpha virt. eigenvalues --    0.74197   0.74830   0.75968   0.77625   0.78912
 Alpha virt. eigenvalues --    0.80815   0.83810   0.84515   0.88316   0.89275
 Alpha virt. eigenvalues --    0.92862   0.95524   0.96521   0.97265   0.99924
 Alpha virt. eigenvalues --    1.01548   1.03281   1.03940   1.05502   1.09513
 Alpha virt. eigenvalues --    1.11157   1.11976   1.13563   1.14400   1.14889
 Alpha virt. eigenvalues --    1.15948   1.18537   1.19468   1.19744   1.21213
 Alpha virt. eigenvalues --    1.22102   1.23430   1.23705   1.25302   1.27275
 Alpha virt. eigenvalues --    1.28485   1.34233   1.34532   1.40406   1.43741
 Alpha virt. eigenvalues --    1.45340   1.48873   1.52351   1.55001   1.59768
 Alpha virt. eigenvalues --    1.64849   1.66812   1.71590   1.74368   1.75045
 Alpha virt. eigenvalues --    1.77954   1.80799   1.87709   1.94659   1.96917
 Alpha virt. eigenvalues --    2.01107   2.06058   2.08677   2.09291   2.12911
 Alpha virt. eigenvalues --    2.14937   2.16297   2.19441   2.21664   2.24595
 Alpha virt. eigenvalues --    2.26453   2.30225   2.31406   2.34522   2.36442
 Alpha virt. eigenvalues --    2.37106   2.37595   2.41627   2.43018   2.44932
 Alpha virt. eigenvalues --    2.51496   2.54662   2.58292   2.58856   2.62006
 Alpha virt. eigenvalues --    2.66085   2.67333   2.70766   2.77830   2.79844
 Alpha virt. eigenvalues --    2.80404   2.83498   2.87324   2.93081   2.96703
 Alpha virt. eigenvalues --    3.01267   3.04637   3.10628   3.11381   3.24232
 Alpha virt. eigenvalues --    3.34489   3.39508   3.42067   3.51415   3.56368
 Alpha virt. eigenvalues --    4.38326   4.40245   4.51635   4.57139   4.61399
 Alpha virt. eigenvalues --    4.66259   4.74130   4.80068   4.89188   5.10665
          Condensed to atoms (all electrons):
              1          2          3          4          5          6
     1  H    0.461783   0.382266  -0.016603  -0.020429  -0.031598   0.004125
     2  C    0.382266   5.287064   0.373342   0.374490   0.372432  -0.070931
     3  H   -0.016603   0.373342   0.498925  -0.026087  -0.028301   0.000339
     4  H   -0.020429   0.374490  -0.026087   0.524839  -0.035215   0.001649
     5  C   -0.031598   0.372432  -0.028301  -0.035215   4.136192   0.621452
     6  O    0.004125  -0.070931   0.000339   0.001649   0.621452   8.095272
     7  N    0.004495  -0.125620   0.001479   0.004558   0.244690  -0.100163
     8  H    0.000137   0.000094   0.000075  -0.000387  -0.025035   0.002994
     9  C   -0.000137   0.006051  -0.000645   0.000087  -0.022310   0.009671
    10  H    0.000005   0.000206  -0.000011  -0.000024  -0.002047   0.005583
    11  C    0.000002  -0.000137   0.000001  -0.000009   0.002975   0.000139
    12  H    0.000000  -0.000009   0.000000  -0.000001  -0.000258  -0.000003
    13  H    0.000000   0.000002   0.000000   0.000000   0.000012   0.000003
    14  H    0.000000  -0.000004   0.000000   0.000000  -0.000087   0.000002
    15  C    0.000007  -0.000869   0.000401   0.000019  -0.003927  -0.004063
    16  O    0.000007  -0.000432   0.000378   0.000002   0.009955  -0.002761
    17  N    0.000000  -0.000010  -0.000006   0.000000  -0.000073  -0.000030
    18  H    0.000000   0.000000   0.000000   0.000000  -0.000007   0.000000
    19  C    0.000000   0.000000   0.000000   0.000000  -0.000006   0.000001
    20  H    0.000000   0.000000   0.000001   0.000000   0.000005   0.000000
    21  H    0.000000   0.000000   0.000000   0.000000  -0.000001   0.000000
    22  H    0.000000   0.000000   0.000000   0.000000   0.000000   0.000000
              7          8          9         10         11         12
     1  H    0.004495   0.000137  -0.000137   0.000005   0.000002   0.000000
     2  C   -0.125620   0.000094   0.006051   0.000206  -0.000137  -0.000009
     3  H    0.001479   0.000075  -0.000645  -0.000011   0.000001   0.000000
     4  H    0.004558  -0.000387   0.000087  -0.000024  -0.000009  -0.000001
     5  C    0.244690  -0.025035  -0.022310  -0.002047   0.002975  -0.000258
     6  O   -0.100163   0.002994   0.009671   0.005583   0.000139  -0.000003
     7  N    7.364465   0.319534   0.218441  -0.039089  -0.066566  -0.003547
     8  H    0.319534   0.371449  -0.033133   0.004393  -0.004322   0.003716
     9  C    0.218441  -0.033133   5.049534   0.403215   0.323613  -0.033731
    10  H   -0.039089   0.004393   0.403215   0.463869  -0.034216   0.003853
    11  C   -0.066566  -0.004322   0.323613  -0.034216   5.183848   0.381664
    12  H   -0.003547   0.003716  -0.033731   0.003853   0.381664   0.545747
    13  H    0.004269  -0.000101  -0.040746  -0.002828   0.392763  -0.029752
    14  H    0.000452  -0.000055  -0.030796  -0.003788   0.392821  -0.025064
    15  C   -0.047952  -0.000739   0.377698  -0.041455  -0.048935  -0.004231
    16  O   -0.002728   0.000135  -0.075244   0.000680   0.002510  -0.000055
    17  N    0.002561   0.000468  -0.104985   0.002645  -0.002237   0.001518
    18  H    0.000239  -0.000015  -0.002824  -0.000026   0.000804   0.000145
    19  C   -0.000145  -0.000015   0.004617  -0.000137  -0.000144  -0.000069
    20  H    0.000010  -0.000002  -0.000069  -0.000011  -0.000004  -0.000010
    21  H   -0.000004   0.000001  -0.000125   0.000030   0.000005   0.000005
    22  H    0.000001   0.000000   0.000034   0.000001  -0.000027   0.000005
             13         14         15         16         17         18
     1  H    0.000000   0.000000   0.000007   0.000007   0.000000   0.000000
     2  C    0.000002  -0.000004  -0.000869  -0.000432  -0.000010   0.000000
     3  H    0.000000   0.000000   0.000401   0.000378  -0.000006   0.000000
     4  H    0.000000   0.000000   0.000019   0.000002   0.000000   0.000000
     5  C    0.000012  -0.000087  -0.003927   0.009955  -0.000073  -0.000007
     6  O    0.000003   0.000002  -0.004063  -0.002761  -0.000030   0.000000
     7  N    0.004269   0.000452  -0.047952  -0.002728   0.002561   0.000239
     8  H   -0.000101  -0.000055  -0.000739   0.000135   0.000468  -0.000015
     9  C   -0.040746  -0.030796   0.377698  -0.075244  -0.104985  -0.002824
    10  H   -0.002828  -0.003788  -0.041455   0.000680   0.002645  -0.000026
    11  C    0.392763   0.392821  -0.048935   0.002510  -0.002237   0.000804
    12  H   -0.029752  -0.025064  -0.004231  -0.000055   0.001518   0.000145
    13  H    0.519055  -0.020116   0.002122  -0.000018  -0.001157   0.001030
    14  H   -0.020116   0.474876   0.003050  -0.000045  -0.000002   0.000143
    15  C    0.002122   0.003050   4.188966   0.610899   0.266043  -0.014681
    16  O   -0.000018  -0.000045   0.610899   8.143260  -0.111056   0.002663
    17  N   -0.001157  -0.000002   0.266043  -0.111056   7.362128   0.321761
    18  H    0.001030   0.000143  -0.014681   0.002663   0.321761   0.321190
    19  C   -0.000027   0.000005  -0.028774   0.009319   0.196046  -0.023649
    20  H    0.000002   0.000000  -0.003346   0.003443  -0.040658   0.002582
    21  H   -0.000016   0.000000  -0.002971   0.001393  -0.046372   0.001323
    22  H    0.000006   0.000000   0.004540   0.000447  -0.037799  -0.004225
             19         20         21         22
     1  H    0.000000   0.000000   0.000000   0.000000
     2  C    0.000000   0.000000   0.000000   0.000000
     3  H    0.000000   0.000001   0.000000   0.000000
     4  H    0.000000   0.000000   0.000000   0.000000
     5  C   -0.000006   0.000005  -0.000001   0.000000
     6  O    0.000001   0.000000   0.000000   0.000000
     7  N   -0.000145   0.000010  -0.000004   0.000001
     8  H   -0.000015  -0.000002   0.000001   0.000000
     9  C    0.004617  -0.000069  -0.000125   0.000034
    10  H   -0.000137  -0.000011   0.000030   0.000001
    11  C   -0.000144  -0.000004   0.000005  -0.000027
    12  H   -0.000069  -0.000010   0.000005   0.000005
    13  H   -0.000027   0.000002  -0.000016   0.000006
    14  H    0.000005   0.000000   0.000000   0.000000
    15  C   -0.028774  -0.003346  -0.002971   0.004540
    16  O    0.009319   0.003443   0.001393   0.000447
    17  N    0.196046  -0.040658  -0.046372  -0.037799
    18  H   -0.023649   0.002582   0.001323  -0.004225
    19  C    4.905603   0.404500   0.407162   0.396162
    20  H    0.404500   0.492652  -0.033120  -0.025895
    21  H    0.407162  -0.033120   0.519239  -0.030937
    22  H    0.396162  -0.025895  -0.030937   0.532847
 Mulliken atomic charges:
              1
     1  H    0.215941
     2  C   -0.597935
     3  H    0.196711
     4  H    0.176506
     5  C    0.761151
     6  O   -0.563279
     7  N   -0.779381
     8  H    0.360808
     9  C   -0.048217
    10  H    0.239155
    11  C   -0.524547
    12  H    0.160075
    13  H    0.175496
    14  H    0.208607
    15  C    0.748197
    16  O   -0.592752
    17  N   -0.808783
    18  H    0.393548
    19  C   -0.270449
    20  H    0.199919
    21  H    0.184390
    22  H    0.164839
 Sum of Mulliken atomic charges =   0.00000
 Mulliken charges with hydrogens summed into heavy atoms:
              1
     2  C   -0.008776
     5  C    0.761151
     6  O   -0.563279
     7  N   -0.418574
     9  C    0.190938
    11  C    0.019632
    15  C    0.748197
    16  O   -0.592752
    17  N   -0.415235
    19  C    0.278699
 Sum of Mulliken charges with hydrogens summed into heavy atoms =   0.00000
 Electronic spatial extent (au):  <R**2>=           1738.4906
 Charge=              0.0000 electrons
 Dipole moment (field-independent basis, Debye):
    X=              3.4031    Y=              3.5882    Z=              4.4791  Tot=              6.6722
 Quadrupole moment (field-independent basis, Debye-Ang):
   XX=            -53.9403   YY=            -61.5970   ZZ=            -61.8612
   XY=              1.2675   XZ=             -6.1991   YZ=             -4.0609
 Traceless Quadrupole moment (field-independent basis, Debye-Ang):
   XX=              5.1926   YY=             -2.4642   ZZ=             -2.7284
   XY=              1.2675   XZ=             -6.1991   YZ=             -4.0609
 Octapole moment (field-independent basis, Debye-Ang**2):
  XXX=             26.5113  YYY=              1.0812  ZZZ=              1.5185  XYY=              4.5913
  XXY=             -4.0859  XXZ=             19.7310  XZZ=              4.8160  YZZ=              4.3139
  YYZ=              3.8786  XYZ=              2.9692
 Hexadecapole moment (field-independent basis, Debye-Ang**3):
 XXXX=          -1363.8169 YYYY=           -562.4350 ZZZZ=           -231.7595 XXXY=             -2.4977
 XXXZ=            -12.4204 YYYX=              2.3423 YYYZ=             -6.0057 ZZZX=             -6.7928
 ZZZY=              3.9654 XXYY=           -323.6096 XXZZ=           -294.6870 YYZZ=           -131.4559
 XXYZ=             -5.9921 YYXZ=              2.7594 ZZXY=             -6.6230
 N-N= 5.624961426108D+02 E-N=-2.280466881984D+03  KE= 4.921058642823D+02
 1\1\GINC-RODAN\FOpt\RHF\6-31G(d)\C6H12N2O2\STEBOSS\10-Feb-2017\0\\# HF
 /6-31G* Opt=(ModRedundant) geom=nocrowd\\Phi Psi fixed scan\\0,1\H,0.8
 459537386,3.5983061852,1.7405450628\C,1.3974621192,3.7631080938,0.8269
 121399\H,1.0224726937,4.662066331,0.3463574319\H,1.2442140649,2.927619
 3958,0.1514312052\C,2.8608750629,3.9510865962,1.1608096374\O,3.2485021
 747,4.1405245802,2.2703160561\N,3.7194305642,3.805738283,0.0820950059\
 H,3.2367127972,3.7492059377,-0.7910538351\C,4.9539781807,4.5719240621,
 -0.0263809956\H,5.4914723139,4.4133161178,0.8995846507\C,5.7844621922,
 4.0046964984,-1.1737519636\H,5.2843401552,4.1135462348,-2.1328385945\H
 ,6.7556400607,4.4843915416,-1.2362791721\H,5.9468143503,2.9481465108,-
 1.0031276519\C,4.6778656501,6.0898114494,-0.0508861311\O,4.0809807583,
 6.6261555244,0.8388861379\N,5.0847282881,6.7759352119,-1.1441135923\H,
 5.6676789895,6.3376904706,-1.8151567187\C,4.9207490351,8.2132397415,-1
 .2186238223\H,3.8877067285,8.4782146399,-1.0445197091\H,5.5309817096,8
 .7248159133,-0.4830923369\H,5.2083783724,8.5430606806,-2.2082128047\\V
 ersion=EM64L-G09RevA.02\State=1-A\HF=-492.8403098\RMSD=5.447e-09\RMSF=
 3.611e-03\Dipole=0.4867206,-0.168838,-2.574\Quadrupole=5.6110141,0.063
 133,-5.6741471,3.001138,-0.5921862,-1.1106702\PG=C01 [X(C6H12N2O2)]\\@


 EDUCATION WITHOUT COMMON SENSE IS A LOAD OF BOOKS ON THE BACK OF AN ASS.
 Job cpu time:  0 days  0 hours 36 minutes 52.5 seconds.
 File lengths (MBytes):  RWF=     25 Int=      0 D2E=      0 Chk=      3 Scr=      1
 Normal termination of Gaussian 09 at Fri Feb 10 18:51:34 2017.
