 Entering Gaussian System, Link 0=g09
 Initial command:
 /home/steboss/Software/g09/l1.exe /tmp/Gau-3445.inp -scrdir=/tmp/
 Entering Link 1 = /home/steboss/Software/g09/l1.exe PID=      3447.
  
 Copyright (c) 1988,1990,1992,1993,1995,1998,2003,2009, Gaussian, Inc.
                  All Rights Reserved.
  
 This is part of the Gaussian(R) 09 program.  It is based on
 the Gaussian(R) 03 system (copyright 2003, Gaussian, Inc.),
 the Gaussian(R) 98 system (copyright 1998, Gaussian, Inc.),
 the Gaussian(R) 94 system (copyright 1995, Gaussian, Inc.),
 the Gaussian 92(TM) system (copyright 1992, Gaussian, Inc.),
 the Gaussian 90(TM) system (copyright 1990, Gaussian, Inc.),
 the Gaussian 88(TM) system (copyright 1988, Gaussian, Inc.),
 the Gaussian 86(TM) system (copyright 1986, Carnegie Mellon
 University), and the Gaussian 82(TM) system (copyright 1983,
 Carnegie Mellon University). Gaussian is a federally registered
 trademark of Gaussian, Inc.
  
 This software contains proprietary and confidential information,
 including trade secrets, belonging to Gaussian, Inc.
  
 This software is provided under written license and may be
 used, copied, transmitted, or stored only in accord with that
 written license.
  
 The following legend is applicable only to US Government
 contracts under FAR:
  
                    RESTRICTED RIGHTS LEGEND
  
 Use, reproduction and disclosure by the US Government is
 subject to restrictions as set forth in subparagraphs (a)
 and (c) of the Commercial Computer Software - Restricted
 Rights clause in FAR 52.227-19.
  
 Gaussian, Inc.
 340 Quinnipiac St., Bldg. 40, Wallingford CT 06492
  
  
 ---------------------------------------------------------------
 Warning -- This program may not be used in any manner that
 competes with the business of Gaussian, Inc. or will provide
 assistance to any competitor of Gaussian, Inc.  The licensee
 of this program is prohibited from giving any competitor of
 Gaussian, Inc. access to this program.  By using this program,
 the user acknowledges that Gaussian, Inc. is engaged in the
 business of creating and licensing software in the field of
 computational chemistry and represents and warrants to the
 licensee that it is not a competitor of Gaussian, Inc. and that
 it will not use this program in any manner prohibited above.
 ---------------------------------------------------------------
  

 Cite this work as:
 Gaussian 09, Revision A.02,
 M. J. Frisch, G. W. Trucks, H. B. Schlegel, G. E. Scuseria, 
 M. A. Robb, J. R. Cheeseman, G. Scalmani, V. Barone, B. Mennucci, 
 G. A. Petersson, H. Nakatsuji, M. Caricato, X. Li, H. P. Hratchian, 
 A. F. Izmaylov, J. Bloino, G. Zheng, J. L. Sonnenberg, M. Hada, 
 M. Ehara, K. Toyota, R. Fukuda, J. Hasegawa, M. Ishida, T. Nakajima, 
 Y. Honda, O. Kitao, H. Nakai, T. Vreven, J. A. Montgomery, Jr., 
 J. E. Peralta, F. Ogliaro, M. Bearpark, J. J. Heyd, E. Brothers, 
 K. N. Kudin, V. N. Staroverov, R. Kobayashi, J. Normand, 
 K. Raghavachari, A. Rendell, J. C. Burant, S. S. Iyengar, J. Tomasi, 
 M. Cossi, N. Rega, J. M. Millam, M. Klene, J. E. Knox, J. B. Cross, 
 V. Bakken, C. Adamo, J. Jaramillo, R. Gomperts, R. E. Stratmann, 
 O. Yazyev, A. J. Austin, R. Cammi, C. Pomelli, J. W. Ochterski, 
 R. L. Martin, K. Morokuma, V. G. Zakrzewski, G. A. Voth, 
 P. Salvador, J. J. Dannenberg, S. Dapprich, A. D. Daniels, 
 O. Farkas, J. B. Foresman, J. V. Ortiz, J. Cioslowski, 
 and D. J. Fox, Gaussian, Inc., Wallingford CT, 2009.
 
 ******************************************
 Gaussian 09:  EM64L-G09RevA.02 11-Jun-2009
                10-Feb-2017 
 ******************************************
 %chk=structure_180.chk
 %NProcShared=8
 Will use up to    8 processors via shared memory.
 -------------------------------------------
 # HF/6-31G* Opt=(ModRedundant) geom=nocrowd
 -------------------------------------------
 1/18=120,19=15,38=1/1,3;
 2/9=110,12=1,17=6,18=5,40=1/2;
 3/5=1,6=6,7=1,11=9,16=1,25=1,30=1,71=1/1,2,3;
 4//1;
 5/5=2,38=5/2;
 6/7=2,8=2,9=2,10=2,28=1/1;
 7//1,2,3,16;
 1/18=20,19=15/3(2);
 2/9=110,12=1/2;
 99//99;
 2/9=110,12=1/2;
 3/5=1,6=6,7=1,11=9,16=1,25=1,30=1,71=1/1,2,3;
 4/5=5,16=3/1;
 5/5=2,38=5/2;
 7//1,2,3,16;
 1/18=20,19=15/3(-5);
 2/9=110,12=1/2;
 6/7=2,8=2,9=2,10=2,19=2,28=1/1;
 99/9=1/99;
 ------------------
 Phi Psi fixed scan
 ------------------
 Symbolic Z-matrix:
 Charge =  0 Multiplicity = 1
 H                     0.6872    3.6446    1.7047 
 C                     1.3383    3.4229    0.8591 
 H                     0.8517    3.7322   -0.0658 
 H                     1.537     2.3517    0.824 
 C                     2.6715    4.1636    0.9815 
 O                     2.893     4.8943    1.9446 
 N                     3.5554    3.9697    0. 
 H                     3.3273    3.3591   -0.7716 
 C                     4.8533    4.6139    0. 
 H                     5.4076    4.3155    0.8898 
 C                     5.6613    4.2208   -1.2322 
 H                     5.1233    4.5214   -2.1312 
 H                     6.6305    4.7189   -1.2058 
 H                     5.8085    3.1409   -1.2414 
 C                     4.7127    6.1294    0. 
 O                     3.6006    6.6527    0. 
 N                     5.846     6.8349    0. 
 H                     6.737     6.3592    0. 
 C                     5.8461    8.2839    0. 
 H                     4.8186    8.6477    0. 
 H                     6.3598    8.6477    0.8898 
 H                     6.3598    8.6477   -0.8898 
 
 The following ModRedundant input section has been read:
 D    5    7    9   15 F                                                       
 D    7    9   15   17 F                                                       

 GradGradGradGradGradGradGradGradGradGradGradGradGradGradGradGradGradGrad
 Berny optimization.
 Initialization pass.
                           ----------------------------
                           !    Initial Parameters    !
                           ! (Angstroms and Degrees)  !
 --------------------------                            --------------------------
 ! Name  Definition              Value          Derivative Info.                !
 --------------------------------------------------------------------------------
 ! R1    R(1,2)                  1.09           estimate D2E/DX2                !
 ! R2    R(2,3)                  1.0899         estimate D2E/DX2                !
 ! R3    R(2,4)                  1.09           estimate D2E/DX2                !
 ! R4    R(2,5)                  1.53           estimate D2E/DX2                !
 ! R5    R(5,6)                  1.229          estimate D2E/DX2                !
 ! R6    R(5,7)                  1.335          estimate D2E/DX2                !
 ! R7    R(7,8)                  1.0101         estimate D2E/DX2                !
 ! R8    R(7,9)                  1.449          estimate D2E/DX2                !
 ! R9    R(9,10)                 1.09           estimate D2E/DX2                !
 ! R10   R(9,11)                 1.525          estimate D2E/DX2                !
 ! R11   R(9,15)                 1.522          estimate D2E/DX2                !
 ! R12   R(11,12)                1.09           estimate D2E/DX2                !
 ! R13   R(11,13)                1.09           estimate D2E/DX2                !
 ! R14   R(11,14)                1.0899         estimate D2E/DX2                !
 ! R15   R(15,16)                1.2291         estimate D2E/DX2                !
 ! R16   R(15,17)                1.335          estimate D2E/DX2                !
 ! R17   R(17,18)                1.01           estimate D2E/DX2                !
 ! R18   R(17,19)                1.449          estimate D2E/DX2                !
 ! R19   R(19,20)                1.09           estimate D2E/DX2                !
 ! R20   R(19,21)                1.0899         estimate D2E/DX2                !
 ! R21   R(19,22)                1.0899         estimate D2E/DX2                !
 ! A1    A(1,2,3)              109.5069         estimate D2E/DX2                !
 ! A2    A(1,2,4)              109.4962         estimate D2E/DX2                !
 ! A3    A(1,2,5)              111.0979         estimate D2E/DX2                !
 ! A4    A(3,2,4)              109.4474         estimate D2E/DX2                !
 ! A5    A(3,2,5)              108.6344         estimate D2E/DX2                !
 ! A6    A(4,2,5)              108.6313         estimate D2E/DX2                !
 ! A7    A(2,5,6)              120.4998         estimate D2E/DX2                !
 ! A8    A(2,5,7)              116.6019         estimate D2E/DX2                !
 ! A9    A(6,5,7)              122.8982         estimate D2E/DX2                !
 ! A10   A(5,7,8)              119.9944         estimate D2E/DX2                !
 ! A11   A(5,7,9)              121.9035         estimate D2E/DX2                !
 ! A12   A(8,7,9)              118.102          estimate D2E/DX2                !
 ! A13   A(7,9,10)             109.5            estimate D2E/DX2                !
 ! A14   A(7,9,11)             111.0992         estimate D2E/DX2                !
 ! A15   A(7,9,15)             111.0966         estimate D2E/DX2                !
 ! A16   A(10,9,11)            108.6382         estimate D2E/DX2                !
 ! A17   A(10,9,15)            108.6373         estimate D2E/DX2                !
 ! A18   A(11,9,15)            107.7947         estimate D2E/DX2                !
 ! A19   A(9,11,12)            109.5007         estimate D2E/DX2                !
 ! A20   A(9,11,13)            109.4959         estimate D2E/DX2                !
 ! A21   A(9,11,14)            109.4978         estimate D2E/DX2                !
 ! A22   A(12,11,13)           109.441          estimate D2E/DX2                !
 ! A23   A(12,11,14)           109.4482         estimate D2E/DX2                !
 ! A24   A(13,11,14)           109.4436         estimate D2E/DX2                !
 ! A25   A(9,15,16)            120.4998         estimate D2E/DX2                !
 ! A26   A(9,15,17)            116.6026         estimate D2E/DX2                !
 ! A27   A(16,15,17)           122.8976         estimate D2E/DX2                !
 ! A28   A(15,17,18)           119.9995         estimate D2E/DX2                !
 ! A29   A(15,17,19)           121.907          estimate D2E/DX2                !
 ! A30   A(18,17,19)           118.0936         estimate D2E/DX2                !
 ! A31   A(17,19,20)           109.4932         estimate D2E/DX2                !
 ! A32   A(17,19,21)           109.5002         estimate D2E/DX2                !
 ! A33   A(17,19,22)           109.5002         estimate D2E/DX2                !
 ! A34   A(20,19,21)           109.4437         estimate D2E/DX2                !
 ! A35   A(20,19,22)           109.4437         estimate D2E/DX2                !
 ! A36   A(21,19,22)           109.4463         estimate D2E/DX2                !
 ! D1    D(1,2,5,6)             -0.0045         estimate D2E/DX2                !
 ! D2    D(1,2,5,7)            179.9929         estimate D2E/DX2                !
 ! D3    D(3,2,5,6)            120.5139         estimate D2E/DX2                !
 ! D4    D(3,2,5,7)            -59.4887         estimate D2E/DX2                !
 ! D5    D(4,2,5,6)           -120.5077         estimate D2E/DX2                !
 ! D6    D(4,2,5,7)             59.4897         estimate D2E/DX2                !
 ! D7    D(2,5,7,8)             -0.0001         estimate D2E/DX2                !
 ! D8    D(2,5,7,9)           -179.9972         estimate D2E/DX2                !
 ! D9    D(6,5,7,8)            179.9972         estimate D2E/DX2                !
 ! D10   D(6,5,7,9)              0.0002         estimate D2E/DX2                !
 ! D11   D(5,7,9,10)            59.9992         estimate D2E/DX2                !
 ! D12   D(5,7,9,11)          -179.9982         estimate D2E/DX2                !
 ! D13   D(5,7,9,15)           -60.0006         Frozen                          !
 ! D14   D(8,7,9,10)          -119.9979         estimate D2E/DX2                !
 ! D15   D(8,7,9,11)             0.0047         estimate D2E/DX2                !
 ! D16   D(8,7,9,15)           120.0023         estimate D2E/DX2                !
 ! D17   D(7,9,11,12)           60.0024         estimate D2E/DX2                !
 ! D18   D(7,9,11,13)          179.9986         estimate D2E/DX2                !
 ! D19   D(7,9,11,14)          -60.0038         estimate D2E/DX2                !
 ! D20   D(10,9,11,12)        -179.4843         estimate D2E/DX2                !
 ! D21   D(10,9,11,13)         -59.4881         estimate D2E/DX2                !
 ! D22   D(10,9,11,14)          60.5095         estimate D2E/DX2                !
 ! D23   D(15,9,11,12)         -61.938          estimate D2E/DX2                !
 ! D24   D(15,9,11,13)          58.0582         estimate D2E/DX2                !
 ! D25   D(15,9,11,14)         178.0558         estimate D2E/DX2                !
 ! D26   D(7,9,15,16)            0.0            estimate D2E/DX2                !
 ! D27   D(7,9,15,17)          180.0            Frozen                          !
 ! D28   D(10,9,15,16)        -120.5111         estimate D2E/DX2                !
 ! D29   D(10,9,15,17)          59.4889         estimate D2E/DX2                !
 ! D30   D(11,9,15,16)         121.942          estimate D2E/DX2                !
 ! D31   D(11,9,15,17)         -58.058          estimate D2E/DX2                !
 ! D32   D(9,15,17,18)           0.0            estimate D2E/DX2                !
 ! D33   D(9,15,17,19)         180.0            estimate D2E/DX2                !
 ! D34   D(16,15,17,18)        180.0            estimate D2E/DX2                !
 ! D35   D(16,15,17,19)          0.0            estimate D2E/DX2                !
 ! D36   D(15,17,19,20)          0.0            estimate D2E/DX2                !
 ! D37   D(15,17,19,21)        119.9975         estimate D2E/DX2                !
 ! D38   D(15,17,19,22)       -119.9975         estimate D2E/DX2                !
 ! D39   D(18,17,19,20)        180.0            estimate D2E/DX2                !
 ! D40   D(18,17,19,21)        -60.0025         estimate D2E/DX2                !
 ! D41   D(18,17,19,22)         60.0025         estimate D2E/DX2                !
 --------------------------------------------------------------------------------
 Trust Radius=3.00D-01 FncErr=1.00D-07 GrdErr=1.00D-07
 Number of steps in this run= 108 maximum allowed number of steps= 132.
 GradGradGradGradGradGradGradGradGradGradGradGradGradGradGradGradGradGrad

                          Input orientation:                          
 ---------------------------------------------------------------------
 Center     Atomic      Atomic             Coordinates (Angstroms)
 Number     Number       Type             X           Y           Z
 ---------------------------------------------------------------------
      1          1           0        0.687200    3.644600    1.704700
      2          6           0        1.338300    3.422900    0.859100
      3          1           0        0.851700    3.732200   -0.065800
      4          1           0        1.537000    2.351700    0.824000
      5          6           0        2.671500    4.163600    0.981500
      6          8           0        2.893000    4.894300    1.944600
      7          7           0        3.555400    3.969700    0.000000
      8          1           0        3.327300    3.359100   -0.771600
      9          6           0        4.853300    4.613900    0.000000
     10          1           0        5.407600    4.315500    0.889800
     11          6           0        5.661300    4.220800   -1.232200
     12          1           0        5.123300    4.521400   -2.131200
     13          1           0        6.630500    4.718900   -1.205800
     14          1           0        5.808500    3.140900   -1.241400
     15          6           0        4.712700    6.129400    0.000000
     16          8           0        3.600600    6.652700    0.000000
     17          7           0        5.846000    6.834900    0.000000
     18          1           0        6.737000    6.359200    0.000000
     19          6           0        5.846100    8.283900    0.000000
     20          1           0        4.818600    8.647700    0.000000
     21          1           0        6.359800    8.647700    0.889800
     22          1           0        6.359800    8.647700   -0.889800
 ---------------------------------------------------------------------
                    Distance matrix (angstroms):
                    1          2          3          4          5
     1  H    0.000000
     2  C    1.090010   0.000000
     3  H    1.780282   1.089902   0.000000
     4  H    1.780276   1.090038   1.779652   0.000000
     5  C    2.174816   1.530046   2.143505   2.143567   0.000000
     6  O    2.546538   2.400088   3.091778   3.091811   1.229043
     7  N    3.352352   2.439790   2.714909   2.714929   1.334998
     8  H    3.630937   2.572814   2.601144   2.601147   2.037315
     9  C    4.604556   3.809430   4.098113   4.098094   2.434412
    10  H    4.836977   4.166159   4.691443   4.340782   2.741847
    11  C    5.805089   4.868111   4.973075   4.973062   3.720570
    12  H    5.929746   4.947203   4.809915   5.128582   3.978473
    13  H    6.704323   5.826732   5.972245   5.972225   4.557008
    14  H    5.929665   4.947152   5.128502   4.809826   3.978438
    15  C    5.028408   4.410189   4.545131   5.003505   2.999035
    16  O    4.521346   4.035798   4.011247   4.841077   2.832347
    17  N    6.300574   5.718318   5.879975   6.272602   4.263407
    18  H    6.846542   6.205310   6.445325   6.616573   4.723589
    19  C    7.144463   6.684881   6.757687   7.378233   5.293231
    20  H    6.708612   6.336330   6.316864   7.147551   5.067596
    21  H    7.607461   7.246719   7.444090   7.931163   5.806817
    22  H    7.996301   7.454706   7.428343   8.113946   6.100203
                    6          7          8          9         10
     6  O    0.000000
     7  N    2.252804   0.000000
     8  H    3.150111   1.010064   0.000000
     9  C    2.775404   1.448978   2.120982   0.000000
    10  H    2.787620   2.083739   2.828887   1.089970   0.000000
    11  C    4.267218   2.452791   2.530264   1.525027   2.139209
    12  H    4.661055   2.702720   2.534772   2.150225   3.041326
    13  H    4.891287   3.386959   3.598432   2.150214   2.459625
    14  H    4.661024   2.702673   2.534695   2.150165   2.466256
    15  C    2.935685   2.450234   3.192062   1.522008   2.136554
    16  O    2.715536   2.683381   3.393797   2.392898   3.085368
    17  N    4.033312   3.668272   4.361239   2.432754   2.707640
    18  H    4.550136   3.978981   4.606736   2.567956   2.595334
    19  C    4.898128   4.884632   5.585103   3.801914   4.090504
    20  H    4.645150   4.845550   5.548751   4.033949   4.461684
    21  H    5.217214   5.526309   6.318670   4.396911   4.435611
    22  H    5.842990   5.526309   6.097485   4.396911   4.779291
                   11         12         13         14         15
    11  C    0.000000
    12  H    1.089957   0.000000
    13  H    1.090023   1.779613   0.000000
    14  H    1.089925   1.779613   1.779617   0.000000
    15  C    2.461892   2.701161   2.668599   3.416575   0.000000
    16  O    3.417446   3.376843   3.791283   4.329969   1.229068
    17  N    2.895850   3.227474   2.558681   3.897193   1.334953
    18  H    2.692248   3.244002   2.038598   3.572204   2.037302
    19  C    4.249853   4.384160   3.844277   5.290835   2.434433
    20  H    4.671820   4.654160   4.491370   5.731127   2.520526
    21  H    4.958652   5.261343   4.460974   5.930497   3.137916
    22  H    4.494728   4.482896   3.950773   5.545485   3.137916
                   16         17         18         19         20
    16  O    0.000000
    17  N    2.252780   0.000000
    18  H    3.150103   1.010035   0.000000
    19  C    2.775443   1.449000   2.120890   0.000000
    20  H    2.337424   2.083697   2.986217   1.090003   0.000000
    21  H    3.519226   2.083741   2.484201   1.089946   1.779618
    22  H    3.519226   2.083741   2.484201   1.089946   1.779618
                   21         22
    21  H    0.000000
    22  H    1.779600   0.000000
 Stoichiometry    C6H12N2O2
 Framework group  C1[X(C6H12N2O2)]
 Deg. of freedom    60
 Full point group                 C1      NOp   1
 Largest Abelian subgroup         C1      NOp   1
 Largest concise Abelian subgroup C1      NOp   1
                         Standard orientation:                         
 ---------------------------------------------------------------------
 Center     Atomic      Atomic             Coordinates (Angstroms)
 Number     Number       Type             X           Y           Z
 ---------------------------------------------------------------------
      1          1           0        3.872846   -1.357213   -0.082228
      2          6           0        3.385003   -0.430190   -0.383491
      3          1           0        3.319879   -0.389854   -1.470697
      4          1           0        3.964476    0.419711   -0.022851
      5          6           0        1.971368   -0.338625    0.194688
      6          8           0        1.525528   -1.242225    0.898450
      7          7           0        1.271991    0.757782   -0.106946
      8          1           0        1.681874    1.473738   -0.689725
      9          6           0       -0.077490    0.963114    0.379138
     10          1           0       -0.074847    0.967750    1.469095
     11          6           0       -0.641885    2.291806   -0.112537
     12          1           0       -0.659443    2.298688   -1.202330
     13          1           0       -1.655532    2.419386    0.267453
     14          1           0       -0.014775    3.108204    0.245465
     15          6           0       -1.006697   -0.142876   -0.100309
     16          8           0       -0.579827   -1.053906   -0.806294
     17          7           0       -2.282040   -0.061341    0.285632
     18          1           0       -2.585757    0.707148    0.866453
     19          6           0       -3.265055   -1.051869   -0.104416
     20          1           0       -2.789464   -1.811770   -0.724473
     21          1           0       -3.683079   -1.520131    0.786633
     22          1           0       -4.062913   -0.569868   -0.669286
 ---------------------------------------------------------------------
 Rotational constants (GHZ):      2.3840526      0.8449144      0.6877667
 Standard basis: 6-31G(d) (6D, 7F)
 There are   174 symmetry adapted basis functions of A   symmetry.
 Integral buffers will be    131072 words long.
 Raffenetti 1 integral format.
 Two-electron integral symmetry is turned on.
   174 basis functions,   328 primitive gaussians,   174 cartesian basis functions
    39 alpha electrons       39 beta electrons
       nuclear repulsion energy       565.8846436043 Hartrees.
 NAtoms=   22 NActive=   22 NUniq=   22 SFac= 7.50D-01 NAtFMM=   80 NAOKFM=F Big=F
 One-electron integrals computed using PRISM.
 NBasis=   174 RedAO= T  NBF=   174
 NBsUse=   174 1.00D-06 NBFU=   174
 Harris functional with IExCor=  205 diagonalized for initial guess.
 ExpMin= 1.61D-01 ExpMax= 5.48D+03 ExpMxC= 8.25D+02 IAcc=1 IRadAn=         1 AccDes= 0.00D+00
 HarFok:  IExCor=  205 AccDes= 0.00D+00 IRadAn=         1 IDoV= 1
 ScaDFX=  1.000000  1.000000  1.000000  1.000000
 FoFCou: FMM=F IPFlag=           0 FMFlag=      100000 FMFlg1=           0
         NFxFlg=           0 DoJE=T BraDBF=F KetDBF=T FulRan=T
         Omega=  0.000000  0.000000  1.000000  0.000000  0.000000 ICntrl=     500 IOpCl=  0
         NMat0=    1 NMatS0=    1 NMatT0=    0 NMatD0=    1 NMtDS0=    0 NMtDT0=    0
         I1Cent=           4 NGrid=           0.
 Petite list used in FoFCou.
 Initial guess orbital symmetries:
       Occupied  (A) (A) (A) (A) (A) (A) (A) (A) (A) (A) (A) (A)
                 (A) (A) (A) (A) (A) (A) (A) (A) (A) (A) (A) (A)
                 (A) (A) (A) (A) (A) (A) (A) (A) (A) (A) (A) (A)
                 (A) (A) (A)
       Virtual   (A) (A) (A) (A) (A) (A) (A) (A) (A) (A) (A) (A)
                 (A) (A) (A) (A) (A) (A) (A) (A) (A) (A) (A) (A)
                 (A) (A) (A) (A) (A) (A) (A) (A) (A) (A) (A) (A)
                 (A) (A) (A) (A) (A) (A) (A) (A) (A) (A) (A) (A)
                 (A) (A) (A) (A) (A) (A) (A) (A) (A) (A) (A) (A)
                 (A) (A) (A) (A) (A) (A) (A) (A) (A) (A) (A) (A)
                 (A) (A) (A) (A) (A) (A) (A) (A) (A) (A) (A) (A)
                 (A) (A) (A) (A) (A) (A) (A) (A) (A) (A) (A) (A)
                 (A) (A) (A) (A) (A) (A) (A) (A) (A) (A) (A) (A)
                 (A) (A) (A) (A) (A) (A) (A) (A) (A) (A) (A) (A)
                 (A) (A) (A) (A) (A) (A) (A) (A) (A) (A) (A) (A)
                 (A) (A) (A)
 The electronic state of the initial guess is 1-A.
 Requested convergence on RMS density matrix=1.00D-08 within 128 cycles.
 Requested convergence on MAX density matrix=1.00D-06.
 Requested convergence on             energy=1.00D-06.
 No special actions if energy rises.
 Integral accuracy reduced to 1.0D-05 until final iterations.
 Initial convergence to 1.0D-05 achieved.  Increase integral accuracy.
 SCF Done:  E(RHF) =  -492.835985776     A.U. after   15 cycles
             Convg  =    0.3289D-08             -V/T =  2.0020

 **********************************************************************

            Population analysis using the SCF density.

 **********************************************************************

 Orbital symmetries:
       Occupied  (A) (A) (A) (A) (A) (A) (A) (A) (A) (A) (A) (A)
                 (A) (A) (A) (A) (A) (A) (A) (A) (A) (A) (A) (A)
                 (A) (A) (A) (A) (A) (A) (A) (A) (A) (A) (A) (A)
                 (A) (A) (A)
       Virtual   (A) (A) (A) (A) (A) (A) (A) (A) (A) (A) (A) (A)
                 (A) (A) (A) (A) (A) (A) (A) (A) (A) (A) (A) (A)
                 (A) (A) (A) (A) (A) (A) (A) (A) (A) (A) (A) (A)
                 (A) (A) (A) (A) (A) (A) (A) (A) (A) (A) (A) (A)
                 (A) (A) (A) (A) (A) (A) (A) (A) (A) (A) (A) (A)
                 (A) (A) (A) (A) (A) (A) (A) (A) (A) (A) (A) (A)
                 (A) (A) (A) (A) (A) (A) (A) (A) (A) (A) (A) (A)
                 (A) (A) (A) (A) (A) (A) (A) (A) (A) (A) (A) (A)
                 (A) (A) (A) (A) (A) (A) (A) (A) (A) (A) (A) (A)
                 (A) (A) (A) (A) (A) (A) (A) (A) (A) (A) (A) (A)
                 (A) (A) (A) (A) (A) (A) (A) (A) (A) (A) (A) (A)
                 (A) (A) (A)
 The electronic state is 1-A.
 Alpha  occ. eigenvalues --  -20.50375 -20.49912 -15.58818 -15.58588 -11.33691
 Alpha  occ. eigenvalues --  -11.33477 -11.28544 -11.25589 -11.24757 -11.22563
 Alpha  occ. eigenvalues --   -1.37025  -1.34883  -1.23265  -1.22883  -1.06507
 Alpha  occ. eigenvalues --   -0.98328  -0.95585  -0.88271  -0.79976  -0.78516
 Alpha  occ. eigenvalues --   -0.71481  -0.68242  -0.65539  -0.62609  -0.61808
 Alpha  occ. eigenvalues --   -0.60863  -0.59451  -0.58165  -0.55600  -0.55217
 Alpha  occ. eigenvalues --   -0.54851  -0.54513  -0.53489  -0.50461  -0.48018
 Alpha  occ. eigenvalues --   -0.41528  -0.39680  -0.38506  -0.36698
 Alpha virt. eigenvalues --    0.19334   0.20782   0.21819   0.22595   0.26526
 Alpha virt. eigenvalues --    0.27471   0.29039   0.29301   0.30834   0.31256
 Alpha virt. eigenvalues --    0.32041   0.32892   0.33587   0.34574   0.37186
 Alpha virt. eigenvalues --    0.39295   0.41137   0.42878   0.49318   0.50979
 Alpha virt. eigenvalues --    0.57077   0.59125   0.60913   0.70956   0.72775
 Alpha virt. eigenvalues --    0.73903   0.75376   0.76764   0.77198   0.78388
 Alpha virt. eigenvalues --    0.81281   0.82216   0.84383   0.88847   0.89298
 Alpha virt. eigenvalues --    0.93603   0.96354   0.97012   0.97174   0.99371
 Alpha virt. eigenvalues --    1.00857   1.01121   1.06014   1.07283   1.09159
 Alpha virt. eigenvalues --    1.12237   1.13267   1.13861   1.14267   1.15790
 Alpha virt. eigenvalues --    1.16270   1.17341   1.17888   1.19354   1.19493
 Alpha virt. eigenvalues --    1.21132   1.21796   1.22461   1.23824   1.25970
 Alpha virt. eigenvalues --    1.31868   1.32809   1.37459   1.38847   1.46964
 Alpha virt. eigenvalues --    1.51334   1.55284   1.58176   1.60239   1.62616
 Alpha virt. eigenvalues --    1.64607   1.67389   1.68184   1.73408   1.76317
 Alpha virt. eigenvalues --    1.81350   1.84096   1.89523   1.91378   1.97493
 Alpha virt. eigenvalues --    2.00836   2.06554   2.09797   2.12325   2.13948
 Alpha virt. eigenvalues --    2.16317   2.18058   2.18317   2.20827   2.25029
 Alpha virt. eigenvalues --    2.25654   2.28168   2.30573   2.33154   2.34249
 Alpha virt. eigenvalues --    2.39132   2.41590   2.43807   2.46113   2.48171
 Alpha virt. eigenvalues --    2.53000   2.55963   2.59164   2.61648   2.62038
 Alpha virt. eigenvalues --    2.64702   2.66883   2.70249   2.72941   2.74631
 Alpha virt. eigenvalues --    2.78417   2.81163   2.92459   2.94578   2.98670
 Alpha virt. eigenvalues --    3.02513   3.04236   3.09245   3.14129   3.25630
 Alpha virt. eigenvalues --    3.32296   3.37372   3.41030   3.56238   3.59770
 Alpha virt. eigenvalues --    4.36741   4.44006   4.52341   4.58261   4.65270
 Alpha virt. eigenvalues --    4.67902   4.69819   4.87114   4.88902   5.06404
          Condensed to atoms (all electrons):
              1          2          3          4          5          6
     1  H    0.454290   0.385770  -0.017699  -0.019334  -0.029295   0.003733
     2  C    0.385770   5.258274   0.374941   0.370329   0.376301  -0.067746
     3  H   -0.017699   0.374941   0.513555  -0.025630  -0.036442   0.000901
     4  H   -0.019334   0.370329  -0.025630   0.532027  -0.034896   0.001360
     5  C   -0.029295   0.376301  -0.036442  -0.034896   4.161529   0.594679
     6  O    0.003733  -0.067746   0.000901   0.001360   0.594679   8.186933
     7  N    0.003725  -0.123252   0.003939   0.003873   0.231146  -0.104070
     8  H   -0.000029  -0.000802   0.000440   0.000691  -0.017727   0.002468
     9  C   -0.000080   0.004930  -0.000143  -0.000259  -0.027998   0.015875
    10  H    0.000002  -0.000007  -0.000001  -0.000006  -0.001069   0.003130
    11  C    0.000001  -0.000027  -0.000005  -0.000008   0.003782   0.000460
    12  H    0.000000  -0.000013   0.000000   0.000001  -0.000152  -0.000007
    13  H    0.000000   0.000002   0.000000   0.000000  -0.000024   0.000003
    14  H    0.000000  -0.000004   0.000000   0.000000  -0.000198  -0.000003
    15  C    0.000000  -0.000145  -0.000007   0.000009  -0.002610   0.000609
    16  O    0.000004  -0.000438   0.000131   0.000000   0.007265  -0.011627
    17  N    0.000000  -0.000003   0.000000   0.000000   0.000249  -0.000324
    18  H    0.000000   0.000000   0.000000   0.000000  -0.000018  -0.000003
    19  C    0.000000   0.000000   0.000000   0.000000  -0.000003   0.000002
    20  H    0.000000   0.000000   0.000000   0.000000  -0.000003   0.000002
    21  H    0.000000   0.000000   0.000000   0.000000   0.000000   0.000000
    22  H    0.000000   0.000000   0.000000   0.000000   0.000000   0.000000
              7          8          9         10         11         12
     1  H    0.003725  -0.000029  -0.000080   0.000002   0.000001   0.000000
     2  C   -0.123252  -0.000802   0.004930  -0.000007  -0.000027  -0.000013
     3  H    0.003939   0.000440  -0.000143  -0.000001  -0.000005   0.000000
     4  H    0.003873   0.000691  -0.000259  -0.000006  -0.000008   0.000001
     5  C    0.231146  -0.017727  -0.027998  -0.001069   0.003782  -0.000152
     6  O   -0.104070   0.002468   0.015875   0.003130   0.000460  -0.000007
     7  N    7.386774   0.326524   0.217255  -0.040923  -0.054242  -0.000406
     8  H    0.326524   0.327555  -0.028056   0.002133  -0.003781   0.001610
     9  C    0.217255  -0.028056   5.046225   0.406200   0.331877  -0.038879
    10  H   -0.040923   0.002133   0.406200   0.498904  -0.038425   0.004353
    11  C   -0.054242  -0.003781   0.331877  -0.038425   5.163518   0.387502
    12  H   -0.000406   0.001610  -0.038879   0.004353   0.387502   0.509570
    13  H    0.003903   0.000072  -0.038165  -0.001038   0.393419  -0.021639
    14  H   -0.001781   0.001341  -0.037287  -0.004696   0.388371  -0.026234
    15  C   -0.060192   0.001954   0.365520  -0.047751  -0.059444  -0.005200
    16  O   -0.001049   0.000035  -0.078111   0.000900   0.000215   0.000677
    17  N    0.002707  -0.000065  -0.120482   0.004951   0.000756   0.000759
    18  H    0.000059  -0.000002   0.002034   0.000646  -0.000580   0.000025
    19  C   -0.000083   0.000002   0.003763  -0.000262  -0.000098  -0.000052
    20  H   -0.000008   0.000000   0.000625  -0.000021  -0.000045  -0.000003
    21  H    0.000001   0.000000  -0.000112   0.000011   0.000000   0.000001
    22  H    0.000001   0.000000   0.000010  -0.000001  -0.000003   0.000003
             13         14         15         16         17         18
     1  H    0.000000   0.000000   0.000000   0.000004   0.000000   0.000000
     2  C    0.000002  -0.000004  -0.000145  -0.000438  -0.000003   0.000000
     3  H    0.000000   0.000000  -0.000007   0.000131   0.000000   0.000000
     4  H    0.000000   0.000000   0.000009   0.000000   0.000000   0.000000
     5  C   -0.000024  -0.000198  -0.002610   0.007265   0.000249  -0.000018
     6  O    0.000003  -0.000003   0.000609  -0.011627  -0.000324  -0.000003
     7  N    0.003903  -0.001781  -0.060192  -0.001049   0.002707   0.000059
     8  H    0.000072   0.001341   0.001954   0.000035  -0.000065  -0.000002
     9  C   -0.038165  -0.037287   0.365520  -0.078111  -0.120482   0.002034
    10  H   -0.001038  -0.004696  -0.047751   0.000900   0.004951   0.000646
    11  C    0.393419   0.388371  -0.059444   0.000215   0.000756  -0.000580
    12  H   -0.021639  -0.026234  -0.005200   0.000677   0.000759   0.000025
    13  H    0.519048  -0.021301  -0.006265   0.000012   0.001153   0.002343
    14  H   -0.021301   0.514625   0.005312  -0.000074   0.000031  -0.000084
    15  C   -0.006265   0.005312   4.188107   0.600632   0.261369  -0.023294
    16  O    0.000012  -0.000074   0.600632   8.200567  -0.097545   0.002419
    17  N    0.001153   0.000031   0.261369  -0.097545   7.362068   0.324390
    18  H    0.002343  -0.000084  -0.023294   0.002419   0.324390   0.331507
    19  C    0.000101   0.000005  -0.024587  -0.005259   0.188056  -0.022414
    20  H   -0.000005   0.000001  -0.001904   0.011237  -0.031423   0.002345
    21  H    0.000003   0.000000   0.001066   0.000384  -0.047481  -0.001506
    22  H   -0.000007  -0.000001   0.000817   0.000372  -0.049290  -0.000640
             19         20         21         22
     1  H    0.000000   0.000000   0.000000   0.000000
     2  C    0.000000   0.000000   0.000000   0.000000
     3  H    0.000000   0.000000   0.000000   0.000000
     4  H    0.000000   0.000000   0.000000   0.000000
     5  C   -0.000003  -0.000003   0.000000   0.000000
     6  O    0.000002   0.000002   0.000000   0.000000
     7  N   -0.000083  -0.000008   0.000001   0.000001
     8  H    0.000002   0.000000   0.000000   0.000000
     9  C    0.003763   0.000625  -0.000112   0.000010
    10  H   -0.000262  -0.000021   0.000011  -0.000001
    11  C   -0.000098  -0.000045   0.000000  -0.000003
    12  H   -0.000052  -0.000003   0.000001   0.000003
    13  H    0.000101  -0.000005   0.000003  -0.000007
    14  H    0.000005   0.000001   0.000000  -0.000001
    15  C   -0.024587  -0.001904   0.001066   0.000817
    16  O   -0.005259   0.011237   0.000384   0.000372
    17  N    0.188056  -0.031423  -0.047481  -0.049290
    18  H   -0.022414   0.002345  -0.001506  -0.000640
    19  C    4.947013   0.396121   0.402982   0.402132
    20  H    0.396121   0.425965  -0.021513  -0.022913
    21  H    0.402982  -0.021513   0.532473  -0.037619
    22  H    0.402132  -0.022913  -0.037619   0.543680
 Mulliken atomic charges:
              1
     1  H    0.218914
     2  C   -0.578110
     3  H    0.186021
     4  H    0.171844
     5  C    0.775483
     6  O   -0.626374
     7  N   -0.793899
     8  H    0.385636
     9  C   -0.024739
    10  H    0.212970
    11  C   -0.513240
    12  H    0.188085
    13  H    0.168383
    14  H    0.181978
    15  C    0.806005
    16  O   -0.630748
    17  N   -0.799876
    18  H    0.382775
    19  C   -0.287420
    20  H    0.241543
    21  H    0.171310
    22  H    0.163459
 Sum of Mulliken atomic charges =   0.00000
 Mulliken charges with hydrogens summed into heavy atoms:
              1
     2  C   -0.001332
     5  C    0.775483
     6  O   -0.626374
     7  N   -0.408263
     9  C    0.188231
    11  C    0.025207
    15  C    0.806005
    16  O   -0.630748
    17  N   -0.417102
    19  C    0.288892
 Sum of Mulliken charges with hydrogens summed into heavy atoms =   0.00000
 Electronic spatial extent (au):  <R**2>=           1742.9309
 Charge=              0.0000 electrons
 Dipole moment (field-independent basis, Debye):
    X=             -1.5708    Y=              5.7403    Z=             -0.1512  Tot=              5.9532
 Quadrupole moment (field-independent basis, Debye-Ang):
   XX=            -45.9900   YY=            -61.8576   ZZ=            -62.4628
   XY=              3.3827   XZ=             -6.4970   YZ=              1.2565
 Traceless Quadrupole moment (field-independent basis, Debye-Ang):
   XX=             10.7802   YY=             -5.0875   ZZ=             -5.6927
   XY=              3.3827   XZ=             -6.4970   YZ=              1.2565
 Octapole moment (field-independent basis, Debye-Ang**2):
  XXX=             -6.7509  YYY=              4.6338  ZZZ=             -0.0727  XYY=             -4.5746
  XXY=             -1.2855  XXZ=             -2.3602  XZZ=             -3.2290  YZZ=              5.0732
  YYZ=             -2.8991  XYZ=              0.5455
 Hexadecapole moment (field-independent basis, Debye-Ang**3):
 XXXX=          -1453.1591 YYYY=           -538.8787 ZZZZ=           -154.1227 XXXY=              4.4338
 XXXZ=            -14.7248 YYYX=             16.5136 YYYZ=              2.8806 ZZZX=             -6.5552
 ZZZY=              0.5113 XXYY=           -334.6087 XXZZ=           -289.0183 YYZZ=           -117.7753
 XXYZ=             11.8471 YYXZ=            -10.9397 ZZXY=              3.3964
 N-N= 5.658846436043D+02 E-N=-2.287508786477D+03  KE= 4.918329785459D+02
 Calling FoFJK, ICntrl=      2127 FMM=F ISym2X=0 I1Cent= 0 IOpClX= 0 NMat=1 NMatS=1 NMatT=0.
 ***** Axes restored to original set *****
 -------------------------------------------------------------------
 Center     Atomic                   Forces (Hartrees/Bohr)
 Number     Number              X              Y              Z
 -------------------------------------------------------------------
      1        1           0.008207147    0.000807655   -0.005155237
      2        6           0.009125194    0.001869119   -0.004667563
      3        1          -0.000884672   -0.003972032    0.002701575
      4        1          -0.004367881    0.001879266   -0.001662539
      5        6          -0.019668668    0.034011583    0.061258947
      6        8          -0.003003304   -0.038735569   -0.034445631
      7        7           0.017202411   -0.011863178   -0.022577790
      8        1           0.001989510    0.010753118    0.011811182
      9        6           0.002639820    0.000501664    0.001642887
     10        1          -0.003520203    0.002572453   -0.000877378
     11        6          -0.002644076   -0.008353349   -0.000199961
     12        1           0.005041599   -0.001444753    0.000858037
     13        1          -0.004893706   -0.007822891   -0.005030014
     14        1           0.002257726    0.003952258   -0.003248010
     15        6          -0.067826969    0.019586350    0.007918769
     16        8           0.049112309   -0.014180788   -0.011694476
     17        7           0.019130612    0.000582780    0.000343245
     18        1          -0.014905586    0.009078201    0.002227712
     19        6           0.002204843    0.003488139    0.000831104
     20        1           0.009038863   -0.005625290    0.000247191
     21        1          -0.002311885    0.001407506   -0.004325467
     22        1          -0.001923085    0.001507757    0.004043417
 -------------------------------------------------------------------
 Cartesian Forces:  Max     0.067826969 RMS     0.016687312

 GradGradGradGradGradGradGradGradGradGradGradGradGradGradGradGradGradGrad
 Berny optimization.
 Internal  Forces:  Max     0.050562842 RMS     0.009673523
 Search for a local minimum.
 Step number   1 out of a maximum of  108
 All quantities printed in internal units (Hartrees-Bohrs-Radians)
 Mixed Optimization -- RFO/linear search
 Second derivative matrix not updated -- first step.
     Eigenvalues ---    0.00368   0.00435   0.00999   0.01044   0.01269
     Eigenvalues ---    0.01422   0.01660   0.02552   0.02552   0.03503
     Eigenvalues ---    0.05232   0.05841   0.05844   0.05844   0.07165
     Eigenvalues ---    0.07464   0.07685   0.07686   0.15421   0.16000
     Eigenvalues ---    0.16000   0.16000   0.16000   0.16000   0.16000
     Eigenvalues ---    0.16000   0.16000   0.16000   0.16000   0.16000
     Eigenvalues ---    0.16180   0.22000   0.22000   0.25000   0.25000
     Eigenvalues ---    0.25000   0.25000   0.29419   0.29887   0.30174
     Eigenvalues ---    0.34808   0.34810   0.34812   0.34812   0.34816
     Eigenvalues ---    0.34818   0.34819   0.34819   0.34821   0.34824
     Eigenvalues ---    0.38376   0.38379   0.45962   0.45967   0.58341
     Eigenvalues ---    0.58351   0.91476   0.914861000.000001000.00000
     Eigenvalues --- 1000.000001000.000001000.000001000.000001000.00000
     Eigenvalues --- 1000.000001000.000001000.000001000.000001000.00000
     Eigenvalues --- 1000.000001000.000001000.000001000.000001000.00000
     Eigenvalues --- 1000.000001000.000001000.000001000.000001000.00000
     Eigenvalues --- 1000.000001000.000001000.000001000.000001000.00000
     Eigenvalues --- 1000.000001000.000001000.000001000.000001000.00000
     Eigenvalues --- 1000.000001000.000001000.000001000.000001000.00000
     Eigenvalues --- 1000.000001000.000001000.00000
 RFO step:  Lambda=-2.70047660D-02 EMin= 3.68497635D-03
 Linear search not attempted -- first point.
 Maximum step size (   0.300) exceeded in Quadratic search.
    -- Step size scaled by   0.558
 Iteration  1 RMS(Cart)=  0.06416747 RMS(Int)=  0.00193750
 Iteration  2 RMS(Cart)=  0.00244301 RMS(Int)=  0.00032779
 Iteration  3 RMS(Cart)=  0.00000276 RMS(Int)=  0.00032778
 Iteration  4 RMS(Cart)=  0.00000000 RMS(Int)=  0.00032778
 Iteration  1 RMS(Cart)=  0.00003925 RMS(Int)=  0.00001255
 Iteration  2 RMS(Cart)=  0.00002145 RMS(Int)=  0.00001396
 Iteration  3 RMS(Cart)=  0.00001202 RMS(Int)=  0.00001583
 Iteration  4 RMS(Cart)=  0.00000695 RMS(Int)=  0.00001719
 Iteration  5 RMS(Cart)=  0.00000415 RMS(Int)=  0.00001809
 Iteration  6 RMS(Cart)=  0.00000257 RMS(Int)=  0.00001868
 Iteration  7 RMS(Cart)=  0.00000163 RMS(Int)=  0.00001906
 Iteration  8 RMS(Cart)=  0.00000106 RMS(Int)=  0.00001931
 Iteration  9 RMS(Cart)=  0.00000070 RMS(Int)=  0.00001947
 Variable       Old X    -DE/DX   Delta X   Delta X   Delta X     New X
                                 (Linear)    (Quad)   (Total)
    R1        2.05982  -0.00874   0.00000  -0.01300  -0.01300   2.04682
    R2        2.05962  -0.00302   0.00000  -0.00450  -0.00450   2.05512
    R3        2.05987  -0.00259   0.00000  -0.00385  -0.00385   2.05602
    R4        2.89137  -0.01011   0.00000  -0.01756  -0.01756   2.87381
    R5        2.32255  -0.05056   0.00000  -0.02996  -0.02996   2.29260
    R6        2.52278   0.01967   0.00000   0.01798   0.01798   2.54076
    R7        1.90874  -0.01597   0.00000  -0.01832  -0.01832   1.89043
    R8        2.73817  -0.00537   0.00000  -0.00729  -0.00729   2.73088
    R9        2.05975  -0.00321   0.00000  -0.00478  -0.00478   2.05497
   R10        2.88188   0.00955   0.00000   0.01636   0.01636   2.89824
   R11        2.87618   0.01647   0.00000   0.02795   0.02795   2.90413
   R12        2.05972  -0.00359   0.00000  -0.00535  -0.00535   2.05437
   R13        2.05984  -0.00805   0.00000  -0.01197  -0.01197   2.04787
   R14        2.05966  -0.00358   0.00000  -0.00533  -0.00533   2.05433
   R15        2.32260  -0.05048   0.00000  -0.02991  -0.02991   2.29269
   R16        2.52270   0.01505   0.00000   0.01376   0.01376   2.53646
   R17        1.90869  -0.01742   0.00000  -0.01998  -0.01998   1.88871
   R18        2.73821   0.00078   0.00000   0.00106   0.00106   2.73927
   R19        2.05981  -0.01040   0.00000  -0.01547  -0.01547   2.04434
   R20        2.05970  -0.00415   0.00000  -0.00617  -0.00617   2.05353
   R21        2.05970  -0.00370   0.00000  -0.00551  -0.00551   2.05419
    A1        1.91126   0.00048   0.00000  -0.00012  -0.00003   1.91122
    A2        1.91107   0.00039   0.00000   0.00030   0.00042   1.91149
    A3        1.93902  -0.00836   0.00000  -0.02616  -0.02606   1.91296
    A4        1.91022  -0.00450   0.00000  -0.01087  -0.01110   1.89912
    A5        1.89603   0.00560   0.00000   0.01709   0.01702   1.91305
    A6        1.89597   0.00644   0.00000   0.01999   0.01994   1.91591
    A7        2.10312   0.00688   0.00000   0.01386   0.01328   2.11640
    A8        2.03509  -0.00962   0.00000  -0.01938  -0.01995   2.01513
    A9        2.14498   0.00274   0.00000   0.00551   0.00494   2.14992
   A10        2.09430  -0.00574   0.00000  -0.01371  -0.01395   2.08035
   A11        2.12762   0.00939   0.00000   0.02122   0.02099   2.14860
   A12        2.06127  -0.00366   0.00000  -0.00751  -0.00775   2.05352
   A13        1.91114  -0.00159   0.00000  -0.01456  -0.01477   1.89636
   A14        1.93905  -0.01067   0.00000  -0.03599  -0.03633   1.90272
   A15        1.93900   0.00589   0.00000   0.01962   0.02003   1.95903
   A16        1.89609   0.00263   0.00000   0.00617   0.00569   1.90179
   A17        1.89608  -0.00125   0.00000  -0.00980  -0.00992   1.88616
   A18        1.88137   0.00520   0.00000   0.03540   0.03554   1.91691
   A19        1.91115   0.00337   0.00000   0.01064   0.01053   1.92168
   A20        1.91106   0.00779   0.00000   0.02327   0.02313   1.93420
   A21        1.91110   0.00381   0.00000   0.01078   0.01069   1.92179
   A22        1.91011  -0.00516   0.00000  -0.01418  -0.01435   1.89576
   A23        1.91023  -0.00361   0.00000  -0.01080  -0.01086   1.89937
   A24        1.91015  -0.00622   0.00000  -0.01975  -0.01986   1.89029
   A25        2.10312   0.01234   0.00000   0.02485   0.02352   2.12664
   A26        2.03510  -0.00591   0.00000  -0.01190  -0.01315   2.02195
   A27        2.14497  -0.00643   0.00000  -0.01295  -0.01413   2.13084
   A28        2.09439  -0.00166   0.00000  -0.00306  -0.00309   2.09130
   A29        2.12768   0.00520   0.00000   0.01175   0.01172   2.13939
   A30        2.06112  -0.00354   0.00000  -0.00869  -0.00872   2.05241
   A31        1.91102  -0.00505   0.00000  -0.01638  -0.01633   1.89468
   A32        1.91114   0.00436   0.00000   0.01352   0.01347   1.92461
   A33        1.91114   0.00438   0.00000   0.01387   0.01382   1.92496
   A34        1.91015  -0.00048   0.00000  -0.00299  -0.00295   1.90720
   A35        1.91015  -0.00021   0.00000  -0.00166  -0.00161   1.90854
   A36        1.91020  -0.00301   0.00000  -0.00637  -0.00651   1.90369
    D1       -0.00008   0.00226   0.00000   0.03031   0.03035   0.03027
    D2        3.14147  -0.00210   0.00000  -0.03089  -0.03096   3.11051
    D3        2.10336   0.00130   0.00000   0.02502   0.02494   2.12831
    D4       -1.03827  -0.00305   0.00000  -0.03618  -0.03636  -1.07463
    D5       -2.10326   0.00279   0.00000   0.03319   0.03338  -2.06988
    D6        1.03829  -0.00156   0.00000  -0.02801  -0.02792   1.01037
    D7        0.00000  -0.00532   0.00000  -0.01203  -0.01217  -0.01217
    D8       -3.14154  -0.00231   0.00000  -0.05376  -0.05381   3.08783
    D9        3.14154  -0.00979   0.00000  -0.07483  -0.07478   3.06676
   D10        0.00000  -0.00678   0.00000  -0.11656  -0.11642  -0.11642
   D11        1.04718  -0.00715   0.00000  -0.00926  -0.00951   1.03768
   D12       -3.14156  -0.01165   0.00000  -0.03378  -0.03346   3.10817
   D13       -1.04721  -0.00828   0.00000   0.00000   0.00000  -1.04721
   D14       -2.09436  -0.00419   0.00000  -0.05024  -0.05054  -2.14490
   D15        0.00008  -0.00870   0.00000  -0.07476  -0.07449  -0.07441
   D16        2.09444  -0.00532   0.00000  -0.04098  -0.04103   2.05340
   D17        1.04724   0.00392   0.00000   0.02728   0.02712   1.07436
   D18        3.14157   0.00445   0.00000   0.03070   0.03058  -3.11103
   D19       -1.04726   0.00394   0.00000   0.02739   0.02727  -1.01999
   D20       -3.13259  -0.00295   0.00000  -0.00902  -0.00914   3.14145
   D21       -1.03826  -0.00243   0.00000  -0.00560  -0.00568  -1.04394
   D22        1.05609  -0.00294   0.00000  -0.00892  -0.00899   1.04710
   D23       -1.08102  -0.00017   0.00000   0.00208   0.00228  -1.07874
   D24        1.01331   0.00035   0.00000   0.00550   0.00574   1.01905
   D25        3.10766  -0.00016   0.00000   0.00219   0.00243   3.11009
   D26        0.00000  -0.00479   0.00000  -0.09051  -0.09124  -0.09124
   D27        3.14159  -0.00208   0.00000   0.00000   0.00000  -3.14159
   D28       -2.10332  -0.00566   0.00000  -0.07830  -0.07877  -2.18209
   D29        1.03828  -0.00295   0.00000   0.01221   0.01248   1.05075
   D30        2.12829  -0.01095   0.00000  -0.09973  -0.09983   2.02846
   D31       -1.01330  -0.00823   0.00000  -0.00922  -0.00859  -1.02189
   D32        0.00000  -0.00238   0.00000  -0.05818  -0.05749  -0.05749
   D33        3.14159  -0.00123   0.00000  -0.04350  -0.04279   3.09880
   D34        3.14159   0.00040   0.00000   0.03471   0.03399  -3.10760
   D35        0.00000   0.00155   0.00000   0.04938   0.04870   0.04870
   D36        0.00000  -0.00043   0.00000  -0.00634  -0.00633  -0.00633
   D37        2.09435  -0.00144   0.00000  -0.01176  -0.01183   2.08252
   D38       -2.09435   0.00023   0.00000  -0.00276  -0.00268  -2.09703
   D39        3.14159   0.00069   0.00000   0.00807   0.00806  -3.13353
   D40       -1.04724  -0.00031   0.00000   0.00265   0.00256  -1.04468
   D41        1.04724   0.00136   0.00000   0.01165   0.01171   1.05896
         Item               Value     Threshold  Converged?
 Maximum Force            0.050563     0.000450     NO 
 RMS     Force            0.009663     0.000300     NO 
 Maximum Displacement     0.281110     0.001800     NO 
 RMS     Displacement     0.064297     0.001200     NO 
 Predicted change in Energy=-1.207616D-02
 GradGradGradGradGradGradGradGradGradGradGradGradGradGradGradGradGradGrad

                          Input orientation:                          
 ---------------------------------------------------------------------
 Center     Atomic      Atomic             Coordinates (Angstroms)
 Number     Number       Type             X           Y           Z
 ---------------------------------------------------------------------
      1          1           0        0.708257    3.559696    1.689069
      2          6           0        1.345138    3.397167    0.828174
      3          1           0        0.850670    3.771557   -0.065155
      4          1           0        1.528141    2.331495    0.707356
      5          6           0        2.664881    4.126769    1.024784
      6          8           0        2.896677    4.745543    2.042242
      7          7           0        3.563247    3.972766    0.036385
      8          1           0        3.331752    3.396731   -0.748049
      9          6           0        4.843593    4.642749    0.022025
     10          1           0        5.398804    4.350987    0.910365
     11          6           0        5.624934    4.200923   -1.221552
     12          1           0        5.085365    4.483838   -2.121925
     13          1           0        6.604585    4.663619   -1.245487
     14          1           0        5.756997    3.121883   -1.216181
     15          6           0        4.699688    6.172771    0.030996
     16          8           0        3.616760    6.714380   -0.045696
     17          7           0        5.847404    6.868606    0.018557
     18          1           0        6.721791    6.385805    0.054270
     19          6           0        5.881557    8.317030   -0.027528
     20          1           0        4.864499    8.684717   -0.054522
     21          1           0        6.381819    8.710074    0.853453
     22          1           0        6.409942    8.653593   -0.915880
 ---------------------------------------------------------------------
                    Distance matrix (angstroms):
                    1          2          3          4          5
     1  H    0.000000
     2  C    1.083132   0.000000
     3  H    1.772701   1.087521   0.000000
     4  H    1.773258   1.087999   1.769045   0.000000
     5  C    2.142714   1.520755   2.146044   2.148475   0.000000
     6  O    2.513990   2.387331   3.094497   3.079356   1.213190
     7  N    3.324599   2.424511   2.721924   2.699191   1.344512
     8  H    3.584526   2.535964   2.600501   2.550675   2.029928
     9  C    4.588359   3.800070   4.087788   4.099243   2.453273
    10  H    4.820140   4.165181   4.687526   4.370537   2.745487
    11  C    5.749486   4.812904   4.931045   4.898893   3.716643
    12  H    5.876800   4.886024   4.761332   5.029041   3.985977
    13  H    6.678095   5.793596   5.941086   5.917996   4.578603
    14  H    5.841398   4.870284   5.081239   4.712529   3.948785
    15  C    5.050632   4.426339   4.537622   5.027084   3.051914
    16  O    4.628264   4.114342   4.038791   4.913155   2.957657
    17  N    6.336428   5.742540   5.879291   6.302051   4.319562
    18  H    6.842664   6.199942   6.427956   6.621023   4.743802
    19  C    7.234775   6.746582   6.780307   7.437669   5.386340
    20  H    6.824976   6.412741   6.344295   7.216313   5.174758
    21  H    7.708045   7.320913   7.471706   8.016595   5.903530
    22  H    8.077299   7.504930   7.447383   8.150816   6.187391
                    6          7          8          9         10
     6  O    0.000000
     7  N    2.250547   0.000000
     8  H    3.129586   1.000371   0.000000
     9  C    2.807548   1.445119   2.105051   0.000000
    10  H    2.774430   2.067888   2.816673   1.087443   0.000000
    11  C    4.288630   2.425904   2.475805   1.533685   2.149122
    12  H    4.711595   2.690044   2.478809   2.163383   3.051340
    13  H    4.956255   3.371974   3.544557   2.169820   2.489848
    14  H    4.629797   2.665607   2.485257   2.163445   2.482176
    15  C    3.054986   2.476196   3.191325   1.536801   2.140316
    16  O    2.958770   2.743364   3.403134   2.408601   3.110524
    17  N    4.160467   3.688303   4.355468   2.441738   2.708314
    18  H    4.612374   3.974855   4.590277   2.562598   2.573650
    19  C    5.094014   4.924559   5.588381   3.818398   4.103924
    20  H    4.877073   4.889172   5.549152   4.042747   4.471879
    21  H    5.410817   5.572614   6.332403   4.427249   4.468914
    22  H    6.030454   5.560632   6.094097   4.406811   4.782258
                   11         12         13         14         15
    11  C    0.000000
    12  H    1.087127   0.000000
    13  H    1.083687   1.763092   0.000000
    14  H    1.087105   1.768158   1.759606   0.000000
    15  C    2.512597   2.763387   2.745102   3.461397   0.000000
    16  O    3.425327   3.382727   3.817358   4.342428   1.213241
    17  N    2.950237   3.293856   2.652000   3.945971   1.342234
    18  H    2.757631   3.321324   2.160794   3.632913   2.033427
    19  C    4.293471   4.440021   3.918369   5.330850   2.449099
    20  H    4.695171   4.687251   4.540433   5.752489   2.518799
    21  H    5.021052   5.328671   4.563877   5.991799   3.153396
    22  H    4.531661   4.538272   4.008295   5.578202   3.158484
                   16         17         18         19         20
    16  O    0.000000
    17  N    2.236892   0.000000
    18  H    3.123968   0.999463   0.000000
    19  C    2.774550   1.449560   2.107680   0.000000
    20  H    2.332201   2.066326   2.957426   1.081818   0.000000
    21  H    3.526587   2.091328   2.481229   1.086679   1.768424
    22  H    3.509934   2.091842   2.486223   1.087031   1.769548
                   21         22
    21  H    0.000000
    22  H    1.770457   0.000000
 Stoichiometry    C6H12N2O2
 Framework group  C1[X(C6H12N2O2)]
 Deg. of freedom    60
 Full point group                 C1      NOp   1
 Largest Abelian subgroup         C1      NOp   1
 Largest concise Abelian subgroup C1      NOp   1
                         Standard orientation:                         
 ---------------------------------------------------------------------
 Center     Atomic      Atomic             Coordinates (Angstroms)
 Number     Number       Type             X           Y           Z
 ---------------------------------------------------------------------
      1          1           0        3.889945   -1.326892   -0.127141
      2          6           0        3.376423   -0.430275   -0.452024
      3          1           0        3.266465   -0.446600   -1.533849
      4          1           0        3.959615    0.444434   -0.171821
      5          6           0        2.003929   -0.363852    0.199547
      6          8           0        1.636478   -1.215325    0.981725
      7          7           0        1.276424    0.727726   -0.095250
      8          1           0        1.664494    1.424235   -0.699418
      9          6           0       -0.073277    0.928842    0.380386
     10          1           0       -0.063380    0.922830    1.467767
     11          6           0       -0.576400    2.293594   -0.105937
     12          1           0       -0.593590    2.319954   -1.192609
     13          1           0       -1.577440    2.488104    0.260752
     14          1           0        0.078449    3.083246    0.253811
     15          6           0       -1.028172   -0.178024   -0.093721
     16          8           0       -0.670841   -1.045759   -0.862684
     17          7           0       -2.303721   -0.062076    0.307682
     18          1           0       -2.566498    0.683383    0.919372
     19          6           0       -3.337132   -0.994593   -0.096914
     20          1           0       -2.894490   -1.739097   -0.745073
     21          1           0       -3.763615   -1.485087    0.773947
     22          1           0       -4.126198   -0.473530   -0.633109
 ---------------------------------------------------------------------
 Rotational constants (GHZ):      2.3738418      0.8160104      0.6767648
 Standard basis: 6-31G(d) (6D, 7F)
 There are   174 symmetry adapted basis functions of A   symmetry.
 Integral buffers will be    131072 words long.
 Raffenetti 1 integral format.
 Two-electron integral symmetry is turned on.
   174 basis functions,   328 primitive gaussians,   174 cartesian basis functions
    39 alpha electrons       39 beta electrons
       nuclear repulsion energy       562.6779415807 Hartrees.
 NAtoms=   22 NActive=   22 NUniq=   22 SFac= 7.50D-01 NAtFMM=   80 NAOKFM=F Big=F
 One-electron integrals computed using PRISM.
 NBasis=   174 RedAO= T  NBF=   174
 NBsUse=   174 1.00D-06 NBFU=   174
 Initial guess read from the read-write file.
 B after Tr=     0.000000    0.000000    0.000000
         Rot=    1.000000    0.000000    0.000000    0.000000 Ang=   0.00 deg.
 Initial guess orbital symmetries:
       Occupied  (A) (A) (A) (A) (A) (A) (A) (A) (A) (A) (A) (A)
                 (A) (A) (A) (A) (A) (A) (A) (A) (A) (A) (A) (A)
                 (A) (A) (A) (A) (A) (A) (A) (A) (A) (A) (A) (A)
                 (A) (A) (A)
       Virtual   (A) (A) (A) (A) (A) (A) (A) (A) (A) (A) (A) (A)
                 (A) (A) (A) (A) (A) (A) (A) (A) (A) (A) (A) (A)
                 (A) (A) (A) (A) (A) (A) (A) (A) (A) (A) (A) (A)
                 (A) (A) (A) (A) (A) (A) (A) (A) (A) (A) (A) (A)
                 (A) (A) (A) (A) (A) (A) (A) (A) (A) (A) (A) (A)
                 (A) (A) (A) (A) (A) (A) (A) (A) (A) (A) (A) (A)
                 (A) (A) (A) (A) (A) (A) (A) (A) (A) (A) (A) (A)
                 (A) (A) (A) (A) (A) (A) (A) (A) (A) (A) (A) (A)
                 (A) (A) (A) (A) (A) (A) (A) (A) (A) (A) (A) (A)
                 (A) (A) (A) (A) (A) (A) (A) (A) (A) (A) (A) (A)
                 (A) (A) (A) (A) (A) (A) (A) (A) (A) (A) (A) (A)
                 (A) (A) (A)
 Harris functional with IExCor=  205 diagonalized for initial guess.
 ExpMin= 1.61D-01 ExpMax= 5.48D+03 ExpMxC= 8.25D+02 IAcc=1 IRadAn=         1 AccDes= 0.00D+00
 HarFok:  IExCor=  205 AccDes= 0.00D+00 IRadAn=         1 IDoV= 1
 ScaDFX=  1.000000  1.000000  1.000000  1.000000
 FoFCou: FMM=F IPFlag=           0 FMFlag=      100000 FMFlg1=           0
         NFxFlg=           0 DoJE=T BraDBF=F KetDBF=T FulRan=T
         Omega=  0.000000  0.000000  1.000000  0.000000  0.000000 ICntrl=     500 IOpCl=  0
         NMat0=    1 NMatS0=    1 NMatT0=    0 NMatD0=    1 NMtDS0=    0 NMtDT0=    0
         I1Cent=           4 NGrid=           0.
 Petite list used in FoFCou.
 Requested convergence on RMS density matrix=1.00D-08 within 128 cycles.
 Requested convergence on MAX density matrix=1.00D-06.
 Requested convergence on             energy=1.00D-06.
 No special actions if energy rises.
 Integral accuracy reduced to 1.0D-05 until final iterations.
 Initial convergence to 1.0D-05 achieved.  Increase integral accuracy.
 SCF Done:  E(RHF) =  -492.845636133     A.U. after   14 cycles
             Convg  =    0.4590D-08             -V/T =  2.0018
 Calling FoFJK, ICntrl=      2127 FMM=F ISym2X=0 I1Cent= 0 IOpClX= 0 NMat=1 NMatS=1 NMatT=0.
 ***** Axes restored to original set *****
 -------------------------------------------------------------------
 Center     Atomic                   Forces (Hartrees/Bohr)
 Number     Number              X              Y              Z
 -------------------------------------------------------------------
      1        1           0.002998807    0.000300421   -0.001883954
      2        6           0.003633270    0.002897303   -0.003931012
      3        1          -0.000707110   -0.002240901    0.001226861
      4        1          -0.001883448    0.001202454   -0.000598139
      5        6          -0.007850663    0.007285313    0.038256512
      6        8          -0.000238961   -0.013113451   -0.022468238
      7        7           0.009310387   -0.000470171   -0.012877452
      8        1          -0.000659864    0.006777684    0.004147305
      9        6           0.003227651   -0.001729750    0.004499178
     10        1          -0.000513151    0.001978726   -0.000462262
     11        6          -0.002167136   -0.002155253    0.001566788
     12        1           0.002113858   -0.000120701    0.000358234
     13        1          -0.001109199   -0.002673484   -0.002211289
     14        1           0.000277624    0.001817372   -0.000487512
     15        6          -0.037923883    0.010049632   -0.012799274
     16        8           0.021888782   -0.012690118    0.000749749
     17        7           0.013142974    0.000804736    0.003775107
     18        1          -0.005867918    0.002868187    0.002056533
     19        6           0.000609330    0.000114031    0.001151729
     20        1           0.003622261   -0.001765804    0.000115966
     21        1          -0.000953918    0.000519016   -0.001834352
     22        1          -0.000949689    0.000344759    0.001649520
 -------------------------------------------------------------------
 Cartesian Forces:  Max     0.038256512 RMS     0.008969092

 GradGradGradGradGradGradGradGradGradGradGradGradGradGradGradGradGradGrad
 Berny optimization.
 Using GEDIIS/GDIIS optimizer.
 Internal  Forces:  Max     0.025577303 RMS     0.004661716
 Search for a local minimum.
 Step number   2 out of a maximum of  108
 All quantities printed in internal units (Hartrees-Bohrs-Radians)
 Mixed Optimization -- RFO/linear search
 Update second derivatives using D2CorX and points    1    2
 DE= -9.65D-03 DEPred=-1.21D-02 R= 7.99D-01
 SS=  1.41D+00  RLast= 3.00D-01 DXNew= 5.0454D-01 8.9984D-01
 Trust test= 7.99D-01 RLast= 3.00D-01 DXMaxT set to 5.05D-01
 Use linear search instead of GDIIS.
     Eigenvalues ---    0.00369   0.00435   0.01044   0.01120   0.01332
     Eigenvalues ---    0.01638   0.01672   0.02550   0.02859   0.03792
     Eigenvalues ---    0.05388   0.05657   0.05721   0.05919   0.07260
     Eigenvalues ---    0.07301   0.07561   0.07739   0.14747   0.15924
     Eigenvalues ---    0.15999   0.16000   0.16000   0.16000   0.16000
     Eigenvalues ---    0.16000   0.16000   0.16000   0.16004   0.16014
     Eigenvalues ---    0.17318   0.21864   0.22712   0.24120   0.24956
     Eigenvalues ---    0.24990   0.26981   0.29366   0.29945   0.32938
     Eigenvalues ---    0.34685   0.34809   0.34812   0.34816   0.34816
     Eigenvalues ---    0.34818   0.34819   0.34820   0.34823   0.35568
     Eigenvalues ---    0.38277   0.38477   0.45271   0.46019   0.56139
     Eigenvalues ---    0.58399   0.80342   0.914821000.000001000.00000
     Eigenvalues --- 1000.000001000.000001000.000001000.000001000.00000
     Eigenvalues --- 1000.000001000.000001000.000001000.000001000.00000
     Eigenvalues --- 1000.000001000.000001000.000001000.000001000.00000
     Eigenvalues --- 1000.000001000.000001000.000001000.000001000.00000
     Eigenvalues --- 1000.000001000.000001000.000001000.000001000.00000
     Eigenvalues --- 1000.000001000.000001000.000001000.000001000.00000
     Eigenvalues --- 1000.000001000.000001000.000001000.000001000.00000
     Eigenvalues --- 1000.000001000.000001000.00000
 RFO step:  Lambda=-6.29496476D-03 EMin= 3.68502237D-03
 Quartic linear search produced a step of  0.50850.
 Iteration  1 RMS(Cart)=  0.10904586 RMS(Int)=  0.00529896
 Iteration  2 RMS(Cart)=  0.01004701 RMS(Int)=  0.00079498
 Iteration  3 RMS(Cart)=  0.00003794 RMS(Int)=  0.00079474
 Iteration  4 RMS(Cart)=  0.00000001 RMS(Int)=  0.00079474
 Iteration  1 RMS(Cart)=  0.00011500 RMS(Int)=  0.00005660
 Iteration  2 RMS(Cart)=  0.00007437 RMS(Int)=  0.00006257
 Iteration  3 RMS(Cart)=  0.00004885 RMS(Int)=  0.00007189
 Iteration  4 RMS(Cart)=  0.00003241 RMS(Int)=  0.00007968
 Iteration  5 RMS(Cart)=  0.00002164 RMS(Int)=  0.00008539
 Iteration  6 RMS(Cart)=  0.00001451 RMS(Int)=  0.00008939
 Iteration  7 RMS(Cart)=  0.00000975 RMS(Int)=  0.00009214
 Iteration  8 RMS(Cart)=  0.00000656 RMS(Int)=  0.00009402
 Iteration  9 RMS(Cart)=  0.00000441 RMS(Int)=  0.00009530
 Iteration 10 RMS(Cart)=  0.00000297 RMS(Int)=  0.00009616
 Iteration 11 RMS(Cart)=  0.00000200 RMS(Int)=  0.00009674
 Iteration 12 RMS(Cart)=  0.00000135 RMS(Int)=  0.00009713
 Iteration 13 RMS(Cart)=  0.00000091 RMS(Int)=  0.00009740
 Variable       Old X    -DE/DX   Delta X   Delta X   Delta X     New X
                                 (Linear)    (Quad)   (Total)
    R1        2.04682  -0.00322  -0.00661  -0.00796  -0.01457   2.03225
    R2        2.05512  -0.00146  -0.00229  -0.00421  -0.00650   2.04862
    R3        2.05602  -0.00143  -0.00196  -0.00437  -0.00633   2.04969
    R4        2.87381  -0.00387  -0.00893  -0.01158  -0.02051   2.85330
    R5        2.29260  -0.02558  -0.01523  -0.02933  -0.04456   2.24804
    R6        2.54076   0.01008   0.00914   0.01810   0.02724   2.56800
    R7        1.89043  -0.00700  -0.00931  -0.01475  -0.02406   1.86636
    R8        2.73088  -0.00528  -0.00371  -0.01718  -0.02088   2.71000
    R9        2.05497  -0.00117  -0.00243  -0.00288  -0.00531   2.04966
   R10        2.89824   0.00108   0.00832  -0.00191   0.00641   2.90465
   R11        2.90413   0.00082   0.01421  -0.00835   0.00587   2.91000
   R12        2.05437  -0.00138  -0.00272  -0.00350  -0.00622   2.04815
   R13        2.04787  -0.00210  -0.00609  -0.00366  -0.00975   2.03812
   R14        2.05433  -0.00177  -0.00271  -0.00519  -0.00790   2.04643
   R15        2.29269  -0.02525  -0.01521  -0.02882  -0.04403   2.24866
   R16        2.53646   0.00964   0.00700   0.01876   0.02575   2.56221
   R17        1.88871  -0.00645  -0.01016  -0.01225  -0.02241   1.86631
   R18        2.73927  -0.00077   0.00054  -0.00341  -0.00287   2.73640
   R19        2.04434  -0.00401  -0.00787  -0.01024  -0.01811   2.02623
   R20        2.05353  -0.00174  -0.00314  -0.00467  -0.00781   2.04571
   R21        2.05419  -0.00170  -0.00280  -0.00481  -0.00761   2.04658
    A1        1.91122  -0.00016  -0.00002  -0.00211  -0.00186   1.90936
    A2        1.91149   0.00000   0.00021  -0.00305  -0.00263   1.90886
    A3        1.91296  -0.00317  -0.01325  -0.01798  -0.03099   1.88197
    A4        1.89912  -0.00226  -0.00564  -0.01142  -0.01762   1.88150
    A5        1.91305   0.00320   0.00866   0.02209   0.03058   1.94363
    A6        1.91591   0.00241   0.01014   0.01253   0.02246   1.93837
    A7        2.11640   0.00633   0.00675   0.03264   0.03807   2.15447
    A8        2.01513  -0.00197  -0.01015  -0.00081  -0.01226   2.00288
    A9        2.14992  -0.00432   0.00251  -0.02548  -0.02425   2.12567
   A10        2.08035   0.00045  -0.00709   0.00542  -0.00531   2.07504
   A11        2.14860  -0.00223   0.01067  -0.02571  -0.01874   2.12987
   A12        2.05352   0.00180  -0.00394   0.01547   0.00768   2.06120
   A13        1.89636  -0.00014  -0.00751   0.02608   0.01852   1.91488
   A14        1.90272   0.00007  -0.01847  -0.01665  -0.03476   1.86796
   A15        1.95903  -0.00327   0.01018  -0.04700  -0.03613   1.92289
   A16        1.90179  -0.00040   0.00290   0.00846   0.01079   1.91258
   A17        1.88616   0.00122  -0.00505   0.00927   0.00392   1.89008
   A18        1.91691   0.00256   0.01807   0.02153   0.03848   1.95540
   A19        1.92168   0.00124   0.00535   0.00694   0.01208   1.93375
   A20        1.93420   0.00375   0.01176   0.02326   0.03477   1.96897
   A21        1.92179  -0.00005   0.00544  -0.00666  -0.00127   1.92052
   A22        1.89576  -0.00236  -0.00730  -0.01215  -0.01984   1.87592
   A23        1.89937  -0.00069  -0.00552  -0.00190  -0.00743   1.89194
   A24        1.89029  -0.00204  -0.01010  -0.01022  -0.02039   1.86990
   A25        2.12664   0.00080   0.01196  -0.00503   0.00624   2.13287
   A26        2.02195  -0.00548  -0.00669  -0.02576  -0.03309   1.98886
   A27        2.13084   0.00493  -0.00718   0.03522   0.02745   2.15828
   A28        2.09130  -0.00163  -0.00157  -0.01061  -0.01283   2.07847
   A29        2.13939   0.00253   0.00596   0.01123   0.01654   2.15594
   A30        2.05241  -0.00091  -0.00443  -0.00136  -0.00645   2.04596
   A31        1.89468  -0.00122  -0.00831  -0.00452  -0.01276   1.88193
   A32        1.92461   0.00177   0.00685   0.01045   0.01722   1.94184
   A33        1.92496   0.00119   0.00703   0.00453   0.01147   1.93643
   A34        1.90720  -0.00041  -0.00150  -0.00305  -0.00448   1.90273
   A35        1.90854  -0.00026  -0.00082  -0.00350  -0.00426   1.90428
   A36        1.90369  -0.00109  -0.00331  -0.00406  -0.00759   1.89610
    D1        0.03027  -0.00035   0.01543  -0.06203  -0.04717  -0.01691
    D2        3.11051   0.00006  -0.01574   0.04896   0.03384  -3.13883
    D3        2.12831  -0.00053   0.01268  -0.06208  -0.05033   2.07798
    D4       -1.07463  -0.00012  -0.01849   0.04891   0.03068  -1.04395
    D5       -2.06988   0.00014   0.01697  -0.05485  -0.03817  -2.10805
    D6        1.01037   0.00055  -0.01420   0.05614   0.04285   1.05321
    D7       -0.01217  -0.00281  -0.00619  -0.03296  -0.03888  -0.05105
    D8        3.08783  -0.00216  -0.02736  -0.17288  -0.19866   2.88918
    D9        3.06676  -0.00197  -0.03803   0.08269   0.04309   3.10985
   D10       -0.11642  -0.00133  -0.05920  -0.05722  -0.11669  -0.23311
   D11        1.03768  -0.00433  -0.00483  -0.00031  -0.00558   1.03210
   D12        3.10817  -0.00486  -0.01701   0.01538  -0.00223   3.10594
   D13       -1.04721  -0.00373   0.00000   0.00000   0.00000  -1.04721
   D14       -2.14490  -0.00372  -0.02570  -0.13841  -0.16443  -2.30933
   D15       -0.07441  -0.00425  -0.03788  -0.12272  -0.16108  -0.23549
   D16        2.05340  -0.00312  -0.02087  -0.13810  -0.15885   1.89455
   D17        1.07436  -0.00053   0.01379  -0.00571   0.00777   1.08214
   D18       -3.11103  -0.00025   0.01555  -0.00135   0.01407  -3.09696
   D19       -1.01999  -0.00043   0.01387  -0.00353   0.01014  -1.00986
   D20        3.14145  -0.00090  -0.00465   0.02100   0.01601  -3.12572
   D21       -1.04394  -0.00062  -0.00289   0.02535   0.02230  -1.02164
   D22        1.04710  -0.00080  -0.00457   0.02318   0.01837   1.06547
   D23       -1.07874   0.00184   0.00116   0.04983   0.05135  -1.02739
   D24        1.01905   0.00212   0.00292   0.05418   0.05764   1.07669
   D25        3.11009   0.00194   0.00123   0.05200   0.05371  -3.11939
   D26       -0.09124  -0.00230  -0.04640   0.05538   0.00876  -0.08248
   D27       -3.14159  -0.00557   0.00000   0.00000   0.00000  -3.14159
   D28       -2.18209  -0.00093  -0.04005   0.04559   0.00524  -2.17684
   D29        1.05075  -0.00420   0.00634  -0.00979  -0.00352   1.04723
   D30        2.02846  -0.00263  -0.05076   0.01764  -0.03350   1.99495
   D31       -1.02189  -0.00590  -0.00437  -0.03774  -0.04226  -1.06415
   D32       -0.05749   0.00049  -0.02924  -0.02168  -0.05036  -0.10786
   D33        3.09880   0.00164  -0.02176   0.03921   0.01784   3.11664
   D34       -3.10760  -0.00255   0.01729  -0.07489  -0.05799   3.11759
   D35        0.04870  -0.00140   0.02476  -0.01401   0.01021   0.05891
   D36       -0.00633  -0.00062  -0.00322  -0.03119  -0.03444  -0.04078
   D37        2.08252  -0.00081  -0.00602  -0.03147  -0.03764   2.04488
   D38       -2.09703  -0.00026  -0.00136  -0.02683  -0.02812  -2.12515
   D39       -3.13353   0.00051   0.00410   0.02849   0.03264  -3.10090
   D40       -1.04468   0.00032   0.00130   0.02822   0.02944  -1.01524
   D41        1.05896   0.00087   0.00596   0.03286   0.03896   1.09792
         Item               Value     Threshold  Converged?
 Maximum Force            0.025577     0.000450     NO 
 RMS     Force            0.004555     0.000300     NO 
 Maximum Displacement     0.469731     0.001800     NO 
 RMS     Displacement     0.112828     0.001200     NO 
 Predicted change in Energy=-4.508349D-03
 GradGradGradGradGradGradGradGradGradGradGradGradGradGradGradGradGradGrad

                          Input orientation:                          
 ---------------------------------------------------------------------
 Center     Atomic      Atomic             Coordinates (Angstroms)
 Number     Number       Type             X           Y           Z
 ---------------------------------------------------------------------
      1          1           0        0.763737    3.707166    1.660110
      2          6           0        1.372822    3.527345    0.792233
      3          1           0        0.930789    4.020128   -0.066256
      4          1           0        1.399853    2.462824    0.586009
      5          6           0        2.756199    4.059580    1.079969
      6          8           0        3.054371    4.592464    2.100899
      7          7           0        3.647213    3.906549    0.065397
      8          1           0        3.361644    3.433436   -0.753164
      9          6           0        4.896897    4.609468    0.038077
     10          1           0        5.476750    4.359306    0.919905
     11          6           0        5.647048    4.145106   -1.220590
     12          1           0        5.091509    4.399984   -2.115637
     13          1           0        6.626732    4.587105   -1.310457
     14          1           0        5.782570    3.070960   -1.196656
     15          6           0        4.651213    6.129646    0.036362
     16          8           0        3.558020    6.595302   -0.027327
     17          7           0        5.786366    6.870693    0.011104
     18          1           0        6.659074    6.414973    0.088992
     19          6           0        5.795848    8.318243   -0.025389
     20          1           0        4.777888    8.652160   -0.069496
     21          1           0        6.264198    8.730131    0.859427
     22          1           0        6.325760    8.680131   -0.897812
 ---------------------------------------------------------------------
                    Distance matrix (angstroms):
                    1          2          3          4          5
     1  H    0.000000
     2  C    1.075421   0.000000
     3  H    1.762439   1.084081   0.000000
     4  H    1.762590   1.084649   1.752332   0.000000
     5  C    2.104915   1.509900   2.155808   2.152511   0.000000
     6  O    2.495005   2.382161   3.087674   3.093168   1.189609
     7  N    3.301106   2.417631   2.721983   2.721398   1.358926
     8  H    3.556394   2.520413   2.593281   2.565950   2.029531
     9  C    4.530800   3.762824   4.011011   4.139762   2.443461
    10  H    4.815152   4.189354   4.664045   4.508794   2.741688
    11  C    5.686559   4.764671   4.857077   4.912488   3.695523
    12  H    5.784970   4.800609   4.653584   4.967878   3.972587
    13  H    6.631235   5.757427   5.857752   5.952262   4.579677
    14  H    5.809867   4.858996   5.071341   4.770319   3.913989
    15  C    4.859777   4.253370   4.278101   4.931434   2.994221
    16  O    4.358530   3.854754   3.679045   4.702259   2.880781
    17  N    6.160676   5.591736   5.631015   6.245104   4.269278
    18  H    6.675000   6.064437   6.210686   6.597417   4.665012
    19  C    7.030297   6.571482   6.491861   7.347416   5.347662
    20  H    6.599842   6.212953   6.021287   7.081575   5.147843
    21  H    7.491751   7.141362   7.175393   7.938246   5.845403
    22  H    7.887297   7.344321   7.177243   8.069771   6.164647
                    6          7          8          9         10
     6  O    0.000000
     7  N    2.228275   0.000000
     8  H    3.095713   0.987637   0.000000
     9  C    2.765940   1.434068   2.089524   0.000000
    10  H    2.705001   2.069391   2.851328   1.084635   0.000000
    11  C    4.237262   2.389563   2.438859   1.537075   2.157916
    12  H    4.686807   2.662025   2.404783   2.172612   3.060161
    13  H    4.939549   3.351666   3.507467   2.193484   2.519696
    14  H    4.542237   2.617392   2.487762   2.162403   2.496636
    15  C    3.029050   2.439471   3.091260   1.539905   2.143890
    16  O    2.965529   2.691829   3.250046   2.395914   3.094908
    17  N    4.125696   3.655827   4.275292   2.430026   2.688652
    18  H    4.512559   3.919700   4.524581   2.523432   2.512782
    19  C    5.090995   4.907944   5.506028   3.816695   4.082719
    20  H    4.915512   4.880312   5.450526   4.045874   4.460485
    21  H    5.381870   5.544910   6.251419   4.418596   4.441604
    22  H    6.033513   5.557829   6.027828   4.414503   4.763869
                   11         12         13         14         15
    11  C    0.000000
    12  H    1.083834   0.000000
    13  H    1.078527   1.743628   0.000000
    14  H    1.082927   1.757384   1.739039   0.000000
    15  C    2.551473   2.795835   2.845353   3.486526   0.000000
    16  O    3.433857   3.395887   3.885392   4.328619   1.189942
    17  N    2.994212   3.333206   2.769028   3.987063   1.355862
    18  H    2.809180   3.373104   2.302305   3.688302   2.028715
    19  C    4.343469   4.496442   4.032761   5.376433   2.470619
    20  H    4.732229   4.729277   4.634964   5.781840   2.527910
    21  H    5.072454   5.382971   4.690895   6.040336   3.168860
    22  H    4.596878   4.618022   4.124769   5.643329   3.190887
[...]
    15  C    4.870646   4.115949   4.015300   4.689217   2.956251
    16  O    4.390162   3.652641   3.272169   4.335269   2.855071
    17  N    6.158574   5.452946   5.339818   6.032864   4.227244
    18  H    6.611432   5.939285   5.982056   6.464424   4.580905
    19  C    6.929096   6.300283   6.000829   6.998009   5.220806
    20  H    6.937695   6.251207   5.781628   6.919747   5.376643
    21  H    6.763187   6.285782   6.000329   7.106652   5.225044
    22  H    7.955414   7.310734   7.045256   7.966348   6.168980
                    6          7          8          9         10
     6  O    0.000000
     7  N    2.250598   0.000000
     8  H    3.073198   0.998160   0.000000
     9  C    2.748053   1.444511   2.054672   0.000000
    10  H    2.558568   2.050014   2.903612   1.082523   0.000000
    11  C    4.214132   2.425701   2.571947   1.531270   2.149167
    12  H    4.745779   2.726900   2.464744   2.171267   3.055774
    13  H    4.868568   3.377022   3.610182   2.179519   2.493878
    14  H    4.470698   2.628449   2.785989   2.150188   2.488302
    15  C    3.099748   2.454562   2.821965   1.538047   2.137162
    16  O    3.127831   2.705382   2.845254   2.398442   3.086422
    17  N    4.165074   3.680626   4.062209   2.447055   2.722948
    18  H    4.410385   3.953615   4.457140   2.557375   2.515468
    19  C    5.060407   4.890342   5.195604   3.810562   4.073045
    20  H    5.398742   5.036775   5.149021   4.146360   4.639473
    21  H    4.856522   5.171104   5.591756   4.211592   4.304763
    22  H    5.981290   5.727023   6.034565   4.510706   4.686950
                   11         12         13         14         15
    11  C    0.000000
    12  H    1.086108   0.000000
    13  H    1.082596   1.749998   0.000000
    14  H    1.083202   1.760215   1.756739   0.000000
    15  C    2.542033   2.784333   2.824213   3.473867   0.000000
    16  O    3.443408   3.410989   3.888529   4.327280   1.199687
    17  N    2.983965   3.294218   2.743994   3.987641   1.354350
    18  H    2.892013   3.451899   2.385142   3.774102   2.019959
    19  C    4.373428   4.514285   4.078757   5.408223   2.436975
    20  H    4.637970   4.528650   4.479394   5.711079   2.674419
    21  H    5.055022   5.303643   4.841085   6.033207   2.833850
    22  H    4.820346   4.983598   4.294397   5.835592   3.308348
                   16         17         18         19         20
    16  O    0.000000
    17  N    2.240168   0.000000
    18  H    3.097145   0.994635   0.000000
    19  C    2.755846   1.449543   2.098840   0.000000
    20  H    2.604383   2.074999   2.922078   1.079459   0.000000
    21  H    2.973827   2.112238   2.652634   1.084777   1.756095
    22  H    3.783535   2.067909   2.321359   1.082102   1.759620
                   21         22
    21  H    0.000000
    22  H    1.765919   0.000000
 Stoichiometry    C6H12N2O2
 Framework group  C1[X(C6H12N2O2)]
 Deg. of freedom    60
 Full point group                 C1      NOp   1
 Largest Abelian subgroup         C1      NOp   1
 Largest concise Abelian subgroup C1      NOp   1
                         Standard orientation:                         
 ---------------------------------------------------------------------
 Center     Atomic      Atomic             Coordinates (Angstroms)
 Number     Number       Type             X           Y           Z
 ---------------------------------------------------------------------
      1          1           0        3.752480   -1.375585   -0.059233
      2          6           0        3.083260   -0.734043   -0.613588
      3          1           0        2.658315   -1.296792   -1.438935
      4          1           0        3.632406    0.108931   -1.018765
      5          6           0        1.959569   -0.288554    0.290419
      6          8           0        1.691848   -0.842043    1.316490
      7          7           0        1.279988    0.833559   -0.128473
      8          1           0        1.400691    1.036365   -1.098330
      9          6           0       -0.079434    1.011161    0.326547
     10          1           0       -0.063615    1.017007    1.408938
     11          6           0       -0.608408    2.355105   -0.182166
     12          1           0       -0.669550    2.363307   -1.266520
     13          1           0       -1.596936    2.570719    0.202980
     14          1           0        0.060721    3.147737    0.129808
     15          6           0       -0.963871   -0.161411   -0.129999
     16          8           0       -0.549926   -1.020943   -0.857394
     17          7           0       -2.262827   -0.090891    0.246838
     18          1           0       -2.494192    0.511084    1.004066
     19          6           0       -3.173898   -1.183576   -0.030950
     20          1           0       -3.109953   -1.446779   -1.075874
     21          1           0       -2.946974   -2.064596    0.559854
     22          1           0       -4.182212   -0.858276    0.189111
 ---------------------------------------------------------------------
 Rotational constants (GHZ):      2.1516099      0.8677485      0.7212116

 **********************************************************************

            Population analysis using the SCF density.

 **********************************************************************

 Orbital symmetries:
       Occupied  (A) (A) (A) (A) (A) (A) (A) (A) (A) (A) (A) (A)
                 (A) (A) (A) (A) (A) (A) (A) (A) (A) (A) (A) (A)
                 (A) (A) (A) (A) (A) (A) (A) (A) (A) (A) (A) (A)
                 (A) (A) (A)
       Virtual   (A) (A) (A) (A) (A) (A) (A) (A) (A) (A) (A) (A)
                 (A) (A) (A) (A) (A) (A) (A) (A) (A) (A) (A) (A)
                 (A) (A) (A) (A) (A) (A) (A) (A) (A) (A) (A) (A)
                 (A) (A) (A) (A) (A) (A) (A) (A) (A) (A) (A) (A)
                 (A) (A) (A) (A) (A) (A) (A) (A) (A) (A) (A) (A)
                 (A) (A) (A) (A) (A) (A) (A) (A) (A) (A) (A) (A)
                 (A) (A) (A) (A) (A) (A) (A) (A) (A) (A) (A) (A)
                 (A) (A) (A) (A) (A) (A) (A) (A) (A) (A) (A) (A)
                 (A) (A) (A) (A) (A) (A) (A) (A) (A) (A) (A) (A)
                 (A) (A) (A) (A) (A) (A) (A) (A) (A) (A) (A) (A)
                 (A) (A) (A) (A) (A) (A) (A) (A) (A) (A) (A) (A)
                 (A) (A) (A)
 The electronic state is 1-A.
 Alpha  occ. eigenvalues --  -20.52774 -20.51924 -15.58744 -15.57575 -11.34466
 Alpha  occ. eigenvalues --  -11.34004 -11.27975 -11.25784 -11.23700 -11.22254
 Alpha  occ. eigenvalues --   -1.39962  -1.38360  -1.23580  -1.23234  -1.05483
 Alpha  occ. eigenvalues --   -0.98827  -0.95779  -0.87948  -0.79316  -0.78054
 Alpha  occ. eigenvalues --   -0.72576  -0.67013  -0.66619  -0.63437  -0.62860
 Alpha  occ. eigenvalues --   -0.61669  -0.59427  -0.57950  -0.57146  -0.56218
 Alpha  occ. eigenvalues --   -0.55426  -0.54317  -0.53466  -0.50866  -0.49730
 Alpha  occ. eigenvalues --   -0.43333  -0.41403  -0.39374  -0.38775
 Alpha virt. eigenvalues --    0.19218   0.20751   0.21605   0.23151   0.26400
 Alpha virt. eigenvalues --    0.27410   0.29342   0.30707   0.31101   0.31242
 Alpha virt. eigenvalues --    0.32261   0.32574   0.33781   0.34950   0.37572
 Alpha virt. eigenvalues --    0.39946   0.41732   0.42999   0.49334   0.50107
 Alpha virt. eigenvalues --    0.55481   0.57527   0.60209   0.71203   0.72948
 Alpha virt. eigenvalues --    0.74278   0.74882   0.76148   0.77463   0.77647
 Alpha virt. eigenvalues --    0.80655   0.84557   0.85327   0.87352   0.89914
 Alpha virt. eigenvalues --    0.93832   0.95835   0.96720   0.98420   0.99914
 Alpha virt. eigenvalues --    1.02398   1.03247   1.04766   1.07066   1.10135
 Alpha virt. eigenvalues --    1.11259   1.12311   1.12699   1.14668   1.15287
 Alpha virt. eigenvalues --    1.17053   1.17509   1.19204   1.19854   1.20713
 Alpha virt. eigenvalues --    1.21201   1.22599   1.24034   1.25190   1.25629
 Alpha virt. eigenvalues --    1.29198   1.31672   1.35701   1.38715   1.41487
 Alpha virt. eigenvalues --    1.46249   1.50361   1.52600   1.56822   1.61719
 Alpha virt. eigenvalues --    1.63626   1.67832   1.70124   1.72586   1.76288
 Alpha virt. eigenvalues --    1.80276   1.82956   1.91891   1.95384   1.98019
 Alpha virt. eigenvalues --    2.00160   2.04971   2.08198   2.10079   2.12157
 Alpha virt. eigenvalues --    2.14732   2.17040   2.18969   2.20755   2.26211
 Alpha virt. eigenvalues --    2.27352   2.29031   2.30032   2.32911   2.37120
 Alpha virt. eigenvalues --    2.38849   2.40348   2.41446   2.44574   2.46017
 Alpha virt. eigenvalues --    2.53353   2.56025   2.58734   2.60739   2.62746
 Alpha virt. eigenvalues --    2.65117   2.70016   2.72542   2.74345   2.75902
 Alpha virt. eigenvalues --    2.82717   2.83614   2.90250   2.93538   2.98436
 Alpha virt. eigenvalues --    3.01483   3.07481   3.08578   3.12070   3.25825
 Alpha virt. eigenvalues --    3.33569   3.39703   3.41357   3.53727   3.54704
 Alpha virt. eigenvalues --    4.35899   4.43750   4.48791   4.56583   4.65316
 Alpha virt. eigenvalues --    4.67002   4.73738   4.84928   4.89621   5.04428
          Condensed to atoms (all electrons):
              1          2          3          4          5          6
     1  H    0.468467   0.382471  -0.016495  -0.020984  -0.031843   0.003620
     2  C    0.382471   5.277950   0.374786   0.374544   0.374307  -0.070464
     3  H   -0.016495   0.374786   0.479237  -0.024140  -0.027512   0.000111
     4  H   -0.020984   0.374544  -0.024140   0.522585  -0.035417   0.001917
     5  C   -0.031843   0.374307  -0.027512  -0.035417   4.121310   0.610271
     6  O    0.003620  -0.070464   0.000111   0.001917   0.610271   8.141786
     7  N    0.004292  -0.118798   0.000865   0.004514   0.267921  -0.103927
     8  H    0.000108  -0.000540   0.000123  -0.000327  -0.021958   0.002801
     9  C   -0.000158   0.006748  -0.000504   0.000027  -0.032494   0.008659
    10  H    0.000006   0.000144  -0.000009  -0.000025  -0.004108   0.006909
    11  C    0.000002  -0.000104   0.000000  -0.000012   0.003580   0.000336
    12  H    0.000000  -0.000012   0.000000   0.000001  -0.000247  -0.000005
    13  H    0.000000   0.000002   0.000000   0.000000  -0.000020   0.000003
    14  H    0.000000  -0.000004   0.000000   0.000000  -0.000056  -0.000005
    15  C    0.000002  -0.000406   0.000099   0.000022   0.001746   0.000768
    16  O    0.000014  -0.001372   0.001514   0.000014   0.010170  -0.003076
    17  N    0.000000  -0.000011   0.000003   0.000000   0.000006  -0.000164
    18  H    0.000000   0.000000   0.000000   0.000000  -0.000028  -0.000003
    19  C    0.000000   0.000000   0.000000   0.000000  -0.000004   0.000003
    20  H    0.000000   0.000000   0.000000   0.000000  -0.000002   0.000001
    21  H    0.000000   0.000000   0.000000   0.000000   0.000006  -0.000002
    22  H    0.000000   0.000000   0.000000   0.000000   0.000000   0.000000
              7          8          9         10         11         12
     1  H    0.004292   0.000108  -0.000158   0.000006   0.000002   0.000000
     2  C   -0.118798  -0.000540   0.006748   0.000144  -0.000104  -0.000012
     3  H    0.000865   0.000123  -0.000504  -0.000009   0.000000   0.000000
     4  H    0.004514  -0.000327   0.000027  -0.000025  -0.000012   0.000001
     5  C    0.267921  -0.021958  -0.032494  -0.004108   0.003580  -0.000247
     6  O   -0.103927   0.002801   0.008659   0.006909   0.000336  -0.000005
     7  N    7.308513   0.322722   0.239631  -0.034056  -0.065468  -0.002099
     8  H    0.322722   0.353190  -0.033509   0.004243  -0.003832   0.003504
     9  C    0.239631  -0.033509   5.062414   0.395880   0.342724  -0.036793
    10  H   -0.034056   0.004243   0.395880   0.479890  -0.032399   0.003790
    11  C   -0.065468  -0.003832   0.342724  -0.032399   5.124379   0.388941
    12  H   -0.002099   0.003504  -0.036793   0.003790   0.388941   0.525119
    13  H    0.003858  -0.000027  -0.035251  -0.001919   0.391904  -0.025140
    14  H   -0.000765  -0.000210  -0.035008  -0.003978   0.391011  -0.026657
    15  C   -0.066944  -0.000849   0.381845  -0.044066  -0.054792  -0.004218
    16  O   -0.005899   0.002837  -0.074558   0.001192  -0.000107   0.000586
    17  N    0.003980   0.000029  -0.118479   0.004280   0.002025   0.000683
    18  H    0.000103  -0.000002   0.001420   0.000852   0.000022   0.000050
    19  C   -0.000112  -0.000003   0.003970  -0.000315  -0.000085  -0.000050
    20  H   -0.000001   0.000000   0.000212  -0.000003  -0.000034   0.000002
    21  H    0.000001   0.000000  -0.000181   0.000007   0.000001   0.000000
    22  H    0.000001   0.000000   0.000028  -0.000002  -0.000007   0.000000
             13         14         15         16         17         18
     1  H    0.000000   0.000000   0.000002   0.000014   0.000000   0.000000
     2  C    0.000002  -0.000004  -0.000406  -0.001372  -0.000011   0.000000
     3  H    0.000000   0.000000   0.000099   0.001514   0.000003   0.000000
     4  H    0.000000   0.000000   0.000022   0.000014   0.000000   0.000000
     5  C   -0.000020  -0.000056   0.001746   0.010170   0.000006  -0.000028
     6  O    0.000003  -0.000005   0.000768  -0.003076  -0.000164  -0.000003
     7  N    0.003858  -0.000765  -0.066944  -0.005899   0.003980   0.000103
     8  H   -0.000027  -0.000210  -0.000849   0.002837   0.000029  -0.000002
     9  C   -0.035251  -0.035008   0.381845  -0.074558  -0.118479   0.001420
    10  H   -0.001919  -0.003978  -0.044066   0.001192   0.004280   0.000852
    11  C    0.391904   0.391011  -0.054792  -0.000107   0.002025   0.000022
    12  H   -0.025140  -0.026657  -0.004218   0.000586   0.000683   0.000050
    13  H    0.517522  -0.022589  -0.002519  -0.000004   0.001349   0.000900
    14  H   -0.022589   0.500386   0.004407  -0.000066   0.000004  -0.000088
    15  C   -0.002519   0.004407   4.193526   0.604880   0.268084  -0.025374
    16  O   -0.000004  -0.000066   0.604880   8.171155  -0.104315   0.002592
    17  N    0.001349   0.000004   0.268084  -0.104315   7.325452   0.327381
    18  H    0.000900  -0.000088  -0.025374   0.002592   0.327381   0.337833
    19  C    0.000046   0.000005  -0.028090   0.006813   0.202660  -0.024780
    20  H   -0.000005   0.000000  -0.003752   0.003998  -0.038304   0.003098
    21  H    0.000003   0.000000  -0.003176   0.001237  -0.047084   0.000443
    22  H   -0.000008   0.000000   0.004373   0.000355  -0.038837  -0.004077
             19         20         21         22
     1  H    0.000000   0.000000   0.000000   0.000000
     2  C    0.000000   0.000000   0.000000   0.000000
     3  H    0.000000   0.000000   0.000000   0.000000
     4  H    0.000000   0.000000   0.000000   0.000000
     5  C   -0.000004  -0.000002   0.000006   0.000000
     6  O    0.000003   0.000001  -0.000002   0.000000
     7  N   -0.000112  -0.000001   0.000001   0.000001
     8  H   -0.000003   0.000000   0.000000   0.000000
     9  C    0.003970   0.000212  -0.000181   0.000028
    10  H   -0.000315  -0.000003   0.000007  -0.000002
    11  C   -0.000085  -0.000034   0.000001  -0.000007
    12  H   -0.000050   0.000002   0.000000   0.000000
    13  H    0.000046  -0.000005   0.000003  -0.000008
    14  H    0.000005   0.000000   0.000000   0.000000
    15  C   -0.028090  -0.003752  -0.003176   0.004373
    16  O    0.006813   0.003998   0.001237   0.000355
    17  N    0.202660  -0.038304  -0.047084  -0.038837
    18  H   -0.024780   0.003098   0.000443  -0.004077
    19  C    4.910123   0.403012   0.406462   0.397864
    20  H    0.403012   0.483374  -0.031794  -0.024636
    21  H    0.406462  -0.031794   0.525139  -0.032506
    22  H    0.397864  -0.024636  -0.032506   0.529301
 Mulliken atomic charges:
              1
     1  H    0.210499
     2  C   -0.599243
     3  H    0.211920
     4  H    0.177282
     5  C    0.764372
     6  O   -0.599539
     7  N   -0.758330
     8  H    0.371701
     9  C   -0.076619
    10  H    0.223688
    11  C   -0.488084
    12  H    0.172545
    13  H    0.171894
    14  H    0.193613
    15  C    0.774436
    16  O   -0.617962
    17  N   -0.788742
    18  H    0.379659
    19  C   -0.277521
    20  H    0.204834
    21  H    0.181445
    22  H    0.168152
 Sum of Mulliken atomic charges =   0.00000
 Mulliken charges with hydrogens summed into heavy atoms:
              1
     2  C    0.000458
     5  C    0.764372
     6  O   -0.599539
     7  N   -0.386628
     9  C    0.147069
    11  C    0.049968
    15  C    0.774436
    16  O   -0.617962
    17  N   -0.409083
    19  C    0.276911
 Sum of Mulliken charges with hydrogens summed into heavy atoms =   0.00000
 Electronic spatial extent (au):  <R**2>=           1710.2462
 Charge=              0.0000 electrons
 Dipole moment (field-independent basis, Debye):
    X=             -2.2149    Y=              3.2623    Z=             -1.0024  Tot=              4.0686
 Quadrupole moment (field-independent basis, Debye-Ang):
   XX=            -49.8749   YY=            -61.7072   ZZ=            -62.7110
   XY=              0.9267   XZ=             -9.5283   YZ=              0.9317
 Traceless Quadrupole moment (field-independent basis, Debye-Ang):
   XX=              8.2228   YY=             -3.6095   ZZ=             -4.6133
   XY=              0.9267   XZ=             -9.5283   YZ=              0.9317
 Octapole moment (field-independent basis, Debye-Ang**2):
  XXX=            -11.7033  YYY=             -1.4631  ZZZ=             -4.2470  XYY=             -4.9965
  XXY=             -9.5508  XXZ=             -3.5158  XZZ=             -6.7009  YZZ=              6.8677
  YYZ=             -0.4473  XYZ=              1.2165
 Hexadecapole moment (field-independent basis, Debye-Ang**3):
 XXXX=          -1343.8485 YYYY=           -554.3877 ZZZZ=           -203.9508 XXXY=              8.3442
 XXXZ=            -28.9089 YYYX=              2.0112 YYYZ=             -0.1550 ZZZX=            -11.1144
 ZZZY=              3.8610 XXYY=           -328.5167 XXZZ=           -280.7885 YYZZ=           -127.3416
 XXYZ=             12.4460 YYXZ=             -8.2816 ZZXY=              6.2319
 N-N= 5.665290063749D+02 E-N=-2.288666877631D+03  KE= 4.921271751567D+02
 1\1\GINC-RODAN\FOpt\RHF\6-31G(d)\C6H12N2O2\STEBOSS\10-Feb-2017\0\\# HF
 /6-31G* Opt=(ModRedundant) geom=nocrowd\\Phi Psi fixed scan\\0,1\H,0.9
 20253875,3.5638079357,1.8468329263\C,1.4136904872,3.6925236545,0.89462
 79645\H,0.9614411042,4.5306249231,0.3735543178\H,1.2850934882,2.801560
 2823,0.2896631863\C,2.8716725771,4.0052580399,1.1288418808\O,3.2945900
 007,4.3848212691,2.1814194068\N,3.6991064733,3.784836573,0.0503222716\
 H,3.2165660066,3.7396496247,-0.8222804431\C,4.9344504178,4.530319323,-
 0.018917291\H,5.4967827927,4.315239181,0.8807375244\C,5.7328460475,4.0
 680642804,-1.2410767711\H,5.2070090106,4.3055612354,-2.1612511153\H,6.
 7057432127,4.5405081748,-1.2888469101\H,5.8753673477,2.9952960202,-1.1
 943693767\C,4.6563274581,6.0425569777,-0.0559947954\O,3.5414555411,6.4
 797227503,-0.1280768125\N,5.7534269777,6.8339737983,-0.1215381055\H,6.
 6258409285,6.4410257787,0.1500936592\C,5.6295772597,8.2767528271,-0.05
 6531615\H,4.8970803516,8.6065062057,-0.7776025427\H,5.3210855989,8.616
 1713394,0.9265086048\H,6.5870930434,8.7179198058,-0.3004159639\\Versio
 n=EM64L-G09RevA.02\State=1-A\HF=-492.8543364\RMSD=3.703e-09\RMSF=2.011
 e-03\Dipole=1.0534236,-0.2018786,-1.1881741\Quadrupole=5.8226626,0.614
 0528,-6.4367153,5.6391078,1.4908606,2.7258559\PG=C01 [X(C6H12N2O2)]\\@


 IT IS WELL TO REMEMBER THAT MAN IS A PART OF NATURE AND THAT HIS WORKS,
 WHATEVER THEY MAY BE, ARE NO MORE "UNNATURAL" THAN 
 THE FLIGHT OF AN EAGLE OR THE PASSAGE OF A TORNADO.

                                    -- CHARLES MCCARRY IN "THE GREAT SOUTHWEST"
 Job cpu time:  0 days  0 hours 22 minutes 29.9 seconds.
 File lengths (MBytes):  RWF=     25 Int=      0 D2E=      0 Chk=      3 Scr=      1
 Normal termination of Gaussian 09 at Fri Feb 10 18:36:53 2017.
