 Entering Gaussian System, Link 0=/home/steboss/Software/g09/g09
 Initial command:
 /home/steboss/Software/g09/l1.exe /tmp/17857/Gau-22583.inp -scrdir=/tmp/17857/
 Entering Link 1 = /home/steboss/Software/g09/l1.exe PID=     22585.
  
 Copyright (c) 1988,1990,1992,1993,1995,1998,2003,2009, Gaussian, Inc.
                  All Rights Reserved.
  
 This is part of the Gaussian(R) 09 program.  It is based on
 the Gaussian(R) 03 system (copyright 2003, Gaussian, Inc.),
 the Gaussian(R) 98 system (copyright 1998, Gaussian, Inc.),
 the Gaussian(R) 94 system (copyright 1995, Gaussian, Inc.),
 the Gaussian 92(TM) system (copyright 1992, Gaussian, Inc.),
 the Gaussian 90(TM) system (copyright 1990, Gaussian, Inc.),
 the Gaussian 88(TM) system (copyright 1988, Gaussian, Inc.),
 the Gaussian 86(TM) system (copyright 1986, Carnegie Mellon
 University), and the Gaussian 82(TM) system (copyright 1983,
 Carnegie Mellon University). Gaussian is a federally registered
 trademark of Gaussian, Inc.
  
 This software contains proprietary and confidential information,
 including trade secrets, belonging to Gaussian, Inc.
  
 This software is provided under written license and may be
 used, copied, transmitted, or stored only in accord with that
 written license.
  
 The following legend is applicable only to US Government
 contracts under FAR:
  
                    RESTRICTED RIGHTS LEGEND
  
 Use, reproduction and disclosure by the US Government is
 subject to restrictions as set forth in subparagraphs (a)
 and (c) of the Commercial Computer Software - Restricted
 Rights clause in FAR 52.227-19.
  
 Gaussian, Inc.
 340 Quinnipiac St., Bldg. 40, Wallingford CT 06492
  
  
 ---------------------------------------------------------------
 Warning -- This program may not be used in any manner that
 competes with the business of Gaussian, Inc. or will provide
 assistance to any competitor of Gaussian, Inc.  The licensee
 of this program is prohibited from giving any competitor of
 Gaussian, Inc. access to this program.  By using this program,
 the user acknowledges that Gaussian, Inc. is engaged in the
 business of creating and licensing software in the field of
 computational chemistry and represents and warrants to the
 licensee that it is not a competitor of Gaussian, Inc. and that
 it will not use this program in any manner prohibited above.
 ---------------------------------------------------------------
  

 Cite this work as:
 Gaussian 09, Revision A.02,
 M. J. Frisch, G. W. Trucks, H. B. Schlegel, G. E. Scuseria, 
 M. A. Robb, J. R. Cheeseman, G. Scalmani, V. Barone, B. Mennucci, 
 G. A. Petersson, H. Nakatsuji, M. Caricato, X. Li, H. P. Hratchian, 
 A. F. Izmaylov, J. Bloino, G. Zheng, J. L. Sonnenberg, M. Hada, 
 M. Ehara, K. Toyota, R. Fukuda, J. Hasegawa, M. Ishida, T. Nakajima, 
 Y. Honda, O. Kitao, H. Nakai, T. Vreven, J. A. Montgomery, Jr., 
 J. E. Peralta, F. Ogliaro, M. Bearpark, J. J. Heyd, E. Brothers, 
 K. N. Kudin, V. N. Staroverov, R. Kobayashi, J. Normand, 
 K. Raghavachari, A. Rendell, J. C. Burant, S. S. Iyengar, J. Tomasi, 
 M. Cossi, N. Rega, J. M. Millam, M. Klene, J. E. Knox, J. B. Cross, 
 V. Bakken, C. Adamo, J. Jaramillo, R. Gomperts, R. E. Stratmann, 
 O. Yazyev, A. J. Austin, R. Cammi, C. Pomelli, J. W. Ochterski, 
 R. L. Martin, K. Morokuma, V. G. Zakrzewski, G. A. Voth, 
 P. Salvador, J. J. Dannenberg, S. Dapprich, A. D. Daniels, 
 O. Farkas, J. B. Foresman, J. V. Ortiz, J. Cioslowski, 
 and D. J. Fox, Gaussian, Inc., Wallingford CT, 2009.
 
 ******************************************
 Gaussian 09:  EM64L-G09RevA.02 11-Jun-2009
                16-Mar-2017 
 ******************************************
 %nproc=8
 Will use up to    8 processors via shared memory.
 %mem=4096MB
 %chk=IPolQout.solv.chk
 ----------------------------------------------------------------------
 #MP2/cc-pvTZ density=MP2, charge, maxdisk=16GB, pop=(minimal, MK), 5d,
  punch=mo
 ----------------------------------------------------------------------
 1/18=10,28=-2,30=1,38=1,125=101/1;
 2/12=2,17=6,18=5,40=1/2;
 3/5=16,6=1,8=1,11=9,16=1,25=1,30=1,71=1/1,2,3;
 4//1;
 5/5=2,38=5/2;
 8/6=4,10=1/1;
 9/15=1,16=-3/6;
 10/5=1,13=10/2;
 6/7=2,8=2,9=2,10=2,15=8,20=1,22=2/1,2;
 99/5=1,9=1,10=32/99;
 -----------------
 Generated by mdgx
 -----------------
 Symbolic Z-matrix:
 Charge =  0 Multiplicity = 1
 H                     3.46836  -1.5803    0.09788 
 C                     3.15729  -0.67544  -0.42418 
 H                     3.10759  -0.90788  -1.48795 
 H                     3.91226   0.10354  -0.31784 
 C                     1.7985   -0.33718   0.21274 
 O                     1.3911   -0.846     1.28402 
 N                     1.15212   0.70471  -0.31753 
 H                     1.58566   1.19361  -1.08768 
 C                    -0.13057   1.19426   0.227 
 H                    -0.04632   1.60931   1.23136 
 C                    -0.64372   2.43048  -0.54936 
 H                    -0.90834   2.30836  -1.59967 
 H                    -1.46724   2.9697   -0.08121 
 H                     0.09252   3.22978  -0.46462 
 C                    -1.25696   0.11633   0.26646 
 O                    -2.19682   0.24893   1.07163 
 N                    -1.20041  -0.8925   -0.59025 
 H                    -0.49181  -0.85597  -1.30903 
 C                    -2.14074  -1.96207  -0.62077 
 H                    -2.55559  -1.93587  -1.6284 
 H                    -1.52777  -2.83813  -0.40891 
 H                    -3.08833  -1.80335  -0.10601 
 
 Background charge distribution read from input stream:
 Point Charges:
 XYZ=   -1.2351    5.7895   -0.0387 Q=   -0.0198 A=    0.0000 R=    0.0000 C=    0.0000
 XYZ=   -2.5611    2.6382    2.1033 Q=    0.0099 A=    0.0000 R=    0.0000 C=    0.0000
 XYZ=   -2.4966    5.4829    0.7995 Q=   -0.0198 A=    0.0000 R=    0.0000 C=    0.0000
 XYZ=   -2.0102    2.2745    3.1398 Q=   -0.0198 A=    0.0000 R=    0.0000 C=    0.0000
 XYZ=   -1.4320    2.0222    3.8597 Q=    0.0099 A=    0.0000 R=    0.0000 C=    0.0000
 XYZ=   -2.1428    1.4661    2.6446 Q=    0.0099 A=    0.0000 R=    0.0000 C=    0.0000
 XYZ=   -2.6396    5.1432    1.0919 Q=   -0.0198 A=    0.0000 R=    0.0000 C=    0.0000
 XYZ=   -2.3170    1.2523    2.8734 Q=    0.0099 A=    0.0000 R=    0.0000 C=    0.0000
 XYZ=   -0.7962    5.4795    1.3158 Q=    0.0099 A=    0.0000 R=    0.0000 C=    0.0000
 XYZ=   -1.9863    1.0884    3.7981 Q=   -0.0198 A=    0.0000 R=    0.0000 C=    0.0000
 XYZ=    0.0824    5.6098    1.2697 Q=   -0.0198 A=    0.0000 R=    0.0000 C=    0.0000
 XYZ=   -0.7989    5.2627    1.1318 Q=    0.0099 A=    0.0000 R=    0.0000 C=    0.0000
 XYZ=   -2.3849    1.1486    3.5840 Q=   -0.0198 A=    0.0000 R=    0.0000 C=    0.0000
 XYZ=   -2.0996    1.0575    2.6749 Q=    0.0099 A=    0.0000 R=    0.0000 C=    0.0000
 XYZ=    0.4849    5.5948    0.8184 Q=   -0.0198 A=    0.0000 R=    0.0000 C=    0.0000
 XYZ=   -0.4671    5.5476    0.7306 Q=    0.0099 A=    0.0000 R=    0.0000 C=    0.0000
 XYZ=   -2.1843    1.7086    3.6301 Q=   -0.0198 A=    0.0000 R=    0.0000 C=    0.0000
 XYZ=   -1.7456    1.4341    2.8248 Q=    0.0099 A=    0.0000 R=    0.0000 C=    0.0000
 XYZ=    0.0267    5.4354    0.7227 Q=    0.0099 A=    0.0000 R=    0.0000 C=    0.0000
 XYZ=   -2.3256    1.3249    3.6366 Q=   -0.0198 A=    0.0000 R=    0.0000 C=    0.0000
 XYZ=   -1.9529    1.0105    2.8129 Q=    0.0099 A=    0.0000 R=    0.0000 C=    0.0000
 XYZ=    0.4626    5.7821    0.2938 Q=    0.0099 A=    0.0000 R=    0.0000 C=    0.0000
 XYZ=   -2.6537    1.0549    3.5501 Q=   -0.0198 A=    0.0000 R=    0.0000 C=    0.0000
 XYZ=   -2.3572    0.7494    2.6928 Q=    0.0099 A=    0.0000 R=    0.0000 C=    0.0000
 XYZ=    0.5104    5.4176    0.9192 Q=    0.0099 A=    0.0000 R=    0.0000 C=    0.0000
 XYZ=   -2.7637    0.8006    3.6743 Q=   -0.0198 A=    0.0000 R=    0.0000 C=    0.0000
 XYZ=   -2.4801    0.6382    2.7746 Q=    0.0099 A=    0.0000 R=    0.0000 C=    0.0000
 XYZ=    0.2042    5.6213    0.8067 Q=    0.0099 A=    0.0000 R=    0.0000 C=    0.0000
 XYZ=   -2.8557    0.9460    3.7067 Q=   -0.0198 A=    0.0000 R=    0.0000 C=    0.0000
 XYZ=   -2.7795    0.4069    2.9195 Q=    0.0099 A=    0.0000 R=    0.0000 C=    0.0000
 XYZ=   -0.1885    5.6875    0.7218 Q=    0.0099 A=    0.0000 R=    0.0000 C=    0.0000
 XYZ=   -2.7860    0.3187    3.2649 Q=    0.0099 A=    0.0000 R=    0.0000 C=    0.0000
 XYZ=   -2.6516    2.2148    2.1850 Q=    0.0099 A=    0.0000 R=    0.0000 C=    0.0000
 XYZ=    0.0463    5.7710    0.6886 Q=    0.0099 A=    0.0000 R=    0.0000 C=    0.0000
 XYZ=   -2.0872    0.8777    3.1452 Q=    0.0099 A=    0.0000 R=    0.0000 C=    0.0000
 XYZ=    0.1558    5.6436    1.0297 Q=    0.0099 A=    0.0000 R=    0.0000 C=    0.0000
 XYZ=   -3.0213    0.3165    3.2373 Q=    0.0099 A=    0.0000 R=    0.0000 C=    0.0000
 XYZ=   -1.6700    5.6361    1.2212 Q=   -0.0198 A=    0.0000 R=    0.0000 C=    0.0000
 XYZ=   -2.9273    0.3484    3.8201 Q=   -0.0198 A=    0.0000 R=    0.0000 C=    0.0000
 XYZ=   -2.5697    0.6334    2.9792 Q=    0.0099 A=    0.0000 R=    0.0000 C=    0.0000
 XYZ=    0.0792    5.4165    0.9058 Q=    0.0099 A=    0.0000 R=    0.0000 C=    0.0000
 XYZ=   -1.6617    5.5072    0.8650 Q=   -0.0198 A=    0.0000 R=    0.0000 C=    0.0000
 XYZ=   -2.2758    4.8568    1.2058 Q=    0.0099 A=    0.0000 R=    0.0000 C=    0.0000
 XYZ=   -2.3668    0.7596    3.1867 Q=    0.0099 A=    0.0000 R=    0.0000 C=    0.0000
 XYZ=    0.0647    5.6136    1.2593 Q=    0.0099 A=    0.0000 R=    0.0000 C=    0.0000
 XYZ=   -3.4073    1.8507    3.0296 Q=    0.0099 A=    0.0000 R=    0.0000 C=    0.0000
 XYZ=   -2.7277    4.9660    1.1983 Q=    0.0099 A=    0.0000 R=    0.0000 C=    0.0000
 XYZ=    0.1713    5.6105    0.7511 Q=   -0.0198 A=    0.0000 R=    0.0000 C=    0.0000
 XYZ=   -0.7491    5.4563    0.5384 Q=    0.0099 A=    0.0000 R=    0.0000 C=    0.0000
 XYZ=   -2.4226   -0.1714    3.0652 Q=    0.0099 A=    0.0000 R=    0.0000 C=    0.0000
 XYZ=   -0.1777    5.9527    0.6897 Q=   -0.0198 A=    0.0000 R=    0.0000 C=    0.0000
 XYZ=   -2.6014    5.1319    1.0407 Q=   -0.0198 A=    0.0000 R=    0.0000 C=    0.0000
 XYZ=   -2.4957    5.1021    1.1654 Q=   -0.0198 A=    0.0000 R=    0.0000 C=    0.0000
 XYZ=   -2.2490    4.7410    2.0168 Q=    0.0099 A=    0.0000 R=    0.0000 C=    0.0000
 XYZ=   -2.9566    0.0400    3.7076 Q=   -0.0198 A=    0.0000 R=    0.0000 C=    0.0000
 XYZ=   -3.6780    0.6593    3.5966 Q=    0.0099 A=    0.0000 R=    0.0000 C=    0.0000
 XYZ=   -2.4975    0.0541    2.8678 Q=    0.0099 A=    0.0000 R=    0.0000 C=    0.0000
 XYZ=   -2.6265   -0.3806    3.3475 Q=    0.0099 A=    0.0000 R=    0.0000 C=    0.0000
 XYZ=   -2.8685    0.2084    3.8381 Q=   -0.0198 A=    0.0000 R=    0.0000 C=    0.0000
 XYZ=   -2.4567    0.1073    2.9799 Q=    0.0099 A=    0.0000 R=    0.0000 C=    0.0000
 XYZ=   -2.6498    0.5783    3.7724 Q=   -0.0198 A=    0.0000 R=    0.0000 C=    0.0000
 XYZ=   -3.3728    1.1851    3.6131 Q=    0.0099 A=    0.0000 R=    0.0000 C=    0.0000
 XYZ=   -2.2836    0.4091    2.9044 Q=    0.0099 A=    0.0000 R=    0.0000 C=    0.0000
 XYZ=   -2.9563    0.2116    3.6511 Q=   -0.0198 A=    0.0000 R=    0.0000 C=    0.0000
 XYZ=   -3.5474    0.9408    3.4637 Q=    0.0099 A=    0.0000 R=    0.0000 C=    0.0000
 XYZ=   -2.5401    0.0187    2.8110 Q=    0.0099 A=    0.0000 R=    0.0000 C=    0.0000
 XYZ=   -2.3732    0.0723    3.6679 Q=   -0.0198 A=    0.0000 R=    0.0000 C=    0.0000
 XYZ=   -3.1228    0.6653    3.7207 Q=    0.0099 A=    0.0000 R=    0.0000 C=    0.0000
 XYZ=   -1.5877    5.7904    0.4811 Q=    0.0099 A=    0.0000 R=    0.0000 C=    0.0000
 XYZ=   -2.5615    0.5571    3.6782 Q=   -0.0198 A=    0.0000 R=    0.0000 C=    0.0000
 XYZ=   -3.4005    0.9914    3.5244 Q=    0.0099 A=    0.0000 R=    0.0000 C=    0.0000
 XYZ=   -2.1368    0.5460    2.8205 Q=    0.0099 A=    0.0000 R=    0.0000 C=    0.0000
 XYZ=   -2.9592    0.0632    3.5317 Q=   -0.0198 A=    0.0000 R=    0.0000 C=    0.0000
 XYZ=   -0.0568    5.7576    0.1158 Q=    0.0099 A=    0.0000 R=    0.0000 C=    0.0000
 XYZ=   -2.8223    0.4646    3.5373 Q=   -0.0198 A=    0.0000 R=    0.0000 C=    0.0000
 XYZ=   -2.9582    0.9991    2.8417 Q=    0.0099 A=    0.0000 R=    0.0000 C=    0.0000
 XYZ=    0.0254    6.1245   -0.1883 Q=    0.0099 A=    0.0000 R=    0.0000 C=    0.0000
 XYZ=   -2.8965    1.0856    3.6116 Q=   -0.0198 A=    0.0000 R=    0.0000 C=    0.0000
 XYZ=   -2.3578    1.2492    2.8375 Q=    0.0099 A=    0.0000 R=    0.0000 C=    0.0000
 XYZ=    0.5000    5.8273    0.6739 Q=    0.0099 A=    0.0000 R=    0.0000 C=    0.0000
 XYZ=   -2.4881    1.0273    3.1331 Q=    0.0099 A=    0.0000 R=    0.0000 C=    0.0000
 XYZ=   -2.0341    1.5575    3.2882 Q=    0.0099 A=    0.0000 R=    0.0000 C=    0.0000
 XYZ=   -2.9052    1.0401    3.7161 Q=   -0.0198 A=    0.0000 R=    0.0000 C=    0.0000
 XYZ=   -3.5247    1.6004    3.2487 Q=    0.0099 A=    0.0000 R=    0.0000 C=    0.0000
 XYZ=   -2.1140    1.0564    3.1776 Q=    0.0099 A=    0.0000 R=    0.0000 C=    0.0000
 XYZ=   -2.8557    1.0320    3.7958 Q=   -0.0198 A=    0.0000 R=    0.0000 C=    0.0000
 XYZ=   -2.1018    0.7410    3.2827 Q=    0.0099 A=    0.0000 R=    0.0000 C=    0.0000
 XYZ=   -3.1340    1.8444    3.3729 Q=    0.0099 A=    0.0000 R=    0.0000 C=    0.0000
 XYZ=   -3.1736    1.2838    3.4270 Q=   -0.0198 A=    0.0000 R=    0.0000 C=    0.0000
 XYZ=   -2.3900    1.6825    2.8495 Q=    0.0099 A=    0.0000 R=    0.0000 C=    0.0000
 XYZ=   -2.5730    1.2405    3.4587 Q=   -0.0198 A=    0.0000 R=    0.0000 C=    0.0000
 XYZ=   -2.2144    0.9231    2.6300 Q=    0.0099 A=    0.0000 R=    0.0000 C=    0.0000
 XYZ=   -3.1426    1.9685    3.2100 Q=    0.0099 A=    0.0000 R=    0.0000 C=    0.0000
 XYZ=   -3.1661   -0.5531    3.5636 Q=    0.0099 A=    0.0000 R=    0.0000 C=    0.0000
 XYZ=   -3.0923    0.9335    3.2161 Q=    0.0099 A=    0.0000 R=    0.0000 C=    0.0000
 XYZ=   -2.8440    1.1897    3.7779 Q=   -0.0198 A=    0.0000 R=    0.0000 C=    0.0000
 XYZ=   -2.5199    0.9478    2.9103 Q=    0.0099 A=    0.0000 R=    0.0000 C=    0.0000
 XYZ=   -2.9493    1.1865    3.6331 Q=   -0.0198 A=    0.0000 R=    0.0000 C=    0.0000
 XYZ=   -2.6245    1.1297    2.7345 Q=    0.0099 A=    0.0000 R=    0.0000 C=    0.0000
 XYZ=   -0.3925    3.8309    2.5796 Q=   -0.0198 A=    0.0000 R=    0.0000 C=    0.0000
 XYZ=   -3.1072    1.1342    3.6206 Q=   -0.0198 A=    0.0000 R=    0.0000 C=    0.0000
 XYZ=   -0.4563    3.9022    2.9011 Q=   -0.0198 A=    0.0000 R=    0.0000 C=    0.0000
 XYZ=   -3.3226    1.1278    3.6761 Q=   -0.0198 A=    0.0000 R=    0.0000 C=    0.0000
 XYZ=   -2.8902    1.2284    2.8281 Q=    0.0099 A=    0.0000 R=    0.0000 C=    0.0000
 XYZ=   -2.9651    0.9219    3.6437 Q=   -0.0198 A=    0.0000 R=    0.0000 C=    0.0000
 XYZ=   -2.8242    0.9186    2.6969 Q=    0.0099 A=    0.0000 R=    0.0000 C=    0.0000
 XYZ=   -3.2784    0.0470    3.6080 Q=   -0.0198 A=    0.0000 R=    0.0000 C=    0.0000
 XYZ=   -3.2299    0.0012    3.6133 Q=   -0.0198 A=    0.0000 R=    0.0000 C=    0.0000
 XYZ=   -2.7728    0.3361    3.7298 Q=   -0.0198 A=    0.0000 R=    0.0000 C=    0.0000
 XYZ=   -2.6161    0.1659    2.8010 Q=    0.0099 A=    0.0000 R=    0.0000 C=    0.0000
 XYZ=   -2.0707    5.0716    1.6250 Q=   -0.0198 A=    0.0000 R=    0.0000 C=    0.0000
 XYZ=   -1.9323    4.5110    2.3884 Q=    0.0099 A=    0.0000 R=    0.0000 C=    0.0000
 XYZ=   -2.6858    0.2641    3.7662 Q=   -0.0198 A=    0.0000 R=    0.0000 C=    0.0000
 XYZ=   -2.3412    0.4584    2.8946 Q=    0.0099 A=    0.0000 R=    0.0000 C=    0.0000
 XYZ=    6.2131    0.9217    1.0624 Q=   -0.0198 A=    0.0000 R=    0.0000 C=    0.0000
 XYZ=    6.1601    0.5481    0.1827 Q=    0.0099 A=    0.0000 R=    0.0000 C=    0.0000
 XYZ=    5.1540    2.0642   -2.1623 Q=   -0.0198 A=    0.0000 R=    0.0000 C=    0.0000
 XYZ=    6.2197   -1.2425   -1.1252 Q=   -0.0198 A=    0.0000 R=    0.0000 C=    0.0000
 XYZ=    5.6681    0.3470    1.5999 Q=    0.0099 A=    0.0000 R=    0.0000 C=    0.0000
 XYZ=    5.2448   -1.5639    2.2822 Q=   -0.0198 A=    0.0000 R=    0.0000 C=    0.0000
 XYZ=    5.5258   -2.4118    1.9382 Q=    0.0099 A=    0.0000 R=    0.0000 C=    0.0000
 XYZ=    2.4150    2.2801   -2.1302 Q=   -0.0198 A=    0.0000 R=    0.0000 C=    0.0000
 XYZ=    2.3190    3.1107   -1.6643 Q=    0.0099 A=    0.0000 R=    0.0000 C=    0.0000
 XYZ=    3.3189    2.0140   -1.9616 Q=    0.0099 A=    0.0000 R=    0.0000 C=    0.0000
 XYZ=    5.1957   -3.7809    0.4825 Q=    0.0099 A=    0.0000 R=    0.0000 C=    0.0000
 XYZ=    2.5642   -2.8459    3.0380 Q=   -0.0198 A=    0.0000 R=    0.0000 C=    0.0000
 XYZ=    1.8549   -2.2048    2.9915 Q=    0.0099 A=    0.0000 R=    0.0000 C=    0.0000
 XYZ=    3.3589   -2.3356    2.8820 Q=    0.0099 A=    0.0000 R=    0.0000 C=    0.0000
 XYZ=    1.7347    0.4074    3.5355 Q=   -0.0198 A=    0.0000 R=    0.0000 C=    0.0000
 XYZ=    2.1207    1.2374    3.2558 Q=    0.0099 A=    0.0000 R=    0.0000 C=    0.0000
 XYZ=    1.6129   -0.0856    2.7242 Q=    0.0099 A=    0.0000 R=    0.0000 C=    0.0000
 XYZ=    3.9553   -4.4787   -0.4986 Q=   -0.0198 A=    0.0000 R=    0.0000 C=    0.0000
 XYZ=    2.5346    4.3902   -0.5596 Q=   -0.0198 A=    0.0000 R=    0.0000 C=    0.0000
 XYZ=    1.9930    4.7747    0.1295 Q=    0.0099 A=    0.0000 R=    0.0000 C=    0.0000
 XYZ=    5.7290   -1.7639   -0.4899 Q=    0.0099 A=    0.0000 R=    0.0000 C=    0.0000
 XYZ=    5.9261    1.1250    1.0575 Q=   -0.0198 A=    0.0000 R=    0.0000 C=    0.0000
 XYZ=    6.0133    0.7118    0.1985 Q=    0.0099 A=    0.0000 R=    0.0000 C=    0.0000
 XYZ=    3.7759    2.2781   -2.3542 Q=    0.0099 A=    0.0000 R=    0.0000 C=    0.0000
 XYZ=    5.5863    0.4319    1.6234 Q=    0.0099 A=    0.0000 R=    0.0000 C=    0.0000
 XYZ=    5.1934   -1.1628    2.0548 Q=   -0.0198 A=    0.0000 R=    0.0000 C=    0.0000
 XYZ=    5.6336   -1.7250    1.4173 Q=    0.0099 A=    0.0000 R=    0.0000 C=    0.0000
 XYZ=    2.8254    2.2744   -2.2414 Q=   -0.0198 A=    0.0000 R=    0.0000 C=    0.0000
 XYZ=    2.6316    3.1093   -1.8151 Q=    0.0099 A=    0.0000 R=    0.0000 C=    0.0000
 XYZ=    1.8476    3.3027    2.8141 Q=    0.0099 A=    0.0000 R=    0.0000 C=    0.0000
 XYZ=    0.3596    0.9653    3.9380 Q=    0.0099 A=    0.0000 R=    0.0000 C=    0.0000
 XYZ=    3.0951   -2.9747    2.3536 Q=   -0.0198 A=    0.0000 R=    0.0000 C=    0.0000
 XYZ=    2.3952   -2.3223    2.3781 Q=    0.0099 A=    0.0000 R=    0.0000 C=    0.0000
 XYZ=    3.8983   -2.4691    2.4779 Q=    0.0099 A=    0.0000 R=    0.0000 C=    0.0000
 XYZ=    2.0704    0.4990    3.3385 Q=   -0.0198 A=    0.0000 R=    0.0000 C=    0.0000
 XYZ=    2.6928    1.1133    2.9492 Q=    0.0099 A=    0.0000 R=    0.0000 C=    0.0000
 XYZ=    1.7671   -0.0331    2.6029 Q=    0.0099 A=    0.0000 R=    0.0000 C=    0.0000
 XYZ=    4.0726   -3.9783   -0.8446 Q=   -0.0198 A=    0.0000 R=    0.0000 C=    0.0000
 XYZ=    3.6605   -3.5027   -0.1233 Q=    0.0099 A=    0.0000 R=    0.0000 C=    0.0000
 XYZ=    1.8085    4.9230   -0.2378 Q=    0.0099 A=    0.0000 R=    0.0000 C=    0.0000
 XYZ=    6.0657   -1.6520   -0.9118 Q=   -0.0198 A=    0.0000 R=    0.0000 C=    0.0000
 XYZ=    5.3470   -1.7562   -1.5353 Q=    0.0099 A=    0.0000 R=    0.0000 C=    0.0000
 XYZ=    6.3933    0.6137    1.1126 Q=    0.0099 A=    0.0000 R=    0.0000 C=    0.0000
 XYZ=    6.5027    1.2266   -0.2670 Q=    0.0099 A=    0.0000 R=    0.0000 C=    0.0000
 XYZ=    6.2983   -1.1953   -0.9545 Q=   -0.0198 A=    0.0000 R=    0.0000 C=    0.0000
 XYZ=    5.9810   -1.6860    1.3405 Q=    0.0099 A=    0.0000 R=    0.0000 C=    0.0000
 XYZ=    2.6383    2.5413   -1.9876 Q=   -0.0198 A=    0.0000 R=    0.0000 C=    0.0000
 XYZ=    2.4974    3.4880   -1.9746 Q=    0.0099 A=    0.0000 R=    0.0000 C=    0.0000
 XYZ=    3.5583    2.4327   -1.7467 Q=    0.0099 A=    0.0000 R=    0.0000 C=    0.0000
 XYZ=    2.8669   -3.3550    2.1633 Q=   -0.0198 A=    0.0000 R=    0.0000 C=    0.0000
 XYZ=    2.1409   -2.7496    2.0126 Q=    0.0099 A=    0.0000 R=    0.0000 C=    0.0000
 XYZ=    3.6069   -2.7905    2.3871 Q=    0.0099 A=    0.0000 R=    0.0000 C=    0.0000
 XYZ=    2.6120    0.1426    3.2818 Q=   -0.0198 A=    0.0000 R=    0.0000 C=    0.0000
 XYZ=    3.1136    0.6729    2.6627 Q=    0.0099 A=    0.0000 R=    0.0000 C=    0.0000
 XYZ=    2.1031   -0.4518    2.7305 Q=    0.0099 A=    0.0000 R=    0.0000 C=    0.0000
 XYZ=    3.7096   -4.4161   -0.7128 Q=   -0.0198 A=    0.0000 R=    0.0000 C=    0.0000
 XYZ=    3.5590   -4.3403    0.2294 Q=    0.0099 A=    0.0000 R=    0.0000 C=    0.0000
 XYZ=    2.2909    5.1304   -0.4394 Q=   -0.0198 A=    0.0000 R=    0.0000 C=    0.0000
 XYZ=    1.6769    5.4816    0.2055 Q=    0.0099 A=    0.0000 R=    0.0000 C=    0.0000
 XYZ=    6.0241   -2.1068   -0.8539 Q=    0.0099 A=    0.0000 R=    0.0000 C=    0.0000
 XYZ=    6.5240    0.0685    0.1518 Q=    0.0099 A=    0.0000 R=    0.0000 C=    0.0000
 XYZ=    3.0146    2.0922   -2.0734 Q=   -0.0198 A=    0.0000 R=    0.0000 C=    0.0000
 XYZ=    3.0403    3.0313   -2.2572 Q=    0.0099 A=    0.0000 R=    0.0000 C=    0.0000
 XYZ=    3.9309    1.8490   -1.9411 Q=    0.0099 A=    0.0000 R=    0.0000 C=    0.0000
 XYZ=   -1.8607    0.7882    2.8979 Q=    0.0099 A=    0.0000 R=    0.0000 C=    0.0000
 XYZ=    2.3541   -3.3012    2.0475 Q=   -0.0198 A=    0.0000 R=    0.0000 C=    0.0000
 XYZ=    1.8664   -2.5866    1.6378 Q=    0.0099 A=    0.0000 R=    0.0000 C=    0.0000
 XYZ=    2.5786   -2.9702    2.9171 Q=    0.0099 A=    0.0000 R=    0.0000 C=    0.0000
 XYZ=    2.5590    0.4493    3.6299 Q=   -0.0198 A=    0.0000 R=    0.0000 C=    0.0000
 XYZ=    2.3341   -0.0995    2.8786 Q=    0.0099 A=    0.0000 R=    0.0000 C=    0.0000
 XYZ=    3.8405   -3.9578   -0.7092 Q=   -0.0198 A=    0.0000 R=    0.0000 C=    0.0000
 XYZ=    1.9265    5.4745    0.3038 Q=    0.0099 A=    0.0000 R=    0.0000 C=    0.0000
 XYZ=    6.2333   -1.4495   -0.7926 Q=   -0.0198 A=    0.0000 R=    0.0000 C=    0.0000
 XYZ=    5.3730   -1.8142   -0.5854 Q=    0.0099 A=    0.0000 R=    0.0000 C=    0.0000
 XYZ=    6.0151    0.1438    1.1031 Q=   -0.0198 A=    0.0000 R=    0.0000 C=    0.0000
 XYZ=    6.2682   -0.4154    0.3687 Q=    0.0099 A=    0.0000 R=    0.0000 C=    0.0000
 XYZ=    4.7106    2.5837    0.5411 Q=   -0.0198 A=    0.0000 R=    0.0000 C=    0.0000
 XYZ=    5.0543    1.7257    0.7898 Q=    0.0099 A=    0.0000 R=    0.0000 C=    0.0000
 XYZ=    4.2264    1.9124   -2.0857 Q=    0.0099 A=    0.0000 R=    0.0000 C=    0.0000
 XYZ=    5.5731   -0.4471    1.7129 Q=    0.0099 A=    0.0000 R=    0.0000 C=    0.0000
 XYZ=    3.2961    2.0614   -2.2546 Q=   -0.0198 A=    0.0000 R=    0.0000 C=    0.0000
 XYZ=    3.1243    2.9326   -1.8973 Q=    0.0099 A=    0.0000 R=    0.0000 C=    0.0000
 XYZ=    5.1944   -3.9900    0.0113 Q=    0.0099 A=    0.0000 R=    0.0000 C=    0.0000
 XYZ=    2.0219   -2.5654    2.3741 Q=    0.0099 A=    0.0000 R=    0.0000 C=    0.0000
 XYZ=    2.2692    0.3032    3.6864 Q=   -0.0198 A=    0.0000 R=    0.0000 C=    0.0000
 XYZ=    1.9066   -0.0348    2.8675 Q=    0.0099 A=    0.0000 R=    0.0000 C=    0.0000
 XYZ=    2.5881    4.7803   -0.8394 Q=   -0.0198 A=    0.0000 R=    0.0000 C=    0.0000
 XYZ=    1.9074    4.8843   -0.1746 Q=    0.0099 A=    0.0000 R=    0.0000 C=    0.0000
 XYZ=    6.0530   -1.5796   -0.9170 Q=   -0.0198 A=    0.0000 R=    0.0000 C=    0.0000
 XYZ=    5.5586   -2.3698   -1.1347 Q=    0.0099 A=    0.0000 R=    0.0000 C=    0.0000
 XYZ=    4.9238    2.1140    1.0549 Q=   -0.0198 A=    0.0000 R=    0.0000 C=    0.0000
 XYZ=    4.8902    2.1505    0.0990 Q=    0.0099 A=    0.0000 R=    0.0000 C=    0.0000
 XYZ=    5.3793    1.9930   -1.7837 Q=   -0.0198 A=    0.0000 R=    0.0000 C=    0.0000
 XYZ=    6.0605   -0.2814    1.5403 Q=   -0.0198 A=    0.0000 R=    0.0000 C=    0.0000
 XYZ=    6.2419   -0.6351    0.6696 Q=    0.0099 A=    0.0000 R=    0.0000 C=    0.0000
 XYZ=    5.2787    1.2465    1.2491 Q=    0.0099 A=    0.0000 R=    0.0000 C=    0.0000
 XYZ=    2.7749    2.2448   -2.4061 Q=   -0.0198 A=    0.0000 R=    0.0000 C=    0.0000
 XYZ=    2.6856    3.0689   -1.9275 Q=    0.0099 A=    0.0000 R=    0.0000 C=    0.0000
 XYZ=    3.6924    1.9983   -2.2894 Q=    0.0099 A=    0.0000 R=    0.0000 C=    0.0000
 XYZ=    4.7327   -4.1005    0.0659 Q=    0.0099 A=    0.0000 R=    0.0000 C=    0.0000
 XYZ=    1.8027   -2.6844    2.2031 Q=    0.0099 A=    0.0000 R=    0.0000 C=    0.0000
 XYZ=    1.7063    0.5118    3.6142 Q=   -0.0198 A=    0.0000 R=    0.0000 C=    0.0000
 XYZ=    1.6646    0.0699    2.7661 Q=    0.0099 A=    0.0000 R=    0.0000 C=    0.0000
 XYZ=    0.9815    5.4088    0.7841 Q=   -0.0198 A=    0.0000 R=    0.0000 C=    0.0000
 XYZ=    2.5200    4.8471   -0.0404 Q=    0.0099 A=    0.0000 R=    0.0000 C=    0.0000
 XYZ=    6.0477   -2.5038   -0.2492 Q=    0.0099 A=    0.0000 R=    0.0000 C=    0.0000
 XYZ=    6.3414   -0.5605    0.7186 Q=    0.0099 A=    0.0000 R=    0.0000 C=    0.0000
 XYZ=    4.9684    2.3214    0.9609 Q=   -0.0198 A=    0.0000 R=    0.0000 C=    0.0000
 XYZ=    5.0697    2.2313    0.0133 Q=    0.0099 A=    0.0000 R=    0.0000 C=    0.0000
 XYZ=    5.6725    1.7873    1.3288 Q=    0.0099 A=    0.0000 R=    0.0000 C=    0.0000
 XYZ=    2.8928    2.3715   -1.9406 Q=   -0.0198 A=    0.0000 R=    0.0000 C=    0.0000
 XYZ=    2.8763    3.2164   -1.4910 Q=    0.0099 A=    0.0000 R=    0.0000 C=    0.0000
 XYZ=    3.7917    2.0605   -1.8332 Q=    0.0099 A=    0.0000 R=    0.0000 C=    0.0000
 XYZ=    5.2341   -3.8637    0.2508 Q=   -0.0198 A=    0.0000 R=    0.0000 C=    0.0000
 XYZ=    4.3868   -3.8257   -0.1929 Q=    0.0099 A=    0.0000 R=    0.0000 C=    0.0000
 XYZ=    2.3078   -3.3439    2.5532 Q=   -0.0198 A=    0.0000 R=    0.0000 C=    0.0000
 XYZ=    2.0671   -2.4380    2.3592 Q=    0.0099 A=    0.0000 R=    0.0000 C=    0.0000
 XYZ=    1.4499    0.5311    3.6835 Q=   -0.0198 A=    0.0000 R=    0.0000 C=    0.0000
 XYZ=    1.7490   -0.0153    2.9567 Q=    0.0099 A=    0.0000 R=    0.0000 C=    0.0000
 XYZ=    1.1766    5.5900    0.9016 Q=   -0.0198 A=    0.0000 R=    0.0000 C=    0.0000
 XYZ=    6.2640   -2.4184   -0.2642 Q=    0.0099 A=    0.0000 R=    0.0000 C=    0.0000
 XYZ=    4.1379    2.1992   -1.8418 Q=    0.0099 A=    0.0000 R=    0.0000 C=    0.0000
 XYZ=    6.0006    1.6009   -1.4267 Q=   -0.0198 A=    0.0000 R=    0.0000 C=    0.0000
 XYZ=    6.6520    1.0912   -0.9449 Q=    0.0099 A=    0.0000 R=    0.0000 C=    0.0000
 XYZ=    3.2664    2.4244   -2.1674 Q=   -0.0198 A=    0.0000 R=    0.0000 C=    0.0000
 XYZ=    3.1895    3.3661   -2.0142 Q=    0.0099 A=    0.0000 R=    0.0000 C=    0.0000
 XYZ=    5.0741   -3.6674    0.1793 Q=   -0.0198 A=    0.0000 R=    0.0000 C=    0.0000
 XYZ=    4.3621   -3.4355   -0.4171 Q=    0.0099 A=    0.0000 R=    0.0000 C=    0.0000
 XYZ=    2.4975   -3.0390    2.5599 Q=   -0.0198 A=    0.0000 R=    0.0000 C=    0.0000
 XYZ=    2.0628   -2.4117    1.9822 Q=    0.0099 A=    0.0000 R=    0.0000 C=    0.0000
 XYZ=    1.2389    0.2207    3.6731 Q=   -0.0198 A=    0.0000 R=    0.0000 C=    0.0000
 XYZ=    1.2821   -0.0978    2.7715 Q=    0.0099 A=    0.0000 R=    0.0000 C=    0.0000
 XYZ=    2.4313    4.8037   -0.0154 Q=    0.0099 A=    0.0000 R=    0.0000 C=    0.0000
 XYZ=    6.0370   -1.8422   -0.4379 Q=    0.0099 A=    0.0000 R=    0.0000 C=    0.0000
 XYZ=    5.8820    2.2045    0.3352 Q=    0.0099 A=    0.0000 R=    0.0000 C=    0.0000
 XYZ=    4.2360    1.8628   -1.7870 Q=    0.0099 A=    0.0000 R=    0.0000 C=    0.0000
 XYZ=    5.9884    1.5330   -1.2901 Q=   -0.0198 A=    0.0000 R=    0.0000 C=    0.0000
 XYZ=    3.3098    2.0511   -1.9384 Q=   -0.0198 A=    0.0000 R=    0.0000 C=    0.0000
 XYZ=    3.1807    2.9267   -1.5740 Q=    0.0099 A=    0.0000 R=    0.0000 C=    0.0000
 XYZ=    4.9494   -4.1000   -0.0542 Q=   -0.0198 A=    0.0000 R=    0.0000 C=    0.0000
 XYZ=    4.6531   -3.9708   -0.9551 Q=    0.0099 A=    0.0000 R=    0.0000 C=    0.0000
 XYZ=    3.0352   -2.9590    1.9942 Q=   -0.0198 A=    0.0000 R=    0.0000 C=    0.0000
 XYZ=    3.5786   -3.0409    1.2105 Q=    0.0099 A=    0.0000 R=    0.0000 C=    0.0000
 XYZ=    2.3694   -2.3133    1.7576 Q=    0.0099 A=    0.0000 R=    0.0000 C=    0.0000
 XYZ=    1.5148    0.1563    3.8784 Q=   -0.0198 A=    0.0000 R=    0.0000 C=    0.0000
 XYZ=    1.2401   -0.2554    3.0591 Q=    0.0099 A=    0.0000 R=    0.0000 C=    0.0000
 XYZ=    1.1233    5.4868    1.0380 Q=   -0.0198 A=    0.0000 R=    0.0000 C=    0.0000
 XYZ=    2.4596    4.9210   -0.2813 Q=    0.0099 A=    0.0000 R=    0.0000 C=    0.0000
 XYZ=    6.0752   -2.6822   -0.3302 Q=    0.0099 A=    0.0000 R=    0.0000 C=    0.0000
 XYZ=    5.6708    1.9583    1.1785 Q=   -0.0198 A=    0.0000 R=    0.0000 C=    0.0000
 XYZ=    5.5338    2.0906    0.2404 Q=    0.0099 A=    0.0000 R=    0.0000 C=    0.0000
 XYZ=    6.1241    1.1174    1.2381 Q=    0.0099 A=    0.0000 R=    0.0000 C=    0.0000
 XYZ=    4.1157    1.9737   -2.1469 Q=    0.0099 A=    0.0000 R=    0.0000 C=    0.0000
 XYZ=    3.1906    2.0138   -2.3894 Q=   -0.0198 A=    0.0000 R=    0.0000 C=    0.0000
 XYZ=    2.9205    2.9024   -2.1574 Q=    0.0099 A=    0.0000 R=    0.0000 C=    0.0000
 XYZ=    4.8605   -4.0570   -0.4362 Q=   -0.0198 A=    0.0000 R=    0.0000 C=    0.0000
 XYZ=    4.2908   -4.0122   -1.2041 Q=    0.0099 A=    0.0000 R=    0.0000 C=    0.0000
 XYZ=    2.2081   -3.9161    1.2963 Q=    0.0099 A=    0.0000 R=    0.0000 C=    0.0000
 XYZ=    1.9610   -3.0649    2.5233 Q=    0.0099 A=    0.0000 R=    0.0000 C=    0.0000
 XYZ=    1.8497    0.2513    3.7882 Q=   -0.0198 A=    0.0000 R=    0.0000 C=    0.0000
 XYZ=    1.6532   -0.0954    2.9179 Q=    0.0099 A=    0.0000 R=    0.0000 C=    0.0000
 XYZ=    0.7285    5.4712    0.5532 Q=   -0.0198 A=    0.0000 R=    0.0000 C=    0.0000
 XYZ=    2.0978    4.8327   -0.8805 Q=    0.0099 A=    0.0000 R=    0.0000 C=    0.0000
 XYZ=    6.0653   -2.4608   -0.8519 Q=    0.0099 A=    0.0000 R=    0.0000 C=    0.0000
 XYZ=    6.5382   -1.0338    0.3509 Q=    0.0099 A=    0.0000 R=    0.0000 C=    0.0000
 XYZ=    5.7178    2.2883   -0.0250 Q=    0.0099 A=    0.0000 R=    0.0000 C=    0.0000
 XYZ=    5.8982    1.6556   -1.9000 Q=   -0.0198 A=    0.0000 R=    0.0000 C=    0.0000
 XYZ=    3.0437    2.1106   -2.0441 Q=   -0.0198 A=    0.0000 R=    0.0000 C=    0.0000
 XYZ=    2.9507    2.9279   -1.5546 Q=    0.0099 A=    0.0000 R=    0.0000 C=    0.0000
 XYZ=    3.9626    1.8672   -1.9316 Q=    0.0099 A=    0.0000 R=    0.0000 C=    0.0000
 XYZ=    1.2284    3.5222    2.3383 Q=   -0.0198 A=    0.0000 R=    0.0000 C=    0.0000
 XYZ=    2.1318    3.2058    2.3500 Q=    0.0099 A=    0.0000 R=    0.0000 C=    0.0000
 XYZ=    1.2400    4.2575    1.7256 Q=    0.0099 A=    0.0000 R=    0.0000 C=    0.0000
 XYZ=    4.7388   -4.1826   -0.5806 Q=   -0.0198 A=    0.0000 R=    0.0000 C=    0.0000
 XYZ=    4.0547   -3.8572   -1.1658 Q=    0.0099 A=    0.0000 R=    0.0000 C=    0.0000
 XYZ=    1.2059   -3.5482    2.2049 Q=   -0.0198 A=    0.0000 R=    0.0000 C=    0.0000
 XYZ=    1.3188   -2.7532    1.6840 Q=    0.0099 A=    0.0000 R=    0.0000 C=    0.0000
 XYZ=    1.7670    0.2090    3.9052 Q=   -0.0198 A=    0.0000 R=    0.0000 C=    0.0000
 XYZ=    1.5785   -0.0939    3.0169 Q=    0.0099 A=    0.0000 R=    0.0000 C=    0.0000
 XYZ=    0.9858    5.5965    0.6326 Q=   -0.0198 A=    0.0000 R=    0.0000 C=    0.0000
 XYZ=    2.1105    4.5408   -0.2422 Q=    0.0099 A=    0.0000 R=    0.0000 C=    0.0000
 XYZ=    5.6131   -2.2244   -1.3529 Q=    0.0099 A=    0.0000 R=    0.0000 C=    0.0000
 XYZ=    5.7210    2.1390    0.1937 Q=    0.0099 A=    0.0000 R=    0.0000 C=    0.0000
 XYZ=    5.8432    1.3344    1.4699 Q=    0.0099 A=    0.0000 R=    0.0000 C=    0.0000
 XYZ=    4.0033    1.9075   -2.3002 Q=    0.0099 A=    0.0000 R=    0.0000 C=    0.0000
 XYZ=    6.1629   -1.1221    0.6537 Q=    0.0099 A=    0.0000 R=    0.0000 C=    0.0000
 XYZ=    3.0756    2.0996   -2.1635 Q=   -0.0198 A=    0.0000 R=    0.0000 C=    0.0000
 XYZ=    3.0655    2.7342   -1.4470 Q=    0.0099 A=    0.0000 R=    0.0000 C=    0.0000
 XYZ=    1.2845    3.2886    2.5918 Q=   -0.0198 A=    0.0000 R=    0.0000 C=    0.0000
 XYZ=    2.1250    2.8336    2.5397 Q=    0.0099 A=    0.0000 R=    0.0000 C=    0.0000
 XYZ=    1.2807    3.8722    1.8331 Q=    0.0099 A=    0.0000 R=    0.0000 C=    0.0000
 XYZ=    4.1331   -4.3658   -0.2895 Q=   -0.0198 A=    0.0000 R=    0.0000 C=    0.0000
 XYZ=    4.1252   -3.6406   -0.9142 Q=    0.0099 A=    0.0000 R=    0.0000 C=    0.0000
 XYZ=    0.1101   -3.1822    1.9549 Q=   -0.0198 A=    0.0000 R=    0.0000 C=    0.0000
 XYZ=    0.4755   -2.6465    1.2509 Q=    0.0099 A=    0.0000 R=    0.0000 C=    0.0000
 XYZ=    0.1572   -2.6232    2.7305 Q=    0.0099 A=    0.0000 R=    0.0000 C=    0.0000
 XYZ=    1.7283    0.2736    3.7626 Q=   -0.0198 A=    0.0000 R=    0.0000 C=    0.0000
 XYZ=    1.7159   -0.0372    2.8574 Q=    0.0099 A=    0.0000 R=    0.0000 C=    0.0000
 XYZ=    1.0683    5.5122    0.7722 Q=   -0.0198 A=    0.0000 R=    0.0000 C=    0.0000
 XYZ=    2.2498    4.3241    0.0925 Q=    0.0099 A=    0.0000 R=    0.0000 C=    0.0000
 XYZ=    5.7575   -2.7892   -1.3773 Q=    0.0099 A=    0.0000 R=    0.0000 C=    0.0000
 XYZ=    5.9124    1.9605    0.6411 Q=    0.0099 A=    0.0000 R=    0.0000 C=    0.0000
 XYZ=    4.6434   -3.4300    1.6404 Q=    0.0099 A=    0.0000 R=    0.0000 C=    0.0000
 XYZ=    3.0174    2.2938   -2.2767 Q=   -0.0198 A=    0.0000 R=    0.0000 C=    0.0000
 XYZ=    3.2550    2.8964   -1.5720 Q=    0.0099 A=    0.0000 R=    0.0000 C=    0.0000
 XYZ=    3.3627    1.4469   -1.9942 Q=    0.0099 A=    0.0000 R=    0.0000 C=    0.0000
 XYZ=    0.9509    3.3921    2.7420 Q=   -0.0198 A=    0.0000 R=    0.0000 C=    0.0000
 XYZ=    1.5488    2.6750    2.5310 Q=    0.0099 A=    0.0000 R=    0.0000 C=    0.0000
 XYZ=    1.1908    4.0909    2.1334 Q=    0.0099 A=    0.0000 R=    0.0000 C=    0.0000
 XYZ=    4.2928   -4.1502   -0.0512 Q=   -0.0198 A=    0.0000 R=    0.0000 C=    0.0000
 XYZ=    4.0126   -3.7557   -0.8771 Q=    0.0099 A=    0.0000 R=    0.0000 C=    0.0000
 XYZ=   -0.1438   -3.2173    1.9416 Q=   -0.0198 A=    0.0000 R=    0.0000 C=    0.0000
 XYZ=    0.3462   -2.4086    1.7923 Q=    0.0099 A=    0.0000 R=    0.0000 C=    0.0000
 XYZ=    1.2340    0.1699    3.7249 Q=   -0.0198 A=    0.0000 R=    0.0000 C=    0.0000
 XYZ=    1.7865    0.8652    3.3678 Q=    0.0099 A=    0.0000 R=    0.0000 C=    0.0000
 XYZ=    1.1039   -0.4326    2.9926 Q=    0.0099 A=    0.0000 R=    0.0000 C=    0.0000
 XYZ=    2.3065    4.4924    0.1846 Q=    0.0099 A=    0.0000 R=    0.0000 C=    0.0000
 XYZ=    5.6702   -2.9028   -0.3383 Q=    0.0099 A=    0.0000 R=    0.0000 C=    0.0000
 XYZ=    5.3712    1.7449    1.2938 Q=   -0.0198 A=    0.0000 R=    0.0000 C=    0.0000
 XYZ=    5.6855    1.8429    0.3950 Q=    0.0099 A=    0.0000 R=    0.0000 C=    0.0000
 XYZ=    4.0689    2.1357   -1.8067 Q=    0.0099 A=    0.0000 R=    0.0000 C=    0.0000
 XYZ=    3.1402    2.3582   -1.8729 Q=   -0.0198 A=    0.0000 R=    0.0000 C=    0.0000
 XYZ=    2.9460    2.8203   -1.0575 Q=    0.0099 A=    0.0000 R=    0.0000 C=    0.0000
 XYZ=    0.0867   -3.3685    1.9832 Q=   -0.0198 A=    0.0000 R=    0.0000 C=    0.0000
 XYZ=    0.5442   -2.7793    1.3834 Q=    0.0099 A=    0.0000 R=    0.0000 C=    0.0000
 XYZ=    1.4041    0.3265    3.9272 Q=   -0.0198 A=    0.0000 R=    0.0000 C=    0.0000
 XYZ=    1.0735    0.0063    3.0879 Q=    0.0099 A=    0.0000 R=    0.0000 C=    0.0000
 XYZ=    1.0184    5.5434    1.0402 Q=   -0.0198 A=    0.0000 R=    0.0000 C=    0.0000
 XYZ=    2.2552    4.3901    0.5118 Q=    0.0099 A=    0.0000 R=    0.0000 C=    0.0000
 XYZ=    5.9981   -2.4684   -0.9218 Q=    0.0099 A=    0.0000 R=    0.0000 C=    0.0000
 XYZ=    5.9810   -2.9520    0.5124 Q=    0.0099 A=    0.0000 R=    0.0000 C=    0.0000
 XYZ=    5.9487    1.7756    0.7874 Q=    0.0099 A=    0.0000 R=    0.0000 C=    0.0000
 XYZ=    4.2652    1.9658   -1.5759 Q=    0.0099 A=    0.0000 R=    0.0000 C=    0.0000
 XYZ=    6.1990    1.4640   -1.2268 Q=   -0.0198 A=    0.0000 R=    0.0000 C=    0.0000
 XYZ=    5.0243   -1.2282    2.5814 Q=    0.0099 A=    0.0000 R=    0.0000 C=    0.0000
 XYZ=    5.7707   -1.1645    1.2662 Q=    0.0099 A=    0.0000 R=    0.0000 C=    0.0000
 XYZ=    5.4340    1.0170    1.9918 Q=    0.0099 A=    0.0000 R=    0.0000 C=    0.0000
 XYZ=    3.3513    2.1619   -1.7821 Q=   -0.0198 A=    0.0000 R=    0.0000 C=    0.0000
 XYZ=    3.0852    2.7934   -1.1139 Q=    0.0099 A=    0.0000 R=    0.0000 C=    0.0000
 XYZ=    0.6286   -3.4234    1.6173 Q=   -0.0198 A=    0.0000 R=    0.0000 C=    0.0000
 XYZ=    1.0543   -2.5669    1.5802 Q=    0.0099 A=    0.0000 R=    0.0000 C=    0.0000
 XYZ=    1.3431   -0.0628    3.9220 Q=   -0.0198 A=    0.0000 R=    0.0000 C=    0.0000
 XYZ=    1.2060   -0.3408    3.0163 Q=    0.0099 A=    0.0000 R=    0.0000 C=    0.0000
 XYZ=    2.6487    3.9276    0.1855 Q=   -0.0198 A=    0.0000 R=    0.0000 C=    0.0000
 XYZ=    1.9453    4.4859    0.5169 Q=    0.0099 A=    0.0000 R=    0.0000 C=    0.0000
 XYZ=    5.8253   -2.2487   -0.1635 Q=   -0.0198 A=    0.0000 R=    0.0000 C=    0.0000
 XYZ=    5.7043   -2.5211   -1.0731 Q=    0.0099 A=    0.0000 R=    0.0000 C=    0.0000
 XYZ=    5.5975   -3.0232    0.3508 Q=    0.0099 A=    0.0000 R=    0.0000 C=    0.0000
 XYZ=    5.2433    1.6697    1.3840 Q=   -0.0198 A=    0.0000 R=    0.0000 C=    0.0000
 XYZ=    5.4552    1.9439    0.4918 Q=    0.0099 A=    0.0000 R=    0.0000 C=    0.0000
 XYZ=    5.6945    0.8322    1.4908 Q=    0.0099 A=    0.0000 R=    0.0000 C=    0.0000
 XYZ=    4.0028    2.5792   -2.1717 Q=    0.0099 A=    0.0000 R=    0.0000 C=    0.0000
 XYZ=    6.6765    1.0193   -0.9944 Q=    0.0099 A=    0.0000 R=    0.0000 C=    0.0000
 XYZ=    5.5193   -1.5461    1.2278 Q=    0.0099 A=    0.0000 R=    0.0000 C=    0.0000
 XYZ=    3.0730    2.7589   -2.0321 Q=   -0.0198 A=    0.0000 R=    0.0000 C=    0.0000
 XYZ=    3.0385    3.1945   -1.1805 Q=    0.0099 A=    0.0000 R=    0.0000 C=    0.0000
 XYZ=    1.6003   -3.0844    1.5057 Q=    0.0099 A=    0.0000 R=    0.0000 C=    0.0000
 XYZ=    1.1391   -0.0162    4.1001 Q=   -0.0198 A=    0.0000 R=    0.0000 C=    0.0000
 XYZ=    1.1338   -0.4569    3.2503 Q=    0.0099 A=    0.0000 R=    0.0000 C=    0.0000
 XYZ=    2.2378    4.9249    0.6385 Q=    0.0099 A=    0.0000 R=    0.0000 C=    0.0000
 XYZ=    5.7450   -2.2089   -1.4400 Q=    0.0099 A=    0.0000 R=    0.0000 C=    0.0000
 XYZ=    5.6144    1.8130    1.2002 Q=    0.0099 A=    0.0000 R=    0.0000 C=    0.0000
 XYZ=   -1.8218   -1.5840    3.1451 Q=   -0.0198 A=    0.0000 R=    0.0000 C=    0.0000
 XYZ=   -0.9585   -1.2654    2.8816 Q=    0.0099 A=    0.0000 R=    0.0000 C=    0.0000
 XYZ=    6.2286   -2.0531    0.8826 Q=    0.0099 A=    0.0000 R=    0.0000 C=    0.0000
 XYZ=    5.2418    1.1196    1.7448 Q=   -0.0198 A=    0.0000 R=    0.0000 C=    0.0000
 XYZ=    5.8071    0.3630    1.5892 Q=    0.0099 A=    0.0000 R=    0.0000 C=    0.0000
 XYZ=    3.0138    2.7410   -1.6691 Q=   -0.0198 A=    0.0000 R=    0.0000 C=    0.0000
 XYZ=    2.8736    3.0604   -0.7777 Q=    0.0099 A=    0.0000 R=    0.0000 C=    0.0000
 XYZ=    1.3392    3.0474    3.4141 Q=    0.0099 A=    0.0000 R=    0.0000 C=    0.0000
 XYZ=    1.5431   -3.6823    0.8219 Q=   -0.0198 A=    0.0000 R=    0.0000 C=    0.0000
 XYZ=    2.1790   -3.8346    1.5209 Q=    0.0099 A=    0.0000 R=    0.0000 C=    0.0000
 XYZ=    1.4344   -2.7315    0.7999 Q=    0.0099 A=    0.0000 R=    0.0000 C=    0.0000
 XYZ=    0.9994   -0.3709    3.9290 Q=   -0.0198 A=    0.0000 R=    0.0000 C=    0.0000
 XYZ=    0.9832   -0.6079    3.0017 Q=    0.0099 A=    0.0000 R=    0.0000 C=    0.0000
 XYZ=    2.3787    4.5965    0.8996 Q=    0.0099 A=    0.0000 R=    0.0000 C=    0.0000
 XYZ=    5.2427    1.3290    0.8131 Q=    0.0099 A=    0.0000 R=    0.0000 C=    0.0000
 XYZ=    3.8013    2.9080   -1.8754 Q=   -0.0198 A=    0.0000 R=    0.0000 C=    0.0000
 XYZ=    5.7341    1.6142   -0.8756 Q=   -0.0198 A=    0.0000 R=    0.0000 C=    0.0000
 XYZ=    5.0624    2.1432   -1.3058 Q=    0.0099 A=    0.0000 R=    0.0000 C=    0.0000
 XYZ=    6.0757    1.0502   -1.5694 Q=    0.0099 A=    0.0000 R=    0.0000 C=    0.0000
 XYZ=   -1.6069   -1.1534    3.3524 Q=   -0.0198 A=    0.0000 R=    0.0000 C=    0.0000
 XYZ=   -0.7368   -0.7647    3.4429 Q=    0.0099 A=    0.0000 R=    0.0000 C=    0.0000
 XYZ=    5.8339   -1.4281    1.5114 Q=   -0.0198 A=    0.0000 R=    0.0000 C=    0.0000
 XYZ=    6.1308   -1.4911    0.6036 Q=    0.0099 A=    0.0000 R=    0.0000 C=    0.0000
 XYZ=    5.2137    1.0970    1.7414 Q=   -0.0198 A=    0.0000 R=    0.0000 C=    0.0000
 XYZ=    5.2500    0.1405    1.7504 Q=    0.0099 A=    0.0000 R=    0.0000 C=    0.0000
 XYZ=    3.4433    3.2682   -1.0641 Q=    0.0099 A=    0.0000 R=    0.0000 C=    0.0000
 XYZ=    1.2189    2.8831    3.0590 Q=    0.0099 A=    0.0000 R=    0.0000 C=    0.0000
 XYZ=    1.3364   -0.5302    3.9606 Q=   -0.0198 A=    0.0000 R=    0.0000 C=    0.0000
 XYZ=    1.4300   -0.6476    3.0152 Q=    0.0099 A=    0.0000 R=    0.0000 C=    0.0000
 XYZ=    3.7276    2.7348   -2.0257 Q=   -0.0198 A=    0.0000 R=    0.0000 C=    0.0000
 XYZ=    6.6127    0.3626   -0.9318 Q=    0.0099 A=    0.0000 R=    0.0000 C=    0.0000
 XYZ=   -2.0315   -0.6355    3.6519 Q=   -0.0198 A=    0.0000 R=    0.0000 C=    0.0000
 XYZ=   -2.3721   -0.3524    2.8033 Q=    0.0099 A=    0.0000 R=    0.0000 C=    0.0000
 XYZ=   -1.1005   -0.7938    3.4957 Q=    0.0099 A=    0.0000 R=    0.0000 C=    0.0000
 XYZ=    5.6960   -1.7667    1.9466 Q=   -0.0198 A=    0.0000 R=    0.0000 C=    0.0000
 XYZ=    5.4030   -2.6727    2.0450 Q=    0.0099 A=    0.0000 R=    0.0000 C=    0.0000
 XYZ=    5.5407   -1.5636    1.0242 Q=    0.0099 A=    0.0000 R=    0.0000 C=    0.0000
 XYZ=    3.5568    2.8955   -1.0977 Q=    0.0099 A=    0.0000 R=    0.0000 C=    0.0000
 XYZ=    0.5529    3.7616    2.7660 Q=   -0.0198 A=    0.0000 R=    0.0000 C=    0.0000
 XYZ=    1.4065    3.3573    2.9216 Q=    0.0099 A=    0.0000 R=    0.0000 C=    0.0000
 XYZ=    0.6771    4.2869    1.9756 Q=    0.0099 A=    0.0000 R=    0.0000 C=    0.0000
 XYZ=    2.1878   -3.7125    1.0021 Q=   -0.0198 A=    0.0000 R=    0.0000 C=    0.0000
 XYZ=    3.0352   -3.9786    1.3590 Q=    0.0099 A=    0.0000 R=    0.0000 C=    0.0000
 XYZ=    2.0053   -2.8711    1.4205 Q=    0.0099 A=    0.0000 R=    0.0000 C=    0.0000
 XYZ=    0.7533   -0.5402    3.9468 Q=   -0.0198 A=    0.0000 R=    0.0000 C=    0.0000
 XYZ=    0.9771   -0.2666    3.0573 Q=    0.0099 A=    0.0000 R=    0.0000 C=    0.0000
 XYZ=    2.7716    4.1948    0.1800 Q=   -0.0198 A=    0.0000 R=    0.0000 C=    0.0000
 XYZ=    1.9393    4.5090   -0.1734 Q=    0.0099 A=    0.0000 R=    0.0000 C=    0.0000
 XYZ=    6.1233   -2.4603   -0.9069 Q=    0.0099 A=    0.0000 R=    0.0000 C=    0.0000
 XYZ=    6.7088   -0.1088   -0.6776 Q=    0.0099 A=    0.0000 R=    0.0000 C=    0.0000
 XYZ=   -2.0736   -0.4414    3.9146 Q=   -0.0198 A=    0.0000 R=    0.0000 C=    0.0000
 XYZ=    5.6701   -0.9174    2.0109 Q=   -0.0198 A=    0.0000 R=    0.0000 C=    0.0000
 XYZ=    5.3023   -1.7682    2.2495 Q=    0.0099 A=    0.0000 R=    0.0000 C=    0.0000
 XYZ=    5.9004   -1.0068    1.0861 Q=    0.0099 A=    0.0000 R=    0.0000 C=    0.0000
 XYZ=    3.0800    2.9244   -2.2975 Q=   -0.0198 A=    0.0000 R=    0.0000 C=    0.0000
 XYZ=    2.9894    3.5515   -1.5800 Q=    0.0099 A=    0.0000 R=    0.0000 C=    0.0000
 XYZ=    1.0274   -3.0243    0.9956 Q=    0.0099 A=    0.0000 R=    0.0000 C=    0.0000
 XYZ=    0.7487   -1.0888    4.0898 Q=   -0.0198 A=    0.0000 R=    0.0000 C=    0.0000
 XYZ=    1.0195   -1.0412    3.1730 Q=    0.0099 A=    0.0000 R=    0.0000 C=    0.0000
 XYZ=    2.4956    4.6871    0.0330 Q=   -0.0198 A=    0.0000 R=    0.0000 C=    0.0000
 XYZ=    1.6541    5.1347    0.1203 Q=    0.0099 A=    0.0000 R=    0.0000 C=    0.0000
 XYZ=    3.7920    3.0117   -1.7625 Q=    0.0099 A=    0.0000 R=    0.0000 C=    0.0000
 XYZ=    6.7895    0.0809   -0.5084 Q=    0.0099 A=    0.0000 R=    0.0000 C=    0.0000
 XYZ=   -2.1736    0.0761    3.2273 Q=    0.0099 A=    0.0000 R=    0.0000 C=    0.0000
 XYZ=    2.9522    2.6471   -1.4830 Q=   -0.0198 A=    0.0000 R=    0.0000 C=    0.0000
 XYZ=    2.6387    3.2541   -0.8126 Q=    0.0099 A=    0.0000 R=    0.0000 C=    0.0000
 XYZ=    1.0668   -2.4320    1.0074 Q=    0.0099 A=    0.0000 R=    0.0000 C=    0.0000
 XYZ=    0.5613   -1.8475    3.8729 Q=   -0.0198 A=    0.0000 R=    0.0000 C=    0.0000
 XYZ=    0.6443   -1.5433    2.9691 Q=    0.0099 A=    0.0000 R=    0.0000 C=    0.0000
 XYZ=    2.3155    4.6118    0.0807 Q=   -0.0198 A=    0.0000 R=    0.0000 C=    0.0000
 XYZ=    1.5091    5.0531    0.3473 Q=    0.0099 A=    0.0000 R=    0.0000 C=    0.0000
 XYZ=    4.8648    2.2028    1.3306 Q=    0.0099 A=    0.0000 R=    0.0000 C=    0.0000
 XYZ=    6.5677    1.0633   -0.6391 Q=   -0.0198 A=    0.0000 R=    0.0000 C=    0.0000
 XYZ=    6.4124    0.1270   -0.5147 Q=    0.0099 A=    0.0000 R=    0.0000 C=    0.0000
 XYZ=   -2.4387   -0.2702    3.8278 Q=   -0.0198 A=    0.0000 R=    0.0000 C=    0.0000
 XYZ=   -2.0425    0.0590    3.0210 Q=    0.0099 A=    0.0000 R=    0.0000 C=    0.0000
 XYZ=    4.3962   -3.1680    1.7976 Q=    0.0099 A=    0.0000 R=    0.0000 C=    0.0000
 XYZ=    3.2924    2.7672   -2.0303 Q=   -0.0198 A=    0.0000 R=    0.0000 C=    0.0000
 XYZ=    3.1031    3.0394   -1.1324 Q=    0.0099 A=    0.0000 R=    0.0000 C=    0.0000
 XYZ=    0.5423   -1.5516    3.8389 Q=   -0.0198 A=    0.0000 R=    0.0000 C=    0.0000
 XYZ=    0.5298   -1.0467    3.0258 Q=    0.0099 A=    0.0000 R=    0.0000 C=    0.0000
 XYZ=    3.6471   -1.8413    2.5710 Q=   -0.0198 A=    0.0000 R=    0.0000 C=    0.0000
 XYZ=    2.8212   -1.6264    2.1375 Q=    0.0099 A=    0.0000 R=    0.0000 C=    0.0000
 XYZ=    2.4521    4.5662    0.1775 Q=   -0.0198 A=    0.0000 R=    0.0000 C=    0.0000
 XYZ=    1.7107    5.1603    0.2935 Q=    0.0099 A=    0.0000 R=    0.0000 C=    0.0000
 XYZ=    3.6120    2.8005   -2.5457 Q=    0.0099 A=    0.0000 R=    0.0000 C=    0.0000
 XYZ=    6.2309    1.3936   -0.5736 Q=   -0.0198 A=    0.0000 R=    0.0000 C=    0.0000
 XYZ=    6.6705    0.7131   -1.0834 Q=    0.0099 A=    0.0000 R=    0.0000 C=    0.0000
 XYZ=    6.1014    1.0003    0.2894 Q=    0.0099 A=    0.0000 R=    0.0000 C=    0.0000
 XYZ=    5.8681   -1.0432    1.6913 Q=    0.0099 A=    0.0000 R=    0.0000 C=    0.0000
 XYZ=    4.3501   -3.9861    1.4075 Q=   -0.0198 A=    0.0000 R=    0.0000 C=    0.0000
 XYZ=    4.3277   -3.0866    1.7340 Q=    0.0099 A=    0.0000 R=    0.0000 C=    0.0000
 XYZ=    2.8791    2.5767   -1.9721 Q=   -0.0198 A=    0.0000 R=    0.0000 C=    0.0000
 XYZ=    3.0426    3.0727   -1.1700 Q=    0.0099 A=    0.0000 R=    0.0000 C=    0.0000
 XYZ=    0.4117   -1.4363    3.6302 Q=   -0.0198 A=    0.0000 R=    0.0000 C=    0.0000
 XYZ=    1.0189   -1.0103    4.2352 Q=    0.0099 A=    0.0000 R=    0.0000 C=    0.0000
 XYZ=    0.6729   -1.1191    2.7657 Q=    0.0099 A=    0.0000 R=    0.0000 C=    0.0000
 XYZ=    4.2055   -1.6849    2.9574 Q=   -0.0198 A=    0.0000 R=    0.0000 C=    0.0000
 XYZ=    3.3501   -2.1141    2.9746 Q=    0.0099 A=    0.0000 R=    0.0000 C=    0.0000
 XYZ=    2.2704    4.8354    0.6042 Q=    0.0099 A=    0.0000 R=    0.0000 C=    0.0000
 XYZ=    5.8457    1.7641   -0.0252 Q=   -0.0198 A=    0.0000 R=    0.0000 C=    0.0000
 XYZ=    5.5517    1.5393   -0.9079 Q=    0.0099 A=    0.0000 R=    0.0000 C=    0.0000
 XYZ=    6.4990    1.0973    0.1867 Q=    0.0099 A=    0.0000 R=    0.0000 C=    0.0000
 XYZ=    5.9831   -1.1348    1.5290 Q=    0.0099 A=    0.0000 R=    0.0000 C=    0.0000
 XYZ=    4.1836   -3.2227    2.4155 Q=    0.0099 A=    0.0000 R=    0.0000 C=    0.0000
 XYZ=    3.3813    2.2144   -2.3192 Q=   -0.0198 A=    0.0000 R=    0.0000 C=    0.0000
 XYZ=    3.2779    2.8516   -1.6125 Q=    0.0099 A=    0.0000 R=    0.0000 C=    0.0000
 XYZ=    1.4187   -2.8702    1.0172 Q=    0.0099 A=    0.0000 R=    0.0000 C=    0.0000
 XYZ=    0.7274   -1.5481    3.0917 Q=    0.0099 A=    0.0000 R=    0.0000 C=    0.0000
 XYZ=    3.5879   -0.9274    2.8140 Q=    0.0099 A=    0.0000 R=    0.0000 C=    0.0000
 XYZ=    2.8285    3.5115    0.0604 Q=   -0.0198 A=    0.0000 R=    0.0000 C=    0.0000
 XYZ=    2.1166    3.8402    0.6092 Q=    0.0099 A=    0.0000 R=    0.0000 C=    0.0000
 XYZ=    3.9843    2.0825   -2.1204 Q=    0.0099 A=    0.0000 R=    0.0000 C=    0.0000
 XYZ=    5.9429    1.8288   -0.4560 Q=   -0.0198 A=    0.0000 R=    0.0000 C=    0.0000
 XYZ=    5.8890    1.5705   -1.3762 Q=    0.0099 A=    0.0000 R=    0.0000 C=    0.0000
 XYZ=    6.1781    1.0237    0.0053 Q=    0.0099 A=    0.0000 R=    0.0000 C=    0.0000
 XYZ=    3.1185    2.4484   -1.9392 Q=   -0.0198 A=    0.0000 R=    0.0000 C=    0.0000
 XYZ=    3.2399    2.9690   -1.1451 Q=    0.0099 A=    0.0000 R=    0.0000 C=    0.0000
 XYZ=    0.7454   -1.5398    3.2370 Q=    0.0099 A=    0.0000 R=    0.0000 C=    0.0000
 XYZ=    3.4927   -0.7252    2.6176 Q=    0.0099 A=    0.0000 R=    0.0000 C=    0.0000
 XYZ=    4.1515    2.2561   -1.8571 Q=    0.0099 A=    0.0000 R=    0.0000 C=    0.0000
 XYZ=    6.1368    0.8298    0.4852 Q=    0.0099 A=    0.0000 R=    0.0000 C=    0.0000
 XYZ=    3.2535    2.3839   -1.5513 Q=   -0.0198 A=    0.0000 R=    0.0000 C=    0.0000
 XYZ=    3.3178    3.0894   -0.9076 Q=    0.0099 A=    0.0000 R=    0.0000 C=    0.0000
 XYZ=    1.3536   -3.6694    0.8295 Q=   -0.0198 A=    0.0000 R=    0.0000 C=    0.0000
 XYZ=    0.8030   -2.9463    1.1297 Q=    0.0099 A=    0.0000 R=    0.0000 C=    0.0000
 XYZ=    0.9483   -2.1808    3.6171 Q=   -0.0198 A=    0.0000 R=    0.0000 C=    0.0000
 XYZ=    1.2465   -1.8209    2.7818 Q=    0.0099 A=    0.0000 R=    0.0000 C=    0.0000
 XYZ=    3.8651   -1.2617    2.8499 Q=    0.0099 A=    0.0000 R=    0.0000 C=    0.0000
 XYZ=    1.0443    5.9664    0.1744 Q=    0.0099 A=    0.0000 R=    0.0000 C=    0.0000
 XYZ=    2.4046    3.8309    0.9791 Q=    0.0099 A=    0.0000 R=    0.0000 C=    0.0000
 XYZ=    6.5818    1.2220    0.1242 Q=   -0.0198 A=    0.0000 R=    0.0000 C=    0.0000
 XYZ=    2.9971    2.5880   -1.6481 Q=   -0.0198 A=    0.0000 R=    0.0000 C=    0.0000
 XYZ=    3.5171    2.9855   -0.9497 Q=    0.0099 A=    0.0000 R=    0.0000 C=    0.0000
 XYZ=    3.6232    2.0568   -2.1401 Q=    0.0099 A=    0.0000 R=    0.0000 C=    0.0000
 XYZ=    4.3671   -3.9015    1.6447 Q=    0.0099 A=    0.0000 R=    0.0000 C=    0.0000
 XYZ=    1.0210   -3.3141    1.4054 Q=    0.0099 A=    0.0000 R=    0.0000 C=    0.0000
 XYZ=    1.1274   -2.4772    3.4584 Q=   -0.0198 A=    0.0000 R=    0.0000 C=    0.0000
 XYZ=    1.0759   -1.7211    2.8737 Q=    0.0099 A=    0.0000 R=    0.0000 C=    0.0000
 XYZ=    1.7784    5.2789    0.5152 Q=   -0.0198 A=    0.0000 R=    0.0000 C=    0.0000
 XYZ=    0.9760    5.6432    0.1414 Q=    0.0099 A=    0.0000 R=    0.0000 C=    0.0000
 XYZ=    6.3776    0.7253   -0.1976 Q=   -0.0198 A=    0.0000 R=    0.0000 C=    0.0000
 XYZ=    6.5630   -0.0690    0.3034 Q=    0.0099 A=    0.0000 R=    0.0000 C=    0.0000
 XYZ=   -2.1610    0.0370    2.7351 Q=    0.0099 A=    0.0000 R=    0.0000 C=    0.0000
 XYZ=    2.9287    2.7475   -1.6588 Q=   -0.0198 A=    0.0000 R=    0.0000 C=    0.0000
 XYZ=    3.4787    2.5599   -0.8982 Q=    0.0099 A=    0.0000 R=    0.0000 C=    0.0000
 XYZ=    3.1601    2.0704   -2.2946 Q=    0.0099 A=    0.0000 R=    0.0000 C=    0.0000
 XYZ=    5.3459   -3.1196    0.5143 Q=   -0.0198 A=    0.0000 R=    0.0000 C=    0.0000
 XYZ=    4.9041   -3.3126    1.3412 Q=    0.0099 A=    0.0000 R=    0.0000 C=    0.0000
 XYZ=    4.9897   -3.7589   -0.1026 Q=    0.0099 A=    0.0000 R=    0.0000 C=    0.0000
 XYZ=    1.1462   -2.8530    1.0055 Q=    0.0099 A=    0.0000 R=    0.0000 C=    0.0000
 XYZ=    1.2091   -2.1296    3.6375 Q=   -0.0198 A=    0.0000 R=    0.0000 C=    0.0000
 XYZ=    1.3421   -1.6432    2.8239 Q=    0.0099 A=    0.0000 R=    0.0000 C=    0.0000
 XYZ=    4.2167    1.0261   -3.2812 Q=   -0.0198 A=    0.0000 R=    0.0000 C=    0.0000
 XYZ=    6.6945    1.0521   -0.3569 Q=   -0.0198 A=    0.0000 R=    0.0000 C=    0.0000
 XYZ=    2.8382    2.6195   -1.9284 Q=   -0.0198 A=    0.0000 R=    0.0000 C=    0.0000
 XYZ=    3.4158    2.7954   -1.1857 Q=    0.0099 A=    0.0000 R=    0.0000 C=    0.0000
 XYZ=    3.3994    2.1852   -2.5708 Q=    0.0099 A=    0.0000 R=    0.0000 C=    0.0000
 XYZ=    3.6793   -4.1849   -0.5652 Q=   -0.0198 A=    0.0000 R=    0.0000 C=    0.0000
 XYZ=    3.0275   -3.7664   -0.0028 Q=    0.0099 A=    0.0000 R=    0.0000 C=    0.0000
 XYZ=    5.8666   -3.1309    0.6533 Q=   -0.0198 A=    0.0000 R=    0.0000 C=    0.0000
 XYZ=    5.3364   -3.3230    1.4267 Q=    0.0099 A=    0.0000 R=    0.0000 C=    0.0000
 XYZ=    5.3530   -3.4707   -0.0796 Q=    0.0099 A=    0.0000 R=    0.0000 C=    0.0000
 XYZ=    1.8351   -2.1293    3.6295 Q=   -0.0198 A=    0.0000 R=    0.0000 C=    0.0000
 XYZ=    1.7061   -1.3600    4.1843 Q=    0.0099 A=    0.0000 R=    0.0000 C=    0.0000
 XYZ=    1.8102   -1.7871    2.7359 Q=    0.0099 A=    0.0000 R=    0.0000 C=    0.0000
 XYZ=    6.6037    0.8359   -0.5056 Q=   -0.0198 A=    0.0000 R=    0.0000 C=    0.0000
 XYZ=    6.4494    0.8921   -1.4486 Q=    0.0099 A=    0.0000 R=    0.0000 C=    0.0000
 XYZ=    6.8088   -0.0862   -0.3510 Q=    0.0099 A=    0.0000 R=    0.0000 C=    0.0000
 XYZ=    2.5995    2.7430   -1.8702 Q=   -0.0198 A=    0.0000 R=    0.0000 C=    0.0000
 XYZ=    3.0318    2.7785   -1.0169 Q=    0.0099 A=    0.0000 R=    0.0000 C=    0.0000
 XYZ=    3.2620    2.3826   -2.4595 Q=    0.0099 A=    0.0000 R=    0.0000 C=    0.0000
 XYZ=    3.6158   -4.2770   -0.7740 Q=   -0.0198 A=    0.0000 R=    0.0000 C=    0.0000
 XYZ=    5.2250   -3.9382    0.1921 Q=    0.0099 A=    0.0000 R=    0.0000 C=    0.0000
 XYZ=    1.7613   -2.2196    3.6068 Q=   -0.0198 A=    0.0000 R=    0.0000 C=    0.0000
 XYZ=    1.5006   -1.8632    2.7575 Q=    0.0099 A=    0.0000 R=    0.0000 C=    0.0000
 XYZ=    6.5495    0.2927   -0.6437 Q=   -0.0198 A=    0.0000 R=    0.0000 C=    0.0000
 XYZ=    6.4118   -0.0205   -1.5377 Q=    0.0099 A=    0.0000 R=    0.0000 C=    0.0000
 XYZ=    3.2170   -2.4565    3.0261 Q=    0.0099 A=    0.0000 R=    0.0000 C=    0.0000
 XYZ=    2.7805    2.6845   -2.1346 Q=   -0.0198 A=    0.0000 R=    0.0000 C=    0.0000
 XYZ=    3.2029    2.9182   -1.3081 Q=    0.0099 A=    0.0000 R=    0.0000 C=    0.0000
 XYZ=    3.5039    2.4468   -2.7145 Q=    0.0099 A=    0.0000 R=    0.0000 C=    0.0000
 XYZ=   -2.5139   -1.4668    3.4153 Q=    0.0099 A=    0.0000 R=    0.0000 C=    0.0000
 XYZ=    5.3016   -3.1818    1.3090 Q=    0.0099 A=    0.0000 R=    0.0000 C=    0.0000
 XYZ=    1.2950   -2.6974    0.7880 Q=    0.0099 A=    0.0000 R=    0.0000 C=    0.0000
 XYZ=    1.5157   -1.9881    3.7680 Q=   -0.0198 A=    0.0000 R=    0.0000 C=    0.0000
 XYZ=    1.4516   -1.5804    2.9043 Q=    0.0099 A=    0.0000 R=    0.0000 C=    0.0000
 XYZ=    4.8674    2.8271   -0.2723 Q=   -0.0198 A=    0.0000 R=    0.0000 C=    0.0000
 XYZ=    5.0095    2.2794   -1.0444 Q=    0.0099 A=    0.0000 R=    0.0000 C=    0.0000
 XYZ=    3.7118   -2.9805    2.5024 Q=   -0.0198 A=    0.0000 R=    0.0000 C=    0.0000
 XYZ=    2.7094    2.3773   -2.0785 Q=   -0.0198 A=    0.0000 R=    0.0000 C=    0.0000
 XYZ=    3.1066    2.9058   -1.3863 Q=    0.0099 A=    0.0000 R=    0.0000 C=    0.0000
 XYZ=    3.4110    2.2536   -2.7179 Q=    0.0099 A=    0.0000 R=    0.0000 C=    0.0000
 XYZ=    4.1315   -4.1126   -1.2975 Q=   -0.0198 A=    0.0000 R=    0.0000 C=    0.0000
 XYZ=    5.7228   -3.1012    0.5050 Q=   -0.0198 A=    0.0000 R=    0.0000 C=    0.0000
 XYZ=    5.0154   -2.7972    1.0737 Q=    0.0099 A=    0.0000 R=    0.0000 C=    0.0000
 XYZ=    5.2771   -3.4415   -0.2707 Q=    0.0099 A=    0.0000 R=    0.0000 C=    0.0000
 XYZ=    1.5137   -3.1239    0.5166 Q=    0.0099 A=    0.0000 R=    0.0000 C=    0.0000
 XYZ=    1.2989   -1.9162    3.7286 Q=   -0.0198 A=    0.0000 R=    0.0000 C=    0.0000
 XYZ=    1.1519   -1.5570    2.8536 Q=    0.0099 A=    0.0000 R=    0.0000 C=    0.0000
 XYZ=    4.0950   -0.9418    2.5837 Q=    0.0099 A=    0.0000 R=    0.0000 C=    0.0000
 XYZ=    6.0745    2.1422   -0.3363 Q=    0.0099 A=    0.0000 R=    0.0000 C=    0.0000
 XYZ=    3.3995   -3.2276    2.1486 Q=   -0.0198 A=    0.0000 R=    0.0000 C=    0.0000
 XYZ=    2.6846   -3.0128    2.7478 Q=    0.0099 A=    0.0000 R=    0.0000 C=    0.0000
 XYZ=    4.6618    1.0096    2.1790 Q=    0.0099 A=    0.0000 R=    0.0000 C=    0.0000
 XYZ=    2.8159    2.8199   -1.6697 Q=   -0.0198 A=    0.0000 R=    0.0000 C=    0.0000
 XYZ=    3.3382    3.1795   -0.9527 Q=    0.0099 A=    0.0000 R=    0.0000 C=    0.0000
 XYZ=    3.4582    2.4240   -2.2588 Q=    0.0099 A=    0.0000 R=    0.0000 C=    0.0000
 XYZ=   -2.3133   -1.0709    3.1024 Q=    0.0099 A=    0.0000 R=    0.0000 C=    0.0000
 XYZ=    3.9719   -3.8521   -1.2191 Q=   -0.0198 A=    0.0000 R=    0.0000 C=    0.0000
 XYZ=    5.9361   -3.0900    0.6699 Q=   -0.0198 A=    0.0000 R=    0.0000 C=    0.0000
 XYZ=    5.3581   -2.5052    1.1599 Q=    0.0099 A=    0.0000 R=    0.0000 C=    0.0000
 XYZ=    5.3915   -3.4228   -0.0434 Q=    0.0099 A=    0.0000 R=    0.0000 C=    0.0000
 XYZ=    2.1759   -3.7534    0.8515 Q=    0.0099 A=    0.0000 R=    0.0000 C=    0.0000
 XYZ=    1.2372   -2.2811    3.5701 Q=   -0.0198 A=    0.0000 R=    0.0000 C=    0.0000
 XYZ=    1.0963   -1.8566    2.7238 Q=    0.0099 A=    0.0000 R=    0.0000 C=    0.0000
 XYZ=    4.2484   -1.3851    2.3067 Q=    0.0099 A=    0.0000 R=    0.0000 C=    0.0000
 XYZ=    0.3829    0.6975    3.7595 Q=   -0.0198 A=    0.0000 R=    0.0000 C=    0.0000
 XYZ=    1.2390    0.8142    3.3474 Q=    0.0099 A=    0.0000 R=    0.0000 C=    0.0000
 XYZ=    5.6396   -0.9333   -2.5600 Q=   -0.0198 A=    0.0000 R=    0.0000 C=    0.0000
 XYZ=    4.9256    0.8323   -2.9897 Q=    0.0099 A=    0.0000 R=    0.0000 C=    0.0000
 XYZ=    5.5841    2.4776   -0.0412 Q=   -0.0198 A=    0.0000 R=    0.0000 C=    0.0000
 XYZ=    4.8525   -1.4679   -2.6641 Q=    0.0099 A=    0.0000 R=    0.0000 C=    0.0000
 XYZ=    3.2588   -3.2746    2.5605 Q=   -0.0198 A=    0.0000 R=    0.0000 C=    0.0000
 XYZ=    2.8919    2.9575   -1.3717 Q=   -0.0198 A=    0.0000 R=    0.0000 C=    0.0000
 XYZ=    3.4046    2.9680   -0.5634 Q=    0.0099 A=    0.0000 R=    0.0000 C=    0.0000
 XYZ=    3.4846    2.5883   -2.0264 Q=    0.0099 A=    0.0000 R=    0.0000 C=    0.0000
 XYZ=   -1.6852   -1.0700    3.3295 Q=    0.0099 A=    0.0000 R=    0.0000 C=    0.0000
 XYZ=    5.2069   -3.1226    1.4528 Q=    0.0099 A=    0.0000 R=    0.0000 C=    0.0000
 XYZ=    5.5338   -3.7136    0.0982 Q=    0.0099 A=    0.0000 R=    0.0000 C=    0.0000
 XYZ=    2.4578   -3.6957    1.2210 Q=    0.0099 A=    0.0000 R=    0.0000 C=    0.0000
 XYZ=    1.0003   -2.2439    3.5194 Q=   -0.0198 A=    0.0000 R=    0.0000 C=    0.0000
 XYZ=    0.9571   -1.5304    4.1559 Q=    0.0099 A=    0.0000 R=    0.0000 C=    0.0000
 XYZ=    1.0278   -1.8050    2.6691 Q=    0.0099 A=    0.0000 R=    0.0000 C=    0.0000
 XYZ=    4.5205   -0.7516    2.7777 Q=   -0.0198 A=    0.0000 R=    0.0000 C=    0.0000
 XYZ=    4.0666   -1.5827    2.6377 Q=    0.0099 A=    0.0000 R=    0.0000 C=    0.0000
 XYZ=   -0.2007    0.5454    3.8419 Q=   -0.0198 A=    0.0000 R=    0.0000 C=    0.0000
 XYZ=    0.5822    0.7322    3.3238 Q=    0.0099 A=    0.0000 R=    0.0000 C=    0.0000
 XYZ=    4.8939    0.3105   -3.2130 Q=    0.0099 A=    0.0000 R=    0.0000 C=    0.0000
 XYZ=    6.4371    0.0753   -0.7849 Q=   -0.0198 A=    0.0000 R=    0.0000 C=    0.0000
 XYZ=    6.0846   -0.3203   -1.5821 Q=    0.0099 A=    0.0000 R=    0.0000 C=    0.0000
 XYZ=    5.3566    2.3679   -0.4296 Q=   -0.0198 A=    0.0000 R=    0.0000 C=    0.0000
 XYZ=    5.8814    1.5705   -0.5005 Q=    0.0099 A=    0.0000 R=    0.0000 C=    0.0000
 XYZ=    5.4622   -1.4176   -2.8755 Q=   -0.0198 A=    0.0000 R=    0.0000 C=    0.0000
 XYZ=    3.8532   -3.2318    2.4210 Q=   -0.0198 A=    0.0000 R=    0.0000 C=    0.0000
 XYZ=    2.8425    2.6671   -1.7268 Q=   -0.0198 A=    0.0000 R=    0.0000 C=    0.0000
 XYZ=    3.1790    2.9468   -0.8755 Q=    0.0099 A=    0.0000 R=    0.0000 C=    0.0000
 XYZ=    3.5863    2.2373   -2.1489 Q=    0.0099 A=    0.0000 R=    0.0000 C=    0.0000
 XYZ=   -2.5116   -0.5077    3.5022 Q=    0.0099 A=    0.0000 R=    0.0000 C=    0.0000
 XYZ=    5.1083   -3.1430    1.1348 Q=    0.0099 A=    0.0000 R=    0.0000 C=    0.0000
 XYZ=    5.2964   -3.6580   -0.2760 Q=    0.0099 A=    0.0000 R=    0.0000 C=    0.0000
 XYZ=    2.3350   -4.3074    0.3544 Q=   -0.0198 A=    0.0000 R=    0.0000 C=    0.0000
 XYZ=    2.7373   -3.7553    1.0248 Q=    0.0099 A=    0.0000 R=    0.0000 C=    0.0000
 XYZ=    1.4177   -2.5536    3.3353 Q=   -0.0198 A=    0.0000 R=    0.0000 C=    0.0000
 XYZ=    1.4484   -1.8735    2.6625 Q=    0.0099 A=    0.0000 R=    0.0000 C=    0.0000
 XYZ=    4.2117   -1.4370    2.9538 Q=    0.0099 A=    0.0000 R=    0.0000 C=    0.0000
 XYZ=    0.0677    1.0025    3.8884 Q=   -0.0198 A=    0.0000 R=    0.0000 C=    0.0000
 XYZ=    0.7648    0.9670    3.2334 Q=    0.0099 A=    0.0000 R=    0.0000 C=    0.0000
 XYZ=    3.7460    2.5534   -2.3034 Q=    0.0099 A=    0.0000 R=    0.0000 C=    0.0000
 XYZ=    6.4023   -0.4626   -1.7745 Q=    0.0099 A=    0.0000 R=    0.0000 C=    0.0000
 XYZ=    6.3656    1.7177   -0.4676 Q=    0.0099 A=    0.0000 R=    0.0000 C=    0.0000
 XYZ=    4.1852   -3.4102    2.1263 Q=   -0.0198 A=    0.0000 R=    0.0000 C=    0.0000
 XYZ=    3.2321   -3.4235    2.2139 Q=    0.0099 A=    0.0000 R=    0.0000 C=    0.0000
 XYZ=    2.8652    2.7764   -2.0022 Q=   -0.0198 A=    0.0000 R=    0.0000 C=    0.0000
 XYZ=    3.0053    3.2500   -1.1823 Q=    0.0099 A=    0.0000 R=    0.0000 C=    0.0000
 XYZ=    5.5430   -3.4455    0.8927 Q=    0.0099 A=    0.0000 R=    0.0000 C=    0.0000
 XYZ=    1.7358   -2.9113    3.0697 Q=   -0.0198 A=    0.0000 R=    0.0000 C=    0.0000
 XYZ=    1.4596   -2.2979    2.3888 Q=    0.0099 A=    0.0000 R=    0.0000 C=    0.0000
 XYZ=    4.7544    0.1473   -3.2636 Q=    0.0099 A=    0.0000 R=    0.0000 C=    0.0000
 XYZ=    0.2341    1.1118    3.8440 Q=   -0.0198 A=    0.0000 R=    0.0000 C=    0.0000
 XYZ=    1.1640    0.9617    3.6738 Q=    0.0099 A=    0.0000 R=    0.0000 C=    0.0000
 XYZ=    0.1652    2.0566    3.9813 Q=    0.0099 A=    0.0000 R=    0.0000 C=    0.0000
 XYZ=    4.8595    2.7860    0.5924 Q=    0.0099 A=    0.0000 R=    0.0000 C=    0.0000
 XYZ=    3.4182   -3.5556    2.3498 Q=    0.0099 A=    0.0000 R=    0.0000 C=    0.0000
 XYZ=    2.8301    2.5049   -1.9517 Q=   -0.0198 A=    0.0000 R=    0.0000 C=    0.0000
 XYZ=    3.1277    3.3777   -1.6953 Q=    0.0099 A=    0.0000 R=    0.0000 C=    0.0000
 XYZ=    3.5929    2.1047   -2.3690 Q=    0.0099 A=    0.0000 R=    0.0000 C=    0.0000
 XYZ=    6.0475   -2.8625   -0.0546 Q=   -0.0198 A=    0.0000 R=    0.0000 C=    0.0000
 XYZ=    5.2769   -2.9346    0.5086 Q=    0.0099 A=    0.0000 R=    0.0000 C=    0.0000
 XYZ=    5.7416   -3.1454   -0.9164 Q=    0.0099 A=    0.0000 R=    0.0000 C=    0.0000
 XYZ=    1.7480   -2.7597    3.1066 Q=   -0.0198 A=    0.0000 R=    0.0000 C=    0.0000
 XYZ=    1.6027   -2.1092    2.4197 Q=    0.0099 A=    0.0000 R=    0.0000 C=    0.0000
 XYZ=    0.1710    1.0487    3.9002 Q=   -0.0198 A=    0.0000 R=    0.0000 C=    0.0000
 XYZ=    1.0863    0.9122    3.6557 Q=    0.0099 A=    0.0000 R=    0.0000 C=    0.0000
 XYZ=    0.1130    1.9832    4.0990 Q=    0.0099 A=    0.0000 R=    0.0000 C=    0.0000
 XYZ=    5.6510    2.4468   -0.9407 Q=   -0.0198 A=    0.0000 R=    0.0000 C=    0.0000
 XYZ=    6.2568    1.7145   -0.8270 Q=    0.0099 A=    0.0000 R=    0.0000 C=    0.0000
 XYZ=    3.7713   -3.5507    2.2044 Q=   -0.0198 A=    0.0000 R=    0.0000 C=    0.0000
 XYZ=    3.8630    1.4813    2.0873 Q=    0.0099 A=    0.0000 R=    0.0000 C=    0.0000
 XYZ=    2.8380    2.6312   -1.7801 Q=   -0.0198 A=    0.0000 R=    0.0000 C=    0.0000
 XYZ=    3.0190    3.3330   -1.1548 Q=    0.0099 A=    0.0000 R=    0.0000 C=    0.0000
 XYZ=    3.6690    2.1634   -1.8622 Q=    0.0099 A=    0.0000 R=    0.0000 C=    0.0000
 XYZ=    5.8055   -2.7365    0.1844 Q=   -0.0198 A=    0.0000 R=    0.0000 C=    0.0000
 XYZ=    4.9973   -2.8566    0.6830 Q=    0.0099 A=    0.0000 R=    0.0000 C=    0.0000
 XYZ=    5.5585   -2.9244   -0.7211 Q=    0.0099 A=    0.0000 R=    0.0000 C=    0.0000
 XYZ=    1.8540   -2.1366    3.4670 Q=   -0.0198 A=    0.0000 R=    0.0000 C=    0.0000
 XYZ=    1.6056   -1.6150    2.7039 Q=    0.0099 A=    0.0000 R=    0.0000 C=    0.0000
 XYZ=    1.5917    0.7406    3.5711 Q=    0.0099 A=    0.0000 R=    0.0000 C=    0.0000
 XYZ=    4.8224    2.8264    0.4770 Q=    0.0099 A=    0.0000 R=    0.0000 C=    0.0000
 XYZ=    5.5741    2.0233   -0.9504 Q=   -0.0198 A=    0.0000 R=    0.0000 C=    0.0000
 XYZ=    6.2371    1.4078   -0.6377 Q=    0.0099 A=    0.0000 R=    0.0000 C=    0.0000
 XYZ=    2.4916   -3.0279    2.2571 Q=    0.0099 A=    0.0000 R=    0.0000 C=    0.0000
 XYZ=    3.4222    1.2440    2.1411 Q=    0.0099 A=    0.0000 R=    0.0000 C=    0.0000
 XYZ=    2.9940    2.4017   -1.9282 Q=   -0.0198 A=    0.0000 R=    0.0000 C=    0.0000
 XYZ=    2.9045    3.1022   -1.2821 Q=    0.0099 A=    0.0000 R=    0.0000 C=    0.0000
 XYZ=    3.8517    2.0171   -1.7472 Q=    0.0099 A=    0.0000 R=    0.0000 C=    0.0000
 XYZ=    0.1602    3.3867    2.7276 Q=   -0.0198 A=    0.0000 R=    0.0000 C=    0.0000
 XYZ=    1.0699    3.6845    2.7250 Q=    0.0099 A=    0.0000 R=    0.0000 C=    0.0000
 XYZ=    5.6715   -2.9576    0.5190 Q=   -0.0198 A=    0.0000 R=    0.0000 C=    0.0000
 XYZ=    4.9673   -3.4822    0.9000 Q=    0.0099 A=    0.0000 R=    0.0000 C=    0.0000
 XYZ=    5.4210   -2.8508   -0.3986 Q=    0.0099 A=    0.0000 R=    0.0000 C=    0.0000
 XYZ=    1.6622   -2.1346    3.9250 Q=   -0.0198 A=    0.0000 R=    0.0000 C=    0.0000
 XYZ=    1.1756   -1.6133    3.2865 Q=    0.0099 A=    0.0000 R=    0.0000 C=    0.0000
 XYZ=    1.6819    0.6344    3.8153 Q=    0.0099 A=    0.0000 R=    0.0000 C=    0.0000
 XYZ=    6.5749   -0.7660   -1.2770 Q=   -0.0198 A=    0.0000 R=    0.0000 C=    0.0000
 XYZ=    5.6354    1.9486   -1.1763 Q=   -0.0198 A=    0.0000 R=    0.0000 C=    0.0000
 XYZ=    5.8841    1.0342   -1.3111 Q=    0.0099 A=    0.0000 R=    0.0000 C=    0.0000
 XYZ=    5.7362   -1.5576    1.5051 Q=    0.0099 A=    0.0000 R=    0.0000 C=    0.0000
 XYZ=    3.8502    1.7255    2.1107 Q=    0.0099 A=    0.0000 R=    0.0000 C=    0.0000
 XYZ=    2.8619    2.3810   -2.0945 Q=   -0.0198 A=    0.0000 R=    0.0000 C=    0.0000
 XYZ=    2.8777    3.1203   -1.4866 Q=    0.0099 A=    0.0000 R=    0.0000 C=    0.0000
 XYZ=    3.7687    2.0758   -2.1239 Q=    0.0099 A=    0.0000 R=    0.0000 C=    0.0000
 XYZ=    0.5080    3.1950    3.0586 Q=   -0.0198 A=    0.0000 R=    0.0000 C=    0.0000
 XYZ=    0.8255    2.6684    3.7921 Q=    0.0099 A=    0.0000 R=    0.0000 C=    0.0000
 XYZ=    5.5088   -3.2186    0.6531 Q=   -0.0198 A=    0.0000 R=    0.0000 C=    0.0000
 XYZ=    4.7981   -3.5988    1.1695 Q=    0.0099 A=    0.0000 R=    0.0000 C=    0.0000
 XYZ=    5.2121   -3.2926   -0.2539 Q=    0.0099 A=    0.0000 R=    0.0000 C=    0.0000
 XYZ=    1.3081   -3.4946    0.8279 Q=    0.0099 A=    0.0000 R=    0.0000 C=    0.0000
 XYZ=    1.6076   -2.3000    3.4618 Q=   -0.0198 A=    0.0000 R=    0.0000 C=    0.0000
 XYZ=    1.2892   -1.8701    2.6680 Q=    0.0099 A=    0.0000 R=    0.0000 C=    0.0000
 XYZ=    5.9416   -1.4518   -1.4886 Q=    0.0099 A=    0.0000 R=    0.0000 C=    0.0000
 XYZ=    0.9188    0.6836    3.5286 Q=    0.0099 A=    0.0000 R=    0.0000 C=    0.0000
 XYZ=    5.3560    2.5701    0.1947 Q=    0.0099 A=    0.0000 R=    0.0000 C=    0.0000
 XYZ=    4.1905    2.3759   -1.8722 Q=    0.0099 A=    0.0000 R=    0.0000 C=    0.0000
 XYZ=    6.2768   -1.0345   -1.3432 Q=   -0.0198 A=    0.0000 R=    0.0000 C=    0.0000
 XYZ=    5.8867    1.6408   -1.4940 Q=   -0.0198 A=    0.0000 R=    0.0000 C=    0.0000
 XYZ=    6.3358    0.8012   -1.5920 Q=    0.0099 A=    0.0000 R=    0.0000 C=    0.0000
 XYZ=    3.3189    2.7279   -2.0527 Q=   -0.0198 A=    0.0000 R=    0.0000 C=    0.0000
 XYZ=    3.1900    3.4021   -1.3856 Q=    0.0099 A=    0.0000 R=    0.0000 C=    0.0000
 XYZ=    0.0878    3.3063    3.1049 Q=   -0.0198 A=    0.0000 R=    0.0000 C=    0.0000
 XYZ=    0.4091    2.5697    3.6249 Q=    0.0099 A=    0.0000 R=    0.0000 C=    0.0000
 XYZ=    5.1394   -3.4262    1.4134 Q=    0.0099 A=    0.0000 R=    0.0000 C=    0.0000
 XYZ=    2.0142   -3.9566    0.9191 Q=    0.0099 A=    0.0000 R=    0.0000 C=    0.0000
 XYZ=    1.3697   -2.2007    3.4940 Q=   -0.0198 A=    0.0000 R=    0.0000 C=    0.0000
 XYZ=    1.1053   -1.6503    2.7569 Q=    0.0099 A=    0.0000 R=    0.0000 C=    0.0000
 XYZ=    5.7208   -1.8126   -1.3032 Q=    0.0099 A=    0.0000 R=    0.0000 C=    0.0000
 XYZ=    1.6744    0.6770    3.4558 Q=    0.0099 A=    0.0000 R=    0.0000 C=    0.0000
 XYZ=    5.3545    2.5460    0.4726 Q=    0.0099 A=    0.0000 R=    0.0000 C=    0.0000
 XYZ=    3.4495    3.2424   -1.8834 Q=   -0.0198 A=    0.0000 R=    0.0000 C=    0.0000
 XYZ=    5.6917    1.7939   -1.1215 Q=   -0.0198 A=    0.0000 R=    0.0000 C=    0.0000
 XYZ=    5.8552    0.8539   -1.1986 Q=    0.0099 A=    0.0000 R=    0.0000 C=    0.0000
 XYZ=    6.1734   -0.6724    1.3442 Q=   -0.0198 A=    0.0000 R=    0.0000 C=    0.0000
 XYZ=    5.3361   -0.7575    1.8002 Q=    0.0099 A=    0.0000 R=    0.0000 C=    0.0000
 XYZ=    6.3216   -1.5333    0.9529 Q=    0.0099 A=    0.0000 R=    0.0000 C=    0.0000
 XYZ=   -0.3394    3.4457    3.0512 Q=   -0.0198 A=    0.0000 R=    0.0000 C=    0.0000
 XYZ=    0.0309    2.8043    3.6577 Q=    0.0099 A=    0.0000 R=    0.0000 C=    0.0000
 XYZ=    1.2315   -1.7739    4.0541 Q=   -0.0198 A=    0.0000 R=    0.0000 C=    0.0000
 XYZ=    1.0774   -1.3739    3.1982 Q=    0.0099 A=    0.0000 R=    0.0000 C=    0.0000
 XYZ=    3.0086   -1.1196    3.6164 Q=    0.0099 A=    0.0000 R=    0.0000 C=    0.0000
 XYZ=    5.8001   -2.0273   -2.1118 Q=    0.0099 A=    0.0000 R=    0.0000 C=    0.0000
 XYZ=    1.6900    1.2245    3.6416 Q=    0.0099 A=    0.0000 R=    0.0000 C=    0.0000
 XYZ=    4.9437    2.7068    0.5735 Q=    0.0099 A=    0.0000 R=    0.0000 C=    0.0000
 XYZ=    3.9784    2.4006   -1.5554 Q=    0.0099 A=    0.0000 R=    0.0000 C=    0.0000
 XYZ=    5.6320    1.9765   -0.9983 Q=   -0.0198 A=    0.0000 R=    0.0000 C=    0.0000
 XYZ=    5.7203    1.0491   -1.2184 Q=    0.0099 A=    0.0000 R=    0.0000 C=    0.0000
 XYZ=    6.0121   -0.9405    1.4454 Q=   -0.0198 A=    0.0000 R=    0.0000 C=    0.0000
 XYZ=    5.2751   -0.9354    2.0562 Q=    0.0099 A=    0.0000 R=    0.0000 C=    0.0000
 XYZ=    6.0738   -1.8496    1.1521 Q=    0.0099 A=    0.0000 R=    0.0000 C=    0.0000
 XYZ=    3.0766    2.6804   -1.7120 Q=   -0.0198 A=    0.0000 R=    0.0000 C=    0.0000
 XYZ=    2.9764    3.4724   -1.1838 Q=    0.0099 A=    0.0000 R=    0.0000 C=    0.0000
 XYZ=    0.1369    3.1117    2.9241 Q=    0.0099 A=    0.0000 R=    0.0000 C=    0.0000
 XYZ=    5.6425   -3.4149    0.1863 Q=   -0.0198 A=    0.0000 R=    0.0000 C=    0.0000
 XYZ=    5.0448   -3.5539    0.9209 Q=    0.0099 A=    0.0000 R=    0.0000 C=    0.0000
 XYZ=    5.1295   -3.6485   -0.5873 Q=    0.0099 A=    0.0000 R=    0.0000 C=    0.0000
 XYZ=    1.5111   -2.5682    0.3467 Q=    0.0099 A=    0.0000 R=    0.0000 C=    0.0000
 XYZ=    0.9295   -1.4068    4.1563 Q=   -0.0198 A=    0.0000 R=    0.0000 C=    0.0000
 XYZ=    0.9432   -1.0339    3.2748 Q=    0.0099 A=    0.0000 R=    0.0000 C=    0.0000
 XYZ=    3.5398   -0.9396    3.2455 Q=   -0.0198 A=    0.0000 R=    0.0000 C=    0.0000
 XYZ=    2.6320   -0.8423    3.5332 Q=    0.0099 A=    0.0000 R=    0.0000 C=    0.0000
 XYZ=    0.7170    1.4287    3.9125 Q=   -0.0198 A=    0.0000 R=    0.0000 C=    0.0000
 XYZ=    5.7942   -0.9650   -2.1913 Q=   -0.0198 A=    0.0000 R=    0.0000 C=    0.0000
 XYZ=    5.6538    1.4873   -1.1447 Q=   -0.0198 A=    0.0000 R=    0.0000 C=    0.0000
 XYZ=    5.8341    0.6170   -1.5001 Q=    0.0099 A=    0.0000 R=    0.0000 C=    0.0000
 XYZ=    3.2389    2.4003   -1.7899 Q=   -0.0198 A=    0.0000 R=    0.0000 C=    0.0000
 XYZ=    3.3018    3.2140   -1.2899 Q=    0.0099 A=    0.0000 R=    0.0000 C=    0.0000
 XYZ=    4.0585    1.9416   -1.6051 Q=    0.0099 A=    0.0000 R=    0.0000 C=    0.0000
 XYZ=   -0.1088    3.0701    3.2222 Q=    0.0099 A=    0.0000 R=    0.0000 C=    0.0000
 XYZ=    5.3068   -3.3049    0.8040 Q=   -0.0198 A=    0.0000 R=    0.0000 C=    0.0000
 XYZ=    4.8543   -3.3834    1.6438 Q=    0.0099 A=    0.0000 R=    0.0000 C=    0.0000
 XYZ=    4.6144   -3.3967    0.1494 Q=    0.0099 A=    0.0000 R=    0.0000 C=    0.0000
 XYZ=    1.1842   -2.8595    0.7268 Q=    0.0099 A=    0.0000 R=    0.0000 C=    0.0000
 XYZ=    0.7909   -1.8378    3.9341 Q=   -0.0198 A=    0.0000 R=    0.0000 C=    0.0000
 XYZ=    1.0865   -1.5963    3.0563 Q=    0.0099 A=    0.0000 R=    0.0000 C=    0.0000
 XYZ=    5.1152   -1.6394   -2.1686 Q=    0.0099 A=    0.0000 R=    0.0000 C=    0.0000
 XYZ=    0.1679    0.8538    3.8193 Q=   -0.0198 A=    0.0000 R=    0.0000 C=    0.0000
 XYZ=   -0.5988    0.3751    3.5043 Q=    0.0099 A=    0.0000 R=    0.0000 C=    0.0000
 XYZ=    0.8058    0.1721    4.0304 Q=    0.0099 A=    0.0000 R=    0.0000 C=    0.0000
 XYZ=    3.9606    2.3196   -1.5799 Q=    0.0099 A=    0.0000 R=    0.0000 C=    0.0000
 XYZ=    5.5753    1.7685   -1.8121 Q=   -0.0198 A=    0.0000 R=    0.0000 C=    0.0000
 XYZ=    5.7900    0.8963   -2.1428 Q=    0.0099 A=    0.0000 R=    0.0000 C=    0.0000
 XYZ=    6.0234   -1.2693    1.5387 Q=    0.0099 A=    0.0000 R=    0.0000 C=    0.0000
 XYZ=    2.7438    1.4281    1.7777 Q=    0.0099 A=    0.0000 R=    0.0000 C=    0.0000
 XYZ=    3.0659    2.6571   -1.6224 Q=   -0.0198 A=    0.0000 R=    0.0000 C=    0.0000
 XYZ=    3.1268    3.5430   -1.2651 Q=    0.0099 A=    0.0000 R=    0.0000 C=    0.0000
 XYZ=   -0.2490    3.2346    3.2750 Q=   -0.0198 A=    0.0000 R=    0.0000 C=    0.0000
 XYZ=    0.6591    3.4768    3.4569 Q=    0.0099 A=    0.0000 R=    0.0000 C=    0.0000
 XYZ=   -0.2883    2.2963    3.4602 Q=    0.0099 A=    0.0000 R=    0.0000 C=    0.0000
 XYZ=    5.0775   -3.5246    1.2444 Q=   -0.0198 A=    0.0000 R=    0.0000 C=    0.0000
 XYZ=    4.3783   -3.7163    1.8694 Q=    0.0099 A=    0.0000 R=    0.0000 C=    0.0000
 XYZ=    4.7958   -3.9468    0.4329 Q=    0.0099 A=    0.0000 R=    0.0000 C=    0.0000
 XYZ=    1.4835   -1.5001    3.8384 Q=   -0.0198 A=    0.0000 R=    0.0000 C=    0.0000
 XYZ=    1.6326   -1.3622    2.9030 Q=    0.0099 A=    0.0000 R=    0.0000 C=    0.0000
 XYZ=    5.5558   -1.3295   -2.9668 Q=    0.0099 A=    0.0000 R=    0.0000 C=    0.0000
 XYZ=   -0.2750    0.5468    3.9821 Q=   -0.0198 A=    0.0000 R=    0.0000 C=    0.0000
 XYZ=    0.4433   -0.0853    3.9547 Q=    0.0099 A=    0.0000 R=    0.0000 C=    0.0000
 XYZ=    3.8142    2.6437   -1.9219 Q=    0.0099 A=    0.0000 R=    0.0000 C=    0.0000
 XYZ=    5.4286    1.2199   -2.4852 Q=    0.0099 A=    0.0000 R=    0.0000 C=    0.0000
 XYZ=    5.3040   -2.3378    1.9194 Q=    0.0099 A=    0.0000 R=    0.0000 C=    0.0000
 XYZ=    2.4955    2.1394    2.7127 Q=   -0.0198 A=    0.0000 R=    0.0000 C=    0.0000
 XYZ=    2.8829    2.7768   -1.7453 Q=   -0.0198 A=    0.0000 R=    0.0000 C=    0.0000
 XYZ=    2.8553    3.5396   -1.1677 Q=    0.0099 A=    0.0000 R=    0.0000 C=    0.0000
 XYZ=   -0.1006    3.0269    3.3811 Q=   -0.0198 A=    0.0000 R=    0.0000 C=    0.0000
 XYZ=    0.7531    2.9825    2.9505 Q=    0.0099 A=    0.0000 R=    0.0000 C=    0.0000
 XYZ=   -0.1142    2.2686    3.9650 Q=    0.0099 A=    0.0000 R=    0.0000 C=    0.0000
 XYZ=    4.8106   -3.9096    1.0208 Q=   -0.0198 A=    0.0000 R=    0.0000 C=    0.0000
 XYZ=    4.2757   -4.3124    0.3368 Q=    0.0099 A=    0.0000 R=    0.0000 C=    0.0000
 XYZ=    1.0560   -1.6274    3.9014 Q=   -0.0198 A=    0.0000 R=    0.0000 C=    0.0000
 XYZ=    1.2430   -1.3027    3.0206 Q=    0.0099 A=    0.0000 R=    0.0000 C=    0.0000
 XYZ=    5.1516    2.0735    0.7694 Q=    0.0099 A=    0.0000 R=    0.0000 C=    0.0000
 XYZ=    5.3596    1.7209   -1.6841 Q=   -0.0198 A=    0.0000 R=    0.0000 C=    0.0000
 XYZ=    5.4838    1.1368   -2.4322 Q=    0.0099 A=    0.0000 R=    0.0000 C=    0.0000
 XYZ=    4.3999    2.4251    1.2465 Q=   -0.0198 A=    0.0000 R=    0.0000 C=    0.0000
 XYZ=    5.0006   -1.7376    2.5288 Q=    0.0099 A=    0.0000 R=    0.0000 C=    0.0000
 XYZ=    2.9010    2.6336   -1.5727 Q=   -0.0198 A=    0.0000 R=    0.0000 C=    0.0000
 XYZ=    3.0099    3.2553   -0.8531 Q=    0.0099 A=    0.0000 R=    0.0000 C=    0.0000
 XYZ=    3.7474    2.1913   -1.6374 Q=    0.0099 A=    0.0000 R=    0.0000 C=    0.0000
 XYZ=    0.2200    2.9995    3.6545 Q=   -0.0198 A=    0.0000 R=    0.0000 C=    0.0000
 XYZ=    1.0800    2.8357    3.2675 Q=    0.0099 A=    0.0000 R=    0.0000 C=    0.0000
 XYZ=   -0.0452    2.1537    4.0158 Q=    0.0099 A=    0.0000 R=    0.0000 C=    0.0000
 XYZ=    4.8461   -4.0507    0.5950 Q=   -0.0198 A=    0.0000 R=    0.0000 C=    0.0000
 XYZ=    4.1041   -4.3728    0.0832 Q=    0.0099 A=    0.0000 R=    0.0000 C=    0.0000
 XYZ=    0.8276   -2.0032    3.7608 Q=   -0.0198 A=    0.0000 R=    0.0000 C=    0.0000
 XYZ=    0.9710   -1.5729    2.9179 Q=    0.0099 A=    0.0000 R=    0.0000 C=    0.0000
 XYZ=    4.9402    2.0141    1.3337 Q=   -0.0198 A=    0.0000 R=    0.0000 C=    0.0000
 XYZ=    5.2494    1.7048    0.4822 Q=    0.0099 A=    0.0000 R=    0.0000 C=    0.0000
 XYZ=    4.0687    2.3133   -1.3815 Q=    0.0099 A=    0.0000 R=    0.0000 C=    0.0000
 XYZ=    5.8352    1.8408   -1.4476 Q=   -0.0198 A=    0.0000 R=    0.0000 C=    0.0000
 XYZ=    5.9416    1.1188   -2.0669 Q=    0.0099 A=    0.0000 R=    0.0000 C=    0.0000
 XYZ=    3.2163    2.7487   -1.3756 Q=   -0.0198 A=    0.0000 R=    0.0000 C=    0.0000
 XYZ=    3.2905    3.4112   -0.6886 Q=    0.0099 A=    0.0000 R=    0.0000 C=    0.0000
 XYZ=    0.6142   -1.8727    3.6717 Q=   -0.0198 A=    0.0000 R=    0.0000 C=    0.0000
 XYZ=    0.7117   -1.4947    2.7977 Q=    0.0099 A=    0.0000 R=    0.0000 C=    0.0000
 XYZ=    5.3316    1.9430    1.1998 Q=    0.0099 A=    0.0000 R=    0.0000 C=    0.0000
 XYZ=    4.2250    2.3311   -1.5471 Q=    0.0099 A=    0.0000 R=    0.0000 C=    0.0000
 XYZ=    5.8923    2.0582   -0.8982 Q=   -0.0198 A=    0.0000 R=    0.0000 C=    0.0000
 XYZ=    6.0206    1.1593   -1.2010 Q=    0.0099 A=    0.0000 R=    0.0000 C=    0.0000
 XYZ=    3.3924    2.8030   -1.5663 Q=   -0.0198 A=    0.0000 R=    0.0000 C=    0.0000
 XYZ=    3.4609    3.4385   -0.8538 Q=    0.0099 A=    0.0000 R=    0.0000 C=    0.0000
 XYZ=    0.5112   -1.4893    3.6914 Q=   -0.0198 A=    0.0000 R=    0.0000 C=    0.0000
 XYZ=    0.4883   -2.3992    3.3952 Q=    0.0099 A=    0.0000 R=    0.0000 C=    0.0000
 XYZ=    0.8245   -0.9980    2.9320 Q=    0.0099 A=    0.0000 R=    0.0000 C=    0.0000
 XYZ=    5.5674   -1.0976   -2.3715 Q=    0.0099 A=    0.0000 R=    0.0000 C=    0.0000
 XYZ=    5.7393   -1.1063   -2.8279 Q=    0.0099 A=    0.0000 R=    0.0000 C=    0.0000
 XYZ=    5.8974    1.7270   -0.5581 Q=   -0.0198 A=    0.0000 R=    0.0000 C=    0.0000
 XYZ=    5.9852    0.9586   -1.1221 Q=    0.0099 A=    0.0000 R=    0.0000 C=    0.0000
 XYZ=    5.3326   -1.1068    2.2303 Q=   -0.0198 A=    0.0000 R=    0.0000 C=    0.0000
 XYZ=    4.5377   -0.7088    2.5853 Q=    0.0099 A=    0.0000 R=    0.0000 C=    0.0000
 XYZ=    5.1142   -2.0338    2.1348 Q=    0.0099 A=    0.0000 R=    0.0000 C=    0.0000
 XYZ=    4.2704   -3.4925    2.1653 Q=   -0.0198 A=    0.0000 R=    0.0000 C=    0.0000
[...]
 Alpha virt. eigenvalues --    0.70046   0.71800   0.74245   0.74563   0.77026
 Alpha virt. eigenvalues --    0.77554   0.79041   0.80453   0.81943   0.82750
 Alpha virt. eigenvalues --    0.84285   0.85674   0.87318   0.88508   0.89848
 Alpha virt. eigenvalues --    0.90985   0.95033   0.96082   0.96590   0.97728
 Alpha virt. eigenvalues --    1.01137   1.01948   1.03087   1.03466   1.04483
 Alpha virt. eigenvalues --    1.05261   1.05524   1.08215   1.09117   1.11786
 Alpha virt. eigenvalues --    1.12005   1.13772   1.14457   1.15599   1.16654
 Alpha virt. eigenvalues --    1.17783   1.19192   1.20520   1.21353   1.21534
 Alpha virt. eigenvalues --    1.23154   1.24333   1.25144   1.27371   1.28352
 Alpha virt. eigenvalues --    1.28659   1.31241   1.31414   1.34011   1.35188
 Alpha virt. eigenvalues --    1.36677   1.38045   1.38239   1.39495   1.40685
 Alpha virt. eigenvalues --    1.42144   1.42571   1.46090   1.46593   1.47817
 Alpha virt. eigenvalues --    1.48858   1.49863   1.51146   1.51600   1.52799
 Alpha virt. eigenvalues --    1.54247   1.55120   1.55382   1.56637   1.58008
 Alpha virt. eigenvalues --    1.60970   1.63354   1.63789   1.65863   1.66300
 Alpha virt. eigenvalues --    1.67610   1.68831   1.71327   1.72612   1.74192
 Alpha virt. eigenvalues --    1.75727   1.77390   1.78850   1.79679   1.83281
 Alpha virt. eigenvalues --    1.85354   1.86130   1.88675   1.90015   1.98797
 Alpha virt. eigenvalues --    2.00072   2.01786   2.04615   2.07397   2.07787
 Alpha virt. eigenvalues --    2.12135   2.14062   2.18723   2.21799   2.28326
 Alpha virt. eigenvalues --    2.32635   2.38607   2.40451   2.44657   2.47504
 Alpha virt. eigenvalues --    2.49676   2.49929   2.53483   2.54335   2.56856
 Alpha virt. eigenvalues --    2.59236   2.59355   2.60674   2.63334   2.67535
 Alpha virt. eigenvalues --    2.70211   2.72241   2.74216   2.74765   2.77931
 Alpha virt. eigenvalues --    2.79347   2.80763   2.82830   2.84390   2.84659
 Alpha virt. eigenvalues --    2.87091   2.90996   2.91726   2.94828   2.96235
 Alpha virt. eigenvalues --    2.98053   3.01141   3.01925   3.03526   3.04353
 Alpha virt. eigenvalues --    3.04670   3.06456   3.06987   3.07339   3.08042
 Alpha virt. eigenvalues --    3.09673   3.09865   3.10967   3.13010   3.14357
 Alpha virt. eigenvalues --    3.17062   3.18643   3.19613   3.19816   3.20721
 Alpha virt. eigenvalues --    3.23228   3.24263   3.25380   3.26845   3.27459
 Alpha virt. eigenvalues --    3.28413   3.29257   3.30260   3.31239   3.32661
 Alpha virt. eigenvalues --    3.33810   3.34956   3.35631   3.37018   3.38407
 Alpha virt. eigenvalues --    3.39325   3.41192   3.43345   3.44255   3.45849
 Alpha virt. eigenvalues --    3.47448   3.49265   3.49600   3.52020   3.52936
 Alpha virt. eigenvalues --    3.54876   3.56118   3.57596   3.58267   3.59071
 Alpha virt. eigenvalues --    3.59886   3.60839   3.61956   3.63380   3.64312
 Alpha virt. eigenvalues --    3.65045   3.66850   3.67350   3.68500   3.69197
 Alpha virt. eigenvalues --    3.70463   3.70818   3.73350   3.73523   3.74970
 Alpha virt. eigenvalues --    3.76542   3.77388   3.78083   3.79945   3.81855
 Alpha virt. eigenvalues --    3.83327   3.85056   3.85426   3.87773   3.88353
 Alpha virt. eigenvalues --    3.89881   3.90735   3.92070   3.93866   3.95621
 Alpha virt. eigenvalues --    3.96810   3.99310   4.00326   4.01220   4.02563
 Alpha virt. eigenvalues --    4.03948   4.04496   4.06227   4.07722   4.08239
 Alpha virt. eigenvalues --    4.10627   4.11396   4.13389   4.16130   4.17763
 Alpha virt. eigenvalues --    4.18154   4.19036   4.21415   4.22387   4.23105
 Alpha virt. eigenvalues --    4.23717   4.26028   4.29132   4.29521   4.31028
 Alpha virt. eigenvalues --    4.31379   4.32976   4.34022   4.35255   4.36264
 Alpha virt. eigenvalues --    4.37257   4.39721   4.41027   4.42505   4.42561
 Alpha virt. eigenvalues --    4.44619   4.45601   4.48173   4.48794   4.51159
 Alpha virt. eigenvalues --    4.52803   4.54011   4.55492   4.55987   4.57076
 Alpha virt. eigenvalues --    4.59267   4.60758   4.61337   4.62948   4.64277
 Alpha virt. eigenvalues --    4.65917   4.66674   4.69662   4.70259   4.73359
 Alpha virt. eigenvalues --    4.75965   4.77319   4.84846   4.86096   4.87355
 Alpha virt. eigenvalues --    4.90760   4.91680   4.94398   4.97762   5.02400
 Alpha virt. eigenvalues --    5.03598   5.07258   5.08717   5.10313   5.11892
 Alpha virt. eigenvalues --    5.12151   5.14007   5.14874   5.18267   5.19018
 Alpha virt. eigenvalues --    5.21312   5.22352   5.24763   5.25491   5.28909
 Alpha virt. eigenvalues --    5.31537   5.34317   5.35758   5.38531   5.39512
 Alpha virt. eigenvalues --    5.41636   5.43132   5.45523   5.46670   5.47355
 Alpha virt. eigenvalues --    5.48642   5.51936   5.53381   5.55788   5.56131
 Alpha virt. eigenvalues --    5.57237   5.58504   5.59265   5.62072   5.62733
 Alpha virt. eigenvalues --    5.63441   5.65411   5.66377   5.67276   5.69317
 Alpha virt. eigenvalues --    5.71131   5.72381   5.74911   5.77308   5.77516
 Alpha virt. eigenvalues --    5.80156   5.81054   5.85349   5.86773   5.91932
 Alpha virt. eigenvalues --    5.93678   5.95044   5.98606   6.03427   6.04076
 Alpha virt. eigenvalues --    6.09832   6.11678   6.13319   6.15755   6.17873
 Alpha virt. eigenvalues --    6.19486   6.20813   6.27345   6.30972   6.32032
 Alpha virt. eigenvalues --    6.37995   6.39396   6.41347   6.47538   6.49618
 Alpha virt. eigenvalues --    6.52701   6.58877   6.60863   6.75327   6.81421
 Alpha virt. eigenvalues --    6.89358   6.90259   6.93118   6.94867   7.03962
 Alpha virt. eigenvalues --    7.06882   7.19025   7.26761   7.32195   7.32923
 Alpha virt. eigenvalues --    7.52307   7.53369   7.54738   7.56993   9.83279
 Alpha virt. eigenvalues --   10.26050  12.26619  12.81330  13.16270  13.69854
 Alpha virt. eigenvalues --   13.96924  14.00159  14.23271  14.58937
          Condensed to atoms (all electrons):
              1          2          3          4          5          6
     1  H    0.563540   0.367022  -0.021547  -0.016689  -0.043893   0.008342
     2  C    0.367022   5.122391   0.370831   0.369029   0.314544  -0.066930
     3  H   -0.021547   0.370831   0.553069  -0.030173  -0.029149   0.002004
     4  H   -0.016689   0.369029  -0.030173   0.535186  -0.021581   0.000187
     5  C   -0.043893   0.314544  -0.029149  -0.021581   4.640783   0.685575
     6  O    0.008342  -0.066930   0.002004   0.000187   0.685575   7.988001
     7  N    0.008771  -0.089417   0.003456   0.003146   0.332959  -0.165056
     8  H    0.000086  -0.003843  -0.000484  -0.000432  -0.018052   0.004124
     9  C   -0.000373   0.003588  -0.000286  -0.000062  -0.078101   0.007938
    10  H   -0.000066   0.000954   0.000001  -0.000125  -0.000417   0.009937
    11  C   -0.000007   0.000046  -0.000029  -0.000025   0.006825   0.001819
    12  H    0.000000  -0.000033   0.000006   0.000001  -0.000429  -0.000019
    13  H   -0.000001   0.000022   0.000000   0.000000   0.000015   0.000028
    14  H    0.000003  -0.000032  -0.000013   0.000007  -0.000343  -0.000037
    15  C    0.000039  -0.000272  -0.000040  -0.000013  -0.004669   0.006585
    16  O    0.000000  -0.000005   0.000000   0.000000  -0.000443  -0.000617
    17  N    0.000038  -0.000039   0.000107   0.000008   0.015189  -0.007012
    18  H   -0.000014  -0.000667   0.000191   0.000018  -0.000031  -0.003177
    19  C    0.000006  -0.000025   0.000004   0.000001  -0.001275   0.000507
    20  H    0.000000   0.000003   0.000001   0.000000   0.000157   0.000007
    21  H    0.000000  -0.000005  -0.000034   0.000002  -0.000172   0.001054
    22  H    0.000000  -0.000001   0.000000   0.000000  -0.000056   0.000020
              7          8          9         10         11         12
     1  H    0.008771   0.000086  -0.000373  -0.000066  -0.000007   0.000000
     2  C   -0.089417  -0.003843   0.003588   0.000954   0.000046  -0.000033
     3  H    0.003456  -0.000484  -0.000286   0.000001  -0.000029   0.000006
     4  H    0.003146  -0.000432  -0.000062  -0.000125  -0.000025   0.000001
     5  C    0.332959  -0.018052  -0.078101  -0.000417   0.006825  -0.000429
     6  O   -0.165056   0.004124   0.007938   0.009937   0.001819  -0.000019
     7  N    6.635583   0.327190   0.196297  -0.036215  -0.028486  -0.000002
     8  H    0.327190   0.455550  -0.016680   0.001233  -0.004265   0.001321
     9  C    0.196297  -0.016680   5.334843   0.356337   0.254071  -0.026072
    10  H   -0.036215   0.001233   0.356337   0.573921  -0.024153   0.006532
    11  C   -0.028486  -0.004265   0.254071  -0.024153   5.132757   0.375290
    12  H   -0.000002   0.001321  -0.026072   0.006532   0.375290   0.548618
    13  H    0.004851  -0.000026  -0.032683  -0.001324   0.370619  -0.027688
    14  H   -0.001736   0.001077  -0.031661  -0.009493   0.377737  -0.024854
    15  C   -0.042373   0.002038   0.220510  -0.054759  -0.047251  -0.005343
    16  O    0.004961  -0.000152  -0.080485   0.009473   0.000958  -0.000476
    17  N   -0.001501  -0.000524  -0.080919   0.006271   0.002912   0.002509
    18  H    0.018353  -0.000048  -0.005193   0.000978  -0.000237   0.001069
    19  C   -0.001693   0.000089   0.008133  -0.000566  -0.000615  -0.000203
    20  H   -0.000073   0.000003  -0.000335  -0.000017   0.000079  -0.000059
    21  H   -0.000142  -0.000010  -0.000028   0.000054   0.000019   0.000021
    22  H   -0.000247   0.000010   0.001724  -0.000179  -0.000210  -0.000023
             13         14         15         16         17         18
     1  H   -0.000001   0.000003   0.000039   0.000000   0.000038  -0.000014
     2  C    0.000022  -0.000032  -0.000272  -0.000005  -0.000039  -0.000667
     3  H    0.000000  -0.000013  -0.000040   0.000000   0.000107   0.000191
     4  H    0.000000   0.000007  -0.000013   0.000000   0.000008   0.000018
     5  C    0.000015  -0.000343  -0.004669  -0.000443   0.015189  -0.000031
     6  O    0.000028  -0.000037   0.006585  -0.000617  -0.007012  -0.003177
     7  N    0.004851  -0.001736  -0.042373   0.004961  -0.001501   0.018353
     8  H   -0.000026   0.001077   0.002038  -0.000152  -0.000524  -0.000048
     9  C   -0.032683  -0.031661   0.220510  -0.080485  -0.080919  -0.005193
    10  H   -0.001324  -0.009493  -0.054759   0.009473   0.006271   0.000978
    11  C    0.370619   0.377737  -0.047251   0.000958   0.002912  -0.000237
    12  H   -0.027688  -0.024854  -0.005343  -0.000476   0.002509   0.001069
    13  H    0.575504  -0.038089  -0.000829   0.006971   0.000785  -0.000048
    14  H   -0.038089   0.571455   0.007615  -0.000215  -0.000305  -0.000164
    15  C   -0.000829   0.007615   4.816154   0.701208   0.292881  -0.027603
    16  O    0.006971  -0.000215   0.701208   8.001346  -0.163347   0.004308
    17  N    0.000785  -0.000305   0.292881  -0.163347   6.593642   0.336093
    18  H   -0.000048  -0.000164  -0.027603   0.004308   0.336093   0.467796
    19  C   -0.000027   0.000035  -0.055262  -0.007103   0.241474  -0.031160
    20  H    0.000005  -0.000004   0.003550   0.000530  -0.039890  -0.007704
    21  H   -0.000001   0.000001   0.002875  -0.000566  -0.054126  -0.001044
    22  H   -0.000047   0.000007  -0.007809   0.022520  -0.035195   0.003759
             19         20         21         22
     1  H    0.000006   0.000000   0.000000   0.000000
     2  C   -0.000025   0.000003  -0.000005  -0.000001
     3  H    0.000004   0.000001  -0.000034   0.000000
     4  H    0.000001   0.000000   0.000002   0.000000
     5  C   -0.001275   0.000157  -0.000172  -0.000056
     6  O    0.000507   0.000007   0.001054   0.000020
     7  N   -0.001693  -0.000073  -0.000142  -0.000247
     8  H    0.000089   0.000003  -0.000010   0.000010
     9  C    0.008133  -0.000335  -0.000028   0.001724
    10  H   -0.000566  -0.000017   0.000054  -0.000179
    11  C   -0.000615   0.000079   0.000019  -0.000210
    12  H   -0.000203  -0.000059   0.000021  -0.000023
    13  H   -0.000027   0.000005  -0.000001  -0.000047
    14  H    0.000035  -0.000004   0.000001   0.000007
    15  C   -0.055262   0.003550   0.002875  -0.007809
    16  O   -0.007103   0.000530  -0.000566   0.022520
    17  N    0.241474  -0.039890  -0.054126  -0.035195
    18  H   -0.031160  -0.007704  -0.001044   0.003759
    19  C    4.964816   0.383226   0.399790   0.379612
    20  H    0.383226   0.590767  -0.025656  -0.038965
    21  H    0.399790  -0.025656   0.555240  -0.020855
    22  H    0.379612  -0.038965  -0.020855   0.551161
 Mulliken atomic charges:
              1
     1  H    0.134745
     2  C   -0.387161
     3  H    0.152084
     4  H    0.161515
     5  C    0.202564
     6  O   -0.473278
     7  N   -0.168627
     8  H    0.251793
     9  C   -0.030561
    10  H    0.161625
    11  C   -0.417854
    12  H    0.149833
    13  H    0.141963
    14  H    0.149011
    15  C    0.192770
    16  O   -0.498865
    17  N   -0.109052
    18  H    0.244526
    19  C   -0.279764
    20  H    0.134374
    21  H    0.143585
    22  H    0.144774
 Sum of Mulliken atomic charges =   0.00000
 Mulliken charges with hydrogens summed into heavy atoms:
              1
     2  C    0.061183
     5  C    0.202564
     6  O   -0.473278
     7  N    0.083167
     9  C    0.131064
    11  C    0.022953
    15  C    0.192770
    16  O   -0.498865
    17  N    0.135475
    19  C    0.142969
 Sum of Mulliken charges with hydrogens summed into heavy atoms =   0.00000
 Electronic spatial extent (au):  <R**2>=           1673.4302
 Charge=              0.0000 electrons
 Dipole moment (field-independent basis, Debye):
    X=              4.2346    Y=              1.6859    Z=             -8.8722  Tot=              9.9744
 Quadrupole moment (field-independent basis, Debye-Ang):
   XX=            -61.3926   YY=            -53.6269   ZZ=            -65.3433
   XY=              7.3230   XZ=              0.8742   YZ=              3.6495
 Traceless Quadrupole moment (field-independent basis, Debye-Ang):
   XX=             -1.2717   YY=              6.4941   ZZ=             -5.2224
   XY=              7.3230   XZ=              0.8742   YZ=              3.6495
 Octapole moment (field-independent basis, Debye-Ang**2):
  XXX=             43.1139  YYY=              6.6470  ZZZ=            -18.0686  XYY=             -6.7407
  XXY=             -8.9307  XXZ=            -32.4842  XZZ=              3.4314  YZZ=              3.5476
  YYZ=             -7.5996  XYZ=              2.2162
 Hexadecapole moment (field-independent basis, Debye-Ang**3):
 XXXX=          -1191.1432 YYYY=           -648.0141 ZZZZ=           -260.1010 XXXY=             42.1697
 XXXZ=             18.3922 YYYX=              8.7695 YYYZ=              4.6972 ZZZX=             -2.6210
 ZZZY=              7.9167 XXYY=           -304.3256 XXZZ=           -270.3219 YYZZ=           -158.5932
 XXYZ=              4.6975 YYXZ=             -2.9225 ZZXY=             13.4144
 N-N= 5.664298004445D+02 E-N=-2.285132309898D+03  KE= 4.944269419880D+02
 Merz-Kollman atomic radii used.

 **********************************************************************

          Electrostatic Properties Using The MP2 Density

 **********************************************************************

       Atomic Center    1 is at   3.468358 -1.580304  0.097881
       Atomic Center    2 is at   3.157287 -0.675438 -0.424185
       Atomic Center    3 is at   3.107587 -0.907883 -1.487951
       Atomic Center    4 is at   3.912260  0.103540 -0.317839
       Atomic Center    5 is at   1.798499 -0.337179  0.212737
       Atomic Center    6 is at   1.391104 -0.845996  1.284021
       Atomic Center    7 is at   1.152120  0.704711 -0.317533
       Atomic Center    8 is at   1.585660  1.193608 -1.087677
       Atomic Center    9 is at  -0.130575  1.194261  0.227004
       Atomic Center   10 is at  -0.046319  1.609312  1.231361
       Atomic Center   11 is at  -0.643719  2.430483 -0.549355
       Atomic Center   12 is at  -0.908343  2.308359 -1.599670
       Atomic Center   13 is at  -1.467240  2.969696 -0.081207
       Atomic Center   14 is at   0.092519  3.229779 -0.464619
       Atomic Center   15 is at  -1.256962  0.116331  0.266464
       Atomic Center   16 is at  -2.196819  0.248925  1.071628
       Atomic Center   17 is at  -1.200411 -0.892503 -0.590249
       Atomic Center   18 is at  -0.491811 -0.855969 -1.309033
       Atomic Center   19 is at  -2.140736 -1.962069 -0.620774
       Atomic Center   20 is at  -2.555587 -1.935874 -1.628401
       Atomic Center   21 is at  -1.527765 -2.838128 -0.408907
       Atomic Center   22 is at  -3.088326 -1.803352 -0.106009
     999 points will be used for fitting atomic charges
 Fitting point charges to electrostatic potential
 Charges from ESP fit, RMS=   0.00157 RRMS=   0.04085:
 Charge=   0.00000 Dipole=     4.2312     1.6746    -8.8356 Tot=     9.9385
              1
     1  H    0.130700
     2  C   -0.489099
     3  H    0.150331
     4  H    0.168980
     5  C    0.665630
     6  O   -0.688536
     7  N   -0.460590
     8  H    0.352464
     9  C    0.037649
    10  H    0.140604
    11  C   -0.402896
    12  H    0.111843
    13  H    0.134453
    14  H    0.143513
    15  C    0.427968
    16  O   -0.690658
    17  N   -0.037611
    18  H    0.226745
    19  C   -0.346157
    20  H    0.116843
    21  H    0.133909
    22  H    0.173914
 -----------------------------------------------------------------

              Electrostatic Properties (Atomic Units)

 -----------------------------------------------------------------
    Center     Electric         -------- Electric Field --------
               Potential          X             Y             Z
 -----------------------------------------------------------------
    1 Atom     -1.095267
    2 Atom    -14.733602
    3 Atom     -1.054247
    4 Atom     -1.057423
    5 Atom    -14.641431
    6 Atom    -22.423083
    7 Atom    -18.308358
    8 Atom     -0.938951
    9 Atom    -14.690436
   10 Atom     -1.107611
   11 Atom    -14.742774
   12 Atom     -1.079033
   13 Atom     -1.100195
   14 Atom     -1.079343
   15 Atom    -14.679832
   16 Atom    -22.450671
   17 Atom    -18.338365
   18 Atom     -0.965999
   19 Atom    -14.728401
   20 Atom     -1.088088
   21 Atom     -1.091424
   22 Atom     -1.103382
 -----------------------------------------------------------------

 Test job not archived.
 1\1\GINC-NODE006\SP\RMP2-FC\CC-pVTZ\C6H12N2O2\STEBOSS\16-Mar-2017\0\\#
 MP2/cc-pvTZ density=MP2, charge, maxdisk=16GB, pop=(minimal, MK), 5d, 
 punch=mo\\Generated by mdgx\\0,1\H,0,3.4683575,-1.5803042,0.0978813\C,
 0,3.1572867,-0.6754385,-0.4241847\H,0,3.1075868,-0.9078827,-1.4879515\
 H,0,3.9122595,0.1035395,-0.3178392\C,0,1.7984987,-0.3371794,0.2127367\
 O,0,1.3911044,-0.8459957,1.2840204\N,0,1.1521195,0.7047109,-0.3175328\
 H,0,1.58566,1.1936078,-1.0876774\C,0,-0.1305746,1.1942607,0.2270042\H,
 0,-0.0463188,1.6093122,1.2313613\C,0,-0.643719,2.4304828,-0.5493556\H,
 0,-0.9083427,2.3083588,-1.5996697\H,0,-1.4672396,2.969696,-0.0812073\H
 ,0,0.0925187,3.2297786,-0.4646194\C,0,-1.256962,0.1163306,0.2664643\O,
 0,-2.1968189,0.2489255,1.0716281\N,0,-1.2004115,-0.8925031,-0.5902489\
 H,0,-0.4918106,-0.855969,-1.3090327\C,0,-2.140736,-1.9620687,-0.620773
 7\H,0,-2.5555871,-1.9358742,-1.6284011\H,0,-1.5277652,-2.8381276,-0.40
 89073\H,0,-3.0883258,-1.8033519,-0.1060089\\Version=EM64L-G09RevA.02\S
 tate=1-A\HF=-492.1613728\MP2=-494.0420477\RMSD=3.942e-09\Dipole=1.6660
 181,0.6632769,-3.4905854\Quadrupole=-0.9454534,4.8281883,-3.8827349,5.
 4445047,0.649971,2.713325\PG=C01 [X(C6H12N2O2)]\\@


 ERROR IS THE FORCE THAT WELDS MEN TOGETHER....
 TRUTH IS COMMUNICATED TO MEN ONLY BY DEEDS OF TRUTH.
           TOLSTOI,MY RELIGION
 Job cpu time:  0 days  7 hours 56 minutes 57.6 seconds.
 File lengths (MBytes):  RWF=  13397 Int=      0 D2E=      0 Chk=     15 Scr=      1
 Normal termination of Gaussian 09 at Thu Mar 16 17:03:03 2017.
