 Entering Gaussian System, Link 0=g09
 Initial command:
 /home/steboss/Software/g09/l1.exe /tmp/Gau-10473.inp -scrdir=/tmp/
 Entering Link 1 = /home/steboss/Software/g09/l1.exe PID=     10475.
  
 Copyright (c) 1988,1990,1992,1993,1995,1998,2003,2009, Gaussian, Inc.
                  All Rights Reserved.
  
 This is part of the Gaussian(R) 09 program.  It is based on
 the Gaussian(R) 03 system (copyright 2003, Gaussian, Inc.),
 the Gaussian(R) 98 system (copyright 1998, Gaussian, Inc.),
 the Gaussian(R) 94 system (copyright 1995, Gaussian, Inc.),
 the Gaussian 92(TM) system (copyright 1992, Gaussian, Inc.),
 the Gaussian 90(TM) system (copyright 1990, Gaussian, Inc.),
 the Gaussian 88(TM) system (copyright 1988, Gaussian, Inc.),
 the Gaussian 86(TM) system (copyright 1986, Carnegie Mellon
 University), and the Gaussian 82(TM) system (copyright 1983,
 Carnegie Mellon University). Gaussian is a federally registered
 trademark of Gaussian, Inc.
  
 This software contains proprietary and confidential information,
 including trade secrets, belonging to Gaussian, Inc.
  
 This software is provided under written license and may be
 used, copied, transmitted, or stored only in accord with that
 written license.
  
 The following legend is applicable only to US Government
 contracts under FAR:
  
                    RESTRICTED RIGHTS LEGEND
  
 Use, reproduction and disclosure by the US Government is
 subject to restrictions as set forth in subparagraphs (a)
 and (c) of the Commercial Computer Software - Restricted
 Rights clause in FAR 52.227-19.
  
 Gaussian, Inc.
 340 Quinnipiac St., Bldg. 40, Wallingford CT 06492
  
  
 ---------------------------------------------------------------
 Warning -- This program may not be used in any manner that
 competes with the business of Gaussian, Inc. or will provide
 assistance to any competitor of Gaussian, Inc.  The licensee
 of this program is prohibited from giving any competitor of
 Gaussian, Inc. access to this program.  By using this program,
 the user acknowledges that Gaussian, Inc. is engaged in the
 business of creating and licensing software in the field of
 computational chemistry and represents and warrants to the
 licensee that it is not a competitor of Gaussian, Inc. and that
 it will not use this program in any manner prohibited above.
 ---------------------------------------------------------------
  

 Cite this work as:
 Gaussian 09, Revision A.02,
 M. J. Frisch, G. W. Trucks, H. B. Schlegel, G. E. Scuseria, 
 M. A. Robb, J. R. Cheeseman, G. Scalmani, V. Barone, B. Mennucci, 
 G. A. Petersson, H. Nakatsuji, M. Caricato, X. Li, H. P. Hratchian, 
 A. F. Izmaylov, J. Bloino, G. Zheng, J. L. Sonnenberg, M. Hada, 
 M. Ehara, K. Toyota, R. Fukuda, J. Hasegawa, M. Ishida, T. Nakajima, 
 Y. Honda, O. Kitao, H. Nakai, T. Vreven, J. A. Montgomery, Jr., 
 J. E. Peralta, F. Ogliaro, M. Bearpark, J. J. Heyd, E. Brothers, 
 K. N. Kudin, V. N. Staroverov, R. Kobayashi, J. Normand, 
 K. Raghavachari, A. Rendell, J. C. Burant, S. S. Iyengar, J. Tomasi, 
 M. Cossi, N. Rega, J. M. Millam, M. Klene, J. E. Knox, J. B. Cross, 
 V. Bakken, C. Adamo, J. Jaramillo, R. Gomperts, R. E. Stratmann, 
 O. Yazyev, A. J. Austin, R. Cammi, C. Pomelli, J. W. Ochterski, 
 R. L. Martin, K. Morokuma, V. G. Zakrzewski, G. A. Voth, 
 P. Salvador, J. J. Dannenberg, S. Dapprich, A. D. Daniels, 
 O. Farkas, J. B. Foresman, J. V. Ortiz, J. Cioslowski, 
 and D. J. Fox, Gaussian, Inc., Wallingford CT, 2009.
 
 ******************************************
 Gaussian 09:  EM64L-G09RevA.02 11-Jun-2009
                29-Dec-2016 
 ******************************************
 %chk=structure_300.chk
 ----------------------------------------------------------------------
 # b3lyp/6-31G* Opt=(ModRedundant, maxcycles=1000, calcfc) geom=nocrowd
 ----------------------------------------------------------------------
 1/6=1000,10=4,14=-1,18=120,19=15,26=3,38=1/1,3;
 2/9=110,12=1,17=6,18=5,40=1/2;
 3/5=1,6=6,7=1,11=2,16=1,25=1,30=1,71=2,74=-5/1,2,3;
 4//1;
 5/5=2,38=5/2;
 8/6=4,10=90,11=11/1;
 11/6=1,8=1,9=11,15=111,16=1/1,2,10;
 10/6=1,7=6,13=1/2;
 6/7=2,8=2,9=2,10=2,28=1/1;
 7/10=1,18=20,25=1/1,2,3,16;
 1/6=1000,10=4,14=-1,18=20,19=15/3(2);
 2/9=110,12=1/2;
 99//99;
 2/9=110,12=1/2;
 3/5=1,6=6,7=1,11=2,16=1,25=1,30=1,71=1,74=-5/1,2,3;
 4/5=5,16=3/1;
 5/5=2,38=5/2;
 7//1,2,3,16;
 1/6=1000,14=-1,18=20,19=15/3(-5);
 2/9=110,12=1/2;
 6/7=2,8=2,9=2,10=2,19=2,28=1/1;
 99/9=1/99;
 ------------------
 Phi Psi fixed scan
 ------------------
 Symbolic Z-matrix:
 Charge =  0 Multiplicity = 1
 H                     7.7691    1.       -3.3308 
 C                     7.7691    2.09     -3.3308 
 H                     7.2553    2.4539   -4.2206 
 H                     8.7965    2.4539   -3.3308 
 C                     7.0554    2.6408   -2.0946 
 O                     6.5738    1.8774   -1.2605 
 N                     6.9914    3.9697   -1.9838 
 H                     7.4025    4.5562   -2.6959 
 C                     6.3425    4.6139   -0.8598 
 H                     5.2947    4.3155   -0.8246 
 C                     7.0055    4.2208    0.4561 
 H                     8.0531    4.5213    0.4396 
 H                     6.4981    4.7189    1.2822 
 H                     6.9399    3.1409    0.5882 
 C                     6.4127    6.1294   -0.9815 
 O                     6.9688    6.6527   -1.9446 
 N                     5.846     6.8349    0. 
 H                     5.4006    6.3592    0.7716 
 C                     5.8461    8.2839    0. 
 H                     5.3323    8.6477   -0.8898 
 C                     5.1347    8.8329    1.2322 
 H                     5.6431    8.4846    2.1312 
 H                     5.1499    9.9224    1.2058 
 H                     4.1019    8.4846    1.2414 
 C                     7.266     8.8318    0. 
 O                     7.6573    9.5503   -0.9171 
 N                     8.0386    8.4902    1.0338 
 H                     7.6716    7.8967    1.764 
 C                     9.4087    8.9471    1.1497 
 H                     9.9824    8.5986    0.2909 
 C                     9.4775    10.4699   1.1962 
 H                     8.9152    10.8334   2.0563 
 H                     10.5174   10.7846   1.2833 
 H                     9.0492    10.8815   0.2824 
 C                     10.059    8.4131    2.418 
 O                     9.4267    7.693     3.1875 
 N                     11.3274   8.7685    2.6346 
 H                     11.8055   9.3628    1.9725 
 C                     12.0574   8.3257    3.8053 
 H                     11.413    7.6969    4.4196 
 H                     12.932    7.7544    3.4942 
 H                     12.3772   9.1923    4.3841 
 
 The following ModRedundant input section has been read:
 D   15   17   19   25 F                                                       
 D   17   19   25   27 F                                                       

 GradGradGradGradGradGradGradGradGradGradGradGradGradGradGradGradGradGrad
 Berny optimization.
 Initialization pass.
                           ----------------------------
                           !    Initial Parameters    !
                           ! (Angstroms and Degrees)  !
 --------------------------                            --------------------------
 ! Name  Definition              Value          Derivative Info.                !
 --------------------------------------------------------------------------------
 ! R1    R(1,2)                  1.09           calculate D2E/DX2 analytically  !
 ! R2    R(2,3)                  1.09           calculate D2E/DX2 analytically  !
 ! R3    R(2,4)                  1.0899         calculate D2E/DX2 analytically  !
 ! R4    R(2,5)                  1.53           calculate D2E/DX2 analytically  !
 ! R5    R(5,6)                  1.229          calculate D2E/DX2 analytically  !
 ! R6    R(5,7)                  1.335          calculate D2E/DX2 analytically  !
 ! R7    R(7,8)                  1.01           calculate D2E/DX2 analytically  !
 ! R8    R(7,9)                  1.4489         calculate D2E/DX2 analytically  !
 ! R9    R(9,10)                 1.09           calculate D2E/DX2 analytically  !
 ! R10   R(9,11)                 1.525          calculate D2E/DX2 analytically  !
 ! R11   R(9,15)                 1.522          calculate D2E/DX2 analytically  !
 ! R12   R(11,12)                1.09           calculate D2E/DX2 analytically  !
 ! R13   R(11,13)                1.09           calculate D2E/DX2 analytically  !
 ! R14   R(11,14)                1.0899         calculate D2E/DX2 analytically  !
 ! R15   R(15,16)                1.2291         calculate D2E/DX2 analytically  !
 ! R16   R(15,17)                1.335          calculate D2E/DX2 analytically  !
 ! R17   R(17,18)                1.01           calculate D2E/DX2 analytically  !
 ! R18   R(17,19)                1.449          calculate D2E/DX2 analytically  !
 ! R19   R(19,20)                1.09           calculate D2E/DX2 analytically  !
 ! R20   R(19,21)                1.5251         calculate D2E/DX2 analytically  !
 ! R21   R(19,25)                1.5219         calculate D2E/DX2 analytically  !
 ! R22   R(21,22)                1.0899         calculate D2E/DX2 analytically  !
 ! R23   R(21,23)                1.0899         calculate D2E/DX2 analytically  !
 ! R24   R(21,24)                1.09           calculate D2E/DX2 analytically  !
 ! R25   R(25,26)                1.229          calculate D2E/DX2 analytically  !
 ! R26   R(25,27)                1.335          calculate D2E/DX2 analytically  !
 ! R27   R(27,28)                1.01           calculate D2E/DX2 analytically  !
 ! R28   R(27,29)                1.4489         calculate D2E/DX2 analytically  !
 ! R29   R(29,30)                1.09           calculate D2E/DX2 analytically  !
 ! R30   R(29,31)                1.5251         calculate D2E/DX2 analytically  !
 ! R31   R(29,35)                1.522          calculate D2E/DX2 analytically  !
 ! R32   R(31,32)                1.09           calculate D2E/DX2 analytically  !
 ! R33   R(31,33)                1.09           calculate D2E/DX2 analytically  !
 ! R34   R(31,34)                1.0899         calculate D2E/DX2 analytically  !
 ! R35   R(35,36)                1.229          calculate D2E/DX2 analytically  !
 ! R36   R(35,37)                1.3349         calculate D2E/DX2 analytically  !
 ! R37   R(37,38)                1.01           calculate D2E/DX2 analytically  !
 ! R38   R(37,39)                1.449          calculate D2E/DX2 analytically  !
 ! R39   R(39,40)                1.09           calculate D2E/DX2 analytically  !
 ! R40   R(39,41)                1.09           calculate D2E/DX2 analytically  !
 ! R41   R(39,42)                1.0901         calculate D2E/DX2 analytically  !
 ! A1    A(1,2,3)              109.5023         calculate D2E/DX2 analytically  !
 ! A2    A(1,2,4)              109.5039         calculate D2E/DX2 analytically  !
 ! A3    A(1,2,5)              111.1            calculate D2E/DX2 analytically  !
 ! A4    A(3,2,4)              109.4422         calculate D2E/DX2 analytically  !
 ! A5    A(3,2,5)              108.6323         calculate D2E/DX2 analytically  !
 ! A6    A(4,2,5)              108.6332         calculate D2E/DX2 analytically  !
 ! A7    A(2,5,6)              120.4994         calculate D2E/DX2 analytically  !
 ! A8    A(2,5,7)              116.5999         calculate D2E/DX2 analytically  !
 ! A9    A(6,5,7)              122.9007         calculate D2E/DX2 analytically  !
 ! A10   A(5,7,8)              120.0            calculate D2E/DX2 analytically  !
 ! A11   A(5,7,9)              121.8976         calculate D2E/DX2 analytically  !
 ! A12   A(8,7,9)              118.1024         calculate D2E/DX2 analytically  !
 ! A13   A(7,9,10)             109.5016         calculate D2E/DX2 analytically  !
 ! A14   A(7,9,11)             111.1039         calculate D2E/DX2 analytically  !
 ! A15   A(7,9,15)             111.1012         calculate D2E/DX2 analytically  !
 ! A16   A(10,9,11)            108.6312         calculate D2E/DX2 analytically  !
 ! A17   A(10,9,15)            108.6329         calculate D2E/DX2 analytically  !
 ! A18   A(11,9,15)            107.7949         calculate D2E/DX2 analytically  !
 ! A19   A(9,11,12)            109.4947         calculate D2E/DX2 analytically  !
 ! A20   A(9,11,13)            109.5            calculate D2E/DX2 analytically  !
 ! A21   A(9,11,14)            109.5002         calculate D2E/DX2 analytically  !
 ! A22   A(12,11,13)           109.4455         calculate D2E/DX2 analytically  !
 ! A23   A(12,11,14)           109.4414         calculate D2E/DX2 analytically  !
 ! A24   A(13,11,14)           109.4454         calculate D2E/DX2 analytically  !
 ! A25   A(9,15,16)            120.4955         calculate D2E/DX2 analytically  !
 ! A26   A(9,15,17)            116.6053         calculate D2E/DX2 analytically  !
 ! A27   A(16,15,17)           122.8992         calculate D2E/DX2 analytically  !
 ! A28   A(15,17,18)           119.9987         calculate D2E/DX2 analytically  !
 ! A29   A(15,17,19)           121.8998         calculate D2E/DX2 analytically  !
 ! A30   A(18,17,19)           118.1015         calculate D2E/DX2 analytically  !
 ! A31   A(17,19,20)           109.4954         calculate D2E/DX2 analytically  !
 ! A32   A(17,19,21)           111.0974         calculate D2E/DX2 analytically  !
 ! A33   A(17,19,25)           111.1042         calculate D2E/DX2 analytically  !
 ! A34   A(20,19,21)           108.6349         calculate D2E/DX2 analytically  !
 ! A35   A(20,19,25)           108.6399         calculate D2E/DX2 analytically  !
 ! A36   A(21,19,25)           107.7944         calculate D2E/DX2 analytically  !
 ! A37   A(19,21,22)           109.4996         calculate D2E/DX2 analytically  !
 ! A38   A(19,21,23)           109.4977         calculate D2E/DX2 analytically  !
 ! A39   A(19,21,24)           109.4988         calculate D2E/DX2 analytically  !
 ! A40   A(22,21,23)           109.4452         calculate D2E/DX2 analytically  !
 ! A41   A(22,21,24)           109.4447         calculate D2E/DX2 analytically  !
 ! A42   A(23,21,24)           109.4412         calculate D2E/DX2 analytically  !
 ! A43   A(19,25,26)           120.4979         calculate D2E/DX2 analytically  !
 ! A44   A(19,25,27)           116.6021         calculate D2E/DX2 analytically  !
 ! A45   A(26,25,27)           122.8999         calculate D2E/DX2 analytically  !
 ! A46   A(25,27,28)           119.9937         calculate D2E/DX2 analytically  !
 ! A47   A(25,27,29)           121.9029         calculate D2E/DX2 analytically  !
 ! A48   A(28,27,29)           118.1034         calculate D2E/DX2 analytically  !
 ! A49   A(27,29,30)           109.5027         calculate D2E/DX2 analytically  !
 ! A50   A(27,29,31)           111.0983         calculate D2E/DX2 analytically  !
 ! A51   A(27,29,35)           111.1022         calculate D2E/DX2 analytically  !
 ! A52   A(30,29,31)           108.6343         calculate D2E/DX2 analytically  !
 ! A53   A(30,29,35)           108.6318         calculate D2E/DX2 analytically  !
 ! A54   A(31,29,35)           107.7967         calculate D2E/DX2 analytically  !
 ! A55   A(29,31,32)           109.4984         calculate D2E/DX2 analytically  !
 ! A56   A(29,31,33)           109.4981         calculate D2E/DX2 analytically  !
 ! A57   A(29,31,34)           109.4994         calculate D2E/DX2 analytically  !
 ! A58   A(32,31,33)           109.4411         calculate D2E/DX2 analytically  !
 ! A59   A(32,31,34)           109.4464         calculate D2E/DX2 analytically  !
 ! A60   A(33,31,34)           109.444          calculate D2E/DX2 analytically  !
 ! A61   A(29,35,36)           120.4962         calculate D2E/DX2 analytically  !
 ! A62   A(29,35,37)           116.5998         calculate D2E/DX2 analytically  !
 ! A63   A(36,35,37)           122.9039         calculate D2E/DX2 analytically  !
 ! A64   A(35,37,38)           120.0032         calculate D2E/DX2 analytically  !
 ! A65   A(35,37,39)           121.8994         calculate D2E/DX2 analytically  !
 ! A66   A(38,37,39)           118.0974         calculate D2E/DX2 analytically  !
 ! A67   A(37,39,40)           109.4999         calculate D2E/DX2 analytically  !
 ! A68   A(37,39,41)           109.5008         calculate D2E/DX2 analytically  !
 ! A69   A(37,39,42)           109.503          calculate D2E/DX2 analytically  !
 ! A70   A(40,39,41)           109.4432         calculate D2E/DX2 analytically  !
 ! A71   A(40,39,42)           109.4402         calculate D2E/DX2 analytically  !
 ! A72   A(41,39,42)           109.4403         calculate D2E/DX2 analytically  !
 ! D1    D(1,2,5,6)             -0.0022         calculate D2E/DX2 analytically  !
 ! D2    D(1,2,5,7)           -179.9987         calculate D2E/DX2 analytically  !
 ! D3    D(3,2,5,6)            120.5106         calculate D2E/DX2 analytically  !
 ! D4    D(3,2,5,7)            -59.486          calculate D2E/DX2 analytically  !
 ! D5    D(4,2,5,6)           -120.5174         calculate D2E/DX2 analytically  !
 ! D6    D(4,2,5,7)             59.4861         calculate D2E/DX2 analytically  !
 ! D7    D(2,5,7,8)             -0.0002         calculate D2E/DX2 analytically  !
 ! D8    D(2,5,7,9)           -179.9989         calculate D2E/DX2 analytically  !
 ! D9    D(6,5,7,8)           -179.9966         calculate D2E/DX2 analytically  !
 ! D10   D(6,5,7,9)              0.0046         calculate D2E/DX2 analytically  !
 ! D11   D(5,7,9,10)           -60.0012         calculate D2E/DX2 analytically  !
 ! D12   D(5,7,9,11)            59.9966         calculate D2E/DX2 analytically  !
 ! D13   D(5,7,9,15)          -179.9994         calculate D2E/DX2 analytically  !
 ! D14   D(8,7,9,10)           120.0            calculate D2E/DX2 analytically  !
 ! D15   D(8,7,9,11)          -120.0021         calculate D2E/DX2 analytically  !
 ! D16   D(8,7,9,15)             0.0018         calculate D2E/DX2 analytically  !
 ! D17   D(7,9,11,12)           59.997          calculate D2E/DX2 analytically  !
 ! D18   D(7,9,11,13)          179.9976         calculate D2E/DX2 analytically  !
 ! D19   D(7,9,11,14)          -59.9986         calculate D2E/DX2 analytically  !
 ! D20   D(10,9,11,12)        -179.4894         calculate D2E/DX2 analytically  !
 ! D21   D(10,9,11,13)         -59.4889         calculate D2E/DX2 analytically  !
 ! D22   D(10,9,11,14)          60.515          calculate D2E/DX2 analytically  !
 ! D23   D(15,9,11,12)         -61.9521         calculate D2E/DX2 analytically  !
 ! D24   D(15,9,11,13)          58.0485         calculate D2E/DX2 analytically  !
 ! D25   D(15,9,11,14)         178.0523         calculate D2E/DX2 analytically  !
 ! D26   D(7,9,15,16)           -0.0061         calculate D2E/DX2 analytically  !
 ! D27   D(7,9,15,17)          179.9974         calculate D2E/DX2 analytically  !
 ! D28   D(10,9,15,16)        -120.519          calculate D2E/DX2 analytically  !
 ! D29   D(10,9,15,17)          59.4845         calculate D2E/DX2 analytically  !
 ! D30   D(11,9,15,16)         121.9447         calculate D2E/DX2 analytically  !
 ! D31   D(11,9,15,17)         -58.0518         calculate D2E/DX2 analytically  !
 ! D32   D(9,15,17,18)           0.0036         calculate D2E/DX2 analytically  !
 ! D33   D(9,15,17,19)         179.9935         calculate D2E/DX2 analytically  !
 ! D34   D(16,15,17,18)       -179.9928         calculate D2E/DX2 analytically  !
 ! D35   D(16,15,17,19)         -0.0029         calculate D2E/DX2 analytically  !
 ! D36   D(15,17,19,20)         60.0082         calculate D2E/DX2 analytically  !
 ! D37   D(15,17,19,21)       -179.9975         calculate D2E/DX2 analytically  !
 ! D38   D(15,17,19,25)        -59.9965         frozen, calculate D2E/DX2 analyt!
 ! D39   D(18,17,19,20)       -120.0017         calculate D2E/DX2 analytically  !
 ! D40   D(18,17,19,21)         -0.0074         calculate D2E/DX2 analytically  !
 ! D41   D(18,17,19,25)        119.9935         calculate D2E/DX2 analytically  !
 ! D42   D(17,19,21,22)         60.0039         calculate D2E/DX2 analytically  !
 ! D43   D(17,19,21,23)       -179.9943         calculate D2E/DX2 analytically  !
 ! D44   D(17,19,21,24)        -59.998          calculate D2E/DX2 analytically  !
 ! D45   D(20,19,21,22)       -179.4919         calculate D2E/DX2 analytically  !
 ! D46   D(20,19,21,23)        -59.4901         calculate D2E/DX2 analytically  !
 ! D47   D(20,19,21,24)         60.5062         calculate D2E/DX2 analytically  !
 ! D48   D(25,19,21,22)        -61.9445         calculate D2E/DX2 analytically  !
 ! D49   D(25,19,21,23)         58.0573         calculate D2E/DX2 analytically  !
 ! D50   D(25,19,21,24)        178.0536         calculate D2E/DX2 analytically  !
 ! D51   D(17,19,25,26)        119.9986         calculate D2E/DX2 analytically  !
 ! D52   D(17,19,25,27)        -60.0013         frozen, calculate D2E/DX2 analyt!
 ! D53   D(20,19,25,26)         -0.5131         calculate D2E/DX2 analytically  !
 ! D54   D(20,19,25,27)        179.487          calculate D2E/DX2 analytically  !
 ! D55   D(21,19,25,26)       -118.0573         calculate D2E/DX2 analytically  !
 ! D56   D(21,19,25,27)         61.9428         calculate D2E/DX2 analytically  !
 ! D57   D(19,25,27,28)          0.0016         calculate D2E/DX2 analytically  !
 ! D58   D(19,25,27,29)        179.9976         calculate D2E/DX2 analytically  !
 ! D59   D(26,25,27,28)       -179.9983         calculate D2E/DX2 analytically  !
 ! D60   D(26,25,27,29)         -0.0023         calculate D2E/DX2 analytically  !
 ! D61   D(25,27,29,30)        -59.9983         calculate D2E/DX2 analytically  !
 ! D62   D(25,27,29,31)         60.0005         calculate D2E/DX2 analytically  !
 ! D63   D(25,27,29,35)       -179.9964         calculate D2E/DX2 analytically  !
 ! D64   D(28,27,29,30)        119.9978         calculate D2E/DX2 analytically  !
 ! D65   D(28,27,29,31)       -120.0034         calculate D2E/DX2 analytically  !
 ! D66   D(28,27,29,35)         -0.0003         calculate D2E/DX2 analytically  !
 ! D67   D(27,29,31,32)         60.0037         calculate D2E/DX2 analytically  !
 ! D68   D(27,29,31,33)        179.9999         calculate D2E/DX2 analytically  !
 ! D69   D(27,29,31,34)        -59.9998         calculate D2E/DX2 analytically  !
 ! D70   D(30,29,31,32)       -179.483          calculate D2E/DX2 analytically  !
 ! D71   D(30,29,31,33)        -59.4868         calculate D2E/DX2 analytically  !
 ! D72   D(30,29,31,34)         60.5135         calculate D2E/DX2 analytically  !
 ! D73   D(35,29,31,32)        -61.9443         calculate D2E/DX2 analytically  !
 ! D74   D(35,29,31,33)         58.0519         calculate D2E/DX2 analytically  !
 ! D75   D(35,29,31,34)        178.0522         calculate D2E/DX2 analytically  !
 ! D76   D(27,29,35,36)         -0.0034         calculate D2E/DX2 analytically  !
 ! D77   D(27,29,35,37)       -179.9977         calculate D2E/DX2 analytically  !
 ! D78   D(30,29,35,36)       -120.5175         calculate D2E/DX2 analytically  !
 ! D79   D(30,29,35,37)         59.4881         calculate D2E/DX2 analytically  !
 ! D80   D(31,29,35,36)        121.9422         calculate D2E/DX2 analytically  !
 ! D81   D(31,29,35,37)        -58.0522         calculate D2E/DX2 analytically  !
 ! D82   D(29,35,37,38)          0.0023         calculate D2E/DX2 analytically  !
 ! D83   D(29,35,37,39)        179.9984         calculate D2E/DX2 analytically  !
 ! D84   D(36,35,37,38)       -179.992          calculate D2E/DX2 analytically  !
 ! D85   D(36,35,37,39)          0.0042         calculate D2E/DX2 analytically  !
 ! D86   D(35,37,39,40)         -0.0008         calculate D2E/DX2 analytically  !
 ! D87   D(35,37,39,41)        120.0005         calculate D2E/DX2 analytically  !
 ! D88   D(35,37,39,42)       -119.9998         calculate D2E/DX2 analytically  !
 ! D89   D(38,37,39,40)        179.9955         calculate D2E/DX2 analytically  !
 ! D90   D(38,37,39,41)        -60.0033         calculate D2E/DX2 analytically  !
 ! D91   D(38,37,39,42)         59.9964         calculate D2E/DX2 analytically  !
 --------------------------------------------------------------------------------
 Trust Radius=3.00D-01 FncErr=1.00D-07 GrdErr=1.00D-06
 Number of steps in this run= 252 maximum allowed number of steps= 252.
 GradGradGradGradGradGradGradGradGradGradGradGradGradGradGradGradGradGrad

                          Input orientation:                          
 ---------------------------------------------------------------------
 Center     Atomic      Atomic             Coordinates (Angstroms)
 Number     Number       Type             X           Y           Z
 ---------------------------------------------------------------------
      1          1           0        7.769100    1.000000   -3.330800
      2          6           0        7.769100    2.090000   -3.330800
      3          1           0        7.255300    2.453900   -4.220600
      4          1           0        8.796500    2.453900   -3.330800
      5          6           0        7.055400    2.640800   -2.094600
      6          8           0        6.573800    1.877400   -1.260500
      7          7           0        6.991400    3.969700   -1.983800
      8          1           0        7.402500    4.556200   -2.695900
      9          6           0        6.342500    4.613900   -0.859800
     10          1           0        5.294700    4.315500   -0.824600
     11          6           0        7.005500    4.220800    0.456100
     12          1           0        8.053100    4.521300    0.439600
     13          1           0        6.498100    4.718900    1.282200
     14          1           0        6.939900    3.140900    0.588200
     15          6           0        6.412700    6.129400   -0.981500
     16          8           0        6.968800    6.652700   -1.944600
     17          7           0        5.846000    6.834900    0.000000
     18          1           0        5.400600    6.359200    0.771600
     19          6           0        5.846100    8.283900    0.000000
     20          1           0        5.332300    8.647700   -0.889800
     21          6           0        5.134700    8.832900    1.232200
     22          1           0        5.643100    8.484600    2.131200
     23          1           0        5.149900    9.922400    1.205800
     24          1           0        4.101900    8.484600    1.241400
     25          6           0        7.266000    8.831800    0.000000
     26          8           0        7.657300    9.550300   -0.917100
     27          7           0        8.038600    8.490200    1.033800
     28          1           0        7.671600    7.896700    1.764000
     29          6           0        9.408700    8.947100    1.149700
     30          1           0        9.982400    8.598600    0.290900
     31          6           0        9.477500   10.469900    1.196200
     32          1           0        8.915200   10.833400    2.056300
     33          1           0       10.517400   10.784600    1.283300
     34          1           0        9.049200   10.881500    0.282400
     35          6           0       10.059000    8.413100    2.418000
     36          8           0        9.426700    7.693000    3.187500
     37          7           0       11.327400    8.768500    2.634600
     38          1           0       11.805500    9.362800    1.972500
     39          6           0       12.057400    8.325700    3.805300
     40          1           0       11.413000    7.696900    4.419600
     41          1           0       12.932000    7.754400    3.494200
     42          1           0       12.377200    9.192300    4.384100
 ---------------------------------------------------------------------
                    Distance matrix (angstroms):
                    1          2          3          4          5
     1  H    0.000000
     2  C    1.090000   0.000000
     3  H    1.780326   1.090026   0.000000
     4  H    1.780274   1.089942   1.779618   0.000000
     5  C    2.174806   1.530013   2.143541   2.143490   0.000000
     6  O    2.546510   2.400017   3.091761   3.091745   1.229000
     7  N    3.352364   2.439774   2.714879   2.714856   1.335046
     8  H    3.630985   2.572865   2.601162   2.601153   2.037351
     9  C    4.604487   3.809344   4.098022   4.097994   2.434354
    10  H    4.836965   4.166119   4.340774   4.691396   2.741821
    11  C    5.029637   4.411803   5.005583   4.546452   3.000827
    12  H    5.166829   4.495308   5.160241   4.363795   3.309661
    13  H    6.060151   5.459517   5.998699   5.629621   4.003981
    14  H    4.541980   4.141319   4.867854   4.390614   2.731457
    15  C    5.802566   4.865777   4.971020   4.971017   3.717847
    16  O    5.874951   4.835314   4.784577   4.784554   4.015637
    17  N    6.988462   6.107914   6.244418   6.244425   4.841536
    18  H    7.152657   6.376954   6.604040   6.604028   4.977948
    19  C    8.236951   7.290854   7.334045   7.334030   6.139571
    20  H    8.389505   7.409447   7.290769   7.504820   6.364233
    21  C    9.440093   8.557320   8.655727   8.655714   7.286892
    22  H    9.506448   8.674343   8.905835   8.726209   7.348604
    23  H   10.346505   9.422709   9.468739   9.468734   8.218593
    24  H    9.506451   8.674346   8.726209   8.905820   7.348609
    25  C    8.525516   7.536525   7.647953   7.356240   6.539127
    26  O    8.885160   7.841844   7.837960   7.581729   7.034912
    27  N    8.673261   7.751447   8.041094   7.487394   6.705897
    28  H    8.575020   7.725559   8.100174   7.539659   6.549273
    29  C    9.269281   8.353621   8.697063   7.912731   7.472143
    30  H    8.703685   7.770282   8.096175   7.230519   7.053603
    31  C   10.634442   9.676522   9.926538   9.231129   8.831237
    32  H   11.270765  10.333510  10.600508   9.962477   9.370567
    33  H   11.161607  10.219547  10.504036   9.677395   9.471913
    34  H   10.598958   9.590847   9.722115   9.172977   8.805368
    35  C    9.656417   8.847256   9.351139   8.375839   7.918625
    36  O    9.488526   8.753827   9.329689   8.386510   7.684294
    37  N   10.420993   9.635863  10.171034   9.047962   8.841042
    38  H   10.693640   9.864641  10.334007   9.214769   9.180961
    39  C   11.089604  10.401798  11.043245   9.799767   9.599318
    40  H   10.871761  10.236407  10.928338   9.716163   9.326716
    41  H   10.902205  10.262631  10.947071   9.580098   9.587388
    42  H   12.160101  11.454123  12.069828  10.851135  10.640360
                    6          7          8          9         10
     6  O    0.000000
     7  N    2.252836   0.000000
     8  H    3.150093   1.009986   0.000000
     9  C    2.775336   1.448945   2.120894   0.000000
    10  H    2.787550   2.083774   2.828873   1.090030   0.000000
    11  C    2.936768   2.452827   3.194559   1.525021   2.139158
    12  H    3.474029   2.702654   3.202477   2.150155   3.041270
    13  H    3.813814   3.386946   4.082853   2.150209   2.459575
    14  H    2.268954   2.702729   3.605882   2.150191   2.466247
    15  C    4.264188   2.450266   2.528602   1.521998   2.136533
    16  O    4.840197   2.683382   2.268890   2.392854   3.085371
    17  N    5.166755   3.668348   3.857855   2.432819   2.707632
    18  H    5.058889   3.979018   4.391124   2.568017   2.595338
    19  C    6.569753   4.884618   4.856543   3.801916   4.090502
    20  H    6.893163   5.082631   4.928296   4.158479   4.332854
    21  C    7.527519   6.118881   6.234024   4.861605   4.966179
    22  H    7.484980   6.255834   6.467512   4.941413   5.122454
    23  H    8.534176   6.999951   7.006681   5.819723   5.964966
    24  H    7.484977   6.255833   6.467505   4.941422   4.803387
    25  C    7.101527   5.258411   5.056408   4.402589   4.996294
    26  O    7.756629   5.720522   5.307550   5.108819   5.744003
    27  N    7.151124   5.535111   5.458172   4.635534   5.330174
    28  H    6.825301   5.470832   5.578715   4.407676   5.017519
    29  C    7.989141   6.358984   6.171992   5.675940   6.501890
    30  H    7.694149   5.962135   5.649589   5.518226   6.447001
    31  C    9.396696   7.651516   7.377392   6.953280   7.710777
    32  H    9.833273   8.193521   8.017163   7.335162   7.993161
    33  H   10.067826   8.339633   8.020574   7.752432   8.577243
    34  H    9.464775   7.559311   7.182709   6.921969   7.644218
    35  C    8.270028   6.966335   6.934309   6.244219   7.071304
    36  O    7.857795   6.821729   6.967876   5.947586   6.676667
    37  N    9.233405   7.947263   7.846180   7.370262   8.257648
    38  H    9.687837   8.240958   8.017716   7.772924   8.699973
    39  C    9.864724   8.840406   8.839843   8.258371   9.124242
    40  H    9.462979   8.628215   8.750911   7.942728   8.738941
    41  H    9.877905   8.923181   8.895009   8.499504   9.423716
    42  H   10.910945   9.840353   9.816693   9.212917  10.053633
                   11         12         13         14         15
    11  C    0.000000
    12  H    1.089972   0.000000
    13  H    1.089954   1.779619   0.000000
    14  H    1.089926   1.779551   1.779581   0.000000
    15  C    2.461881   2.701189   2.668547   3.416582   0.000000
    16  O    3.417433   3.376830   3.791224   4.329971   1.229086
    17  N    2.895857   3.227582   2.558657   3.897208   1.334999
    18  H    2.692211   3.244049   2.038579   3.572189   2.037281
    19  C    4.249826   4.384205   3.844264   5.290825   2.434389
    20  H    4.920212   5.118323   4.638118   5.923994   2.741807
    21  C    5.037230   5.266419   4.334323   6.006026   3.720573
    22  H    4.779339   4.937343   3.953773   5.711188   3.978461
    23  H    6.042644   6.179605   5.375862   7.040900   4.556950
    24  H    5.218005   5.653549   4.463624   6.085725   3.978448
    25  C    4.640820   4.403769   4.376032   5.730503   2.999071
    26  O    5.542030   5.223805   5.433516   6.622764   3.640842
    27  N    4.430441   4.013160   4.081366   5.479116   3.504049
    28  H    3.958097   3.645943   3.421644   4.953335   3.499421
    29  C    5.347370   4.682905   5.134864   6.334210   4.632220
    30  H    5.296636   4.513168   5.308022   6.255532   4.523130
    31  C    6.760901   6.163376   6.477517   7.779673   5.742414
    32  H    7.066405   6.572636   6.620326   8.076613   6.133380
    33  H    7.490072   6.783327   7.276503   8.468047   6.606721
    34  H    6.969348   6.439648   6.744283   8.028670   5.579519
    35  C    5.545114   4.804561   5.255204   6.393203   5.483374
    36  O    5.037750   4.415587   4.588261   5.801909   5.376765
    37  N    6.641254   5.794633   6.445959   7.423462   6.647955
    38  H    7.195807   6.314302   7.085959   8.018877   6.947178
    39  C    7.320453   6.468061   7.090900   7.963711   7.720092
    40  H    6.871583   6.100308   6.547366   7.446166   7.525419
    41  H    7.539216   6.602059   7.449985   8.101511   8.073028
    42  H    8.306633   7.488335   8.012297   8.977334   8.587565
                   16         17         18         19         20
    16  O    0.000000
    17  N    2.252853   0.000000
    18  H    3.150101   1.009969   0.000000
    19  C    2.775381   1.449000   2.120921   0.000000
    20  H    2.787608   2.083717   2.828807   1.089993   0.000000
    21  C    4.267230   2.452808   2.530227   1.525060   2.139212
    22  H    4.661060   2.702719   2.534688   2.150233   3.041322
    23  H    4.891253   3.386911   3.598302   2.150193   2.459608
    24  H    4.661070   2.702678   2.534691   2.150253   2.466272
    25  C    2.935690   2.450308   3.191995   1.521943   2.136547
    26  O    3.150536   3.390469   4.257643   2.392757   2.494205
    27  N    3.659473   2.935346   3.401316   2.432768   3.324019
    28  H    3.974315   2.751714   2.916540   2.567892   3.616487
    29  C    4.559833   4.298375   4.785922   3.801811   4.567958
    30  H    4.226792   4.506114   5.122390   4.158442   4.797905
    31  C    5.543394   5.275596   5.805106   4.404152   4.985428
    32  H    6.105238   5.443929   5.832781   4.488618   5.127764
    33  H    6.331232   6.250517   6.784368   5.451734   6.014480
    34  H    5.212518   5.168676   5.831192   4.133658   4.492133
    35  C    5.628554   5.107525   5.350685   4.859212   5.773930
    36  O    5.784630   4.870103   4.881094   4.830115   5.856615
    37  N    6.666564   6.381667   6.663517   6.100869   6.955373
    38  H    6.788371   6.767324   7.175411   6.369398   7.113821
    39  C    7.858380   7.435340   7.575186   7.284388   8.208204
    40  H    7.832261   7.160125   7.158652   7.132167   8.128263
    41  H    8.145799   7.954012   8.129029   7.918319   8.818893
    42  H    8.703609   8.211835   8.351620   7.918383   8.817099
                   21         22         23         24         25
    21  C    0.000000
    22  H    1.089947   0.000000
    23  H    1.089926   1.779573   0.000000
    24  H    1.089988   1.779618   1.779562   0.000000
    25  C    2.461861   2.701179   2.668565   3.416599   0.000000
    26  O    3.390821   3.805897   3.306390   4.293682   1.228996
    27  N    2.930775   2.634908   3.228834   3.942174   1.335044
    28  H    2.755929   2.143659   3.282380   3.655338   2.037307
    29  C    4.276321   3.918800   4.369409   5.327705   2.434393
    30  H    4.943798   4.714788   5.093382   5.957913   2.741867
    31  C    4.641226   4.417948   4.362106   5.730666   3.000833
    32  H    4.355838   4.028537   3.966202   5.417451   3.309778
    33  H    5.725836   5.455982   5.436860   6.815453   4.003984
    34  H    4.519092   4.556831   4.120325   5.580375   2.731451
    35  C    5.082429   4.425781   5.276995   6.072606   3.717914
    36  O    4.852199   4.007247   5.214248   5.724284   4.015675
    37  N    6.349835   5.713605   6.444723   7.364065   4.841497
    38  H    6.732638   6.226684   6.722945   7.787888   4.977929
    39  C    7.402829   6.631071   7.551186   8.359953   6.139541
    40  H    7.132115   6.256916   7.382939   8.010843   6.165912
    41  H    8.190097   7.451109   8.396313   9.142153   6.743425
    42  H    7.906798   7.136140   7.928966   8.880202   6.743490
                   26         27         28         29         30
    26  O    0.000000
    27  N    2.252823   0.000000
    28  H    3.150063   1.010012   0.000000
    29  C    2.775412   1.448918   2.120901   0.000000
    30  H    2.787667   2.083749   2.828866   1.090010   0.000000
    31  C    2.936806   2.452757   3.194531   1.525062   2.139218
    32  H    3.474157   2.702688   3.202528   2.150254   3.041362
    33  H    3.813847   3.386882   4.082844   2.150226   2.459609
    34  H    2.268982   2.702634   3.605822   2.150198   2.466286
    35  C    4.264303   2.450300   2.528649   1.522048   2.136547
    36  O    4.840256   2.683426   2.268969   2.392848   3.085321
    37  N    5.166761   3.668272   3.857830   2.432742   2.707549
    38  H    5.058904   3.978960   4.391133   2.567967   2.595279
    39  C    6.569748   4.884570   4.856561   3.801837   4.090368
    40  H    6.783859   4.845569   4.592407   4.033914   4.461596
    41  H    7.106848   5.526331   5.539463   4.396914   4.435532
    42  H    7.106922   5.526383   5.539510   4.396983   4.779313
                   31         32         33         34         35
    31  C    0.000000
    32  H    1.089993   0.000000
    33  H    1.089961   1.779594   0.000000
    34  H    1.089902   1.779604   1.779551   0.000000
    35  C    2.461984   2.701288   2.668649   3.416648   0.000000
    36  O    3.417460   3.376886   3.791252   4.329970   1.229015
    37  N    2.895840   3.227530   2.558666   3.897154   1.334939
    38  H    2.692192   3.243998   2.038557   3.572125   2.037317
    39  C    4.249809   4.384174   3.844252   5.290766   2.434305
    40  H    4.671830   4.654226   4.491366   5.731113   2.520449
    41  H    4.958661   5.261414   4.460996   5.930476   3.137869
    42  H    4.494800   4.483002   3.950853   5.545532   3.137954
                   36         37         38         39         40
    36  O    0.000000
    37  N    2.252789   0.000000
    38  H    3.150103   1.010024   0.000000
    39  C    2.775350   1.448969   2.120893   0.000000
    40  H    2.337407   2.083718   2.986231   1.089957   0.000000
    41  H    3.519228   2.083759   2.484255   1.089996   1.779616
    42  H    3.519262   2.083851   2.484296   1.090081   1.779653
                   41         42
    41  H    0.000000
    42  H    1.779686   0.000000
 Stoichiometry    C12H22N4O4
 Framework group  C1[X(C12H22N4O4)]
 Deg. of freedom   120
 Full point group                 C1      NOp   1
 Largest Abelian subgroup         C1      NOp   1
 Largest concise Abelian subgroup C1      NOp   1
                         Standard orientation:                         
 ---------------------------------------------------------------------
 Center     Atomic      Atomic             Coordinates (Angstroms)
 Number     Number       Type             X           Y           Z
 ---------------------------------------------------------------------
      1          1           0       -6.259225   -2.410840   -1.082168
      2          6           0       -5.442002   -1.768243   -1.409759
      3          1           0       -5.844057   -0.929120   -1.977545
      4          1           0       -4.760247   -2.339263   -2.039934
      5          6           0       -4.659598   -1.219783   -0.214781
      6          8           0       -4.982698   -1.518836    0.932658
      7          7           0       -3.630160   -0.416269   -0.492214
      8          1           0       -3.403256   -0.199375   -1.452184
      9          6           0       -2.811251    0.166929    0.551199
     10          1           0       -3.433409    0.782994    1.200468
     11          6           0       -2.146450   -0.914461    1.396376
     12          1           0       -1.512912   -1.534005    0.761686
     13          1           0       -1.538243   -0.448001    2.171295
     14          1           0       -2.912377   -1.535349    1.860911
     15          6           0       -1.711406    1.038394   -0.038181
     16          8           0       -1.606863    1.172532   -1.255444
     17          7           0       -0.889153    1.631992    0.830013
     18          1           0       -1.015183    1.491149    1.822141
     19          6           0        0.197268    2.486156    0.394476
     20          1           0       -0.204862    3.325221   -0.173280
     21          6           0        0.977124    3.032838    1.585598
     22          1           0        1.393589    2.204644    2.158865
     23          1           0        1.786066    3.670393    1.229123
     24          1           0        0.309779    3.614788    2.221255
     25          6           0        1.173198    1.723505   -0.489964
     26          8           0        1.382816    2.086747   -1.645190
     27          7           0        1.771104    0.662146    0.056267
     28          1           0        1.566073    0.402692    1.010610
     29          6           0        2.720255   -0.146261   -0.681943
     30          1           0        2.233312   -0.566703   -1.561850
     31          6           0        3.913934    0.686772   -1.136918
     32          1           0        4.417348    1.107001   -0.266248
     33          1           0        4.609822    0.054505   -1.688275
     34          1           0        3.568985    1.494893   -1.781771
     35          6           0        3.249199   -1.288610    0.173562
     36          8           0        2.864432   -1.430085    1.332189
     37          7           0        4.135007   -2.105321   -0.401233
     38          1           0        4.420859   -1.948079   -1.357116
     39          6           0        4.712455   -3.229423    0.307610
     40          1           0        4.309278   -3.267402    1.319544
     41          1           0        4.467769   -4.153925   -0.215379
     42          1           0        5.795449   -3.113792    0.352662
 ---------------------------------------------------------------------
 Rotational constants (GHZ):      0.4543318      0.1603319      0.1367180
 Standard basis: 6-31G(d) (6D, 7F)
 There are   344 symmetry adapted basis functions of A   symmetry.
 Integral buffers will be    131072 words long.
 Raffenetti 2 integral format.
 Two-electron integral symmetry is turned on.
   344 basis functions,   648 primitive gaussians,   344 cartesian basis functions
    77 alpha electrons       77 beta electrons
       nuclear repulsion energy      1646.5981610307 Hartrees.
 NAtoms=   42 NActive=   42 NUniq=   42 SFac= 7.50D-01 NAtFMM=   80 NAOKFM=F Big=F
 One-electron integrals computed using PRISM.
 NBasis=   344 RedAO= T  NBF=   344
 NBsUse=   344 1.00D-06 NBFU=   344
 Harris functional with IExCor=  402 diagonalized for initial guess.
 ExpMin= 1.61D-01 ExpMax= 5.48D+03 ExpMxC= 8.25D+02 IAcc=1 IRadAn=         1 AccDes= 0.00D+00
 HarFok:  IExCor=  402 AccDes= 0.00D+00 IRadAn=         1 IDoV= 1
 ScaDFX=  1.000000  1.000000  1.000000  1.000000
 FoFCou: FMM=F IPFlag=           0 FMFlag=      100000 FMFlg1=           0
         NFxFlg=           0 DoJE=T BraDBF=F KetDBF=T FulRan=T
         Omega=  0.000000  0.000000  1.000000  0.000000  0.000000 ICntrl=     500 IOpCl=  0
         NMat0=    1 NMatS0=    1 NMatT0=    0 NMatD0=    1 NMtDS0=    0 NMtDT0=    0
         I1Cent=           4 NGrid=           0.
 Petite list used in FoFCou.
 Initial guess orbital symmetries:
       Occupied  (A) (A) (A) (A) (A) (A) (A) (A) (A) (A) (A) (A)
                 (A) (A) (A) (A) (A) (A) (A) (A) (A) (A) (A) (A)
                 (A) (A) (A) (A) (A) (A) (A) (A) (A) (A) (A) (A)
                 (A) (A) (A) (A) (A) (A) (A) (A) (A) (A) (A) (A)
                 (A) (A) (A) (A) (A) (A) (A) (A) (A) (A) (A) (A)
                 (A) (A) (A) (A) (A) (A) (A) (A) (A) (A) (A) (A)
                 (A) (A) (A) (A) (A)
       Virtual   (A) (A) (A) (A) (A) (A) (A) (A) (A) (A) (A) (A)
                 (A) (A) (A) (A) (A) (A) (A) (A) (A) (A) (A) (A)
                 (A) (A) (A) (A) (A) (A) (A) (A) (A) (A) (A) (A)
                 (A) (A) (A) (A) (A) (A) (A) (A) (A) (A) (A) (A)
                 (A) (A) (A) (A) (A) (A) (A) (A) (A) (A) (A) (A)
                 (A) (A) (A) (A) (A) (A) (A) (A) (A) (A) (A) (A)
                 (A) (A) (A) (A) (A) (A) (A) (A) (A) (A) (A) (A)
                 (A) (A) (A) (A) (A) (A) (A) (A) (A) (A) (A) (A)
                 (A) (A) (A) (A) (A) (A) (A) (A) (A) (A) (A) (A)
                 (A) (A) (A) (A) (A) (A) (A) (A) (A) (A) (A) (A)
                 (A) (A) (A) (A) (A) (A) (A) (A) (A) (A) (A) (A)
                 (A) (A) (A) (A) (A) (A) (A) (A) (A) (A) (A) (A)
                 (A) (A) (A) (A) (A) (A) (A) (A) (A) (A) (A) (A)
                 (A) (A) (A) (A) (A) (A) (A) (A) (A) (A) (A) (A)
                 (A) (A) (A) (A) (A) (A) (A) (A) (A) (A) (A) (A)
                 (A) (A) (A) (A) (A) (A) (A) (A) (A) (A) (A) (A)
                 (A) (A) (A) (A) (A) (A) (A) (A) (A) (A) (A) (A)
                 (A) (A) (A) (A) (A) (A) (A) (A) (A) (A) (A) (A)
                 (A) (A) (A) (A) (A) (A) (A) (A) (A) (A) (A) (A)
                 (A) (A) (A) (A) (A) (A) (A) (A) (A) (A) (A) (A)
                 (A) (A) (A) (A) (A) (A) (A) (A) (A) (A) (A) (A)
                 (A) (A) (A) (A) (A) (A) (A) (A) (A) (A) (A) (A)
                 (A) (A) (A)
 The electronic state of the initial guess is 1-A.
 Requested convergence on RMS density matrix=1.00D-08 within 128 cycles.
 Requested convergence on MAX density matrix=1.00D-06.
 Requested convergence on             energy=1.00D-06.
 No special actions if energy rises.
 Integral accuracy reduced to 1.0D-05 until final iterations.
 Initial convergence to 1.0D-05 achieved.  Increase integral accuracy.
 SCF Done:  E(RB3LYP) =  -990.481910896     A.U. after   15 cycles
             Convg  =    0.6438D-08             -V/T =  2.0087
 Range of M.O.s used for correlation:     1   344
 NBasis=   344 NAE=    77 NBE=    77 NFC=     0 NFV=     0
 NROrb=    344 NOA=    77 NOB=    77 NVA=   267 NVB=   267
 Symmetrizing basis deriv contribution to polar:
 IMax=3 JMax=2 DiffMx= 0.00D+00
 G2DrvN: will do    43 centers at a time, making    1 passes doing MaxLOS=2.
 Calling FoFCou, ICntrl=  3107 FMM=F I1Cent=   0 AccDes= 0.00D+00.
 FoFDir/FoFCou used for L=0 through L=2.
 End of G2Drv Frequency-dependent properties file   721 does not exist.
 End of G2Drv Frequency-dependent properties file   722 does not exist.
          IDoAtm=111111111111111111111111111111111111111111
          Differentiating once with respect to nuclear coordinates.
          There are   129 degrees of freedom in the 1st order CPHF.  IDoFFX=5.
    123 vectors produced by pass  0 Test12= 2.06D-10 1.00D-07 XBig12= 1.97D-01 8.24D-02.
 AX will form   123 AO Fock derivatives at one time.
    123 vectors produced by pass  1 Test12= 2.06D-10 1.00D-07 XBig12= 2.18D-02 4.95D-02.
    123 vectors produced by pass  2 Test12= 2.06D-10 1.00D-07 XBig12= 3.85D-05 1.09D-03.
    123 vectors produced by pass  3 Test12= 2.06D-10 1.00D-07 XBig12= 9.37D-08 7.18D-05.
     65 vectors produced by pass  4 Test12= 2.06D-10 1.00D-07 XBig12= 8.08D-11 1.45D-06.
 Inverted reduced A of dimension   557 with in-core refinement.
 End of Minotr Frequency-dependent properties file   721 does not exist.
 End of Minotr Frequency-dependent properties file   722 does not exist.

 **********************************************************************

            Population analysis using the SCF density.

 **********************************************************************

 Orbital symmetries:
       Occupied  (A) (A) (A) (A) (A) (A) (A) (A) (A) (A) (A) (A)
                 (A) (A) (A) (A) (A) (A) (A) (A) (A) (A) (A) (A)
                 (A) (A) (A) (A) (A) (A) (A) (A) (A) (A) (A) (A)
                 (A) (A) (A) (A) (A) (A) (A) (A) (A) (A) (A) (A)
                 (A) (A) (A) (A) (A) (A) (A) (A) (A) (A) (A) (A)
                 (A) (A) (A) (A) (A) (A) (A) (A) (A) (A) (A) (A)
                 (A) (A) (A) (A) (A)
       Virtual   (A) (A) (A) (A) (A) (A) (A) (A) (A) (A) (A) (A)
                 (A) (A) (A) (A) (A) (A) (A) (A) (A) (A) (A) (A)
                 (A) (A) (A) (A) (A) (A) (A) (A) (A) (A) (A) (A)
                 (A) (A) (A) (A) (A) (A) (A) (A) (A) (A) (A) (A)
                 (A) (A) (A) (A) (A) (A) (A) (A) (A) (A) (A) (A)
                 (A) (A) (A) (A) (A) (A) (A) (A) (A) (A) (A) (A)
                 (A) (A) (A) (A) (A) (A) (A) (A) (A) (A) (A) (A)
                 (A) (A) (A) (A) (A) (A) (A) (A) (A) (A) (A) (A)
                 (A) (A) (A) (A) (A) (A) (A) (A) (A) (A) (A) (A)
                 (A) (A) (A) (A) (A) (A) (A) (A) (A) (A) (A) (A)
                 (A) (A) (A) (A) (A) (A) (A) (A) (A) (A) (A) (A)
                 (A) (A) (A) (A) (A) (A) (A) (A) (A) (A) (A) (A)
                 (A) (A) (A) (A) (A) (A) (A) (A) (A) (A) (A) (A)
                 (A) (A) (A) (A) (A) (A) (A) (A) (A) (A) (A) (A)
                 (A) (A) (A) (A) (A) (A) (A) (A) (A) (A) (A) (A)
                 (A) (A) (A) (A) (A) (A) (A) (A) (A) (A) (A) (A)
                 (A) (A) (A) (A) (A) (A) (A) (A) (A) (A) (A) (A)
                 (A) (A) (A) (A) (A) (A) (A) (A) (A) (A) (A) (A)
                 (A) (A) (A) (A) (A) (A) (A) (A) (A) (A) (A) (A)
                 (A) (A) (A) (A) (A) (A) (A) (A) (A) (A) (A) (A)
                 (A) (A) (A) (A) (A) (A) (A) (A) (A) (A) (A) (A)
                 (A) (A) (A) (A) (A) (A) (A) (A) (A) (A) (A) (A)
                 (A) (A) (A)
 The electronic state is 1-A.
 Alpha  occ. eigenvalues --  -19.12154 -19.11925 -19.10084 -19.09472 -14.37693
 Alpha  occ. eigenvalues --  -14.37542 -14.35882 -14.35141 -10.29514 -10.29167
 Alpha  occ. eigenvalues --  -10.27707 -10.27443 -10.23991 -10.23906 -10.23475
 Alpha  occ. eigenvalues --  -10.22774 -10.20287 -10.18217 -10.18156 -10.17681
 Alpha  occ. eigenvalues --   -1.04880  -1.04626  -1.02570  -1.01951  -0.94537
 Alpha  occ. eigenvalues --   -0.93970  -0.92430  -0.91885  -0.80865  -0.78430
 Alpha  occ. eigenvalues --   -0.76698  -0.72008  -0.71872  -0.67539  -0.66100
 Alpha  occ. eigenvalues --   -0.64395  -0.61234  -0.60515  -0.57956  -0.57352
 Alpha  occ. eigenvalues --   -0.55986  -0.53641  -0.50076  -0.49838  -0.49106
 Alpha  occ. eigenvalues --   -0.48306  -0.46630  -0.45751  -0.45298  -0.44691
 Alpha  occ. eigenvalues --   -0.44185  -0.43672  -0.43078  -0.41516  -0.41352
 Alpha  occ. eigenvalues --   -0.40975  -0.40662  -0.40493  -0.39922  -0.39481
 Alpha  occ. eigenvalues --   -0.38953  -0.38546  -0.38073  -0.37219  -0.37009
 Alpha  occ. eigenvalues --   -0.36725  -0.36277  -0.34965  -0.33966  -0.27780
 Alpha  occ. eigenvalues --   -0.26797  -0.26252  -0.25754  -0.24838  -0.24669
 Alpha  occ. eigenvalues --   -0.23431  -0.23190
 Alpha virt. eigenvalues --    0.01741   0.02139   0.03149   0.04176   0.05624
 Alpha virt. eigenvalues --    0.05919   0.09592   0.10141   0.11248   0.11636
 Alpha virt. eigenvalues --    0.13214   0.13628   0.13869   0.14290   0.14861
 Alpha virt. eigenvalues --    0.15050   0.15384   0.15811   0.16049   0.16546
 Alpha virt. eigenvalues --    0.17399   0.17805   0.18215   0.18573   0.19105
 Alpha virt. eigenvalues --    0.19604   0.19907   0.20470   0.21252   0.22856
 Alpha virt. eigenvalues --    0.23278   0.24248   0.25106   0.25353   0.26429
 Alpha virt. eigenvalues --    0.28296   0.29967   0.33987   0.34590   0.35064
 Alpha virt. eigenvalues --    0.35680   0.40185   0.41566   0.42527   0.44711
 Alpha virt. eigenvalues --    0.48952   0.49881   0.50111   0.50634   0.51844
 Alpha virt. eigenvalues --    0.52291   0.53168   0.53726   0.54156   0.54831
 Alpha virt. eigenvalues --    0.55844   0.56296   0.56627   0.57296   0.57767
 Alpha virt. eigenvalues --    0.59177   0.59774   0.61485   0.61872   0.63681
 Alpha virt. eigenvalues --    0.63745   0.65700   0.66596   0.67226   0.68145
 Alpha virt. eigenvalues --    0.69415   0.70021   0.70669   0.71428   0.72662
 Alpha virt. eigenvalues --    0.73188   0.74107   0.75221   0.75476   0.75983
 Alpha virt. eigenvalues --    0.76943   0.78333   0.79507   0.81165   0.83037
 Alpha virt. eigenvalues --    0.83874   0.84410   0.84993   0.85174   0.86173
 Alpha virt. eigenvalues --    0.86482   0.87057   0.87261   0.87627   0.88337
 Alpha virt. eigenvalues --    0.88685   0.89251   0.89832   0.90275   0.90569
 Alpha virt. eigenvalues --    0.91352   0.92095   0.92715   0.93055   0.93432
 Alpha virt. eigenvalues --    0.94109   0.94585   0.95235   0.96034   0.96101
 Alpha virt. eigenvalues --    0.97972   0.98891   0.99672   1.02176   1.02564
 Alpha virt. eigenvalues --    1.03023   1.05759   1.06587   1.07998   1.08782
 Alpha virt. eigenvalues --    1.09469   1.12247   1.13757   1.15200   1.17734
 Alpha virt. eigenvalues --    1.19844   1.20407   1.24459   1.25603   1.26632
 Alpha virt. eigenvalues --    1.28573   1.29292   1.30588   1.31562   1.34088
 Alpha virt. eigenvalues --    1.35251   1.37457   1.37826   1.39005   1.39330
 Alpha virt. eigenvalues --    1.41151   1.43764   1.45377   1.47063   1.48201
 Alpha virt. eigenvalues --    1.48898   1.50287   1.50922   1.51586   1.60152
 Alpha virt. eigenvalues --    1.64942   1.65511   1.68101   1.69709   1.70245
 Alpha virt. eigenvalues --    1.70997   1.71632   1.74911   1.76224   1.76691
 Alpha virt. eigenvalues --    1.77720   1.78918   1.80357   1.81109   1.83252
 Alpha virt. eigenvalues --    1.83607   1.83894   1.84263   1.84753   1.85100
 Alpha virt. eigenvalues --    1.86054   1.86917   1.88261   1.89479   1.91048
 Alpha virt. eigenvalues --    1.91397   1.92189   1.93778   1.94408   1.95423
 Alpha virt. eigenvalues --    1.96722   1.98093   1.99551   2.00399   2.02447
 Alpha virt. eigenvalues --    2.03814   2.03896   2.05279   2.06697   2.08097
 Alpha virt. eigenvalues --    2.08773   2.09906   2.10696   2.14475   2.15904
 Alpha virt. eigenvalues --    2.16514   2.18148   2.19551   2.22423   2.24091
 Alpha virt. eigenvalues --    2.24798   2.26437   2.27333   2.28071   2.28717
 Alpha virt. eigenvalues --    2.29452   2.30051   2.31743   2.32975   2.33654
 Alpha virt. eigenvalues --    2.35348   2.36851   2.39347   2.41147   2.44218
 Alpha virt. eigenvalues --    2.44540   2.45135   2.46620   2.47869   2.50236
 Alpha virt. eigenvalues --    2.54190   2.55072   2.58470   2.60196   2.61619
 Alpha virt. eigenvalues --    2.64409   2.66238   2.66935   2.67351   2.71658
 Alpha virt. eigenvalues --    2.73589   2.73614   2.77786   2.82374   2.85175
 Alpha virt. eigenvalues --    2.88522   2.89740   2.93932   2.95052   2.97488
 Alpha virt. eigenvalues --    2.99068   3.02238   3.03400   3.14828   3.17791
 Alpha virt. eigenvalues --    3.23454   3.24550   3.96755   4.00825   4.02092
 Alpha virt. eigenvalues --    4.04416   4.06087   4.08474   4.09812   4.20730
 Alpha virt. eigenvalues --    4.22545   4.22813   4.23904   4.28781   4.29487
 Alpha virt. eigenvalues --    4.42281   4.44069   4.45795   4.53710   4.60452
 Alpha virt. eigenvalues --    4.63067   4.72079
          Condensed to atoms (all electrons):
              1          2          3          4          5          6
     1  H    0.506496   0.360295  -0.021656  -0.021676  -0.018282   0.005057
     2  C    0.360295   5.325221   0.351312   0.351687   0.358022  -0.079365
     3  H   -0.021656   0.351312   0.549163  -0.026541  -0.025015   0.001465
     4  H   -0.021676   0.351687  -0.026541   0.551716  -0.026589   0.001299
     5  C   -0.018282   0.358022  -0.025015  -0.026589   4.336952   0.593108
     6  O    0.005057  -0.079365   0.001465   0.001299   0.593108   8.085143
     7  N    0.004606  -0.135077   0.004185   0.004591   0.227709  -0.108044
     8  H   -0.000144  -0.001201   0.001154   0.000854  -0.015946   0.003071
     9  C   -0.000147   0.007397  -0.000276   0.000007  -0.021493   0.013394
    10  H    0.000002   0.000145  -0.000020  -0.000002  -0.001489   0.005011
    11  C    0.000014  -0.000751   0.000017   0.000031  -0.006177  -0.018513
    12  H    0.000000  -0.000005  -0.000001   0.000002   0.000860  -0.000160
    13  H    0.000000   0.000007   0.000000  -0.000001   0.000339   0.000331
    14  H    0.000000   0.000615  -0.000008  -0.000055   0.003060   0.023633
    15  C    0.000000  -0.000047  -0.000016  -0.000014   0.006618   0.000803
    16  O    0.000000  -0.000048   0.000000  -0.000001   0.000504  -0.000005
    17  N    0.000000   0.000000   0.000000   0.000000  -0.000073  -0.000003
    18  H    0.000000   0.000000   0.000000   0.000000   0.000002   0.000003
    19  C    0.000000   0.000000   0.000000   0.000000   0.000001   0.000000
    20  H    0.000000   0.000000   0.000000   0.000000   0.000000   0.000000
    21  C    0.000000   0.000000   0.000000   0.000000   0.000000   0.000000
    22  H    0.000000   0.000000   0.000000   0.000000   0.000000   0.000000
    23  H    0.000000   0.000000   0.000000   0.000000   0.000000   0.000000
    24  H    0.000000   0.000000   0.000000   0.000000   0.000000   0.000000
    25  C    0.000000   0.000000   0.000000   0.000000   0.000000   0.000000
    26  O    0.000000   0.000000   0.000000   0.000000   0.000000   0.000000
    27  N    0.000000   0.000000   0.000000   0.000000   0.000000   0.000000
    28  H    0.000000   0.000000   0.000000   0.000000   0.000000   0.000000
    29  C    0.000000   0.000000   0.000000   0.000000   0.000000   0.000000
    30  H    0.000000   0.000000   0.000000   0.000000   0.000000   0.000000
    31  C    0.000000   0.000000   0.000000   0.000000   0.000000   0.000000
    32  H    0.000000   0.000000   0.000000   0.000000   0.000000   0.000000
    33  H    0.000000   0.000000   0.000000   0.000000   0.000000   0.000000
    34  H    0.000000   0.000000   0.000000   0.000000   0.000000   0.000000
    35  C    0.000000   0.000000   0.000000   0.000000   0.000000   0.000000
    36  O    0.000000   0.000000   0.000000   0.000000   0.000000   0.000000
    37  N    0.000000   0.000000   0.000000   0.000000   0.000000   0.000000
    38  H    0.000000   0.000000   0.000000   0.000000   0.000000   0.000000
    39  C    0.000000   0.000000   0.000000   0.000000   0.000000   0.000000
    40  H    0.000000   0.000000   0.000000   0.000000   0.000000   0.000000
    41  H    0.000000   0.000000   0.000000   0.000000   0.000000   0.000000
    42  H    0.000000   0.000000   0.000000   0.000000   0.000000   0.000000
              7          8          9         10         11         12
     1  H    0.004606  -0.000144  -0.000147   0.000002   0.000014   0.000000
     2  C   -0.135077  -0.001201   0.007397   0.000145  -0.000751  -0.000005
     3  H    0.004185   0.001154  -0.000276  -0.000020   0.000017  -0.000001
     4  H    0.004591   0.000854   0.000007  -0.000002   0.000031   0.000002
     5  C    0.227709  -0.015946  -0.021493  -0.001489  -0.006177   0.000860
     6  O   -0.108044   0.003071   0.013394   0.005011  -0.018513  -0.000160
     7  N    7.196013   0.291285   0.248909  -0.049032  -0.055199   0.000179
     8  H    0.291285   0.386212  -0.051360   0.004128   0.004431   0.000622
     9  C    0.248909  -0.051360   5.099278   0.368890   0.347193  -0.037573
    10  H   -0.049032   0.004128   0.368890   0.584781  -0.051110   0.006216
    11  C   -0.055199   0.004431   0.347193  -0.051110   5.206591   0.368358
    12  H    0.000179   0.000622  -0.037573   0.006216   0.368358   0.558240
    13  H    0.005219  -0.000128  -0.036513  -0.000088   0.350948  -0.026847
    14  H   -0.010573  -0.000292  -0.021034  -0.006017   0.359631  -0.025407
    15  C   -0.025837   0.000643   0.305850  -0.033464  -0.046929  -0.002619
    16  O   -0.009216   0.030463  -0.085910   0.001301  -0.000869   0.000994
    17  N    0.003329   0.001333  -0.125272   0.000722   0.002787  -0.000568
    18  H    0.000048  -0.000048   0.001299   0.001251   0.000704  -0.000079
    19  C   -0.000062  -0.000038   0.007210  -0.000368   0.000275  -0.000168
    20  H   -0.000003  -0.000003   0.000072  -0.000010  -0.000005  -0.000001
    21  C    0.000000   0.000000  -0.000201  -0.000007  -0.000014   0.000000
    22  H    0.000000   0.000000  -0.000009   0.000001  -0.000010  -0.000001
    23  H    0.000000   0.000000   0.000003   0.000000   0.000000   0.000000
    24  H    0.000000   0.000000   0.000005   0.000000  -0.000001   0.000000
    25  C    0.000004   0.000002  -0.000229   0.000012  -0.000105   0.000078
    26  O    0.000000   0.000001  -0.000024   0.000000   0.000001   0.000000
    27  N    0.000001   0.000000  -0.000100  -0.000003   0.000008   0.000146
    28  H    0.000001   0.000000  -0.000111   0.000002   0.000190   0.000130
    29  C    0.000000   0.000000   0.000003   0.000000  -0.000003  -0.000001
    30  H    0.000000   0.000000   0.000001   0.000000   0.000002  -0.000004
    31  C    0.000000   0.000000   0.000000   0.000000   0.000000   0.000000
    32  H    0.000000   0.000000   0.000000   0.000000   0.000000   0.000000
    33  H    0.000000   0.000000   0.000000   0.000000   0.000000   0.000000
    34  H    0.000000   0.000000   0.000000   0.000000   0.000000   0.000000
    35  C    0.000000   0.000000   0.000000   0.000000  -0.000001   0.000013
    36  O    0.000000   0.000000   0.000000   0.000000  -0.000006   0.000019
    37  N    0.000000   0.000000   0.000000   0.000000   0.000000   0.000000
    38  H    0.000000   0.000000   0.000000   0.000000   0.000000   0.000000
    39  C    0.000000   0.000000   0.000000   0.000000   0.000000   0.000000
    40  H    0.000000   0.000000   0.000000   0.000000   0.000000   0.000000
    41  H    0.000000   0.000000   0.000000   0.000000   0.000000   0.000000
    42  H    0.000000   0.000000   0.000000   0.000000   0.000000   0.000000
             13         14         15         16         17         18
     1  H    0.000000   0.000000   0.000000   0.000000   0.000000   0.000000
     2  C    0.000007   0.000615  -0.000047  -0.000048   0.000000   0.000000
     3  H    0.000000  -0.000008  -0.000016   0.000000   0.000000   0.000000
     4  H   -0.000001  -0.000055  -0.000014  -0.000001   0.000000   0.000000
     5  C    0.000339   0.003060   0.006618   0.000504  -0.000073   0.000002
     6  O    0.000331   0.023633   0.000803  -0.000005  -0.000003   0.000003
     7  N    0.005219  -0.010573  -0.025837  -0.009216   0.003329   0.000048
     8  H   -0.000128  -0.000292   0.000643   0.030463   0.001333  -0.000048
     9  C   -0.036513  -0.021034   0.305850  -0.085910  -0.125272   0.001299
    10  H   -0.000088  -0.006017  -0.033464   0.001301   0.000722   0.001251
    11  C    0.350948   0.359631  -0.046929  -0.000869   0.002787   0.000704
    12  H   -0.026847  -0.025407  -0.002619   0.000994  -0.000568  -0.000079
    13  H    0.603555  -0.021134  -0.008469  -0.000040   0.003562   0.007602
    14  H   -0.021134   0.482543   0.004057  -0.000084   0.000168  -0.000200
    15  C   -0.008469   0.004057   4.394330   0.590310   0.244868  -0.023265
    16  O   -0.000040  -0.000084   0.590310   8.080466  -0.105340   0.003516
    17  N    0.003562   0.000168   0.244868  -0.105340   7.217032   0.292120
    18  H    0.007602  -0.000200  -0.023265   0.003516   0.292120   0.407031
    19  C    0.000266   0.000001  -0.028310   0.008808   0.220531  -0.027538
    20  H    0.000006   0.000001  -0.001948   0.003833  -0.046686   0.002683
    21  C   -0.000043   0.000000   0.005997   0.000584  -0.038984  -0.005429
    22  H    0.000027   0.000000  -0.000142  -0.000013  -0.003742   0.002615
    23  H    0.000000   0.000000  -0.000024   0.000005   0.003843  -0.000105
    24  H   -0.000014   0.000000  -0.000189  -0.000001  -0.002820   0.003563
    25  C   -0.000054  -0.000002  -0.002843   0.007911  -0.059733   0.002842
    26  O    0.000000   0.000000  -0.000490  -0.001985   0.001913  -0.000112
    27  N   -0.000004   0.000001   0.003220  -0.001381   0.003818  -0.000489
    28  H    0.000318   0.000001   0.000154  -0.000128   0.006216  -0.000113
    29  C   -0.000003   0.000000  -0.000061   0.000002  -0.000272   0.000024
    30  H    0.000000   0.000000  -0.000026   0.000038  -0.000007   0.000000
    31  C    0.000000   0.000000   0.000006   0.000001   0.000002   0.000000
    32  H    0.000000   0.000000   0.000000   0.000000   0.000000   0.000000
    33  H    0.000000   0.000000   0.000000   0.000000   0.000000   0.000000
    34  H    0.000000   0.000000   0.000000   0.000001  -0.000007   0.000000
    35  C    0.000001   0.000000  -0.000014  -0.000001  -0.000021   0.000003
    36  O    0.000005   0.000000   0.000000   0.000000  -0.000002  -0.000001
    37  N    0.000000   0.000000   0.000000   0.000000   0.000000   0.000000
    38  H    0.000000   0.000000   0.000000   0.000000   0.000000   0.000000
    39  C    0.000000   0.000000   0.000000   0.000000   0.000000   0.000000
    40  H    0.000000   0.000000   0.000000   0.000000   0.000000   0.000000
    41  H    0.000000   0.000000   0.000000   0.000000   0.000000   0.000000
    42  H    0.000000   0.000000   0.000000   0.000000   0.000000   0.000000
             19         20         21         22         23         24
     1  H    0.000000   0.000000   0.000000   0.000000   0.000000   0.000000
     2  C    0.000000   0.000000   0.000000   0.000000   0.000000   0.000000
     3  H    0.000000   0.000000   0.000000   0.000000   0.000000   0.000000
     4  H    0.000000   0.000000   0.000000   0.000000   0.000000   0.000000
     5  C    0.000001   0.000000   0.000000   0.000000   0.000000   0.000000
     6  O    0.000000   0.000000   0.000000   0.000000   0.000000   0.000000
     7  N   -0.000062  -0.000003   0.000000   0.000000   0.000000   0.000000
     8  H   -0.000038  -0.000003   0.000000   0.000000   0.000000   0.000000
     9  C    0.007210   0.000072  -0.000201  -0.000009   0.000003   0.000005
    10  H   -0.000368  -0.000010  -0.000007   0.000001   0.000000   0.000000
    11  C    0.000275  -0.000005  -0.000014  -0.000010   0.000000  -0.000001
    12  H   -0.000168  -0.000001   0.000000  -0.000001   0.000000   0.000000
    13  H    0.000266   0.000006  -0.000043   0.000027   0.000000  -0.000014
    14  H    0.000001   0.000001   0.000000   0.000000   0.000000   0.000000
    15  C   -0.028310  -0.001948   0.005997  -0.000142  -0.000024  -0.000189
    16  O    0.008808   0.003833   0.000584  -0.000013   0.000005  -0.000001
    17  N    0.220531  -0.046686  -0.038984  -0.003742   0.003843  -0.002820
    18  H   -0.027538   0.002683  -0.005429   0.002615  -0.000105   0.003563
    19  C    5.063780   0.371837   0.328380  -0.030739  -0.031142  -0.028557
    20  H    0.371837   0.549365  -0.036676   0.005364  -0.001455  -0.005811
    21  C    0.328380  -0.036676   5.180651   0.364605   0.378422   0.361643
    22  H   -0.030739   0.005364   0.364605   0.564246  -0.024557  -0.029792
    23  H   -0.031142  -0.001455   0.378422  -0.024557   0.514200  -0.024302
    24  H   -0.028557  -0.005811   0.361643  -0.029792  -0.024302   0.560933
    25  C    0.358189  -0.038029  -0.048114  -0.013059  -0.000221   0.005247
    26  O   -0.067025   0.005900   0.000277  -0.000015   0.000908  -0.000107
    27  N   -0.120610   0.006380   0.001321   0.006197   0.000038   0.000074
    28  H   -0.003256   0.000195  -0.000250   0.006022  -0.000082  -0.000226
    29  C    0.006739  -0.000143   0.000278   0.000050  -0.000119  -0.000001
    30  H    0.000064  -0.000001   0.000010   0.000009  -0.000001   0.000001
    31  C   -0.000651   0.000014  -0.000072  -0.000035   0.000090  -0.000002
    32  H   -0.000050   0.000000   0.000065   0.000046   0.000024   0.000001
    33  H    0.000007   0.000000   0.000000   0.000000  -0.000001   0.000000
    34  H    0.000528  -0.000003  -0.000075  -0.000002  -0.000010   0.000001
    35  C   -0.000014  -0.000001  -0.000047  -0.000041  -0.000003   0.000000
    36  O   -0.000054   0.000000  -0.000003  -0.000075   0.000001   0.000000
    37  N    0.000001   0.000000   0.000000  -0.000001   0.000000   0.000000
    38  H    0.000000   0.000000   0.000000   0.000000   0.000000   0.000000
    39  C    0.000000   0.000000   0.000000   0.000000   0.000000   0.000000
    40  H    0.000000   0.000000   0.000000   0.000000   0.000000   0.000000
    41  H    0.000000   0.000000   0.000000   0.000000   0.000000   0.000000
    42  H    0.000000   0.000000   0.000000   0.000000   0.000000   0.000000
             25         26         27         28         29         30
     1  H    0.000000   0.000000   0.000000   0.000000   0.000000   0.000000
     2  C    0.000000   0.000000   0.000000   0.000000   0.000000   0.000000
     3  H    0.000000   0.000000   0.000000   0.000000   0.000000   0.000000
     4  H    0.000000   0.000000   0.000000   0.000000   0.000000   0.000000
     5  C    0.000000   0.000000   0.000000   0.000000   0.000000   0.000000
     6  O    0.000000   0.000000   0.000000   0.000000   0.000000   0.000000
     7  N    0.000004   0.000000   0.000001   0.000001   0.000000   0.000000
     8  H    0.000002   0.000001   0.000000   0.000000   0.000000   0.000000
     9  C   -0.000229  -0.000024  -0.000100  -0.000111   0.000003   0.000001
    10  H    0.000012   0.000000  -0.000003   0.000002   0.000000   0.000000
    11  C   -0.000105   0.000001   0.000008   0.000190  -0.000003   0.000002
    12  H    0.000078   0.000000   0.000146   0.000130  -0.000001  -0.000004
    13  H   -0.000054   0.000000  -0.000004   0.000318  -0.000003   0.000000
    14  H   -0.000002   0.000000   0.000001   0.000001   0.000000   0.000000
    15  C   -0.002843  -0.000490   0.003220   0.000154  -0.000061  -0.000026
    16  O    0.007911  -0.001985  -0.001381  -0.000128   0.000002   0.000038
    17  N   -0.059733   0.001913   0.003818   0.006216  -0.000272  -0.000007
    18  H    0.002842  -0.000112  -0.000489  -0.000113   0.000024   0.000000
    19  C    0.358189  -0.067025  -0.120610  -0.003256   0.006739   0.000064
    20  H   -0.038029   0.005900   0.006380   0.000195  -0.000143  -0.000001
    21  C   -0.048114   0.000277   0.001321  -0.000250   0.000278   0.000010
    22  H   -0.013059  -0.000015   0.006197   0.006022   0.000050   0.000009
    23  H   -0.000221   0.000908   0.000038  -0.000082  -0.000119  -0.000001
    24  H    0.005247  -0.000107   0.000074  -0.000226  -0.000001   0.000001
    25  C    4.417774   0.563659   0.200266  -0.019406  -0.027463  -0.001499
    26  O    0.563659   8.113987  -0.110638   0.003281   0.012992   0.004735
    27  N    0.200266  -0.110638   7.228819   0.281954   0.256546  -0.047149
    28  H   -0.019406   0.003281   0.281954   0.392945  -0.051744   0.003774
    29  C   -0.027463   0.012992   0.256546  -0.051744   5.092914   0.370533
    30  H   -0.001499   0.004735  -0.047149   0.003774   0.370533   0.572878
    31  C   -0.005249  -0.018323  -0.056639   0.004700   0.348420  -0.049894
    32  H    0.000629  -0.000155   0.000357   0.000575  -0.037668   0.006164
    33  H    0.000373   0.000321   0.005248  -0.000130  -0.036242  -0.000036
    34  H    0.003452   0.023308  -0.010355  -0.000299  -0.021405  -0.006035
    35  C    0.006752   0.000781  -0.025542   0.000328   0.303998  -0.033205
    36  O    0.000755  -0.000004  -0.009215   0.033196  -0.089744   0.001248
    37  N   -0.000067  -0.000002   0.003359   0.001283  -0.121212   0.000722
    38  H    0.000002   0.000003   0.000053  -0.000053   0.000792   0.001069
    39  C    0.000002   0.000000  -0.000068  -0.000011   0.005782  -0.000267
    40  H    0.000000   0.000000   0.000000  -0.000033   0.001187  -0.000034
    41  H    0.000000   0.000000   0.000000   0.000000  -0.000193   0.000021
    42  H    0.000000   0.000000   0.000001   0.000000  -0.000033  -0.000006
             31         32         33         34         35         36
     1  H    0.000000   0.000000   0.000000   0.000000   0.000000   0.000000
     2  C    0.000000   0.000000   0.000000   0.000000   0.000000   0.000000
     3  H    0.000000   0.000000   0.000000   0.000000   0.000000   0.000000
     4  H    0.000000   0.000000   0.000000   0.000000   0.000000   0.000000
     5  C    0.000000   0.000000   0.000000   0.000000   0.000000   0.000000
     6  O    0.000000   0.000000   0.000000   0.000000   0.000000   0.000000
     7  N    0.000000   0.000000   0.000000   0.000000   0.000000   0.000000
     8  H    0.000000   0.000000   0.000000   0.000000   0.000000   0.000000
     9  C    0.000000   0.000000   0.000000   0.000000   0.000000   0.000000
    10  H    0.000000   0.000000   0.000000   0.000000   0.000000   0.000000
    11  C    0.000000   0.000000   0.000000   0.000000  -0.000001  -0.000006
    12  H    0.000000   0.000000   0.000000   0.000000   0.000013   0.000019
    13  H    0.000000   0.000000   0.000000   0.000000   0.000001   0.000005
    14  H    0.000000   0.000000   0.000000   0.000000   0.000000   0.000000
    15  C    0.000006   0.000000   0.000000   0.000000  -0.000014   0.000000
    16  O    0.000001   0.000000   0.000000   0.000001  -0.000001   0.000000
    17  N    0.000002   0.000000   0.000000  -0.000007  -0.000021  -0.000002
    18  H    0.000000   0.000000   0.000000   0.000000   0.000003  -0.000001
    19  C   -0.000651  -0.000050   0.000007   0.000528  -0.000014  -0.000054
    20  H    0.000014   0.000000   0.000000  -0.000003  -0.000001   0.000000
    21  C   -0.000072   0.000065   0.000000  -0.000075  -0.000047  -0.000003
    22  H   -0.000035   0.000046   0.000000  -0.000002  -0.000041  -0.000075
    23  H    0.000090   0.000024  -0.000001  -0.000010  -0.000003   0.000001
    24  H   -0.000002   0.000001   0.000000   0.000001   0.000000   0.000000
    25  C   -0.005249   0.000629   0.000373   0.003452   0.006752   0.000755
    26  O   -0.018323  -0.000155   0.000321   0.023308   0.000781  -0.000004
    27  N   -0.056639   0.000357   0.005248  -0.010355  -0.025542  -0.009215
    28  H    0.004700   0.000575  -0.000130  -0.000299   0.000328   0.033196
    29  C    0.348420  -0.037668  -0.036242  -0.021405   0.303998  -0.089744
    30  H   -0.049894   0.006164  -0.000036  -0.006035  -0.033205   0.001248
    31  C    5.202132   0.367584   0.351943   0.360317  -0.045128  -0.000619
    32  H    0.367584   0.565153  -0.026732  -0.026141  -0.002788   0.000982
    33  H    0.351943  -0.026732   0.601058  -0.021274  -0.007889  -0.000025
    34  H    0.360317  -0.026141  -0.021274   0.482656   0.003869  -0.000091
    35  C   -0.045128  -0.002788  -0.007889   0.003869   4.367739   0.597540
    36  O   -0.000619   0.000982  -0.000025  -0.000091   0.597540   8.091910
    37  N    0.002443  -0.000448   0.003383   0.000218   0.273166  -0.101426
    38  H    0.000670  -0.000101   0.007008  -0.000194  -0.021331   0.003603
    39  C    0.000014  -0.000073   0.000079   0.000005  -0.024419  -0.009048
    40  H   -0.000071  -0.000007  -0.000006   0.000001  -0.001309   0.020973
    41  H   -0.000005   0.000001   0.000004   0.000000   0.001308   0.000565
    42  H    0.000014   0.000002   0.000001  -0.000002   0.001368   0.000571
             37         38         39         40         41         42
     1  H    0.000000   0.000000   0.000000   0.000000   0.000000   0.000000
     2  C    0.000000   0.000000   0.000000   0.000000   0.000000   0.000000
     3  H    0.000000   0.000000   0.000000   0.000000   0.000000   0.000000
     4  H    0.000000   0.000000   0.000000   0.000000   0.000000   0.000000
     5  C    0.000000   0.000000   0.000000   0.000000   0.000000   0.000000
     6  O    0.000000   0.000000   0.000000   0.000000   0.000000   0.000000
     7  N    0.000000   0.000000   0.000000   0.000000   0.000000   0.000000
     8  H    0.000000   0.000000   0.000000   0.000000   0.000000   0.000000
     9  C    0.000000   0.000000   0.000000   0.000000   0.000000   0.000000
    10  H    0.000000   0.000000   0.000000   0.000000   0.000000   0.000000
    11  C    0.000000   0.000000   0.000000   0.000000   0.000000   0.000000
    12  H    0.000000   0.000000   0.000000   0.000000   0.000000   0.000000
    13  H    0.000000   0.000000   0.000000   0.000000   0.000000   0.000000
    14  H    0.000000   0.000000   0.000000   0.000000   0.000000   0.000000
    15  C    0.000000   0.000000   0.000000   0.000000   0.000000   0.000000
    16  O    0.000000   0.000000   0.000000   0.000000   0.000000   0.000000
    17  N    0.000000   0.000000   0.000000   0.000000   0.000000   0.000000
    18  H    0.000000   0.000000   0.000000   0.000000   0.000000   0.000000
    19  C    0.000001   0.000000   0.000000   0.000000   0.000000   0.000000
    20  H    0.000000   0.000000   0.000000   0.000000   0.000000   0.000000
    21  C    0.000000   0.000000   0.000000   0.000000   0.000000   0.000000
    22  H   -0.000001   0.000000   0.000000   0.000000   0.000000   0.000000
    23  H    0.000000   0.000000   0.000000   0.000000   0.000000   0.000000
    24  H    0.000000   0.000000   0.000000   0.000000   0.000000   0.000000
    25  C   -0.000067   0.000002   0.000002   0.000000   0.000000   0.000000
    26  O   -0.000002   0.000003   0.000000   0.000000   0.000000   0.000000
    27  N    0.003359   0.000053  -0.000068   0.000000   0.000000   0.000001
    28  H    0.001283  -0.000053  -0.000011  -0.000033   0.000000   0.000000
    29  C   -0.121212   0.000792   0.005782   0.001187  -0.000193  -0.000033
    30  H    0.000722   0.001069  -0.000267  -0.000034   0.000021  -0.000006
    31  C    0.002443   0.000670   0.000014  -0.000071  -0.000005   0.000014
    32  H   -0.000448  -0.000101  -0.000073  -0.000007   0.000001   0.000002
    33  H    0.003383   0.007008   0.000079  -0.000006   0.000004   0.000001
    34  H    0.000218  -0.000194   0.000005   0.000001   0.000000  -0.000002
    35  C    0.273166  -0.021331  -0.024419  -0.001309   0.001308   0.001368
    36  O   -0.101426   0.003603  -0.009048   0.020973   0.000565   0.000571
    37  N    7.082277   0.303302   0.265656  -0.036701  -0.043184  -0.044295
[...]
    29  C   -0.000002   0.000000  -0.000094   0.000010  -0.000233   0.000020
    30  H    0.000000   0.000000  -0.000049   0.000024  -0.000074   0.000002
    31  C    0.000000   0.000000   0.000003   0.000000  -0.000001   0.000000
    32  H    0.000000   0.000000   0.000000   0.000000   0.000000   0.000000
    33  H    0.000000   0.000000   0.000000   0.000000   0.000000   0.000000
    34  H    0.000000   0.000000   0.000000   0.000000  -0.000001   0.000000
    35  C   -0.000001   0.000000   0.000062   0.000009  -0.000044   0.000003
    36  O    0.000133   0.000011   0.000048  -0.000001  -0.000064  -0.000005
    37  N    0.000000   0.000000   0.000000   0.000000   0.000000   0.000000
    38  H    0.000000   0.000000   0.000000   0.000000   0.000000   0.000000
    39  C    0.000000   0.000000   0.000000   0.000000   0.000000   0.000000
    40  H    0.000000   0.000000   0.000000   0.000000   0.000000   0.000000
    41  H    0.000000   0.000000   0.000000   0.000000   0.000000   0.000000
    42  H    0.000000   0.000000   0.000000   0.000000   0.000000   0.000000
             19         20         21         22         23         24
     1  H    0.000000   0.000000   0.000000   0.000000   0.000000   0.000000
     2  C    0.000000   0.000000   0.000000   0.000000   0.000000   0.000000
     3  H    0.000000   0.000000   0.000000   0.000000   0.000000   0.000000
     4  H    0.000000   0.000000   0.000000   0.000000   0.000000   0.000000
     5  C    0.000001   0.000000   0.000000   0.000000   0.000000   0.000000
     6  O    0.000000   0.000000   0.000000   0.000000   0.000000   0.000000
     7  N   -0.000080   0.000000   0.000001   0.000000   0.000000   0.000000
     8  H   -0.000048  -0.000005   0.000000   0.000000   0.000000   0.000000
     9  C    0.006418   0.000130  -0.000206  -0.000004   0.000003  -0.000005
    10  H   -0.000204  -0.000012  -0.000012   0.000001   0.000000   0.000000
    11  C   -0.000079  -0.000005  -0.000002  -0.000003   0.000000   0.000000
    12  H   -0.000079  -0.000001  -0.000001   0.000000   0.000000   0.000000
    13  H    0.000058   0.000003  -0.000018   0.000011   0.000000  -0.000003
    14  H    0.000002   0.000000   0.000000   0.000000   0.000000   0.000000
    15  C   -0.024831  -0.002212   0.005133  -0.000115  -0.000040  -0.000120
    16  O    0.005836   0.004517   0.000464  -0.000009   0.000004  -0.000002
    17  N    0.205892  -0.047148  -0.038489  -0.003476   0.003732  -0.002661
    18  H   -0.027239   0.002691  -0.003983   0.002445  -0.000092   0.002875
    19  C    5.071675   0.365790   0.340175  -0.027934  -0.030218  -0.028386
    20  H    0.365790   0.556248  -0.033815   0.004859  -0.001264  -0.005764
    21  C    0.340175  -0.033815   5.148172   0.366057   0.375982   0.365687
    22  H   -0.027934   0.004859   0.366057   0.558660  -0.025430  -0.031691
    23  H   -0.030218  -0.001264   0.375982  -0.025430   0.519467  -0.025634
    24  H   -0.028386  -0.005764   0.365687  -0.031691  -0.025634   0.561171
    25  C    0.343099  -0.042658  -0.037638  -0.009698   0.000236   0.004156
    26  O   -0.065021   0.007508  -0.000487  -0.000026   0.001093  -0.000089
    27  N   -0.116388   0.006605   0.000724   0.005967   0.000015   0.000032
    28  H   -0.005120   0.000293  -0.000299   0.002023  -0.000018  -0.000097
    29  C    0.006331  -0.000171  -0.000022  -0.000073  -0.000072   0.000004
    30  H    0.000998  -0.000020  -0.000007   0.000004  -0.000005   0.000001
    31  C   -0.000356   0.000004   0.000014  -0.000002   0.000019  -0.000001
    32  H    0.000002   0.000000   0.000001   0.000019   0.000000   0.000000
    33  H    0.000005   0.000000   0.000000   0.000000   0.000000   0.000000
    34  H    0.000024   0.000000  -0.000011   0.000003   0.000003   0.000000
    35  C   -0.000027  -0.000001  -0.000013  -0.000015   0.000000   0.000000
    36  O   -0.000078   0.000000   0.000007  -0.000020   0.000000   0.000000
    37  N    0.000001   0.000000   0.000000   0.000000   0.000000   0.000000
    38  H    0.000000   0.000000   0.000000   0.000000   0.000000   0.000000
    39  C    0.000000   0.000000   0.000000   0.000000   0.000000   0.000000
    40  H    0.000000   0.000000   0.000000   0.000000   0.000000   0.000000
    41  H    0.000000   0.000000   0.000000   0.000000   0.000000   0.000000
    42  H    0.000000   0.000000   0.000000   0.000000   0.000000   0.000000
             25         26         27         28         29         30
     1  H    0.000000   0.000000   0.000000   0.000000   0.000000   0.000000
     2  C    0.000000   0.000000   0.000000   0.000000   0.000000   0.000000
     3  H    0.000000   0.000000   0.000000   0.000000   0.000000   0.000000
     4  H    0.000000   0.000000   0.000000   0.000000   0.000000   0.000000
     5  C    0.000000   0.000000   0.000000   0.000000   0.000000   0.000000
     6  O    0.000000   0.000000   0.000000   0.000000   0.000000   0.000000
     7  N    0.000003   0.000000   0.000000   0.000002   0.000000   0.000000
     8  H   -0.000002   0.000001   0.000000   0.000000   0.000000   0.000000
     9  C   -0.000145  -0.000012  -0.000044  -0.000221   0.000007   0.000000
    10  H    0.000006   0.000000  -0.000002   0.000002   0.000000   0.000000
    11  C   -0.000036   0.000000  -0.000013   0.000362  -0.000010   0.000001
    12  H    0.000041   0.000000   0.000022   0.000165  -0.000008  -0.000007
    13  H   -0.000019   0.000000  -0.000034   0.000388  -0.000002   0.000000
    14  H   -0.000001   0.000000   0.000000   0.000004   0.000000   0.000000
    15  C   -0.000657  -0.000345   0.002005   0.000607  -0.000094  -0.000049
    16  O    0.008855  -0.001408  -0.000900  -0.000245   0.000010   0.000024
    17  N   -0.051705   0.002188   0.003485   0.010168  -0.000233  -0.000074
    18  H    0.002136  -0.000085  -0.000319  -0.000031   0.000020   0.000002
    19  C    0.343099  -0.065021  -0.116388  -0.005120   0.006331   0.000998
    20  H   -0.042658   0.007508   0.006605   0.000293  -0.000171  -0.000020
    21  C   -0.037638  -0.000487   0.000724  -0.000299  -0.000022  -0.000007
    22  H   -0.009698  -0.000026   0.005967   0.002023  -0.000073   0.000004
    23  H    0.000236   0.001093   0.000015  -0.000018  -0.000072  -0.000005
    24  H    0.004156  -0.000089   0.000032  -0.000097   0.000004   0.000001
    25  C    4.407626   0.571820   0.223641  -0.017660  -0.019702   0.000089
    26  O    0.571820   8.075686  -0.103091   0.002712   0.003435   0.016604
    27  N    0.223641  -0.103091   7.191812   0.276255   0.272176  -0.052557
    28  H   -0.017660   0.002712   0.276255   0.391704  -0.055691   0.004549
    29  C   -0.019702   0.003435   0.272176  -0.055691   5.091133   0.368068
    30  H    0.000089   0.016604  -0.052557   0.004549   0.368068   0.552265
    31  C   -0.003022  -0.002261  -0.055403   0.003585   0.347693  -0.046834
    32  H    0.000209  -0.000024  -0.000387   0.000903  -0.033273   0.005094
    33  H    0.000010  -0.000016   0.004673  -0.000135  -0.029857   0.000247
    34  H    0.002224   0.003209  -0.005851  -0.000203  -0.023881  -0.004194
    35  C    0.004534   0.000583  -0.035549  -0.002966   0.311731  -0.030249
    36  O    0.000789  -0.000006  -0.017452   0.041338  -0.080311   0.001707
    37  N    0.000005  -0.000001   0.002846   0.001729  -0.112501   0.000519
    38  H   -0.000007   0.000000   0.000071  -0.000073   0.001703   0.001668
    39  C    0.000001   0.000000  -0.000101  -0.000017   0.005585  -0.000117
    40  H    0.000000   0.000000   0.000008  -0.000046   0.001061  -0.000028
    41  H    0.000000   0.000000   0.000002   0.000000  -0.000158   0.000007
    42  H    0.000000   0.000000   0.000001   0.000000  -0.000088  -0.000006
             31         32         33         34         35         36
     1  H    0.000000   0.000000   0.000000   0.000000   0.000000   0.000000
     2  C    0.000000   0.000000   0.000000   0.000000   0.000000   0.000000
     3  H    0.000000   0.000000   0.000000   0.000000   0.000000   0.000000
     4  H    0.000000   0.000000   0.000000   0.000000   0.000000   0.000000
     5  C    0.000000   0.000000   0.000000   0.000000   0.000000   0.000000
     6  O    0.000000   0.000000   0.000000   0.000000   0.000000   0.000000
     7  N    0.000000   0.000000   0.000000   0.000000   0.000000   0.000000
     8  H    0.000000   0.000000   0.000000   0.000000   0.000000   0.000000
     9  C    0.000000   0.000000   0.000000   0.000000  -0.000004  -0.000016
    10  H    0.000000   0.000000   0.000000   0.000000   0.000000   0.000000
    11  C    0.000000   0.000000   0.000000   0.000000   0.000020  -0.000584
    12  H    0.000001   0.000000   0.000000   0.000000   0.000366   0.003020
    13  H    0.000000   0.000000   0.000000   0.000000  -0.000001   0.000133
    14  H    0.000000   0.000000   0.000000   0.000000   0.000000   0.000011
    15  C    0.000003   0.000000   0.000000   0.000000   0.000062   0.000048
    16  O    0.000000   0.000000   0.000000   0.000000   0.000009  -0.000001
    17  N   -0.000001   0.000000   0.000000  -0.000001  -0.000044  -0.000064
    18  H    0.000000   0.000000   0.000000   0.000000   0.000003  -0.000005
    19  C   -0.000356   0.000002   0.000005   0.000024  -0.000027  -0.000078
    20  H    0.000004   0.000000   0.000000   0.000000  -0.000001   0.000000
    21  C    0.000014   0.000001   0.000000  -0.000011  -0.000013   0.000007
    22  H   -0.000002   0.000019   0.000000   0.000003  -0.000015  -0.000020
    23  H    0.000019   0.000000   0.000000   0.000003   0.000000   0.000000
    24  H   -0.000001   0.000000   0.000000   0.000000   0.000000   0.000000
    25  C   -0.003022   0.000209   0.000010   0.002224   0.004534   0.000789
    26  O   -0.002261  -0.000024  -0.000016   0.003209   0.000583  -0.000006
    27  N   -0.055403  -0.000387   0.004673  -0.005851  -0.035549  -0.017452
    28  H    0.003585   0.000903  -0.000135  -0.000203  -0.002966   0.041338
    29  C    0.347693  -0.033273  -0.029857  -0.023881   0.311731  -0.080311
    30  H   -0.046834   0.005094   0.000247  -0.004194  -0.030249   0.001707
    31  C    5.132794   0.371572   0.354882   0.370561  -0.037979  -0.001226
    32  H    0.371572   0.555623  -0.027867  -0.028064  -0.003730   0.001217
    33  H    0.354882  -0.027867   0.587092  -0.026462  -0.003545  -0.000003
    34  H    0.370561  -0.028064  -0.026462   0.528971   0.003721  -0.000083
    35  C   -0.037979  -0.003730  -0.003545   0.003721   4.372801   0.570464
    36  O   -0.001226   0.001217  -0.000003  -0.000083   0.570464   8.091270
    37  N    0.001589  -0.000041   0.003263   0.000053   0.286565  -0.092843
    38  H    0.000486  -0.000025   0.002406  -0.000099  -0.022520   0.003310
    39  C   -0.000206  -0.000012  -0.000026   0.000005  -0.022708  -0.007260
    40  H   -0.000046  -0.000006  -0.000002   0.000001  -0.001458   0.019410
    41  H   -0.000004   0.000000   0.000004   0.000000   0.000267   0.000442
    42  H    0.000027  -0.000002  -0.000014  -0.000001   0.001944   0.000435
             37         38         39         40         41         42
     1  H    0.000000   0.000000   0.000000   0.000000   0.000000   0.000000
     2  C    0.000000   0.000000   0.000000   0.000000   0.000000   0.000000
     3  H    0.000000   0.000000   0.000000   0.000000   0.000000   0.000000
     4  H    0.000000   0.000000   0.000000   0.000000   0.000000   0.000000
     5  C    0.000000   0.000000   0.000000   0.000000   0.000000   0.000000
     6  O    0.000000   0.000000   0.000000   0.000000   0.000000   0.000000
     7  N    0.000000   0.000000   0.000000   0.000000   0.000000   0.000000
     8  H    0.000000   0.000000   0.000000   0.000000   0.000000   0.000000
     9  C    0.000000   0.000000   0.000000   0.000000   0.000000   0.000000
    10  H    0.000000   0.000000   0.000000   0.000000   0.000000   0.000000
    11  C    0.000002   0.000000  -0.000001  -0.000001   0.000000   0.000000
    12  H   -0.000031  -0.000001   0.000010   0.000011   0.000003   0.000000
    13  H    0.000000   0.000000   0.000000   0.000000   0.000000   0.000000
    14  H    0.000000   0.000000   0.000000   0.000000   0.000000   0.000000
    15  C    0.000000   0.000000   0.000000   0.000000   0.000000   0.000000
    16  O    0.000000   0.000000   0.000000   0.000000   0.000000   0.000000
    17  N    0.000000   0.000000   0.000000   0.000000   0.000000   0.000000
    18  H    0.000000   0.000000   0.000000   0.000000   0.000000   0.000000
    19  C    0.000001   0.000000   0.000000   0.000000   0.000000   0.000000
    20  H    0.000000   0.000000   0.000000   0.000000   0.000000   0.000000
    21  C    0.000000   0.000000   0.000000   0.000000   0.000000   0.000000
    22  H    0.000000   0.000000   0.000000   0.000000   0.000000   0.000000
    23  H    0.000000   0.000000   0.000000   0.000000   0.000000   0.000000
    24  H    0.000000   0.000000   0.000000   0.000000   0.000000   0.000000
    25  C    0.000005  -0.000007   0.000001   0.000000   0.000000   0.000000
    26  O   -0.000001   0.000000   0.000000   0.000000   0.000000   0.000000
    27  N    0.002846   0.000071  -0.000101   0.000008   0.000002   0.000001
    28  H    0.001729  -0.000073  -0.000017  -0.000046   0.000000   0.000000
    29  C   -0.112501   0.001703   0.005585   0.001061  -0.000158  -0.000088
    30  H    0.000519   0.001668  -0.000117  -0.000028   0.000007  -0.000006
    31  C    0.001589   0.000486  -0.000206  -0.000046  -0.000004   0.000027
    32  H   -0.000041  -0.000025  -0.000012  -0.000006   0.000000  -0.000002
    33  H    0.003263   0.002406  -0.000026  -0.000002   0.000004  -0.000014
    34  H    0.000053  -0.000099   0.000005   0.000001   0.000000  -0.000001
    35  C    0.286565  -0.022520  -0.022708  -0.001458   0.000267   0.001944
    36  O   -0.092843   0.003310  -0.007260   0.019410   0.000442   0.000435
    37  N    7.045843   0.306557   0.264963  -0.038954  -0.041037  -0.040334
    38  H    0.306557   0.402802  -0.031668   0.004003  -0.000942  -0.000869
    39  C    0.264963  -0.031668   4.963375   0.378226   0.383369   0.380129
    40  H   -0.038954   0.004003   0.378226   0.479493  -0.025157  -0.023575
    41  H   -0.041037  -0.000942   0.383369  -0.025157   0.556667  -0.039280
    42  H   -0.040334  -0.000869   0.380129  -0.023575  -0.039280   0.559269
 Mulliken atomic charges:
              1
     1  H    0.181270
     2  C   -0.533240
     3  H    0.181537
     4  H    0.148717
     5  C    0.595231
     6  O   -0.524660
     7  N   -0.604515
     8  H    0.347821
     9  C   -0.036988
    10  H    0.170916
    11  C   -0.447275
    12  H    0.168770
    13  H    0.133316
    14  H    0.189322
    15  C    0.615337
    16  O   -0.518998
    17  N   -0.630554
    18  H    0.332128
    19  C   -0.020218
    20  H    0.184429
    21  C   -0.487414
    22  H    0.158444
    23  H    0.182217
    24  H    0.160527
    25  C    0.613470
    26  O   -0.511969
    27  N   -0.602252
    28  H    0.346032
    29  C   -0.052812
    30  H    0.182298
    31  C   -0.435887
    32  H    0.158791
    33  H    0.135346
    34  H    0.180073
    35  C    0.607743
    36  O   -0.533650
    37  N   -0.588192
    38  H    0.333195
    39  C   -0.313547
    40  H    0.207062
    41  H    0.165815
    42  H    0.162365
 Sum of Mulliken atomic charges =   0.00000
 Mulliken charges with hydrogens summed into heavy atoms:
              1
     2  C   -0.021717
     5  C    0.595231
     6  O   -0.524660
     7  N   -0.256694
     9  C    0.133928
    11  C    0.044133
    15  C    0.615337
    16  O   -0.518998
    17  N   -0.298426
    19  C    0.164211
    21  C    0.013775
    25  C    0.613470
    26  O   -0.511969
    27  N   -0.256221
    29  C    0.129487
    31  C    0.038323
    35  C    0.607743
    36  O   -0.533650
    37  N   -0.254997
    39  C    0.221694
 Sum of Mulliken charges with hydrogens summed into heavy atoms =   0.00000
 Electronic spatial extent (au):  <R**2>=           7683.5661
 Charge=              0.0000 electrons
 Dipole moment (field-independent basis, Debye):
    X=              4.4085    Y=              1.4581    Z=             -0.5912  Tot=              4.6809
 Quadrupole moment (field-independent basis, Debye-Ang):
   XX=           -121.0981   YY=           -105.5771   ZZ=           -124.5694
   XY=             13.3157   XZ=             -8.1728   YZ=             17.9403
 Traceless Quadrupole moment (field-independent basis, Debye-Ang):
   XX=             -4.0165   YY=             11.5044   ZZ=             -7.4878
   XY=             13.3157   XZ=             -8.1728   YZ=             17.9403
 Octapole moment (field-independent basis, Debye-Ang**2):
  XXX=            145.7863  YYY=             26.7792  ZZZ=             -8.6415  XYY=             23.4993
  XXY=             34.6019  XXZ=             86.9059  XZZ=             -4.5962  YZZ=             10.4723
  YYZ=             -8.4894  XYZ=              8.4963
 Hexadecapole moment (field-independent basis, Debye-Ang**3):
 XXXX=          -6839.2903 YYYY=          -2360.7411 ZZZZ=           -768.8781 XXXY=            206.4929
 XXXZ=           -309.6204 YYYX=            128.9243 YYYZ=             37.3633 ZZZX=             -0.6562
 ZZZY=             37.8843 XXYY=          -1395.5955 XXZZ=          -1248.3915 YYZZ=           -576.3927
 XXYZ=            129.0724 YYXZ=              2.6348 ZZXY=             39.5860
 N-N= 1.649775189084D+03 E-N=-5.609000125300D+03  KE= 9.813299543506D+02
 1\1\GINC-NODE007\FOpt\RB3LYP\6-31G(d)\C12H22N4O4\MANAGER\30-Dec-2016\0
 \\# b3lyp/6-31G* Opt=(ModRedundant, maxcycles=1000, calcfc) geom=nocro
 wd\\Phi Psi fixed scan\\0,1\H,8.5534276936,1.2471094311,-2.6571181988\
 C,7.9161439353,2.0685195834,-2.9991499624\H,7.1907649983,1.646508402,-
 3.7017783644\H,8.5341284492,2.8047076468,-3.522164658\C,7.1661880305,2
 .6387761056,-1.8040836979\O,6.4318134935,1.946265767,-1.104310953\N,7.
 3724722921,3.9631343672,-1.5590173864\H,7.8824281218,4.557011772,-2.20
 33573618\C,6.6532810546,4.6684752463,-0.5170621409\H,5.6132030411,4.31
 51495598,-0.5167455213\C,7.2526744646,4.4124087379,0.8808337039\H,8.26
 28019125,4.8268114081,0.9582919362\H,6.6405303277,4.8642543942,1.66980
 8856\H,7.2869496657,3.3338991127,1.0520446137\C,6.6931338848,6.1613412
 76,-0.8847528427\O,7.399713767,6.5910701917,-1.7915282982\N,5.92411390
 29,6.9742102649,-0.1092760491\H,5.3222326214,6.5524816024,0.5852996696
 \C,5.8481483322,8.424119604,-0.3022009167\H,5.5688897124,8.624767905,-
 1.3417050359\C,4.8045695002,9.0228140599,0.6429721589\H,5.0620926682,8
 .8448212816,1.6929399696\H,4.7430459819,10.1039819613,0.4905393301\H,3
 .815175949,8.5946532571,0.444968666\C,7.2271470674,9.1052893856,-0.145
 351617\O,7.6712957055,9.8550255146,-1.0025540589\N,7.812439666,8.93402
 41152,1.0803033315\H,7.5545717148,8.1211796678,1.6349510063\C,9.183913
 0995,9.3591481962,1.3068458239\H,9.6638364581,9.4769803564,0.327458356
 4\C,9.2426080623,10.7063690709,2.0499148727\H,8.7626993736,10.62675230
 12,3.0308877423\H,10.2751192787,11.0436788457,2.1961144952\H,8.7145138
 66,11.4611888779,1.4606612742\C,9.8839245521,8.2366510823,2.0959822531
 \O,9.2438252839,7.3265509156,2.621225703\N,11.2349392064,8.347264792,2
 .1813456553\H,11.6873353708,9.0956063619,1.6753422676\C,12.0657691108,
 7.3908994019,2.8946978477\H,11.3999484234,6.6884336465,3.3968482123\H,
 12.7150531482,6.8375973278,2.2060934783\H,12.6882368123,7.8963672023,3
 .6412858393\\Version=EM64L-G09RevA.02\State=1-A\HF=-990.501651\RMSD=6.
 722e-09\RMSF=1.429e-03\Dipole=0.9168942,1.0852516,1.1717653\Quadrupole
 =17.8642802,-14.8543046,-3.0099757,-2.9715193,1.8459246,9.0945804\PG=C
 01 [X(C12H22N4O4)]\\@


 One man practicing sportsmanship is far better than 50 preaching it.
 -- Knute K. Rockne
 Job cpu time:  0 days  3 hours 49 minutes 17.1 seconds.
 File lengths (MBytes):  RWF=    608 Int=      0 D2E=      0 Chk=     11 Scr=      1
 Normal termination of Gaussian 09 at Fri Dec 30 01:09:08 2016.
