 Entering Gaussian System, Link 0=g09
 Initial command:
 /home/steboss/Software/g09/l1.exe /tmp/Gau-12810.inp -scrdir=/tmp/
 Entering Link 1 = /home/steboss/Software/g09/l1.exe PID=     12812.
  
 Copyright (c) 1988,1990,1992,1993,1995,1998,2003,2009, Gaussian, Inc.
                  All Rights Reserved.
  
 This is part of the Gaussian(R) 09 program.  It is based on
 the Gaussian(R) 03 system (copyright 2003, Gaussian, Inc.),
 the Gaussian(R) 98 system (copyright 1998, Gaussian, Inc.),
 the Gaussian(R) 94 system (copyright 1995, Gaussian, Inc.),
 the Gaussian 92(TM) system (copyright 1992, Gaussian, Inc.),
 the Gaussian 90(TM) system (copyright 1990, Gaussian, Inc.),
 the Gaussian 88(TM) system (copyright 1988, Gaussian, Inc.),
 the Gaussian 86(TM) system (copyright 1986, Carnegie Mellon
 University), and the Gaussian 82(TM) system (copyright 1983,
 Carnegie Mellon University). Gaussian is a federally registered
 trademark of Gaussian, Inc.
  
 This software contains proprietary and confidential information,
 including trade secrets, belonging to Gaussian, Inc.
  
 This software is provided under written license and may be
 used, copied, transmitted, or stored only in accord with that
 written license.
  
 The following legend is applicable only to US Government
 contracts under FAR:
  
                    RESTRICTED RIGHTS LEGEND
  
 Use, reproduction and disclosure by the US Government is
 subject to restrictions as set forth in subparagraphs (a)
 and (c) of the Commercial Computer Software - Restricted
 Rights clause in FAR 52.227-19.
  
 Gaussian, Inc.
 340 Quinnipiac St., Bldg. 40, Wallingford CT 06492
  
  
 ---------------------------------------------------------------
 Warning -- This program may not be used in any manner that
 competes with the business of Gaussian, Inc. or will provide
 assistance to any competitor of Gaussian, Inc.  The licensee
 of this program is prohibited from giving any competitor of
 Gaussian, Inc. access to this program.  By using this program,
 the user acknowledges that Gaussian, Inc. is engaged in the
 business of creating and licensing software in the field of
 computational chemistry and represents and warrants to the
 licensee that it is not a competitor of Gaussian, Inc. and that
 it will not use this program in any manner prohibited above.
 ---------------------------------------------------------------
  

 Cite this work as:
 Gaussian 09, Revision A.02,
 M. J. Frisch, G. W. Trucks, H. B. Schlegel, G. E. Scuseria, 
 M. A. Robb, J. R. Cheeseman, G. Scalmani, V. Barone, B. Mennucci, 
 G. A. Petersson, H. Nakatsuji, M. Caricato, X. Li, H. P. Hratchian, 
 A. F. Izmaylov, J. Bloino, G. Zheng, J. L. Sonnenberg, M. Hada, 
 M. Ehara, K. Toyota, R. Fukuda, J. Hasegawa, M. Ishida, T. Nakajima, 
 Y. Honda, O. Kitao, H. Nakai, T. Vreven, J. A. Montgomery, Jr., 
 J. E. Peralta, F. Ogliaro, M. Bearpark, J. J. Heyd, E. Brothers, 
 K. N. Kudin, V. N. Staroverov, R. Kobayashi, J. Normand, 
 K. Raghavachari, A. Rendell, J. C. Burant, S. S. Iyengar, J. Tomasi, 
 M. Cossi, N. Rega, J. M. Millam, M. Klene, J. E. Knox, J. B. Cross, 
 V. Bakken, C. Adamo, J. Jaramillo, R. Gomperts, R. E. Stratmann, 
 O. Yazyev, A. J. Austin, R. Cammi, C. Pomelli, J. W. Ochterski, 
 R. L. Martin, K. Morokuma, V. G. Zakrzewski, G. A. Voth, 
 P. Salvador, J. J. Dannenberg, S. Dapprich, A. D. Daniels, 
 O. Farkas, J. B. Foresman, J. V. Ortiz, J. Cioslowski, 
 and D. J. Fox, Gaussian, Inc., Wallingford CT, 2009.
 
 ******************************************
 Gaussian 09:  EM64L-G09RevA.02 11-Jun-2009
                10-Feb-2017 
 ******************************************
 %chk=structure_195.chk
 %NProcShared=8
 Will use up to    8 processors via shared memory.
 -------------------------------------------
 # HF/6-31G* Opt=(ModRedundant) geom=nocrowd
 -------------------------------------------
 1/18=120,19=15,38=1/1,3;
 2/9=110,12=1,17=6,18=5,40=1/2;
 3/5=1,6=6,7=1,11=9,16=1,25=1,30=1,71=1/1,2,3;
 4//1;
 5/5=2,38=5/2;
 6/7=2,8=2,9=2,10=2,28=1/1;
 7//1,2,3,16;
 1/18=20,19=15/3(2);
 2/9=110,12=1/2;
 99//99;
 2/9=110,12=1/2;
 3/5=1,6=6,7=1,11=9,16=1,25=1,30=1,71=1/1,2,3;
 4/5=5,16=3/1;
 5/5=2,38=5/2;
 7//1,2,3,16;
 1/18=20,19=15/3(-5);
 2/9=110,12=1/2;
 6/7=2,8=2,9=2,10=2,19=2,28=1/1;
 99/9=1/99;
 ------------------
 Phi Psi fixed scan
 ------------------
 Symbolic Z-matrix:
 Charge =  0 Multiplicity = 1
 H                     1.7437    1.5164    1.3919 
 C                     1.8708    2.3503    0.7015 
 H                     1.1495    3.1323    0.9387 
 H                     1.709     2.0051   -0.3197 
 C                     3.2798    2.9381    0.8014 
 O                     4.0982    2.4665    1.5877 
 N                     3.5554    3.9697    0. 
 H                     2.8491    4.3224   -0.63 
 C                     4.8533    4.6139    0. 
 H                     5.4076    4.3155    0.8898 
 C                     5.6613    4.2208   -1.2322 
 H                     5.1233    4.5214   -2.1312 
 H                     6.6305    4.7189   -1.2058 
 H                     5.8085    3.1409   -1.2414 
 C                     4.7127    6.1294    0. 
 O                     3.6366    6.656     0.2741 
 N                     5.8056    6.8311   -0.3089 
 H                     6.6679    6.3528   -0.5272 
 C                     5.801     8.2797   -0.3436 
 H                     4.8071    8.6467   -0.0875 
 H                     6.5256    8.6631    0.3748 
 H                     6.0669    8.6206   -1.3442 
 
 The following ModRedundant input section has been read:
 D    5    7    9   15 F                                                       
 D    7    9   15   17 F                                                       

 GradGradGradGradGradGradGradGradGradGradGradGradGradGradGradGradGradGrad
 Berny optimization.
 Initialization pass.
                           ----------------------------
                           !    Initial Parameters    !
                           ! (Angstroms and Degrees)  !
 --------------------------                            --------------------------
 ! Name  Definition              Value          Derivative Info.                !
 --------------------------------------------------------------------------------
 ! R1    R(1,2)                  1.09           estimate D2E/DX2                !
 ! R2    R(2,3)                  1.09           estimate D2E/DX2                !
 ! R3    R(2,4)                  1.09           estimate D2E/DX2                !
 ! R4    R(2,5)                  1.53           estimate D2E/DX2                !
 ! R5    R(5,6)                  1.229          estimate D2E/DX2                !
 ! R6    R(5,7)                  1.3351         estimate D2E/DX2                !
 ! R7    R(7,8)                  1.01           estimate D2E/DX2                !
 ! R8    R(7,9)                  1.449          estimate D2E/DX2                !
 ! R9    R(9,10)                 1.09           estimate D2E/DX2                !
 ! R10   R(9,11)                 1.525          estimate D2E/DX2                !
 ! R11   R(9,15)                 1.522          estimate D2E/DX2                !
 ! R12   R(11,12)                1.09           estimate D2E/DX2                !
 ! R13   R(11,13)                1.09           estimate D2E/DX2                !
 ! R14   R(11,14)                1.0899         estimate D2E/DX2                !
 ! R15   R(15,16)                1.229          estimate D2E/DX2                !
 ! R16   R(15,17)                1.335          estimate D2E/DX2                !
 ! R17   R(17,18)                1.0099         estimate D2E/DX2                !
 ! R18   R(17,19)                1.449          estimate D2E/DX2                !
 ! R19   R(19,20)                1.09           estimate D2E/DX2                !
 ! R20   R(19,21)                1.09           estimate D2E/DX2                !
 ! R21   R(19,22)                1.09           estimate D2E/DX2                !
 ! A1    A(1,2,3)              109.5033         estimate D2E/DX2                !
 ! A2    A(1,2,4)              109.4991         estimate D2E/DX2                !
 ! A3    A(1,2,5)              111.0965         estimate D2E/DX2                !
 ! A4    A(3,2,4)              109.4419         estimate D2E/DX2                !
 ! A5    A(3,2,5)              108.6381         estimate D2E/DX2                !
 ! A6    A(4,2,5)              108.6351         estimate D2E/DX2                !
 ! A7    A(2,5,6)              120.5047         estimate D2E/DX2                !
 ! A8    A(2,5,7)              116.6015         estimate D2E/DX2                !
 ! A9    A(6,5,7)              122.8938         estimate D2E/DX2                !
 ! A10   A(5,7,8)              119.9924         estimate D2E/DX2                !
 ! A11   A(5,7,9)              121.9002         estimate D2E/DX2                !
 ! A12   A(8,7,9)              118.1074         estimate D2E/DX2                !
 ! A13   A(7,9,10)             109.5            estimate D2E/DX2                !
 ! A14   A(7,9,11)             111.0992         estimate D2E/DX2                !
 ! A15   A(7,9,15)             111.0966         estimate D2E/DX2                !
 ! A16   A(10,9,11)            108.6382         estimate D2E/DX2                !
 ! A17   A(10,9,15)            108.6373         estimate D2E/DX2                !
 ! A18   A(11,9,15)            107.7947         estimate D2E/DX2                !
 ! A19   A(9,11,12)            109.5007         estimate D2E/DX2                !
 ! A20   A(9,11,13)            109.4959         estimate D2E/DX2                !
 ! A21   A(9,11,14)            109.4978         estimate D2E/DX2                !
 ! A22   A(12,11,13)           109.441          estimate D2E/DX2                !
 ! A23   A(12,11,14)           109.4482         estimate D2E/DX2                !
 ! A24   A(13,11,14)           109.4436         estimate D2E/DX2                !
 ! A25   A(9,15,16)            120.4997         estimate D2E/DX2                !
 ! A26   A(9,15,17)            116.599          estimate D2E/DX2                !
 ! A27   A(16,15,17)           122.9013         estimate D2E/DX2                !
 ! A28   A(15,17,18)           120.0038         estimate D2E/DX2                !
 ! A29   A(15,17,19)           121.8978         estimate D2E/DX2                !
 ! A30   A(18,17,19)           118.0984         estimate D2E/DX2                !
 ! A31   A(17,19,20)           109.5036         estimate D2E/DX2                !
 ! A32   A(17,19,21)           109.496          estimate D2E/DX2                !
 ! A33   A(17,19,22)           109.5037         estimate D2E/DX2                !
 ! A34   A(20,19,21)           109.443          estimate D2E/DX2                !
 ! A35   A(20,19,22)           109.4397         estimate D2E/DX2                !
 ! A36   A(21,19,22)           109.4414         estimate D2E/DX2                !
 ! D1    D(1,2,5,6)             -0.0029         estimate D2E/DX2                !
 ! D2    D(1,2,5,7)           -179.998          estimate D2E/DX2                !
 ! D3    D(3,2,5,6)            120.5126         estimate D2E/DX2                !
 ! D4    D(3,2,5,7)            -59.4825         estimate D2E/DX2                !
 ! D5    D(4,2,5,6)           -120.5113         estimate D2E/DX2                !
 ! D6    D(4,2,5,7)             59.4936         estimate D2E/DX2                !
 ! D7    D(2,5,7,8)             -0.0069         estimate D2E/DX2                !
 ! D8    D(2,5,7,9)           -180.0            estimate D2E/DX2                !
 ! D9    D(6,5,7,8)            179.9982         estimate D2E/DX2                !
 ! D10   D(6,5,7,9)              0.0051         estimate D2E/DX2                !
 ! D11   D(5,7,9,10)           -15.0041         estimate D2E/DX2                !
 ! D12   D(5,7,9,11)           104.9985         estimate D2E/DX2                !
 ! D13   D(5,7,9,15)          -135.004          Frozen                          !
 ! D14   D(8,7,9,10)           165.0026         estimate D2E/DX2                !
 ! D15   D(8,7,9,11)           -74.9948         estimate D2E/DX2                !
 ! D16   D(8,7,9,15)            45.0028         estimate D2E/DX2                !
 ! D17   D(7,9,11,12)           60.0024         estimate D2E/DX2                !
 ! D18   D(7,9,11,13)          179.9986         estimate D2E/DX2                !
 ! D19   D(7,9,11,14)          -60.0038         estimate D2E/DX2                !
 ! D20   D(10,9,11,12)        -179.4843         estimate D2E/DX2                !
 ! D21   D(10,9,11,13)         -59.4881         estimate D2E/DX2                !
 ! D22   D(10,9,11,14)          60.5095         estimate D2E/DX2                !
 ! D23   D(15,9,11,12)         -61.938          estimate D2E/DX2                !
 ! D24   D(15,9,11,13)          58.0582         estimate D2E/DX2                !
 ! D25   D(15,9,11,14)         178.0558         estimate D2E/DX2                !
 ! D26   D(7,9,15,16)           15.0014         estimate D2E/DX2                !
 ! D27   D(7,9,15,17)         -165.0027         Frozen                          !
 ! D28   D(10,9,15,16)        -105.5096         estimate D2E/DX2                !
 ! D29   D(10,9,15,17)          74.4862         estimate D2E/DX2                !
 ! D30   D(11,9,15,16)         136.9435         estimate D2E/DX2                !
 ! D31   D(11,9,15,17)         -43.0607         estimate D2E/DX2                !
 ! D32   D(9,15,17,18)           0.0073         estimate D2E/DX2                !
 ! D33   D(9,15,17,19)         179.9965         estimate D2E/DX2                !
 ! D34   D(16,15,17,18)       -179.9969         estimate D2E/DX2                !
 ! D35   D(16,15,17,19)         -0.0077         estimate D2E/DX2                !
 ! D36   D(15,17,19,20)          0.0059         estimate D2E/DX2                !
 ! D37   D(15,17,19,21)        120.0063         estimate D2E/DX2                !
 ! D38   D(15,17,19,22)       -119.9951         estimate D2E/DX2                !
 ! D39   D(18,17,19,20)        179.9953         estimate D2E/DX2                !
 ! D40   D(18,17,19,21)        -60.0043         estimate D2E/DX2                !
 ! D41   D(18,17,19,22)         59.9943         estimate D2E/DX2                !
 --------------------------------------------------------------------------------
 Trust Radius=3.00D-01 FncErr=1.00D-07 GrdErr=1.00D-07
 Number of steps in this run= 108 maximum allowed number of steps= 132.
 GradGradGradGradGradGradGradGradGradGradGradGradGradGradGradGradGradGrad

                          Input orientation:                          
 ---------------------------------------------------------------------
 Center     Atomic      Atomic             Coordinates (Angstroms)
 Number     Number       Type             X           Y           Z
 ---------------------------------------------------------------------
      1          1           0        1.743700    1.516400    1.391900
      2          6           0        1.870800    2.350300    0.701500
      3          1           0        1.149500    3.132300    0.938700
      4          1           0        1.709000    2.005100   -0.319700
      5          6           0        3.279800    2.938100    0.801400
      6          8           0        4.098200    2.466500    1.587700
      7          7           0        3.555400    3.969700    0.000000
      8          1           0        2.849100    4.322400   -0.630000
      9          6           0        4.853300    4.613900    0.000000
     10          1           0        5.407600    4.315500    0.889800
     11          6           0        5.661300    4.220800   -1.232200
     12          1           0        5.123300    4.521400   -2.131200
     13          1           0        6.630500    4.718900   -1.205800
     14          1           0        5.808500    3.140900   -1.241400
     15          6           0        4.712700    6.129400    0.000000
     16          8           0        3.636600    6.656000    0.274100
     17          7           0        5.805600    6.831100   -0.308900
     18          1           0        6.667900    6.352800   -0.527200
     19          6           0        5.801000    8.279700   -0.343600
     20          1           0        4.807100    8.646700   -0.087500
     21          1           0        6.525600    8.663100    0.374800
     22          1           0        6.066900    8.620600   -1.344200
 ---------------------------------------------------------------------
                    Distance matrix (angstroms):
                    1          2          3          4          5
     1  H    0.000000
     2  C    1.090044   0.000000
     3  H    1.780336   1.089982   0.000000
     4  H    1.780339   1.090042   1.779660   0.000000
     5  C    2.174747   1.529957   2.143535   2.143541   0.000000
     6  O    2.546507   2.400034   3.091815   3.091818   1.229005
     7  N    3.352361   2.439761   2.714913   2.714969   1.335064
     8  H    3.630926   2.572769   2.601115   2.601152   2.037325
     9  C    4.604509   3.809369   4.098101   4.098130   2.434430
    10  H    4.638020   4.050484   4.419702   4.525536   2.536253
    11  C    5.435740   4.648210   5.123864   4.621976   3.384138
    12  H    5.732709   4.828729   5.210084   4.612022   3.808605
    13  H    6.394127   5.648257   6.095699   5.689556   4.292702
    14  H    5.108412   4.461546   5.143850   4.352640   3.257067
    15  C    5.659692   4.780177   4.749754   5.112169   3.588849
    16  O    5.589994   4.673304   4.363923   5.069429   3.772020
    17  N    6.902013   6.048233   6.075927   6.330286   4.771570
    18  H    7.163899   6.367250   6.555396   6.598200   4.990448
    19  C    8.075634   7.190027   7.055244   7.491037   6.016657
    20  H    7.900267   6.992069   6.696248   7.332325   5.975860
    21  H    8.658890   7.850181   7.733704   8.246874   6.594909
    22  H    8.754768   7.817212   7.714525   7.987849   6.682988
                    6          7          8          9         10
     6  O    0.000000
     7  N    2.252783   0.000000
     8  H    3.150049   1.010028   0.000000
     9  C    2.775301   1.448978   2.121012   0.000000
    10  H    2.370737   2.083739   2.975863   1.089970   0.000000
    11  C    3.670516   2.452791   2.877748   1.525027   2.139209
    12  H    4.370774   2.702720   2.732250   2.150225   3.041326
    13  H    4.391980   3.386959   3.845484   2.150214   2.459625
    14  H    3.373981   2.702673   3.244657   2.150165   2.466256
    15  C    4.039213   2.450234   2.671171   1.522008   2.136554
    16  O    4.414808   2.701468   2.623593   2.392836   2.998911
    17  N    5.055892   3.653277   3.890703   2.432750   2.814876
    18  H    5.116589   3.955346   4.326237   2.567973   2.783314
    19  C    6.357888   4.872051   4.945297   3.801879   4.170242
    20  H    6.442337   4.842390   4.777828   4.034014   4.480514
    21  H    6.764706   5.566917   5.776500   4.396940   4.518493
    22  H    7.095404   5.453932   5.416534   4.396970   4.894826
                   11         12         13         14         15
    11  C    0.000000
    12  H    1.089957   0.000000
    13  H    1.090023   1.779613   0.000000
    14  H    1.089925   1.779613   1.779617   0.000000
    15  C    2.461892   2.701161   2.668599   3.416575   0.000000
    16  O    3.506929   3.542917   3.860816   4.401116   1.228995
    17  N    2.772539   3.020103   2.438499   3.806198   1.335003
    18  H    2.460832   2.883163   1.769612   3.400728   2.037315
    19  C    4.157378   4.216587   3.756429   5.216643   2.434389
    20  H    4.650654   4.614628   4.472471   5.713853   2.520589
    21  H    4.802447   5.039857   4.250413   5.798364   3.137948
    22  H    4.419875   4.279391   3.944624   5.486752   3.137963
                   16         17         18         19         20
    16  O    0.000000
    17  N    2.252800   0.000000
    18  H    3.150046   1.009944   0.000000
    19  C    2.775353   1.449023   2.120889   0.000000
    20  H    2.337458   2.083848   2.986284   1.090006   0.000000
    21  H    3.519220   2.083763   2.484218   1.090018   1.779672
    22  H    3.519220   2.083851   2.484272   1.090007   1.779627
                   21         22
    21  H    0.000000
    22  H    1.779655   0.000000
 Stoichiometry    C6H12N2O2
 Framework group  C1[X(C6H12N2O2)]
 Deg. of freedom    60
 Full point group                 C1      NOp   1
 Largest Abelian subgroup         C1      NOp   1
 Largest concise Abelian subgroup C1      NOp   1
                         Standard orientation:                         
 ---------------------------------------------------------------------
 Center     Atomic      Atomic             Coordinates (Angstroms)
 Number     Number       Type             X           Y           Z
 ---------------------------------------------------------------------
      1          1           0        4.368212   -0.746433    0.130882
      2          6           0        3.449713   -0.847365   -0.447364
      3          1           0        3.171044   -1.899430   -0.507070
      4          1           0        3.607718   -0.456277   -1.452489
      5          6           0        2.301448   -0.073565    0.203396
      6          8           0        2.482967    0.553623    1.244616
      7          7           0        1.120274   -0.122643   -0.416939
      8          1           0        1.020280   -0.652036   -1.271282
      9          6           0       -0.044677    0.567675    0.098704
     10          1           0        0.135126    0.862596    1.132497
     11          6           0       -0.348332    1.818497   -0.719188
     12          1           0       -0.539650    1.538356   -1.755008
     13          1           0       -1.227313    2.316381   -0.309733
     14          1           0        0.504484    2.495955   -0.678064
     15          6           0       -1.275388   -0.326727    0.055081
     16          8           0       -1.159995   -1.538795   -0.112273
     17          7           0       -2.457363    0.275126    0.206534
     18          1           0       -2.501338    1.275053    0.341437
     19          6           0       -3.702373   -0.465894    0.184006
     20          1           0       -3.493002   -1.524635    0.031214
     21          1           0       -4.222566   -0.332098    1.132497
     22          1           0       -4.329499   -0.099158   -0.628604
 ---------------------------------------------------------------------
 Rotational constants (GHZ):      2.9391360      0.6618162      0.6022473
 Standard basis: 6-31G(d) (6D, 7F)
 There are   174 symmetry adapted basis functions of A   symmetry.
 Integral buffers will be    131072 words long.
 Raffenetti 1 integral format.
 Two-electron integral symmetry is turned on.
   174 basis functions,   328 primitive gaussians,   174 cartesian basis functions
    39 alpha electrons       39 beta electrons
       nuclear repulsion energy       552.6503943833 Hartrees.
 NAtoms=   22 NActive=   22 NUniq=   22 SFac= 7.50D-01 NAtFMM=   80 NAOKFM=F Big=F
 One-electron integrals computed using PRISM.
 NBasis=   174 RedAO= T  NBF=   174
 NBsUse=   174 1.00D-06 NBFU=   174
 Harris functional with IExCor=  205 diagonalized for initial guess.
 ExpMin= 1.61D-01 ExpMax= 5.48D+03 ExpMxC= 8.25D+02 IAcc=1 IRadAn=         1 AccDes= 0.00D+00
 HarFok:  IExCor=  205 AccDes= 0.00D+00 IRadAn=         1 IDoV= 1
 ScaDFX=  1.000000  1.000000  1.000000  1.000000
 FoFCou: FMM=F IPFlag=           0 FMFlag=      100000 FMFlg1=           0
         NFxFlg=           0 DoJE=T BraDBF=F KetDBF=T FulRan=T
         Omega=  0.000000  0.000000  1.000000  0.000000  0.000000 ICntrl=     500 IOpCl=  0
         NMat0=    1 NMatS0=    1 NMatT0=    0 NMatD0=    1 NMtDS0=    0 NMtDT0=    0
         I1Cent=           4 NGrid=           0.
 Petite list used in FoFCou.
 Initial guess orbital symmetries:
       Occupied  (A) (A) (A) (A) (A) (A) (A) (A) (A) (A) (A) (A)
                 (A) (A) (A) (A) (A) (A) (A) (A) (A) (A) (A) (A)
                 (A) (A) (A) (A) (A) (A) (A) (A) (A) (A) (A) (A)
                 (A) (A) (A)
       Virtual   (A) (A) (A) (A) (A) (A) (A) (A) (A) (A) (A) (A)
                 (A) (A) (A) (A) (A) (A) (A) (A) (A) (A) (A) (A)
                 (A) (A) (A) (A) (A) (A) (A) (A) (A) (A) (A) (A)
                 (A) (A) (A) (A) (A) (A) (A) (A) (A) (A) (A) (A)
                 (A) (A) (A) (A) (A) (A) (A) (A) (A) (A) (A) (A)
                 (A) (A) (A) (A) (A) (A) (A) (A) (A) (A) (A) (A)
                 (A) (A) (A) (A) (A) (A) (A) (A) (A) (A) (A) (A)
                 (A) (A) (A) (A) (A) (A) (A) (A) (A) (A) (A) (A)
                 (A) (A) (A) (A) (A) (A) (A) (A) (A) (A) (A) (A)
                 (A) (A) (A) (A) (A) (A) (A) (A) (A) (A) (A) (A)
                 (A) (A) (A) (A) (A) (A) (A) (A) (A) (A) (A) (A)
                 (A) (A) (A)
 The electronic state of the initial guess is 1-A.
 Requested convergence on RMS density matrix=1.00D-08 within 128 cycles.
 Requested convergence on MAX density matrix=1.00D-06.
 Requested convergence on             energy=1.00D-06.
 No special actions if energy rises.
 Integral accuracy reduced to 1.0D-05 until final iterations.
 Initial convergence to 1.0D-05 achieved.  Increase integral accuracy.
 SCF Done:  E(RHF) =  -492.843881325     A.U. after   15 cycles
             Convg  =    0.4467D-08             -V/T =  2.0020

 **********************************************************************

            Population analysis using the SCF density.

 **********************************************************************

 Orbital symmetries:
       Occupied  (A) (A) (A) (A) (A) (A) (A) (A) (A) (A) (A) (A)
                 (A) (A) (A) (A) (A) (A) (A) (A) (A) (A) (A) (A)
                 (A) (A) (A) (A) (A) (A) (A) (A) (A) (A) (A) (A)
                 (A) (A) (A)
       Virtual   (A) (A) (A) (A) (A) (A) (A) (A) (A) (A) (A) (A)
                 (A) (A) (A) (A) (A) (A) (A) (A) (A) (A) (A) (A)
                 (A) (A) (A) (A) (A) (A) (A) (A) (A) (A) (A) (A)
                 (A) (A) (A) (A) (A) (A) (A) (A) (A) (A) (A) (A)
                 (A) (A) (A) (A) (A) (A) (A) (A) (A) (A) (A) (A)
                 (A) (A) (A) (A) (A) (A) (A) (A) (A) (A) (A) (A)
                 (A) (A) (A) (A) (A) (A) (A) (A) (A) (A) (A) (A)
                 (A) (A) (A) (A) (A) (A) (A) (A) (A) (A) (A) (A)
                 (A) (A) (A) (A) (A) (A) (A) (A) (A) (A) (A) (A)
                 (A) (A) (A) (A) (A) (A) (A) (A) (A) (A) (A) (A)
                 (A) (A) (A) (A) (A) (A) (A) (A) (A) (A) (A) (A)
                 (A) (A) (A)
 The electronic state is 1-A.
 Alpha  occ. eigenvalues --  -20.52139 -20.51109 -15.59837 -15.58945 -11.35088
 Alpha  occ. eigenvalues --  -11.34580 -11.28405 -11.26486 -11.23772 -11.23185
 Alpha  occ. eigenvalues --   -1.38158  -1.36614  -1.24180  -1.23623  -1.06599
 Alpha  occ. eigenvalues --   -0.98966  -0.95901  -0.88870  -0.80325  -0.79219
 Alpha  occ. eigenvalues --   -0.73487  -0.66795  -0.65437  -0.64366  -0.62693
 Alpha  occ. eigenvalues --   -0.61770  -0.60042  -0.58337  -0.56803  -0.56169
 Alpha  occ. eigenvalues --   -0.55625  -0.54077  -0.53862  -0.51622  -0.49515
 Alpha  occ. eigenvalues --   -0.41819  -0.40706  -0.39301  -0.38633
 Alpha virt. eigenvalues --    0.19244   0.20253   0.21343   0.23021   0.26076
 Alpha virt. eigenvalues --    0.27354   0.28368   0.30609   0.30831   0.31204
 Alpha virt. eigenvalues --    0.31696   0.32266   0.33367   0.34156   0.38464
 Alpha virt. eigenvalues --    0.39165   0.40380   0.43153   0.47450   0.51442
 Alpha virt. eigenvalues --    0.52819   0.58337   0.61865   0.70678   0.71911
 Alpha virt. eigenvalues --    0.73466   0.74729   0.75052   0.77221   0.77880
 Alpha virt. eigenvalues --    0.80144   0.82086   0.84122   0.86540   0.88429
 Alpha virt. eigenvalues --    0.92838   0.94145   0.96050   0.96481   0.97297
 Alpha virt. eigenvalues --    1.00250   1.01063   1.05217   1.06398   1.10256
 Alpha virt. eigenvalues --    1.10432   1.11843   1.13621   1.15014   1.15877
 Alpha virt. eigenvalues --    1.16447   1.16923   1.18074   1.18350   1.19850
 Alpha virt. eigenvalues --    1.20760   1.21702   1.22259   1.24401   1.26327
 Alpha virt. eigenvalues --    1.30331   1.33714   1.35984   1.38320   1.41877
 Alpha virt. eigenvalues --    1.45996   1.54847   1.55878   1.57325   1.60203
 Alpha virt. eigenvalues --    1.64206   1.65512   1.68868   1.73585   1.75168
 Alpha virt. eigenvalues --    1.78609   1.80929   1.89491   1.95365   1.98931
 Alpha virt. eigenvalues --    2.02497   2.05568   2.06170   2.08330   2.12272
 Alpha virt. eigenvalues --    2.13061   2.15269   2.16996   2.17750   2.20795
 Alpha virt. eigenvalues --    2.23871   2.26256   2.28344   2.29752   2.34197
 Alpha virt. eigenvalues --    2.36151   2.39119   2.41798   2.46710   2.48822
 Alpha virt. eigenvalues --    2.52513   2.54562   2.58408   2.60325   2.62388
 Alpha virt. eigenvalues --    2.63576   2.64821   2.69198   2.71989   2.76998
 Alpha virt. eigenvalues --    2.79025   2.81390   2.90086   2.91467   2.96113
 Alpha virt. eigenvalues --    3.00098   3.04042   3.07637   3.11114   3.25357
 Alpha virt. eigenvalues --    3.30453   3.33864   3.40567   3.53627   3.57705
 Alpha virt. eigenvalues --    4.37714   4.44171   4.46203   4.54183   4.63171
 Alpha virt. eigenvalues --    4.66983   4.69868   4.83385   4.89112   5.06146
          Condensed to atoms (all electrons):
              1          2          3          4          5          6
     1  H    0.456880   0.385357  -0.018139  -0.019071  -0.030133   0.003655
     2  C    0.385357   5.258107   0.374287   0.372894   0.374964  -0.070168
     3  H   -0.018139   0.374287   0.502384  -0.023788  -0.033414   0.001263
     4  H   -0.019071   0.372894  -0.023788   0.520986  -0.035012   0.001316
     5  C   -0.030133   0.374964  -0.033414  -0.035012   4.166387   0.601212
     6  O    0.003655  -0.070168   0.001263   0.001316   0.601212   8.192154
     7  N    0.003781  -0.119929   0.003341   0.003641   0.245983  -0.108100
     8  H   -0.000014  -0.001264   0.000571   0.000572  -0.015705   0.002161
     9  C   -0.000078   0.005043  -0.000276  -0.000277  -0.022582   0.004816
    10  H   -0.000003   0.000453  -0.000027  -0.000015  -0.000553   0.011514
    11  C    0.000002  -0.000193  -0.000001   0.000044  -0.001731  -0.000439
    12  H    0.000000  -0.000013   0.000000   0.000001   0.000115  -0.000019
    13  H    0.000000   0.000002   0.000000   0.000000  -0.000011  -0.000020
    14  H    0.000000   0.000008   0.000000  -0.000010   0.001157   0.000831
    15  C    0.000000  -0.000065   0.000024  -0.000007   0.002009   0.000300
    16  O    0.000000  -0.000048   0.000014   0.000000   0.000755  -0.000001
    17  N    0.000000   0.000000   0.000000   0.000000  -0.000042  -0.000003
    18  H    0.000000   0.000000   0.000000   0.000000  -0.000001   0.000000
    19  C    0.000000   0.000000   0.000000   0.000000   0.000001   0.000000
    20  H    0.000000   0.000000   0.000000   0.000000   0.000000   0.000000
    21  H    0.000000   0.000000   0.000000   0.000000   0.000000   0.000000
    22  H    0.000000   0.000000   0.000000   0.000000   0.000000   0.000000
              7          8          9         10         11         12
     1  H    0.003781  -0.000014  -0.000078  -0.000003   0.000002   0.000000
     2  C   -0.119929  -0.001264   0.005043   0.000453  -0.000193  -0.000013
     3  H    0.003341   0.000571  -0.000276  -0.000027  -0.000001   0.000000
     4  H    0.003641   0.000572  -0.000277  -0.000015   0.000044   0.000001
     5  C    0.245983  -0.015705  -0.022582  -0.000553  -0.001731   0.000115
     6  O   -0.108100   0.002161   0.004816   0.011514  -0.000439  -0.000019
     7  N    7.370450   0.320615   0.192578  -0.028237  -0.072943  -0.000546
     8  H    0.320615   0.311132  -0.026641   0.002483   0.000660   0.001658
     9  C    0.192578  -0.026641   5.112604   0.392381   0.342154  -0.040147
    10  H   -0.028237   0.002483   0.392381   0.421187  -0.037024   0.003629
    11  C   -0.072943   0.000660   0.342154  -0.037024   5.165410   0.388532
    12  H   -0.000546   0.001658  -0.040147   0.003629   0.388532   0.529214
    13  H    0.005527  -0.000054  -0.042692  -0.000652   0.380801  -0.026029
    14  H   -0.003199  -0.000182  -0.031733  -0.002924   0.390797  -0.022993
    15  C   -0.046038  -0.001405   0.367451  -0.025924  -0.080508  -0.002672
    16  O   -0.001725   0.006748  -0.080828   0.000366   0.001207   0.000231
    17  N    0.002702   0.000156  -0.116587   0.000612   0.002892  -0.000005
    18  H    0.000055  -0.000011   0.001411   0.000050  -0.001523  -0.000108
    19  C   -0.000064  -0.000003   0.003704  -0.000180   0.000030  -0.000125
    20  H   -0.000008  -0.000004   0.000606  -0.000012  -0.000061  -0.000002
    21  H    0.000000   0.000000  -0.000138   0.000011   0.000010   0.000001
    22  H    0.000002   0.000000   0.000028  -0.000001  -0.000042   0.000007
             13         14         15         16         17         18
     1  H    0.000000   0.000000   0.000000   0.000000   0.000000   0.000000
     2  C    0.000002   0.000008  -0.000065  -0.000048   0.000000   0.000000
     3  H    0.000000   0.000000   0.000024   0.000014   0.000000   0.000000
     4  H    0.000000  -0.000010  -0.000007   0.000000   0.000000   0.000000
     5  C   -0.000011   0.001157   0.002009   0.000755  -0.000042  -0.000001
     6  O   -0.000020   0.000831   0.000300  -0.000001  -0.000003   0.000000
     7  N    0.005527  -0.003199  -0.046038  -0.001725   0.002702   0.000055
     8  H   -0.000054  -0.000182  -0.001405   0.006748   0.000156  -0.000011
     9  C   -0.042692  -0.031733   0.367451  -0.080828  -0.116587   0.001411
    10  H   -0.000652  -0.002924  -0.025924   0.000366   0.000612   0.000050
    11  C    0.380801   0.390797  -0.080508   0.001207   0.002892  -0.001523
    12  H   -0.026029  -0.022993  -0.002672   0.000231  -0.000005  -0.000108
    13  H    0.572137  -0.021942  -0.004149   0.000006  -0.004510   0.003583
    14  H   -0.021942   0.486412   0.004529  -0.000065   0.000210  -0.000054
    15  C   -0.004149   0.004529   4.165311   0.606918   0.279132  -0.020151
    16  O    0.000006  -0.000065   0.606918   8.202396  -0.099920   0.002444
    17  N   -0.004510   0.000210   0.279132  -0.099920   7.358976   0.320082
    18  H    0.003583  -0.000054  -0.020151   0.002444   0.320082   0.317630
    19  C    0.000442   0.000004  -0.025826  -0.005117   0.185559  -0.021409
    20  H   -0.000011   0.000001  -0.001826   0.010789  -0.032090   0.002291
    21  H   -0.000011   0.000000   0.001122   0.000360  -0.046944  -0.001650
    22  H    0.000013  -0.000002   0.000658   0.000395  -0.048535  -0.000507
             19         20         21         22
     1  H    0.000000   0.000000   0.000000   0.000000
     2  C    0.000000   0.000000   0.000000   0.000000
     3  H    0.000000   0.000000   0.000000   0.000000
     4  H    0.000000   0.000000   0.000000   0.000000
     5  C    0.000001   0.000000   0.000000   0.000000
     6  O    0.000000   0.000000   0.000000   0.000000
     7  N   -0.000064  -0.000008   0.000000   0.000002
     8  H   -0.000003  -0.000004   0.000000   0.000000
     9  C    0.003704   0.000606  -0.000138   0.000028
    10  H   -0.000180  -0.000012   0.000011  -0.000001
    11  C    0.000030  -0.000061   0.000010  -0.000042
    12  H   -0.000125  -0.000002   0.000001   0.000007
    13  H    0.000442  -0.000011  -0.000011   0.000013
    14  H    0.000004   0.000001   0.000000  -0.000002
    15  C   -0.025826  -0.001826   0.001122   0.000658
    16  O   -0.005117   0.010789   0.000360   0.000395
    17  N    0.185559  -0.032090  -0.046944  -0.048535
    18  H   -0.021409   0.002291  -0.001650  -0.000507
    19  C    4.952081   0.396529   0.402594   0.402817
    20  H    0.396529   0.430221  -0.021866  -0.022776
    21  H    0.402594  -0.021866   0.530013  -0.036592
    22  H    0.402817  -0.022776  -0.036592   0.534750
 Mulliken atomic charges:
              1
     1  H    0.217762
     2  C   -0.579434
     3  H    0.193760
     4  H    0.178725
     5  C    0.746601
     6  O   -0.640472
     7  N   -0.767885
     8  H    0.398528
     9  C   -0.060796
    10  H    0.262865
    11  C   -0.478075
    12  H    0.169270
    13  H    0.137571
    14  H    0.199154
    15  C    0.781116
    16  O   -0.644927
    17  N   -0.801686
    18  H    0.397868
    19  C   -0.291036
    20  H    0.238219
    21  H    0.173091
    22  H    0.169783
 Sum of Mulliken atomic charges =   0.00000
 Mulliken charges with hydrogens summed into heavy atoms:
              1
     2  C    0.010813
     5  C    0.746601
     6  O   -0.640472
     7  N   -0.369358
     9  C    0.202068
    11  C    0.027921
    15  C    0.781116
    16  O   -0.644927
    17  N   -0.403818
    19  C    0.290057
 Sum of Mulliken charges with hydrogens summed into heavy atoms =   0.00000
 Electronic spatial extent (au):  <R**2>=           1956.8120
 Charge=              0.0000 electrons
 Dipole moment (field-independent basis, Debye):
    X=             -2.7498    Y=              1.9235    Z=             -2.8594  Tot=              4.4088
 Quadrupole moment (field-independent basis, Debye-Ang):
   XX=            -53.4810   YY=            -63.6534   ZZ=            -62.4061
   XY=             -9.6166   XZ=             -9.6071   YZ=             -0.5985
 Traceless Quadrupole moment (field-independent basis, Debye-Ang):
   XX=              6.3658   YY=             -3.8065   ZZ=             -2.5593
   XY=             -9.6166   XZ=             -9.6071   YZ=             -0.5985
 Octapole moment (field-independent basis, Debye-Ang**2):
  XXX=            -32.9338  YYY=              7.2043  ZZZ=             -5.5336  XYY=              0.4643
  XXY=            -11.9959  XXZ=            -15.1816  XZZ=             -8.4872  YZZ=             -4.7347
  YYZ=              1.6288  XYZ=             -5.0172
 Hexadecapole moment (field-independent basis, Debye-Ang**3):
 XXXX=          -1801.3387 YYYY=           -403.6556 ZZZZ=           -185.0906 XXXY=            -29.9503
 XXXZ=            -48.2184 YYYX=             -9.2770 YYYZ=              6.5164 ZZZX=            -11.8957
 ZZZY=              4.0101 XXYY=           -381.9157 XXZZ=           -381.8357 YYZZ=            -99.5582
 XXYZ=            -10.9092 YYXZ=             -5.4208 ZZXY=             -5.1427
 N-N= 5.526503943833D+02 E-N=-2.260494914968D+03  KE= 4.918475632525D+02
 Calling FoFJK, ICntrl=      2127 FMM=F ISym2X=0 I1Cent= 0 IOpClX= 0 NMat=1 NMatS=1 NMatT=0.
 ***** Axes restored to original set *****
 -------------------------------------------------------------------
 Center     Atomic                   Forces (Hartrees/Bohr)
 Number     Number              X              Y              Z
 -------------------------------------------------------------------
      1        1           0.005013337    0.006965576   -0.004252940
      2        6           0.006264865    0.007026792   -0.003151153
      3        1          -0.000443702   -0.004197128   -0.002760653
      4        1          -0.003671882    0.001128803    0.003364551
      5        6           0.015646152   -0.036359056    0.042177120
      6        8          -0.024200676    0.017432768   -0.027589473
      7        7           0.001783276    0.013609670   -0.012551542
      8        1           0.009731428   -0.002041720    0.012406906
      9        6           0.006089903    0.001879103   -0.006457895
     10        1          -0.009246957    0.000061216   -0.003052992
     11        6           0.002408937   -0.010853892   -0.000949755
     12        1           0.005272295   -0.001919274    0.000539371
     13        1          -0.003253275   -0.011916330   -0.007058240
     14        1           0.001157989    0.005505408   -0.002314396
     15        6          -0.053483801    0.013193871    0.020576834
     16        8           0.035097083   -0.015384139   -0.012172680
     17        7           0.015638979    0.001939748   -0.002311572
     18        1          -0.016231736    0.012526233    0.006158718
     19        6           0.001843194    0.003979151    0.000643078
     20        1           0.008809636   -0.005150963   -0.002106074
     21        1          -0.003357551    0.001292156   -0.003749730
     22        1          -0.000867494    0.001282008    0.004612517
 -------------------------------------------------------------------
 Cartesian Forces:  Max     0.053483801 RMS     0.013693274

 GradGradGradGradGradGradGradGradGradGradGradGradGradGradGradGradGradGrad
 Berny optimization.
 Internal  Forces:  Max     0.040456091 RMS     0.009189071
 Search for a local minimum.
 Step number   1 out of a maximum of  108
 All quantities printed in internal units (Hartrees-Bohrs-Radians)
 Mixed Optimization -- RFO/linear search
 Second derivative matrix not updated -- first step.
     Eigenvalues ---    0.00370   0.00435   0.00999   0.01043   0.01269
     Eigenvalues ---    0.01422   0.01660   0.02551   0.02552   0.03503
     Eigenvalues ---    0.05232   0.05841   0.05844   0.05844   0.07166
     Eigenvalues ---    0.07464   0.07685   0.07685   0.15421   0.16000
     Eigenvalues ---    0.16000   0.16000   0.16000   0.16000   0.16000
     Eigenvalues ---    0.16000   0.16000   0.16000   0.16000   0.16000
     Eigenvalues ---    0.16180   0.22000   0.22000   0.25000   0.25000
     Eigenvalues ---    0.25000   0.25000   0.29427   0.29887   0.30174
     Eigenvalues ---    0.34808   0.34808   0.34810   0.34811   0.34812
     Eigenvalues ---    0.34812   0.34815   0.34816   0.34818   0.34821
     Eigenvalues ---    0.38373   0.38379   0.45968   0.45982   0.58325
     Eigenvalues ---    0.58340   0.91502   0.915061000.000001000.00000
     Eigenvalues --- 1000.000001000.000001000.000001000.000001000.00000
     Eigenvalues --- 1000.000001000.000001000.000001000.000001000.00000
     Eigenvalues --- 1000.000001000.000001000.000001000.000001000.00000
     Eigenvalues --- 1000.000001000.000001000.000001000.000001000.00000
     Eigenvalues --- 1000.000001000.000001000.000001000.000001000.00000
     Eigenvalues --- 1000.000001000.000001000.000001000.000001000.00000
     Eigenvalues --- 1000.000001000.000001000.000001000.000001000.00000
     Eigenvalues --- 1000.000001000.000001000.00000
 RFO step:  Lambda=-2.47924000D-02 EMin= 3.69667584D-03
 Linear search not attempted -- first point.
 Maximum step size (   0.300) exceeded in Quadratic search.
    -- Step size scaled by   0.756
 Iteration  1 RMS(Cart)=  0.11858359 RMS(Int)=  0.00341221
 Iteration  2 RMS(Cart)=  0.00483631 RMS(Int)=  0.00061279
 Iteration  3 RMS(Cart)=  0.00000949 RMS(Int)=  0.00061271
 Iteration  4 RMS(Cart)=  0.00000000 RMS(Int)=  0.00061271
 Iteration  1 RMS(Cart)=  0.00014516 RMS(Int)=  0.00005389
 Iteration  2 RMS(Cart)=  0.00008054 RMS(Int)=  0.00005986
 Iteration  3 RMS(Cart)=  0.00004567 RMS(Int)=  0.00006821
 Iteration  4 RMS(Cart)=  0.00002661 RMS(Int)=  0.00007458
 Iteration  5 RMS(Cart)=  0.00001596 RMS(Int)=  0.00007893
 Iteration  6 RMS(Cart)=  0.00000986 RMS(Int)=  0.00008181
 Iteration  7 RMS(Cart)=  0.00000625 RMS(Int)=  0.00008371
 Iteration  8 RMS(Cart)=  0.00000403 RMS(Int)=  0.00008496
 Iteration  9 RMS(Cart)=  0.00000264 RMS(Int)=  0.00008578
 Iteration 10 RMS(Cart)=  0.00000175 RMS(Int)=  0.00008633
 Iteration 11 RMS(Cart)=  0.00000116 RMS(Int)=  0.00008668
 Iteration 12 RMS(Cart)=  0.00000078 RMS(Int)=  0.00008692
 Variable       Old X    -DE/DX   Delta X   Delta X   Delta X     New X
                                 (Linear)    (Quad)   (Total)
    R1        2.05988  -0.00861   0.00000  -0.01746  -0.01746   2.04242
    R2        2.05977  -0.00332   0.00000  -0.00673  -0.00673   2.05304
    R3        2.05988  -0.00296   0.00000  -0.00601  -0.00601   2.05387
    R4        2.89120  -0.01035   0.00000  -0.02454  -0.02454   2.86666
    R5        2.32248  -0.04046   0.00000  -0.03256  -0.03256   2.28992
    R6        2.52291   0.01115   0.00000   0.01387   0.01387   2.53677
    R7        1.90868  -0.01526   0.00000  -0.02382  -0.02382   1.88485
    R8        2.73817  -0.01065   0.00000  -0.01972  -0.01972   2.71845
    R9        2.05975  -0.00721   0.00000  -0.01463  -0.01463   2.04512
   R10        2.88188   0.01581   0.00000   0.03695   0.03695   2.91883
   R11        2.87618   0.01478   0.00000   0.03424   0.03424   2.91042
   R12        2.05972  -0.00358   0.00000  -0.00725  -0.00725   2.05247
   R13        2.05984  -0.00851   0.00000  -0.01726  -0.01726   2.04258
   R14        2.05966  -0.00528   0.00000  -0.01071  -0.01071   2.04895
   R15        2.32246  -0.04004   0.00000  -0.03223  -0.03223   2.29024
   R16        2.52279   0.01237   0.00000   0.01538   0.01538   2.53817
   R17        1.90852  -0.02112   0.00000  -0.03297  -0.03297   1.87555
   R18        2.73826   0.00140   0.00000   0.00258   0.00258   2.74084
   R19        2.05981  -0.01026   0.00000  -0.02082  -0.02082   2.03900
   R20        2.05984  -0.00425   0.00000  -0.00862  -0.00862   2.05122
   R21        2.05982  -0.00404   0.00000  -0.00821  -0.00821   2.05161
    A1        1.91119   0.00076   0.00000   0.00178   0.00194   1.91313
    A2        1.91112   0.00040   0.00000   0.00031   0.00050   1.91162
    A3        1.93900  -0.00807   0.00000  -0.03436  -0.03419   1.90481
    A4        1.91012  -0.00447   0.00000  -0.01551  -0.01587   1.89426
    A5        1.89609   0.00536   0.00000   0.02257   0.02246   1.91856
    A6        1.89604   0.00607   0.00000   0.02548   0.02539   1.92143
    A7        2.10320   0.00807   0.00000   0.02222   0.02222   2.12542
    A8        2.03508  -0.00767   0.00000  -0.02111  -0.02112   2.01396
    A9        2.14490  -0.00040   0.00000  -0.00111  -0.00112   2.14379
   A10        2.09426  -0.00090   0.00000  -0.00210  -0.00213   2.09213
   A11        2.12756   0.00314   0.00000   0.00971   0.00968   2.13724
   A12        2.06136  -0.00224   0.00000  -0.00761  -0.00764   2.05373
   A13        1.91114   0.00106   0.00000  -0.02598  -0.02684   1.88430
   A14        1.93905  -0.00732   0.00000  -0.04108  -0.03921   1.89983
   A15        1.93900  -0.01533   0.00000  -0.05631  -0.05517   1.88383
   A16        1.89609  -0.00262   0.00000   0.00612   0.00313   1.89923
   A17        1.89608  -0.00315   0.00000   0.01047   0.00710   1.90318
   A18        1.88137   0.02790   0.00000   0.11063   0.10940   1.99078
   A19        1.91115   0.00384   0.00000   0.01789   0.01728   1.92842
   A20        1.91106   0.01412   0.00000   0.06028   0.05967   1.97073
   A21        1.91110   0.00034   0.00000  -0.00327  -0.00321   1.90789
   A22        1.91011  -0.00666   0.00000  -0.01794  -0.01910   1.89101
   A23        1.91023  -0.00334   0.00000  -0.01863  -0.01856   1.89167
   A24        1.91015  -0.00832   0.00000  -0.03840  -0.03837   1.87178
   A25        2.10312  -0.00502   0.00000  -0.01383  -0.01415   2.08896
   A26        2.03504   0.01479   0.00000   0.04071   0.04040   2.07544
   A27        2.14503  -0.00977   0.00000  -0.02688  -0.02718   2.11785
   A28        2.09446   0.00083   0.00000   0.00525   0.00518   2.09964
   A29        2.12752   0.00371   0.00000   0.01146   0.01140   2.13892
   A30        2.06121  -0.00454   0.00000  -0.01671  -0.01677   2.04444
   A31        1.91120  -0.00422   0.00000  -0.01881  -0.01874   1.89246
   A32        1.91107   0.00434   0.00000   0.01853   0.01845   1.92952
   A33        1.91120   0.00385   0.00000   0.01652   0.01644   1.92764
   A34        1.91014  -0.00064   0.00000  -0.00415  -0.00407   1.90607
   A35        1.91008  -0.00038   0.00000  -0.00304  -0.00297   1.90711
   A36        1.91011  -0.00296   0.00000  -0.00906  -0.00928   1.90083
    D1       -0.00005   0.00014   0.00000   0.00263   0.00264   0.00259
    D2       -3.14156  -0.00017   0.00000  -0.00368  -0.00371   3.13792
    D3        2.10334  -0.00045   0.00000  -0.00184  -0.00203   2.10131
    D4       -1.03817  -0.00076   0.00000  -0.00815  -0.00838  -1.04655
    D5       -2.10332   0.00072   0.00000   0.00704   0.00728  -2.09604
    D6        1.03836   0.00041   0.00000   0.00073   0.00093   1.03929
    D7       -0.00012   0.00062   0.00000   0.00362   0.00358   0.00346
    D8       -3.14159  -0.00125   0.00000  -0.01152  -0.01153   3.13007
    D9        3.14156   0.00030   0.00000  -0.00286  -0.00285   3.13871
   D10        0.00009  -0.00157   0.00000  -0.01800  -0.01795  -0.01786
   D11       -0.26187  -0.00223   0.00000  -0.03943  -0.03943  -0.30130
   D12        1.83257  -0.00944   0.00000  -0.07465  -0.07491   1.75766
   D13       -2.35626   0.01067   0.00000   0.00000   0.00000  -2.35626
   D14        2.87984  -0.00407   0.00000  -0.05429  -0.05422   2.82562
   D15       -1.30891  -0.01127   0.00000  -0.08952  -0.08970  -1.39861
   D16        0.78545   0.00883   0.00000  -0.01486  -0.01479   0.77066
   D17        1.04724  -0.00052   0.00000   0.02403   0.02347   1.07071
   D18        3.14157   0.00233   0.00000   0.04999   0.05005  -3.09156
   D19       -1.04726   0.00100   0.00000   0.03789   0.03767  -1.00960
   D20       -3.13259  -0.00544   0.00000  -0.02960  -0.03038   3.12021
   D21       -1.03826  -0.00259   0.00000  -0.00364  -0.00380  -1.04206
   D22        1.05609  -0.00392   0.00000  -0.01573  -0.01619   1.03990
   D23       -1.08102   0.00470   0.00000   0.04670   0.04709  -1.03393
   D24        1.01331   0.00756   0.00000   0.07266   0.07368   1.08698
   D25        3.10766   0.00623   0.00000   0.06057   0.06129  -3.11424
   D26        0.26182  -0.00608   0.00000  -0.04601  -0.04582   0.21601
   D27       -2.87984  -0.00755   0.00000   0.00000   0.00000  -2.87984
   D28       -1.84149   0.00412   0.00000   0.01423   0.01473  -1.82676
   D29        1.30003   0.00266   0.00000   0.06024   0.06056   1.36058
   D30        2.39011  -0.00636   0.00000  -0.05926  -0.06056   2.32956
   D31       -0.75155  -0.00782   0.00000  -0.01325  -0.01473  -0.76629
   D32        0.00013  -0.00012   0.00000  -0.03864  -0.03841  -0.03828
   D33        3.14153   0.00103   0.00000  -0.01756  -0.01719   3.12435
   D34       -3.14154  -0.00163   0.00000   0.00858   0.00820  -3.13334
   D35       -0.00013  -0.00047   0.00000   0.02965   0.02942   0.02929
   D36        0.00010  -0.00056   0.00000  -0.01036  -0.01030  -0.01020
   D37        2.09451  -0.00127   0.00000  -0.01561  -0.01568   2.07882
   D38       -2.09431   0.00013   0.00000  -0.00522  -0.00506  -2.09937
   D39        3.14151   0.00057   0.00000   0.01034   0.01029  -3.13138
   D40       -1.04727  -0.00014   0.00000   0.00508   0.00491  -1.04236
   D41        1.04710   0.00126   0.00000   0.01547   0.01554   1.06263
         Item               Value     Threshold  Converged?
 Maximum Force            0.040456     0.000450     NO 
 RMS     Force            0.009080     0.000300     NO 
 Maximum Displacement     0.534715     0.001800     NO 
 RMS     Displacement     0.118463     0.001200     NO 
 Predicted change in Energy=-1.284965D-02
 GradGradGradGradGradGradGradGradGradGradGradGradGradGradGradGradGradGrad

                          Input orientation:                          
 ---------------------------------------------------------------------
 Center     Atomic      Atomic             Coordinates (Angstroms)
 Number     Number       Type             X           Y           Z
 ---------------------------------------------------------------------
      1          1           0        1.744117    1.611616    1.357479
      2          6           0        1.877500    2.450270    0.688895
      3          1           0        1.192047    3.247485    0.962596
      4          1           0        1.658697    2.141117   -0.329836
      5          6           0        3.308960    2.942520    0.787982
      6          8           0        4.114603    2.417835    1.525571
      7          7           0        3.614623    3.986016    0.000754
      8          1           0        2.916981    4.382489   -0.591660
      9          6           0        4.923318    4.583036   -0.016121
     10          1           0        5.445622    4.267568    0.877690
     11          6           0        5.692281    4.065122   -1.251512
     12          1           0        5.178650    4.348789   -2.165496
     13          1           0        6.706316    4.435941   -1.301973
     14          1           0        5.747345    2.982985   -1.211933
     15          6           0        4.747275    6.112685    0.018166
     16          8           0        3.662225    6.586374    0.277179
     17          7           0        5.794314    6.894026   -0.293677
     18          1           0        6.674309    6.489243   -0.510028
     19          6           0        5.710847    8.341949   -0.307266
     20          1           0        4.704167    8.628080   -0.044695
     21          1           0        6.402761    8.770303    0.411054
     22          1           0        5.946441    8.726150   -1.294968
 ---------------------------------------------------------------------
                    Distance matrix (angstroms):
                    1          2          3          4          5
     1  H    0.000000
     2  C    1.080803   0.000000
     3  H    1.771096   1.086420   0.000000
     4  H    1.770508   1.086859   1.764141   0.000000
     5  C    2.131752   1.516973   2.145883   2.148286   0.000000
     6  O    2.509472   2.388663   3.089756   3.090402   1.211772
     7  N    3.313197   2.418605   2.709141   2.708983   1.342402
     8  H    3.585037   2.540436   2.584443   2.583714   2.032381
     9  C    4.563271   3.784541   4.082152   4.088904   2.438038
    10  H    4.580985   4.008705   4.375006   4.507850   2.515775
    11  C    5.330528   4.574438   5.081625   4.563013   3.331665
    12  H    5.630229   4.759150   5.185637   4.542414   3.767806
    13  H    6.298643   5.587835   6.078475   5.629362   4.259136
    14  H    4.950592   4.344265   5.054629   4.266601   3.153889
    15  C    5.574256   4.700932   4.662720   5.043190   3.565292
    16  O    5.440074   4.523506   4.209484   4.913543   3.696402
    17  N    6.858153   6.004486   6.004693   6.300379   4.791803
    18  H    7.182313   6.384363   6.537034   6.640409   5.058621
    19  C    7.987723   7.099209   6.927169   7.407479   6.010197
    20  H    7.743304   6.833267   6.503878   7.171951   5.913168
    21  H    8.593340   7.778046   7.612966   8.185425   6.608838
    22  H    8.678225   7.738130   7.597146   7.917000   6.689197
                    6          7          8          9         10
     6  O    0.000000
     7  N    2.243711   0.000000
     8  H    3.126792   0.997422   0.000000
     9  C    2.778296   1.438541   2.096867   0.000000
    10  H    2.369150   2.049596   2.926811   1.082230   0.000000
    11  C    3.593718   2.427157   2.870264   1.544580   2.152981
    12  H    4.299390   2.696372   2.755583   2.177126   3.055954
    13  H    4.334135   3.384980   3.855704   2.203209   2.523614
    14  H    3.237154   2.650506   3.217811   2.160821   2.471379
    15  C    4.040353   2.409548   2.591416   1.540127   2.151959
    16  O    4.374911   2.615443   2.483421   2.385319   2.986299
    17  N    5.115405   3.646130   3.830882   2.485225   2.896889
    18  H    5.222271   3.986066   4.308432   2.635059   2.893315
    19  C    6.403313   4.843881   4.854265   3.851544   4.251476
    20  H    6.432765   4.768431   4.638777   4.051077   4.518254
    21  H    6.843366   5.552609   5.692891   4.461439   4.626931
    22  H    7.148839   5.439222   5.342252   4.455066   4.984999
                   11         12         13         14         15
    11  C    0.000000
    12  H    1.086118   0.000000
    13  H    1.080888   1.756995   0.000000
    14  H    1.084260   1.760147   1.743219   0.000000
    15  C    2.587978   2.840034   2.896908   3.508319   0.000000
    16  O    3.579768   3.643212   4.047786   4.421492   1.211942
    17  N    2.988403   3.218848   2.809019   4.017666   1.343142
    18  H    2.718554   3.091781   2.200966   3.694019   2.033285
    19  C    4.379862   4.436393   4.151783   5.434910   2.450306
    20  H    4.822174   4.799507   4.812835   5.858137   2.516550
    21  H    5.040599   5.261829   4.670472   6.046215   3.155619
    22  H    4.668154   4.528643   4.356989   5.747215   3.161095
                   16         17         18         19         20
    16  O    0.000000
    17  N    2.228527   0.000000
    18  H    3.114768   0.992496   0.000000
    19  C    2.760521   1.450391   2.098068   0.000000
    20  H    2.314695   2.063336   2.944931   1.078990   0.000000
    21  H    3.506852   2.094581   2.474948   1.085457   1.764414
    22  H    3.502561   2.093419   2.479853   1.085665   1.765232
                   21         22
    21  H    0.000000
    22  H    1.766547   0.000000
 Stoichiometry    C6H12N2O2
 Framework group  C1[X(C6H12N2O2)]
 Deg. of freedom    60
 Full point group                 C1      NOp   1
 Largest Abelian subgroup         C1      NOp   1
 Largest concise Abelian subgroup C1      NOp   1
                         Standard orientation:                         
 ---------------------------------------------------------------------
 Center     Atomic      Atomic             Coordinates (Angstroms)
 Number     Number       Type             X           Y           Z
 ---------------------------------------------------------------------
      1          1           0        4.262230   -0.890215    0.102658
      2          6           0        3.341729   -0.966784   -0.458546
      3          1           0        3.019025   -2.003690   -0.490125
      4          1           0        3.507692   -0.625466   -1.476987
      5          6           0        2.279382   -0.114862    0.209924
      6          8           0        2.511535    0.523608    1.213344
      7          7           0        1.078943   -0.115390   -0.390899
      8          1           0        0.937250   -0.655759   -1.217201
      9          6           0       -0.040996    0.628118    0.121285
     10          1           0        0.170582    0.882779    1.151627
     11          6           0       -0.189382    1.931735   -0.693757
     12          1           0       -0.381375    1.706937   -1.738868
     13          1           0       -0.985043    2.566852   -0.330620
     14          1           0        0.731031    2.501286   -0.629959
     15          6           0       -1.279170   -0.286572    0.073776
     16          8           0       -1.141459   -1.473014   -0.131639
     17          7           0       -2.497561    0.262223    0.209347
     18          1           0       -2.592632    1.236957    0.370296
     19          6           0       -3.716800   -0.521513    0.156002
     20          1           0       -3.451730   -1.553615   -0.013473
     21          1           0       -4.262293   -0.441772    1.091039
     22          1           0       -4.353592   -0.177620   -0.653259
 ---------------------------------------------------------------------
 Rotational constants (GHZ):      2.8383679      0.6713827      0.6029215
 Standard basis: 6-31G(d) (6D, 7F)
 There are   174 symmetry adapted basis functions of A   symmetry.
 Integral buffers will be    131072 words long.
 Raffenetti 1 integral format.
 Two-electron integral symmetry is turned on.
   174 basis functions,   328 primitive gaussians,   174 cartesian basis functions
    39 alpha electrons       39 beta electrons
       nuclear repulsion energy       552.9044951853 Hartrees.
 NAtoms=   22 NActive=   22 NUniq=   22 SFac= 7.50D-01 NAtFMM=   80 NAOKFM=F Big=F
 One-electron integrals computed using PRISM.
 NBasis=   174 RedAO= T  NBF=   174
 NBsUse=   174 1.00D-06 NBFU=   174
 Initial guess read from the read-write file.
 B after Tr=     0.000000    0.000000    0.000000
         Rot=    1.000000    0.000000    0.000000    0.000000 Ang=   0.00 deg.
 Initial guess orbital symmetries:
       Occupied  (A) (A) (A) (A) (A) (A) (A) (A) (A) (A) (A) (A)
                 (A) (A) (A) (A) (A) (A) (A) (A) (A) (A) (A) (A)
                 (A) (A) (A) (A) (A) (A) (A) (A) (A) (A) (A) (A)
                 (A) (A) (A)
       Virtual   (A) (A) (A) (A) (A) (A) (A) (A) (A) (A) (A) (A)
                 (A) (A) (A) (A) (A) (A) (A) (A) (A) (A) (A) (A)
                 (A) (A) (A) (A) (A) (A) (A) (A) (A) (A) (A) (A)
                 (A) (A) (A) (A) (A) (A) (A) (A) (A) (A) (A) (A)
                 (A) (A) (A) (A) (A) (A) (A) (A) (A) (A) (A) (A)
                 (A) (A) (A) (A) (A) (A) (A) (A) (A) (A) (A) (A)
                 (A) (A) (A) (A) (A) (A) (A) (A) (A) (A) (A) (A)
                 (A) (A) (A) (A) (A) (A) (A) (A) (A) (A) (A) (A)
                 (A) (A) (A) (A) (A) (A) (A) (A) (A) (A) (A) (A)
                 (A) (A) (A) (A) (A) (A) (A) (A) (A) (A) (A) (A)
                 (A) (A) (A) (A) (A) (A) (A) (A) (A) (A) (A) (A)
                 (A) (A) (A)
 Harris functional with IExCor=  205 diagonalized for initial guess.
 ExpMin= 1.61D-01 ExpMax= 5.48D+03 ExpMxC= 8.25D+02 IAcc=1 IRadAn=         1 AccDes= 0.00D+00
 HarFok:  IExCor=  205 AccDes= 0.00D+00 IRadAn=         1 IDoV= 1
 ScaDFX=  1.000000  1.000000  1.000000  1.000000
 FoFCou: FMM=F IPFlag=           0 FMFlag=      100000 FMFlg1=           0
         NFxFlg=           0 DoJE=T BraDBF=F KetDBF=T FulRan=T
         Omega=  0.000000  0.000000  1.000000  0.000000  0.000000 ICntrl=     500 IOpCl=  0
         NMat0=    1 NMatS0=    1 NMatT0=    0 NMatD0=    1 NMtDS0=    0 NMtDT0=    0
         I1Cent=           4 NGrid=           0.
 Petite list used in FoFCou.
 Requested convergence on RMS density matrix=1.00D-08 within 128 cycles.
 Requested convergence on MAX density matrix=1.00D-06.
 Requested convergence on             energy=1.00D-06.
 No special actions if energy rises.
 Integral accuracy reduced to 1.0D-05 until final iterations.
 Initial convergence to 1.0D-05 achieved.  Increase integral accuracy.
 SCF Done:  E(RHF) =  -492.851993001     A.U. after   13 cycles
             Convg  =    0.9725D-08             -V/T =  2.0017
 Calling FoFJK, ICntrl=      2127 FMM=F ISym2X=0 I1Cent= 0 IOpClX= 0 NMat=1 NMatS=1 NMatT=0.
 ***** Axes restored to original set *****
 -------------------------------------------------------------------
 Center     Atomic                   Forces (Hartrees/Bohr)
 Number     Number              X              Y              Z
 -------------------------------------------------------------------
      1        1           0.000582561    0.000842774   -0.000662793
      2        6           0.002022105    0.002615844   -0.000973006
      3        1          -0.000291414   -0.001257493   -0.000889745
      4        1          -0.001096077    0.000358320    0.001117520
      5        6           0.005433425   -0.015011011    0.015172957
      6        8          -0.008655146    0.006986716   -0.009214120
      7        7           0.000498858    0.000950564   -0.003043969
      8        1           0.001150067    0.001294894    0.005718673
      9        6           0.005366173    0.000670908   -0.010817729
     10        1          -0.002127252    0.001095026    0.000456344
     11        6          -0.001213866    0.002843629    0.003181748
     12        1           0.000786067    0.000034034    0.000234014
     13        1           0.003149481    0.001696965   -0.000185942
     14        1          -0.001207132    0.001314032    0.001182706
     15        6          -0.024965634    0.005975632   -0.000878209
     16        8           0.012039768   -0.006548199   -0.002012793
     17        7           0.007511015   -0.000498142    0.000491181
     18        1          -0.000167140   -0.002490738    0.000631778
     19        6           0.000122067   -0.000322212    0.000772218
     20        1           0.001858986   -0.000358612   -0.000522593
     21        1          -0.000634617   -0.000016258   -0.000689071
     22        1          -0.000162295   -0.000176673    0.000930830
 -------------------------------------------------------------------
 Cartesian Forces:  Max     0.024965634 RMS     0.005322558

 GradGradGradGradGradGradGradGradGradGradGradGradGradGradGradGradGradGrad
 Berny optimization.
 Using GEDIIS/GDIIS optimizer.
 Internal  Forces:  Max     0.016682036 RMS     0.003573265
 Search for a local minimum.
 Step number   2 out of a maximum of  108
 All quantities printed in internal units (Hartrees-Bohrs-Radians)
 Mixed Optimization -- RFO/linear search
 Update second derivatives using D2CorX and points    1    2
 DE= -8.11D-03 DEPred=-1.28D-02 R= 6.31D-01
 SS=  1.41D+00  RLast= 3.00D-01 DXNew= 5.0454D-01 8.9943D-01
 Trust test= 6.31D-01 RLast= 3.00D-01 DXMaxT set to 5.05D-01
 Use linear search instead of GDIIS.
     Eigenvalues ---    0.00370   0.00443   0.01013   0.01043   0.01255
     Eigenvalues ---    0.01407   0.01671   0.02550   0.02553   0.03503
     Eigenvalues ---    0.05171   0.05456   0.05762   0.06184   0.07243
     Eigenvalues ---    0.07294   0.07516   0.07736   0.15468   0.15843
     Eigenvalues ---    0.15999   0.15999   0.16000   0.16000   0.16000
     Eigenvalues ---    0.16000   0.16000   0.16000   0.16000   0.16575
     Eigenvalues ---    0.18279   0.21851   0.22005   0.24666   0.24977
     Eigenvalues ---    0.25000   0.27889   0.29390   0.30051   0.33483
     Eigenvalues ---    0.34562   0.34808   0.34809   0.34811   0.34812
     Eigenvalues ---    0.34814   0.34815   0.34817   0.34820   0.37314
     Eigenvalues ---    0.38370   0.40862   0.45710   0.48566   0.57389
     Eigenvalues ---    0.58469   0.84273   0.915061000.000001000.00000
     Eigenvalues --- 1000.000001000.000001000.000001000.000001000.00000
     Eigenvalues --- 1000.000001000.000001000.000001000.000001000.00000
     Eigenvalues --- 1000.000001000.000001000.000001000.000001000.00000
     Eigenvalues --- 1000.000001000.000001000.000001000.000001000.00000
     Eigenvalues --- 1000.000001000.000001000.000001000.000001000.00000
     Eigenvalues --- 1000.000001000.000001000.000001000.000001000.00000
     Eigenvalues --- 1000.000001000.000001000.000001000.000001000.00000
     Eigenvalues --- 1000.000001000.000001000.00000
 RFO step:  Lambda=-4.01932031D-03 EMin= 3.69667701D-03
 Quartic linear search produced a step of -0.05767.
 Iteration  1 RMS(Cart)=  0.05499616 RMS(Int)=  0.00118396
 Iteration  2 RMS(Cart)=  0.00227015 RMS(Int)=  0.00026172
 Iteration  3 RMS(Cart)=  0.00000211 RMS(Int)=  0.00026171
 Iteration  4 RMS(Cart)=  0.00000000 RMS(Int)=  0.00026171
 Iteration  1 RMS(Cart)=  0.00002484 RMS(Int)=  0.00000879
 Iteration  2 RMS(Cart)=  0.00001399 RMS(Int)=  0.00000976
 Iteration  3 RMS(Cart)=  0.00000804 RMS(Int)=  0.00001113
 Iteration  4 RMS(Cart)=  0.00000473 RMS(Int)=  0.00001218
 Iteration  5 RMS(Cart)=  0.00000285 RMS(Int)=  0.00001291
 Iteration  6 RMS(Cart)=  0.00000176 RMS(Int)=  0.00001339
 Iteration  7 RMS(Cart)=  0.00000111 RMS(Int)=  0.00001371
 Iteration  8 RMS(Cart)=  0.00000072 RMS(Int)=  0.00001392
 Variable       Old X    -DE/DX   Delta X   Delta X   Delta X     New X
                                 (Linear)    (Quad)   (Total)
    R1        2.04242  -0.00114   0.00101  -0.00785  -0.00684   2.03558
    R2        2.05304  -0.00096   0.00039  -0.00442  -0.00403   2.04901
    R3        2.05387  -0.00093   0.00035  -0.00413  -0.00378   2.05008
    R4        2.86666  -0.00189   0.00142  -0.01268  -0.01127   2.85540
    R5        2.28992  -0.01439   0.00188  -0.02376  -0.02188   2.26804
    R6        2.53677   0.00737  -0.00080   0.01560   0.01480   2.55157
    R7        1.88485  -0.00369   0.00137  -0.01406  -0.01268   1.87217
    R8        2.71845   0.00174   0.00114  -0.00127  -0.00013   2.71831
    R9        2.04512  -0.00097   0.00084  -0.00662  -0.00578   2.03934
   R10        2.91883  -0.00475  -0.00213  -0.00445  -0.00658   2.91226
   R11        2.91042  -0.00393  -0.00197  -0.00255  -0.00453   2.90589
   R12        2.05247  -0.00056   0.00042  -0.00349  -0.00308   2.04939
   R13        2.04258   0.00355   0.00100   0.00462   0.00562   2.04820
   R14        2.04895  -0.00133   0.00062  -0.00649  -0.00587   2.04308
   R15        2.29024  -0.01377   0.00186  -0.02303  -0.02118   2.26906
   R16        2.53817   0.00403  -0.00089   0.01070   0.00981   2.54798
   R17        1.87555   0.00073   0.00190  -0.00771  -0.00581   1.86974
   R18        2.74084  -0.00095  -0.00015  -0.00156  -0.00171   2.73913
   R19        2.03900  -0.00196   0.00120  -0.01096  -0.00976   2.02924
   R20        2.05122  -0.00087   0.00050  -0.00469  -0.00419   2.04703
   R21        2.05161  -0.00094   0.00047  -0.00478  -0.00431   2.04730
    A1        1.91313  -0.00018  -0.00011  -0.00051  -0.00059   1.91255
    A2        1.91162  -0.00033  -0.00003  -0.00216  -0.00215   1.90947
    A3        1.90481  -0.00114   0.00197  -0.01596  -0.01395   1.89087
    A4        1.89426  -0.00148   0.00092  -0.01231  -0.01149   1.88277
    A5        1.91856   0.00149  -0.00130   0.01481   0.01348   1.93204
    A6        1.92143   0.00163  -0.00146   0.01618   0.01469   1.93612
    A7        2.12542   0.00245  -0.00128   0.01513   0.01385   2.13927
    A8        2.01396  -0.00201   0.00122  -0.01317  -0.01196   2.00200
    A9        2.14379  -0.00045   0.00006  -0.00194  -0.00188   2.14191
   A10        2.09213  -0.00087   0.00012  -0.00503  -0.00631   2.08582
   A11        2.13724   0.00127  -0.00056   0.00768   0.00572   2.14296
   A12        2.05373  -0.00043   0.00044  -0.00391  -0.00488   2.04884
   A13        1.88430  -0.00458   0.00155  -0.02783  -0.02616   1.85814
   A14        1.89983   0.00738   0.00226   0.02843   0.03050   1.93033
   A15        1.88383   0.00137   0.00318   0.00545   0.00824   1.89207
   A16        1.89923   0.00059  -0.00018  -0.00426  -0.00409   1.89514
   A17        1.90318   0.00112  -0.00041  -0.01058  -0.01077   1.89240
   A18        1.99078  -0.00593  -0.00631   0.00676   0.00006   1.99084
   A19        1.92842   0.00096  -0.00100   0.01030   0.00930   1.93773
   A20        1.97073  -0.00009  -0.00344   0.01572   0.01228   1.98302
   A21        1.90789  -0.00235   0.00019  -0.01473  -0.01450   1.89338
   A22        1.89101  -0.00038   0.00110  -0.00682  -0.00576   1.88525
   A23        1.89167   0.00066   0.00107  -0.00169  -0.00059   1.89109
   A24        1.87178   0.00125   0.00221  -0.00371  -0.00145   1.87033
   A25        2.08896   0.00687   0.00082   0.02165   0.02247   2.11143
   A26        2.07544  -0.01668  -0.00233  -0.05016  -0.05249   2.02295
   A27        2.11785   0.00990   0.00157   0.02880   0.03037   2.14823
   A28        2.09964  -0.00387  -0.00030  -0.01835  -0.01872   2.08093
   A29        2.13892   0.00319  -0.00066   0.01633   0.01560   2.15452
   A30        2.04444   0.00067   0.00097   0.00157   0.00246   2.04690
   A31        1.89246   0.00014   0.00108  -0.00421  -0.00313   1.88933
   A32        1.92952   0.00045  -0.00106   0.00764   0.00657   1.93608
   A33        1.92764   0.00010  -0.00095   0.00486   0.00391   1.93155
   A34        1.90607  -0.00024   0.00023  -0.00214  -0.00191   1.90417
   A35        1.90711  -0.00016   0.00017  -0.00188  -0.00171   1.90539
   A36        1.90083  -0.00030   0.00054  -0.00440  -0.00387   1.89696
    D1        0.00259  -0.00009  -0.00015  -0.00447  -0.00463  -0.00204
    D2        3.13792   0.00000   0.00021  -0.00026  -0.00004   3.13788
    D3        2.10131  -0.00010   0.00012  -0.00594  -0.00588   2.09543
    D4       -1.04655  -0.00001   0.00048  -0.00174  -0.00129  -1.04784
    D5       -2.09604   0.00002  -0.00042  -0.00178  -0.00216  -2.09820
    D6        1.03929   0.00010  -0.00005   0.00242   0.00243   1.04172
    D7        0.00346   0.00064  -0.00021   0.03981   0.03953   0.04299
    D8        3.13007  -0.00122   0.00066  -0.06240  -0.06164   3.06843
    D9        3.13871   0.00074   0.00016   0.04413   0.04419  -3.10028
   D10       -0.01786  -0.00112   0.00104  -0.05808  -0.05697  -0.07484
   D11       -0.30130  -0.00117   0.00227  -0.02448  -0.02217  -0.32348
   D12        1.75766   0.00102   0.00432  -0.02951  -0.02547   1.73219
   D13       -2.35626  -0.00077   0.00000   0.00000   0.00000  -2.35626
   D14        2.82562  -0.00300   0.00313  -0.12457  -0.12134   2.70428
   D15       -1.39861  -0.00081   0.00517  -0.12960  -0.12464  -1.52324
   D16        0.77066  -0.00261   0.00085  -0.10009  -0.09917   0.67149
   D17        1.07071   0.00139  -0.00135   0.02197   0.02065   1.09136
   D18       -3.09156   0.00154  -0.00289   0.03160   0.02879  -3.06277
   D19       -1.00960   0.00146  -0.00217   0.02694   0.02482  -0.98478
   D20        3.12021   0.00038   0.00175   0.00223   0.00400   3.12421
   D21       -1.04206   0.00053   0.00022   0.01187   0.01214  -1.02992
   D22        1.03990   0.00045   0.00093   0.00721   0.00817   1.04808
   D23       -1.03393  -0.00177  -0.00272  -0.00996  -0.01278  -1.04671
   D24        1.08698  -0.00162  -0.00425  -0.00033  -0.00464   1.08234
   D25       -3.11424  -0.00169  -0.00353  -0.00498  -0.00861  -3.12285
   D26        0.21601  -0.00376   0.00264   0.00774   0.01038   0.22638
   D27       -2.87984  -0.00603   0.00000   0.00000   0.00000  -2.87984
   D28       -1.82676   0.00032  -0.00085   0.04348   0.04260  -1.78416
   D29        1.36058  -0.00196  -0.00349   0.03574   0.03222   1.39281
   D30        2.32956   0.00278   0.00349   0.05219   0.05569   2.38525
   D31       -0.76629   0.00050   0.00085   0.04445   0.04531  -0.72097
   D32       -0.03828   0.00105   0.00222  -0.00471  -0.00239  -0.04067
   D33        3.12435   0.00150   0.00099   0.02094   0.02185  -3.13699
   D34       -3.13334  -0.00117  -0.00047  -0.01233  -0.01273   3.13712
   D35        0.02929  -0.00072  -0.00170   0.01331   0.01151   0.04080
   D36       -0.01020  -0.00031   0.00059  -0.01439  -0.01386  -0.02406
   D37        2.07882  -0.00024   0.00090  -0.01507  -0.01422   2.06460
   D38       -2.09937  -0.00025   0.00029  -0.01238  -0.01215  -2.11152
   D39       -3.13138   0.00018  -0.00059   0.01072   0.01019  -3.12120
   D40       -1.04236   0.00025  -0.00028   0.01005   0.00982  -1.03254
   D41        1.06263   0.00023  -0.00090   0.01273   0.01189   1.07453
         Item               Value     Threshold  Converged?
 Maximum Force            0.016723     0.000450     NO 
 RMS     Force            0.003463     0.000300     NO 
 Maximum Displacement     0.140355     0.001800     NO 
 RMS     Displacement     0.055693     0.001200     NO 
 Predicted change in Energy=-2.278858D-03
 GradGradGradGradGradGradGradGradGradGradGradGradGradGradGradGradGradGrad

                          Input orientation:                          
 ---------------------------------------------------------------------
 Center     Atomic      Atomic             Coordinates (Angstroms)
 Number     Number       Type             X           Y           Z
 ---------------------------------------------------------------------
      1          1           0        1.767287    1.594546    1.360510
      2          6           0        1.878119    2.441785    0.704597
      3          1           0        1.208083    3.234402    1.018426
      4          1           0        1.604066    2.154321   -0.304945
      5          6           0        3.315715    2.903371    0.762988
      6          8           0        4.139304    2.366348    1.451298
      7          7           0        3.599819    3.965168   -0.021235
      8          1           0        2.875281    4.393773   -0.543584
      9          6           0        4.889873    4.601413   -0.033451
     10          1           0        5.387423    4.301502    0.876004
     11          6           0        5.724030    4.112923   -1.233678
     12          1           0        5.249128    4.379093   -2.171623
     13          1           0        6.735150    4.503059   -1.247304
     14          1           0        5.798450    3.035502   -1.183537
     15          6           0        4.680612    6.124315    0.006470
     16          8           0        3.607691    6.593960    0.271122
     17          7           0        5.754231    6.875034   -0.312542
     18          1           0        6.612822    6.427919   -0.517160
     19          6           0        5.741128    8.324429   -0.322304
     20          1           0        4.752268    8.653550   -0.063578
     21          1           0        6.446711    8.722628    0.396721
     22          1           0        5.996210    8.702558   -1.304993
 ---------------------------------------------------------------------
                    Distance matrix (angstroms):
                    1          2          3          4          5
     1  H    0.000000
     2  C    1.077182   0.000000
     3  H    1.766029   1.084287   0.000000
     4  H    1.764577   1.084857   1.753479   0.000000
     5  C    2.113690   1.511011   2.148707   2.152045   0.000000
     6  O    2.496074   2.382480   3.087548   3.091404   1.200194
     7  N    3.299582   2.410763   2.708379   2.709739   1.350234
     8  H    3.562148   2.522409   2.561946   2.586132   2.030371
     9  C    4.553561   3.778805   4.065801   4.105909   2.448598
    10  H    4.546179   3.975317   4.315770   4.507640   2.501903
    11  C    5.359837   4.619593   5.122260   4.655401   3.354053
    12  H    5.687960   4.836270   5.274161   4.660533   3.811533
    13  H    6.319795   5.625790   6.106676   5.721244   4.277010
    14  H    4.979840   4.391645   5.095064   4.375072   3.157593
    15  C    5.553350   4.679998   4.629699   5.032193   3.579070
    16  O    5.437647   4.518836   4.195618   4.904769   3.734652
    17  N    6.824836   5.975995   5.974374   6.285623   4.783015
    18  H    7.096926   6.308674   6.462800   6.587587   4.993208
    19  C    7.994661   7.112163   6.946541   7.428715   6.037247
    20  H    7.795363   6.887441   6.564994   7.225608   5.984267
    21  H    8.581111   7.772761   7.612514   8.190617   6.618235
    22  H    8.689795   7.758505   7.630542   7.947983   6.715070
                    6          7          8          9         10
     6  O    0.000000
     7  N    2.239559   0.000000
     8  H    3.112517   0.990710   0.000000
     9  C    2.786279   1.438470   2.088523   0.000000
    10  H    2.373518   2.028223   2.886971   1.079172   0.000000
    11  C    3.573650   2.450331   2.944567   1.541099   2.144674
    12  H    4.290502   2.741482   2.878519   2.179511   3.051750
    13  H    4.311195   3.409234   3.925016   2.210919   2.522981
    14  H    3.184791   2.655034   3.286237   2.144829   2.452226
    15  C    4.062371   2.414705   2.560577   1.537730   2.139700
    16  O    4.421327   2.645011   2.457844   2.388933   2.964573
    17  N    5.103663   3.632310   3.807675   2.448338   2.858366
    18  H    5.146793   3.922916   4.255309   2.557079   2.822084
    19  C    6.419520   4.866108   4.869507   3.830002   4.212480
    20  H    6.496113   4.828132   4.679657   4.054585   4.497394
    21  H    6.843870   5.559938   5.690191   4.426422   4.571450
    22  H    7.154914   5.462014   5.374530   4.433981   4.949410
                   11         12         13         14         15
    11  C    0.000000
    12  H    1.084490   0.000000
    13  H    1.083862   1.754421   0.000000
    14  H    1.081151   1.755935   1.742181   0.000000
    15  C    2.583096   2.848350   2.901990   3.493772   0.000000
    16  O    3.591499   3.683335   4.056907   4.424713   1.200736
    17  N    2.911815   3.152940   2.731712   3.937334   1.348334
    18  H    2.581194   2.965569   2.062320   3.551867   2.024795
    19  C    4.309023   4.384942   4.055438   5.358895   2.464404
    20  H    4.788607   4.791837   4.749696   5.823339   2.531219
    21  H    4.942657   5.186221   4.537707   5.938086   3.165854
    22  H    4.598252   4.472306   4.264406   5.671806   3.177746
                   16         17         18         19         20
    16  O    0.000000
    17  N    2.242165   0.000000
[...]
    13  H    6.273054   5.649423   6.154224   5.840928   4.228900
    14  H    4.923388   4.455550   5.187448   4.603224   3.116302
    15  C    5.558973   4.624265   4.640724   4.820366   3.565259
    16  O    5.460322   4.440467   4.228756   4.561906   3.735146
    17  N    6.829225   5.930679   5.972029   6.122875   4.769631
    18  H    7.101200   6.292233   6.451536   6.537782   4.982610
    19  C    7.958769   7.004147   6.882870   7.159529   5.987087
    20  H    8.032668   7.015642   6.857679   7.029616   6.170346
    21  H    8.076988   7.148144   6.886502   7.422000   6.183317
    22  H    8.856021   7.926522   7.874687   8.069626   6.822846
                    6          7          8          9         10
     6  O    0.000000
     7  N    2.248245   0.000000
     8  H    3.090575   0.997215   0.000000
     9  C    2.762475   1.446898   2.067630   0.000000
    10  H    2.401056   2.061551   2.798301   1.084746   0.000000
    11  C    3.459704   2.450590   3.116655   1.532226   2.139355
    12  H    4.208515   2.761689   3.160895   2.172029   3.048352
    13  H    4.164097   3.402627   4.050852   2.191562   2.472237
    14  H    3.020895   2.634128   3.472409   2.137021   2.474508
    15  C    4.080389   2.409128   2.402361   1.532614   2.121168
    16  O    4.482648   2.642301   2.191661   2.391695   2.955173
    17  N    5.108177   3.632790   3.705569   2.450142   2.837072
    18  H    5.117725   3.946281   4.237777   2.570607   2.779283
    19  C    6.402415   4.838048   4.698451   3.812891   4.152077
    20  H    6.764726   4.938501   4.595319   4.158056   4.696256
    21  H    6.544550   5.176967   5.027011   4.207428   4.331295
    22  H    7.148404   5.663970   5.608850   4.511628   4.814512
                   11         12         13         14         15
    11  C    0.000000
    12  H    1.084407   0.000000
    13  H    1.085382   1.761872   0.000000
    14  H    1.082086   1.759349   1.747476   0.000000
    15  C    2.576381   2.820605   2.906304   3.485528   0.000000
    16  O    3.592930   3.673701   4.069135   4.415904   1.203881
    17  N    2.920775   3.119517   2.763446   3.955613   1.346354
    18  H    2.637569   2.997630   2.134591   3.619232   2.025764
    19  C    4.339053   4.390921   4.124863   5.391076   2.435881
    20  H    4.703105   4.536235   4.673970   5.765785   2.688634
    21  H    4.987329   5.196808   4.784473   5.980293   2.827558
    22  H    4.743328   4.759146   4.311442   5.796379   3.303629
                   16         17         18         19         20
    16  O    0.000000
    17  N    2.232565   0.000000
    18  H    3.106292   0.992205   0.000000
    19  C    2.748232   1.448813   2.108321   0.000000
    20  H    2.632933   2.080706   2.898435   1.080129   0.000000
    21  H    2.932987   2.107492   2.725037   1.084201   1.755930
    22  H    3.781693   2.065662   2.296394   1.081673   1.760466
                   21         22
    21  H    0.000000
    22  H    1.764045   0.000000
 Stoichiometry    C6H12N2O2
 Framework group  C1[X(C6H12N2O2)]
 Deg. of freedom    60
 Full point group                 C1      NOp   1
 Largest Abelian subgroup         C1      NOp   1
 Largest concise Abelian subgroup C1      NOp   1
                         Standard orientation:                         
 ---------------------------------------------------------------------
 Center     Atomic      Atomic             Coordinates (Angstroms)
 Number     Number       Type             X           Y           Z
 ---------------------------------------------------------------------
      1          1           0        4.271410   -0.832150    0.049474
      2          6           0        3.280125   -1.125345   -0.263669
      3          1           0        3.027794   -2.069506    0.209966
      4          1           0        3.261046   -1.271550   -1.337622
      5          6           0        2.290588   -0.067280    0.171601
      6          8           0        2.550142    0.753600    1.008104
      7          7           0        1.087735   -0.110024   -0.465030
      8          1           0        0.849844   -0.967586   -0.914955
      9          6           0       -0.044190    0.615909    0.069087
     10          1           0        0.152611    0.828503    1.114432
     11          6           0       -0.231055    1.945306   -0.669494
     12          1           0       -0.496326    1.780195   -1.707909
     13          1           0       -0.991053    2.572023   -0.213772
     14          1           0        0.703076    2.490357   -0.634402
     15          6           0       -1.263098   -0.311940    0.021495
     16          8           0       -1.144081   -1.494029   -0.172999
     17          7           0       -2.467147    0.269265    0.180037
     18          1           0       -2.513832    1.225998    0.438790
     19          6           0       -3.678640   -0.521736    0.255298
     20          1           0       -3.727774   -1.198734   -0.584902
     21          1           0       -3.723049   -1.104488    1.168490
     22          1           0       -4.528741    0.146201    0.220603
 ---------------------------------------------------------------------
 Rotational constants (GHZ):      2.7956171      0.6886460      0.6008465

 **********************************************************************

            Population analysis using the SCF density.

 **********************************************************************

 Orbital symmetries:
       Occupied  (A) (A) (A) (A) (A) (A) (A) (A) (A) (A) (A) (A)
                 (A) (A) (A) (A) (A) (A) (A) (A) (A) (A) (A) (A)
                 (A) (A) (A) (A) (A) (A) (A) (A) (A) (A) (A) (A)
                 (A) (A) (A)
       Virtual   (A) (A) (A) (A) (A) (A) (A) (A) (A) (A) (A) (A)
                 (A) (A) (A) (A) (A) (A) (A) (A) (A) (A) (A) (A)
                 (A) (A) (A) (A) (A) (A) (A) (A) (A) (A) (A) (A)
                 (A) (A) (A) (A) (A) (A) (A) (A) (A) (A) (A) (A)
                 (A) (A) (A) (A) (A) (A) (A) (A) (A) (A) (A) (A)
                 (A) (A) (A) (A) (A) (A) (A) (A) (A) (A) (A) (A)
                 (A) (A) (A) (A) (A) (A) (A) (A) (A) (A) (A) (A)
                 (A) (A) (A) (A) (A) (A) (A) (A) (A) (A) (A) (A)
                 (A) (A) (A) (A) (A) (A) (A) (A) (A) (A) (A) (A)
                 (A) (A) (A) (A) (A) (A) (A) (A) (A) (A) (A) (A)
                 (A) (A) (A) (A) (A) (A) (A) (A) (A) (A) (A) (A)
                 (A) (A) (A)
 The electronic state is 1-A.
 Alpha  occ. eigenvalues --  -20.53498 -20.52163 -15.59548 -15.57463 -11.35499
 Alpha  occ. eigenvalues --  -11.34351 -11.27980 -11.26496 -11.22761 -11.22702
 Alpha  occ. eigenvalues --   -1.40523  -1.38770  -1.24324  -1.23308  -1.05557
 Alpha  occ. eigenvalues --   -0.99113  -0.96106  -0.88651  -0.80350  -0.78064
 Alpha  occ. eigenvalues --   -0.73235  -0.67267  -0.65683  -0.65086  -0.63201
 Alpha  occ. eigenvalues --   -0.61914  -0.59565  -0.59046  -0.56838  -0.56409
 Alpha  occ. eigenvalues --   -0.56013  -0.54343  -0.53562  -0.52392  -0.49271
 Alpha  occ. eigenvalues --   -0.42756  -0.41594  -0.40201  -0.39036
 Alpha virt. eigenvalues --    0.19205   0.20401   0.21364   0.24482   0.25975
 Alpha virt. eigenvalues --    0.28621   0.28866   0.29996   0.31349   0.31657
 Alpha virt. eigenvalues --    0.32239   0.33171   0.33644   0.34624   0.38345
 Alpha virt. eigenvalues --    0.39313   0.40972   0.43982   0.47385   0.51909
 Alpha virt. eigenvalues --    0.52800   0.59889   0.60773   0.70018   0.72747
 Alpha virt. eigenvalues --    0.73267   0.75433   0.75937   0.78162   0.78746
 Alpha virt. eigenvalues --    0.79277   0.83811   0.84098   0.87303   0.88855
 Alpha virt. eigenvalues --    0.91175   0.96015   0.96667   0.97995   0.99427
 Alpha virt. eigenvalues --    1.01092   1.03121   1.05080   1.07400   1.09260
 Alpha virt. eigenvalues --    1.11654   1.12059   1.13371   1.14520   1.15032
 Alpha virt. eigenvalues --    1.15481   1.17163   1.18090   1.19909   1.20642
 Alpha virt. eigenvalues --    1.21366   1.21988   1.22735   1.24015   1.26078
 Alpha virt. eigenvalues --    1.28531   1.34532   1.35482   1.36575   1.39502
 Alpha virt. eigenvalues --    1.43342   1.48528   1.53236   1.55916   1.60875
 Alpha virt. eigenvalues --    1.65059   1.66130   1.69202   1.73750   1.75907
 Alpha virt. eigenvalues --    1.77519   1.81347   1.90171   1.95183   1.96905
 Alpha virt. eigenvalues --    2.03177   2.05960   2.07730   2.09145   2.11649
 Alpha virt. eigenvalues --    2.12537   2.16380   2.18602   2.18969   2.21670
 Alpha virt. eigenvalues --    2.23812   2.28730   2.29730   2.32141   2.34760
 Alpha virt. eigenvalues --    2.36707   2.38301   2.41986   2.45948   2.47971
 Alpha virt. eigenvalues --    2.54535   2.55263   2.57048   2.58904   2.61630
 Alpha virt. eigenvalues --    2.65885   2.67572   2.72307   2.75633   2.77965
 Alpha virt. eigenvalues --    2.82151   2.84881   2.89355   2.91825   2.95143
 Alpha virt. eigenvalues --    3.02145   3.05283   3.05944   3.09421   3.27685
 Alpha virt. eigenvalues --    3.32355   3.37150   3.40685   3.52861   3.57592
 Alpha virt. eigenvalues --    4.38072   4.44614   4.47455   4.51231   4.64476
 Alpha virt. eigenvalues --    4.67987   4.70825   4.82890   4.88985   5.04892
          Condensed to atoms (all electrons):
              1          2          3          4          5          6
     1  H    0.467692   0.384121  -0.017812  -0.020404  -0.032948   0.003523
     2  C    0.384121   5.261728   0.374934   0.377523   0.375877  -0.070006
     3  H   -0.017812   0.374934   0.493629  -0.024147  -0.026963   0.000573
     4  H   -0.020404   0.377523  -0.024147   0.510490  -0.035648   0.001827
     5  C   -0.032948   0.375877  -0.026963  -0.035648   4.146425   0.611001
     6  O    0.003523  -0.070006   0.000573   0.001827   0.611001   8.147960
     7  N    0.004400  -0.118980   0.000549   0.004781   0.271029  -0.108907
     8  H    0.000036  -0.001550   0.000388   0.000148  -0.016321   0.002151
     9  C   -0.000106   0.005199  -0.000303   0.000035  -0.027080   0.006212
    10  H   -0.000012   0.000468  -0.000024  -0.000003  -0.000769   0.010207
    11  C    0.000007  -0.000273   0.000000   0.000010  -0.002223  -0.002368
    12  H    0.000000  -0.000003   0.000000   0.000001   0.000269  -0.000013
    13  H    0.000000   0.000003   0.000000   0.000000  -0.000005   0.000005
    14  H    0.000000   0.000063   0.000000  -0.000013   0.001293   0.002871
    15  C   -0.000001   0.000043   0.000021  -0.000027   0.002803   0.000588
    16  O    0.000000  -0.000152   0.000030   0.000001   0.000604  -0.000003
    17  N    0.000000   0.000000   0.000000   0.000000  -0.000066  -0.000002
    18  H    0.000000   0.000000   0.000000   0.000000   0.000001   0.000001
    19  C    0.000000   0.000000   0.000000   0.000000   0.000001   0.000000
    20  H    0.000000   0.000000   0.000000   0.000000   0.000000   0.000000
    21  H    0.000000   0.000000   0.000000   0.000000   0.000000   0.000000
    22  H    0.000000   0.000000   0.000000   0.000000   0.000000   0.000000
              7          8          9         10         11         12
     1  H    0.004400   0.000036  -0.000106  -0.000012   0.000007   0.000000
     2  C   -0.118980  -0.001550   0.005199   0.000468  -0.000273  -0.000003
     3  H    0.000549   0.000388  -0.000303  -0.000024   0.000000   0.000000
     4  H    0.004781   0.000148   0.000035  -0.000003   0.000010   0.000001
     5  C    0.271029  -0.016321  -0.027080  -0.000769  -0.002223   0.000269
     6  O   -0.108907   0.002151   0.006212   0.010207  -0.002368  -0.000013
     7  N    7.372763   0.315938   0.208532  -0.042118  -0.068808   0.001021
     8  H    0.315938   0.302770  -0.037001   0.003079   0.002500   0.000319
     9  C    0.208532  -0.037001   5.069754   0.398472   0.343388  -0.038202
    10  H   -0.042118   0.003079   0.398472   0.463447  -0.041577   0.003744
    11  C   -0.068808   0.002500   0.343388  -0.041577   5.135247   0.388459
    12  H    0.001021   0.000319  -0.038202   0.003744   0.388459   0.521372
    13  H    0.004765  -0.000068  -0.037209  -0.000001   0.378546  -0.026683
    14  H   -0.006383  -0.000120  -0.029293  -0.002785   0.393486  -0.023265
    15  C   -0.045862  -0.005004   0.385912  -0.029463  -0.057430  -0.002205
    16  O   -0.012656   0.022241  -0.074610   0.000689   0.001113   0.000150
    17  N    0.002731   0.000903  -0.114668   0.000041   0.004664   0.000546
    18  H    0.000124  -0.000027   0.000270  -0.000051   0.000531  -0.000179
    19  C   -0.000067  -0.000036   0.003968  -0.000207  -0.000063  -0.000080
    20  H    0.000006   0.000003   0.000154  -0.000006  -0.000043  -0.000001
    21  H   -0.000004  -0.000002  -0.000194   0.000024   0.000010   0.000001
    22  H    0.000001   0.000000   0.000035  -0.000002  -0.000017   0.000000
             13         14         15         16         17         18
     1  H    0.000000   0.000000  -0.000001   0.000000   0.000000   0.000000
     2  C    0.000003   0.000063   0.000043  -0.000152   0.000000   0.000000
     3  H    0.000000   0.000000   0.000021   0.000030   0.000000   0.000000
     4  H    0.000000  -0.000013  -0.000027   0.000001   0.000000   0.000000
     5  C   -0.000005   0.001293   0.002803   0.000604  -0.000066   0.000001
     6  O    0.000005   0.002871   0.000588  -0.000003  -0.000002   0.000001
     7  N    0.004765  -0.006383  -0.045862  -0.012656   0.002731   0.000124
     8  H   -0.000068  -0.000120  -0.005004   0.022241   0.000903  -0.000027
     9  C   -0.037209  -0.029293   0.385912  -0.074610  -0.114668   0.000270
    10  H   -0.000001  -0.002785  -0.029463   0.000689   0.000041  -0.000051
    11  C    0.378546   0.393486  -0.057430   0.001113   0.004664   0.000531
    12  H   -0.026683  -0.023265  -0.002205   0.000150   0.000546  -0.000179
    13  H    0.563183  -0.025122  -0.002344  -0.000011  -0.001021   0.003311
    14  H   -0.025122   0.479286   0.003536  -0.000056   0.000050  -0.000064
    15  C   -0.002344   0.003536   4.144548   0.603755   0.286233  -0.020790
    16  O   -0.000011  -0.000056   0.603755   8.179109  -0.107112   0.002590
    17  N   -0.001021   0.000050   0.286233  -0.107112   7.327320   0.325017
    18  H    0.003311  -0.000064  -0.020790   0.002590   0.325017   0.319692
    19  C    0.000064   0.000004  -0.029234   0.007728   0.198032  -0.022732
    20  H   -0.000001   0.000000  -0.003772   0.003473  -0.039559   0.002740
    21  H   -0.000002   0.000000  -0.002876   0.001256  -0.046705   0.000927
    22  H   -0.000002   0.000000   0.004375   0.000394  -0.037610  -0.004246
             19         20         21         22
     1  H    0.000000   0.000000   0.000000   0.000000
     2  C    0.000000   0.000000   0.000000   0.000000
     3  H    0.000000   0.000000   0.000000   0.000000
     4  H    0.000000   0.000000   0.000000   0.000000
     5  C    0.000001   0.000000   0.000000   0.000000
     6  O    0.000000   0.000000   0.000000   0.000000
     7  N   -0.000067   0.000006  -0.000004   0.000001
     8  H   -0.000036   0.000003  -0.000002   0.000000
     9  C    0.003968   0.000154  -0.000194   0.000035
    10  H   -0.000207  -0.000006   0.000024  -0.000002
    11  C   -0.000063  -0.000043   0.000010  -0.000017
    12  H   -0.000080  -0.000001   0.000001   0.000000
    13  H    0.000064  -0.000001  -0.000002  -0.000002
    14  H    0.000004   0.000000   0.000000   0.000000
    15  C   -0.029234  -0.003772  -0.002876   0.004375
    16  O    0.007728   0.003473   0.001256   0.000394
    17  N    0.198032  -0.039559  -0.046705  -0.037610
    18  H   -0.022732   0.002740   0.000927  -0.004246
    19  C    4.907378   0.403820   0.406391   0.397649
    20  H    0.403820   0.487167  -0.032859  -0.024914
    21  H    0.406391  -0.032859   0.523214  -0.031216
    22  H    0.397649  -0.024914  -0.031216   0.524767
 Mulliken atomic charges:
              1
     1  H    0.211504
     2  C   -0.588994
     3  H    0.199124
     4  H    0.185427
     5  C    0.732721
     6  O   -0.605619
     7  N   -0.782855
     8  H    0.409655
     9  C   -0.063264
    10  H    0.236849
    11  C   -0.475158
    12  H    0.174748
    13  H    0.142592
    14  H    0.206514
    15  C    0.767195
    16  O   -0.628530
    17  N   -0.798793
    18  H    0.392885
    19  C   -0.272616
    20  H    0.203793
    21  H    0.182034
    22  H    0.170787
 Sum of Mulliken atomic charges =   0.00000
 Mulliken charges with hydrogens summed into heavy atoms:
              1
     2  C    0.007062
     5  C    0.732721
     6  O   -0.605619
     7  N   -0.373201
     9  C    0.173585
    11  C    0.048696
    15  C    0.767195
    16  O   -0.628530
    17  N   -0.405908
    19  C    0.283998
 Sum of Mulliken charges with hydrogens summed into heavy atoms =   0.00000
 Electronic spatial extent (au):  <R**2>=           1936.1535
 Charge=              0.0000 electrons
 Dipole moment (field-independent basis, Debye):
    X=             -2.9739    Y=              0.7618    Z=             -1.1238  Tot=              3.2692
 Quadrupole moment (field-independent basis, Debye-Ang):
   XX=            -54.2829   YY=            -62.7341   ZZ=            -62.1961
   XY=            -11.0967   XZ=             -7.7144   YZ=             -0.9040
 Traceless Quadrupole moment (field-independent basis, Debye-Ang):
   XX=              5.4548   YY=             -2.9964   ZZ=             -2.4584
   XY=            -11.0967   XZ=             -7.7144   YZ=             -0.9040
 Octapole moment (field-independent basis, Debye-Ang**2):
  XXX=            -39.6995  YYY=              6.4151  ZZZ=             -0.7532  XYY=              0.4592
  XXY=            -15.3141  XXZ=             -9.0706  XZZ=             -6.7362  YZZ=             -5.1329
  YYZ=              0.7282  XYZ=             -6.0284
 Hexadecapole moment (field-independent basis, Debye-Ang**3):
 XXXX=          -1739.9867 YYYY=           -461.9127 ZZZZ=           -156.6776 XXXY=            -40.9514
 XXXZ=            -48.9636 YYYX=            -13.2577 YYYZ=              3.9331 ZZZX=             -2.4348
 ZZZY=              4.3879 XXYY=           -384.6764 XXZZ=           -362.4046 YYZZ=           -101.3153
 XXYZ=             -8.1313 YYXZ=             -7.4792 ZZXY=             -3.2090
 N-N= 5.543531072981D+02 E-N=-2.264054089254D+03  KE= 4.921261896411D+02
 1\1\GINC-RODAN\FOpt\RHF\6-31G(d)\C6H12N2O2\STEBOSS\10-Feb-2017\0\\# HF
 /6-31G* Opt=(ModRedundant) geom=nocrowd\\Phi Psi fixed scan\\0,1\H,1.8
 134350706,1.5084527393,1.2273313759\C,1.8931824191,2.5110469662,0.8334
 894358\H,1.4268841924,3.2000199698,1.5315737477\H,1.3649410218,2.57922
 80424,-0.1106647997\C,3.3552204489,2.8675494228,0.6802008449\O,4.22941
 37082,2.2563658828,1.2308284437\N,3.6047674138,3.9269181339,-0.1379950
 28\H,2.8420406394,4.5441502959,-0.3160694543\C,4.9000858896,4.57136082
 32,-0.1190851106\H,5.3921618235,4.3151406375,0.813055101\C,5.768579084
 2,4.0733169894,-1.2789942581\H,5.3478499473,4.3663138671,-2.234545352\
 H,6.7886471021,4.4399224496,-1.2231705136\H,5.809155414,2.9928259125,-
 1.2365279592\C,4.6714715007,6.0867550453,-0.1041921219\O,3.5882825244,
 6.5551535565,0.1337843007\N,5.735421747,6.8577867361,-0.397770936\H,6.
 6296425447,6.4372005454,-0.4869127184\C,5.6619367052,8.3022912333,-0.3
 13706257\H,4.8094066905,8.6595915082,-0.8724616017\H,5.5668633199,8.64
 17213178,0.7115935082\H,6.5640107925,8.7184879249,-0.7415606474\\Versi
 on=EM64L-G09RevA.02\State=1-A\HF=-492.8572604\RMSD=4.989e-09\RMSF=1.13
 1e-03\Dipole=0.5874195,0.8674491,-0.7461706\Quadrupole=6.5146413,-4.26
 04825,-2.2541587,8.5857408,-1.5360537,2.2083472\PG=C01 [X(C6H12N2O2)]\
 \@


 VIRTUE IS LEARNED AT YOUR MOTHER'S KNEE,
 VICES ARE PICKED UP AT SOME OTHER JOINT.
 Job cpu time:  0 days  0 hours 24 minutes 17.7 seconds.
 File lengths (MBytes):  RWF=     25 Int=      0 D2E=      0 Chk=      3 Scr=      1
 Normal termination of Gaussian 09 at Fri Feb 10 11:33:37 2017.
