 Entering Gaussian System, Link 0=g09
 Initial command:
 /home/steboss/Software/g09/l1.exe /tmp/Gau-6944.inp -scrdir=/tmp/
 Entering Link 1 = /home/steboss/Software/g09/l1.exe PID=      6946.
  
 Copyright (c) 1988,1990,1992,1993,1995,1998,2003,2009, Gaussian, Inc.
                  All Rights Reserved.
  
 This is part of the Gaussian(R) 09 program.  It is based on
 the Gaussian(R) 03 system (copyright 2003, Gaussian, Inc.),
 the Gaussian(R) 98 system (copyright 1998, Gaussian, Inc.),
 the Gaussian(R) 94 system (copyright 1995, Gaussian, Inc.),
 the Gaussian 92(TM) system (copyright 1992, Gaussian, Inc.),
 the Gaussian 90(TM) system (copyright 1990, Gaussian, Inc.),
 the Gaussian 88(TM) system (copyright 1988, Gaussian, Inc.),
 the Gaussian 86(TM) system (copyright 1986, Carnegie Mellon
 University), and the Gaussian 82(TM) system (copyright 1983,
 Carnegie Mellon University). Gaussian is a federally registered
 trademark of Gaussian, Inc.
  
 This software contains proprietary and confidential information,
 including trade secrets, belonging to Gaussian, Inc.
  
 This software is provided under written license and may be
 used, copied, transmitted, or stored only in accord with that
 written license.
  
 The following legend is applicable only to US Government
 contracts under FAR:
  
                    RESTRICTED RIGHTS LEGEND
  
 Use, reproduction and disclosure by the US Government is
 subject to restrictions as set forth in subparagraphs (a)
 and (c) of the Commercial Computer Software - Restricted
 Rights clause in FAR 52.227-19.
  
 Gaussian, Inc.
 340 Quinnipiac St., Bldg. 40, Wallingford CT 06492
  
  
 ---------------------------------------------------------------
 Warning -- This program may not be used in any manner that
 competes with the business of Gaussian, Inc. or will provide
 assistance to any competitor of Gaussian, Inc.  The licensee
 of this program is prohibited from giving any competitor of
 Gaussian, Inc. access to this program.  By using this program,
 the user acknowledges that Gaussian, Inc. is engaged in the
 business of creating and licensing software in the field of
 computational chemistry and represents and warrants to the
 licensee that it is not a competitor of Gaussian, Inc. and that
 it will not use this program in any manner prohibited above.
 ---------------------------------------------------------------
  

 Cite this work as:
 Gaussian 09, Revision A.02,
 M. J. Frisch, G. W. Trucks, H. B. Schlegel, G. E. Scuseria, 
 M. A. Robb, J. R. Cheeseman, G. Scalmani, V. Barone, B. Mennucci, 
 G. A. Petersson, H. Nakatsuji, M. Caricato, X. Li, H. P. Hratchian, 
 A. F. Izmaylov, J. Bloino, G. Zheng, J. L. Sonnenberg, M. Hada, 
 M. Ehara, K. Toyota, R. Fukuda, J. Hasegawa, M. Ishida, T. Nakajima, 
 Y. Honda, O. Kitao, H. Nakai, T. Vreven, J. A. Montgomery, Jr., 
 J. E. Peralta, F. Ogliaro, M. Bearpark, J. J. Heyd, E. Brothers, 
 K. N. Kudin, V. N. Staroverov, R. Kobayashi, J. Normand, 
 K. Raghavachari, A. Rendell, J. C. Burant, S. S. Iyengar, J. Tomasi, 
 M. Cossi, N. Rega, J. M. Millam, M. Klene, J. E. Knox, J. B. Cross, 
 V. Bakken, C. Adamo, J. Jaramillo, R. Gomperts, R. E. Stratmann, 
 O. Yazyev, A. J. Austin, R. Cammi, C. Pomelli, J. W. Ochterski, 
 R. L. Martin, K. Morokuma, V. G. Zakrzewski, G. A. Voth, 
 P. Salvador, J. J. Dannenberg, S. Dapprich, A. D. Daniels, 
 O. Farkas, J. B. Foresman, J. V. Ortiz, J. Cioslowski, 
 and D. J. Fox, Gaussian, Inc., Wallingford CT, 2009.
 
 ******************************************
 Gaussian 09:  EM64L-G09RevA.02 11-Jun-2009
                10-Feb-2017 
 ******************************************
 %chk=structure_30.chk
 %NProcShared=8
 Will use up to    8 processors via shared memory.
 -------------------------------------------
 # HF/6-31G* Opt=(ModRedundant) geom=nocrowd
 -------------------------------------------
 1/18=120,19=15,38=1/1,3;
 2/9=110,12=1,17=6,18=5,40=1/2;
 3/5=1,6=6,7=1,11=9,16=1,25=1,30=1,71=1/1,2,3;
 4//1;
 5/5=2,38=5/2;
 6/7=2,8=2,9=2,10=2,28=1/1;
 7//1,2,3,16;
 1/18=20,19=15/3(2);
 2/9=110,12=1/2;
 99//99;
 2/9=110,12=1/2;
 3/5=1,6=6,7=1,11=9,16=1,25=1,30=1,71=1/1,2,3;
 4/5=5,16=3/1;
 5/5=2,38=5/2;
 7//1,2,3,16;
 1/18=20,19=15/3(-5);
 2/9=110,12=1/2;
 6/7=2,8=2,9=2,10=2,19=2,28=1/1;
 99/9=1/99;
 ------------------
 Phi Psi fixed scan
 ------------------
 Symbolic Z-matrix:
 Charge =  0 Multiplicity = 1
 H                     1.7437    1.5164    1.3919 
 C                     1.8708    2.3503    0.7015 
 H                     1.1495    3.1323    0.9387 
 H                     1.709     2.0051   -0.3197 
 C                     3.2798    2.9381    0.8014 
 O                     4.0982    2.4665    1.5877 
 N                     3.5554    3.9697    0. 
 H                     2.8491    4.3224   -0.63 
 C                     4.8533    4.6139    0. 
 H                     5.4076    4.3155    0.8898 
 C                     5.6613    4.2208   -1.2322 
 H                     5.1233    4.5214   -2.1312 
 H                     6.6305    4.7189   -1.2058 
 H                     5.8085    3.1409   -1.2414 
 C                     4.7127    6.1294    0. 
 O                     5.5682    6.8352   -0.5295 
 N                     3.6281    6.6291    0.5969 
 H                     2.9524    6.0081    1.0185 
 C                     3.3794    8.0551    0.6638 
 H                     4.1904    8.5895    0.169 
 H                     2.4372    8.2838    0.1658 
 H                     3.3233    8.366     1.707 
 
 The following ModRedundant input section has been read:
 D    5    7    9   15 F                                                       
 D    7    9   15   17 F                                                       

 GradGradGradGradGradGradGradGradGradGradGradGradGradGradGradGradGradGrad
 Berny optimization.
 Initialization pass.
                           ----------------------------
                           !    Initial Parameters    !
                           ! (Angstroms and Degrees)  !
 --------------------------                            --------------------------
 ! Name  Definition              Value          Derivative Info.                !
 --------------------------------------------------------------------------------
 ! R1    R(1,2)                  1.09           estimate D2E/DX2                !
 ! R2    R(2,3)                  1.09           estimate D2E/DX2                !
 ! R3    R(2,4)                  1.09           estimate D2E/DX2                !
 ! R4    R(2,5)                  1.53           estimate D2E/DX2                !
 ! R5    R(5,6)                  1.229          estimate D2E/DX2                !
 ! R6    R(5,7)                  1.3351         estimate D2E/DX2                !
 ! R7    R(7,8)                  1.01           estimate D2E/DX2                !
 ! R8    R(7,9)                  1.449          estimate D2E/DX2                !
 ! R9    R(9,10)                 1.09           estimate D2E/DX2                !
 ! R10   R(9,11)                 1.525          estimate D2E/DX2                !
 ! R11   R(9,15)                 1.522          estimate D2E/DX2                !
 ! R12   R(11,12)                1.09           estimate D2E/DX2                !
 ! R13   R(11,13)                1.09           estimate D2E/DX2                !
 ! R14   R(11,14)                1.0899         estimate D2E/DX2                !
 ! R15   R(15,16)                1.229          estimate D2E/DX2                !
 ! R16   R(15,17)                1.335          estimate D2E/DX2                !
 ! R17   R(17,18)                1.0099         estimate D2E/DX2                !
 ! R18   R(17,19)                1.4491         estimate D2E/DX2                !
 ! R19   R(19,20)                1.09           estimate D2E/DX2                !
 ! R20   R(19,21)                1.09           estimate D2E/DX2                !
 ! R21   R(19,22)                1.09           estimate D2E/DX2                !
 ! A1    A(1,2,3)              109.5033         estimate D2E/DX2                !
 ! A2    A(1,2,4)              109.4991         estimate D2E/DX2                !
 ! A3    A(1,2,5)              111.0965         estimate D2E/DX2                !
 ! A4    A(3,2,4)              109.4419         estimate D2E/DX2                !
 ! A5    A(3,2,5)              108.6381         estimate D2E/DX2                !
 ! A6    A(4,2,5)              108.6351         estimate D2E/DX2                !
 ! A7    A(2,5,6)              120.5047         estimate D2E/DX2                !
 ! A8    A(2,5,7)              116.6015         estimate D2E/DX2                !
 ! A9    A(6,5,7)              122.8938         estimate D2E/DX2                !
 ! A10   A(5,7,8)              119.9924         estimate D2E/DX2                !
 ! A11   A(5,7,9)              121.9002         estimate D2E/DX2                !
 ! A12   A(8,7,9)              118.1074         estimate D2E/DX2                !
 ! A13   A(7,9,10)             109.5            estimate D2E/DX2                !
 ! A14   A(7,9,11)             111.0992         estimate D2E/DX2                !
 ! A15   A(7,9,15)             111.0966         estimate D2E/DX2                !
 ! A16   A(10,9,11)            108.6382         estimate D2E/DX2                !
 ! A17   A(10,9,15)            108.6373         estimate D2E/DX2                !
 ! A18   A(11,9,15)            107.7947         estimate D2E/DX2                !
 ! A19   A(9,11,12)            109.5007         estimate D2E/DX2                !
 ! A20   A(9,11,13)            109.4959         estimate D2E/DX2                !
 ! A21   A(9,11,14)            109.4978         estimate D2E/DX2                !
 ! A22   A(12,11,13)           109.441          estimate D2E/DX2                !
 ! A23   A(12,11,14)           109.4482         estimate D2E/DX2                !
 ! A24   A(13,11,14)           109.4436         estimate D2E/DX2                !
 ! A25   A(9,15,16)            120.4998         estimate D2E/DX2                !
 ! A26   A(9,15,17)            116.5989         estimate D2E/DX2                !
 ! A27   A(16,15,17)           122.9013         estimate D2E/DX2                !
 ! A28   A(15,17,18)           120.0026         estimate D2E/DX2                !
 ! A29   A(15,17,19)           121.898          estimate D2E/DX2                !
 ! A30   A(18,17,19)           118.0995         estimate D2E/DX2                !
 ! A31   A(17,19,20)           109.5002         estimate D2E/DX2                !
 ! A32   A(17,19,21)           109.4963         estimate D2E/DX2                !
 ! A33   A(17,19,22)           109.4942         estimate D2E/DX2                !
 ! A34   A(20,19,21)           109.4439         estimate D2E/DX2                !
 ! A35   A(20,19,22)           109.4453         estimate D2E/DX2                !
 ! A36   A(21,19,22)           109.4473         estimate D2E/DX2                !
 ! D1    D(1,2,5,6)             -0.0029         estimate D2E/DX2                !
 ! D2    D(1,2,5,7)           -179.998          estimate D2E/DX2                !
 ! D3    D(3,2,5,6)            120.5126         estimate D2E/DX2                !
 ! D4    D(3,2,5,7)            -59.4825         estimate D2E/DX2                !
 ! D5    D(4,2,5,6)           -120.5113         estimate D2E/DX2                !
 ! D6    D(4,2,5,7)             59.4936         estimate D2E/DX2                !
 ! D7    D(2,5,7,8)             -0.0069         estimate D2E/DX2                !
 ! D8    D(2,5,7,9)           -180.0            estimate D2E/DX2                !
 ! D9    D(6,5,7,8)            179.9982         estimate D2E/DX2                !
 ! D10   D(6,5,7,9)              0.0051         estimate D2E/DX2                !
 ! D11   D(5,7,9,10)           -15.0041         estimate D2E/DX2                !
 ! D12   D(5,7,9,11)           104.9985         estimate D2E/DX2                !
 ! D13   D(5,7,9,15)          -135.004          Frozen                          !
 ! D14   D(8,7,9,10)           165.0026         estimate D2E/DX2                !
 ! D15   D(8,7,9,11)           -74.9948         estimate D2E/DX2                !
 ! D16   D(8,7,9,15)            45.0028         estimate D2E/DX2                !
 ! D17   D(7,9,11,12)           60.0024         estimate D2E/DX2                !
 ! D18   D(7,9,11,13)          179.9986         estimate D2E/DX2                !
 ! D19   D(7,9,11,14)          -60.0038         estimate D2E/DX2                !
 ! D20   D(10,9,11,12)        -179.4843         estimate D2E/DX2                !
 ! D21   D(10,9,11,13)         -59.4881         estimate D2E/DX2                !
 ! D22   D(10,9,11,14)          60.5095         estimate D2E/DX2                !
 ! D23   D(15,9,11,12)         -61.938          estimate D2E/DX2                !
 ! D24   D(15,9,11,13)          58.0582         estimate D2E/DX2                !
 ! D25   D(15,9,11,14)         178.0558         estimate D2E/DX2                !
 ! D26   D(7,9,15,16)         -149.9979         estimate D2E/DX2                !
 ! D27   D(7,9,15,17)           30.0014         Frozen                          !
 ! D28   D(10,9,15,16)          89.491          estimate D2E/DX2                !
 ! D29   D(10,9,15,17)         -90.5096         estimate D2E/DX2                !
 ! D30   D(11,9,15,16)         -28.0559         estimate D2E/DX2                !
 ! D31   D(11,9,15,17)         151.9435         estimate D2E/DX2                !
 ! D32   D(9,15,17,18)           0.0004         estimate D2E/DX2                !
 ! D33   D(9,15,17,19)        -179.9991         estimate D2E/DX2                !
 ! D34   D(16,15,17,18)        179.9997         estimate D2E/DX2                !
 ! D35   D(16,15,17,19)          0.0002         estimate D2E/DX2                !
 ! D36   D(15,17,19,20)          0.0012         estimate D2E/DX2                !
 ! D37   D(15,17,19,21)        120.0009         estimate D2E/DX2                !
 ! D38   D(15,17,19,22)       -119.9989         estimate D2E/DX2                !
 ! D39   D(18,17,19,20)       -179.9983         estimate D2E/DX2                !
 ! D40   D(18,17,19,21)        -59.9986         estimate D2E/DX2                !
 ! D41   D(18,17,19,22)         60.0016         estimate D2E/DX2                !
 --------------------------------------------------------------------------------
 Trust Radius=3.00D-01 FncErr=1.00D-07 GrdErr=1.00D-07
 Number of steps in this run= 108 maximum allowed number of steps= 132.
 GradGradGradGradGradGradGradGradGradGradGradGradGradGradGradGradGradGrad

                          Input orientation:                          
 ---------------------------------------------------------------------
 Center     Atomic      Atomic             Coordinates (Angstroms)
 Number     Number       Type             X           Y           Z
 ---------------------------------------------------------------------
      1          1           0        1.743700    1.516400    1.391900
      2          6           0        1.870800    2.350300    0.701500
      3          1           0        1.149500    3.132300    0.938700
      4          1           0        1.709000    2.005100   -0.319700
      5          6           0        3.279800    2.938100    0.801400
      6          8           0        4.098200    2.466500    1.587700
      7          7           0        3.555400    3.969700    0.000000
      8          1           0        2.849100    4.322400   -0.630000
      9          6           0        4.853300    4.613900    0.000000
     10          1           0        5.407600    4.315500    0.889800
     11          6           0        5.661300    4.220800   -1.232200
     12          1           0        5.123300    4.521400   -2.131200
     13          1           0        6.630500    4.718900   -1.205800
     14          1           0        5.808500    3.140900   -1.241400
     15          6           0        4.712700    6.129400    0.000000
     16          8           0        5.568200    6.835200   -0.529500
     17          7           0        3.628100    6.629100    0.596900
     18          1           0        2.952400    6.008100    1.018500
     19          6           0        3.379400    8.055100    0.663800
     20          1           0        4.190400    8.589500    0.169000
     21          1           0        2.437200    8.283800    0.165800
     22          1           0        3.323300    8.366000    1.707000
 ---------------------------------------------------------------------
                    Distance matrix (angstroms):
                    1          2          3          4          5
     1  H    0.000000
     2  C    1.090044   0.000000
     3  H    1.780336   1.089982   0.000000
     4  H    1.780339   1.090042   1.779660   0.000000
     5  C    2.174747   1.529957   2.143535   2.143541   0.000000
     6  O    2.546507   2.400034   3.091815   3.091818   1.229005
     7  N    3.352361   2.439761   2.714913   2.714969   1.335064
     8  H    3.630926   2.572769   2.601115   2.601152   2.037325
     9  C    4.604509   3.809369   4.098101   4.098130   2.434430
    10  H    4.638020   4.050484   4.419702   4.525536   2.536253
    11  C    5.435740   4.648210   5.123864   4.621976   3.384138
    12  H    5.732709   4.828729   5.210084   4.612022   3.808605
    13  H    6.394127   5.648257   6.095699   5.689556   4.292702
    14  H    5.108412   4.461546   5.143850   4.352640   3.257067
    15  C    5.659692   4.780177   4.749754   5.112169   3.588849
    16  O    6.827021   5.941419   5.949117   6.186057   4.711206
    17  N    5.506604   4.626789   4.299755   5.089644   3.713033
    18  H    4.666450   3.827512   3.395150   4.400095   3.095032
    19  C    6.779398   5.901020   5.411283   6.352953   5.119819
    20  H    7.583572   6.677703   6.294485   7.053403   5.759118
    21  H    6.912450   5.984497   5.365957   6.339405   5.448896
    22  H    7.036437   6.269724   5.719030   6.868371   5.503099
                    6          7          8          9         10
     6  O    0.000000
     7  N    2.252783   0.000000
     8  H    3.150049   1.010028   0.000000
     9  C    2.775301   1.448978   2.121012   0.000000
    10  H    2.370737   2.083739   2.975863   1.089970   0.000000
    11  C    3.670516   2.452791   2.877748   1.525027   2.139209
    12  H    4.370774   2.702720   2.732250   2.150225   3.041326
    13  H    4.391980   3.386959   3.845484   2.150214   2.459625
    14  H    3.373981   2.702673   3.244657   2.150165   2.466256
    15  C    4.039213   2.450234   2.671171   1.522008   2.136554
    16  O    5.072374   3.541585   3.703751   2.392828   2.896393
    17  N    4.304639   2.726533   2.726351   2.432784   2.933455
    18  H    3.765604   2.357122   2.360044   2.567987   2.984873
    19  C    5.709879   4.142716   3.985999   3.801956   4.260197
    20  H    6.285884   4.666298   4.543746   4.034029   4.502022
    21  H    6.214636   4.459744   4.061484   4.396953   5.009477
    22  H    5.951370   4.721776   4.694373   4.396931   4.628031
                   11         12         13         14         15
    11  C    0.000000
    12  H    1.089957   0.000000
    13  H    1.090023   1.779613   0.000000
    14  H    1.089925   1.779613   1.779617   0.000000
    15  C    2.461892   2.701161   2.668599   3.416575   0.000000
    16  O    2.708790   2.849044   2.462639   3.769933   1.228985
    17  N    3.644094   3.757732   3.989110   4.505666   1.335046
    18  H    3.949460   4.104107   4.487535   4.635223   2.037330
    19  C    4.848066   4.831175   5.019491   5.803419   2.434469
    20  H    4.817930   4.765570   4.777626   5.856169   2.520605
    21  H    5.371889   5.162073   5.672174   6.308351   3.137966
    22  H    5.593552   5.723000   5.720430   6.493917   3.137939
                   16         17         18         19         20
    16  O    0.000000
    17  N    2.252830   0.000000
    18  H    3.150049   1.009930   0.000000
    19  C    2.775422   1.449070   2.120931   0.000000
    20  H    2.337478   2.083854   2.986289   1.090014   0.000000
    21  H    3.519239   2.083776   2.484218   1.089976   1.779655
    22  H    3.519213   2.083758   2.484208   1.089987   1.779679
                   21         22
    21  H    0.000000
    22  H    1.779671   0.000000
 Stoichiometry    C6H12N2O2
 Framework group  C1[X(C6H12N2O2)]
 Deg. of freedom    60
 Full point group                 C1      NOp   1
 Largest Abelian subgroup         C1      NOp   1
 Largest concise Abelian subgroup C1      NOp   1
                         Standard orientation:                         
 ---------------------------------------------------------------------
 Center     Atomic      Atomic             Coordinates (Angstroms)
 Number     Number       Type             X           Y           Z
 ---------------------------------------------------------------------
      1          1           0        3.958185   -1.362861   -0.068065
      2          6           0        3.030319   -1.203892   -0.617600
      3          1           0        2.526119   -2.159032   -0.764410
      4          1           0        3.253420   -0.758589   -1.587199
      5          6           0        2.091543   -0.267706    0.145960
      6          8           0        2.424165    0.198445    1.233397
      7          7           0        0.918163    0.002859   -0.430555
      8          1           0        0.689731   -0.404604   -1.326072
      9          6           0       -0.057536    0.875029    0.191432
     10          1           0        0.200210    1.019643    1.240570
     11          6           0       -0.092467    2.236864   -0.494057
     12          1           0       -0.358229    2.109305   -1.543393
     13          1           0       -0.833361    2.870598   -0.006608
     14          1           0        0.889034    2.705364   -0.422646
     15          6           0       -1.455379    0.278205    0.111783
     16          8           0       -2.442838    1.007735    0.055982
     17          7           0       -1.536994   -1.054333    0.106595
     18          1           0       -0.696311   -1.611963    0.154124
     19          6           0       -2.809765   -1.743237    0.033993
     20          1           0       -3.617069   -1.012269   -0.011596
     21          1           0       -2.834943   -2.367795   -0.858947
     22          1           0       -2.935877   -2.368496    0.917859
 ---------------------------------------------------------------------
 Rotational constants (GHZ):      2.0494940      0.8036057      0.6448981
 Standard basis: 6-31G(d) (6D, 7F)
 There are   174 symmetry adapted basis functions of A   symmetry.
 Integral buffers will be    131072 words long.
 Raffenetti 1 integral format.
 Two-electron integral symmetry is turned on.
   174 basis functions,   328 primitive gaussians,   174 cartesian basis functions
    39 alpha electrons       39 beta electrons
       nuclear repulsion energy       556.3425409127 Hartrees.
 NAtoms=   22 NActive=   22 NUniq=   22 SFac= 7.50D-01 NAtFMM=   80 NAOKFM=F Big=F
 One-electron integrals computed using PRISM.
 NBasis=   174 RedAO= T  NBF=   174
 NBsUse=   174 1.00D-06 NBFU=   174
 Harris functional with IExCor=  205 diagonalized for initial guess.
 ExpMin= 1.61D-01 ExpMax= 5.48D+03 ExpMxC= 8.25D+02 IAcc=1 IRadAn=         1 AccDes= 0.00D+00
 HarFok:  IExCor=  205 AccDes= 0.00D+00 IRadAn=         1 IDoV= 1
 ScaDFX=  1.000000  1.000000  1.000000  1.000000
 FoFCou: FMM=F IPFlag=           0 FMFlag=      100000 FMFlg1=           0
         NFxFlg=           0 DoJE=T BraDBF=F KetDBF=T FulRan=T
         Omega=  0.000000  0.000000  1.000000  0.000000  0.000000 ICntrl=     500 IOpCl=  0
         NMat0=    1 NMatS0=    1 NMatT0=    0 NMatD0=    1 NMtDS0=    0 NMtDT0=    0
         I1Cent=           4 NGrid=           0.
 Petite list used in FoFCou.
 Initial guess orbital symmetries:
       Occupied  (A) (A) (A) (A) (A) (A) (A) (A) (A) (A) (A) (A)
                 (A) (A) (A) (A) (A) (A) (A) (A) (A) (A) (A) (A)
                 (A) (A) (A) (A) (A) (A) (A) (A) (A) (A) (A) (A)
                 (A) (A) (A)
       Virtual   (A) (A) (A) (A) (A) (A) (A) (A) (A) (A) (A) (A)
                 (A) (A) (A) (A) (A) (A) (A) (A) (A) (A) (A) (A)
                 (A) (A) (A) (A) (A) (A) (A) (A) (A) (A) (A) (A)
                 (A) (A) (A) (A) (A) (A) (A) (A) (A) (A) (A) (A)
                 (A) (A) (A) (A) (A) (A) (A) (A) (A) (A) (A) (A)
                 (A) (A) (A) (A) (A) (A) (A) (A) (A) (A) (A) (A)
                 (A) (A) (A) (A) (A) (A) (A) (A) (A) (A) (A) (A)
                 (A) (A) (A) (A) (A) (A) (A) (A) (A) (A) (A) (A)
                 (A) (A) (A) (A) (A) (A) (A) (A) (A) (A) (A) (A)
                 (A) (A) (A) (A) (A) (A) (A) (A) (A) (A) (A) (A)
                 (A) (A) (A) (A) (A) (A) (A) (A) (A) (A) (A) (A)
                 (A) (A) (A)
 The electronic state of the initial guess is 1-A.
 Requested convergence on RMS density matrix=1.00D-08 within 128 cycles.
 Requested convergence on MAX density matrix=1.00D-06.
 Requested convergence on             energy=1.00D-06.
 No special actions if energy rises.
 Integral accuracy reduced to 1.0D-05 until final iterations.
 Initial convergence to 1.0D-05 achieved.  Increase integral accuracy.
 SCF Done:  E(RHF) =  -492.848232859     A.U. after   15 cycles
             Convg  =    0.5873D-08             -V/T =  2.0020

 **********************************************************************

            Population analysis using the SCF density.

 **********************************************************************

 Orbital symmetries:
       Occupied  (A) (A) (A) (A) (A) (A) (A) (A) (A) (A) (A) (A)
                 (A) (A) (A) (A) (A) (A) (A) (A) (A) (A) (A) (A)
                 (A) (A) (A) (A) (A) (A) (A) (A) (A) (A) (A) (A)
                 (A) (A) (A)
       Virtual   (A) (A) (A) (A) (A) (A) (A) (A) (A) (A) (A) (A)
                 (A) (A) (A) (A) (A) (A) (A) (A) (A) (A) (A) (A)
                 (A) (A) (A) (A) (A) (A) (A) (A) (A) (A) (A) (A)
                 (A) (A) (A) (A) (A) (A) (A) (A) (A) (A) (A) (A)
                 (A) (A) (A) (A) (A) (A) (A) (A) (A) (A) (A) (A)
                 (A) (A) (A) (A) (A) (A) (A) (A) (A) (A) (A) (A)
                 (A) (A) (A) (A) (A) (A) (A) (A) (A) (A) (A) (A)
                 (A) (A) (A) (A) (A) (A) (A) (A) (A) (A) (A) (A)
                 (A) (A) (A) (A) (A) (A) (A) (A) (A) (A) (A) (A)
                 (A) (A) (A) (A) (A) (A) (A) (A) (A) (A) (A) (A)
                 (A) (A) (A) (A) (A) (A) (A) (A) (A) (A) (A) (A)
                 (A) (A) (A)
 The electronic state is 1-A.
 Alpha  occ. eigenvalues --  -20.52612 -20.52053 -15.60664 -15.59817 -11.36043
 Alpha  occ. eigenvalues --  -11.35033 -11.28190 -11.26462 -11.24711 -11.21544
 Alpha  occ. eigenvalues --   -1.38559  -1.37662  -1.25965  -1.23313  -1.06042
 Alpha  occ. eigenvalues --   -0.99532  -0.96761  -0.87478  -0.81470  -0.79496
 Alpha  occ. eigenvalues --   -0.74106  -0.67324  -0.66218  -0.64713  -0.62811
 Alpha  occ. eigenvalues --   -0.62471  -0.59742  -0.58876  -0.57421  -0.56084
 Alpha  occ. eigenvalues --   -0.55415  -0.53699  -0.52327  -0.51721  -0.49806
 Alpha  occ. eigenvalues --   -0.43041  -0.42123  -0.39509  -0.38941
 Alpha virt. eigenvalues --    0.18531   0.19277   0.20041   0.23954   0.25721
 Alpha virt. eigenvalues --    0.27213   0.27825   0.29642   0.31322   0.31431
 Alpha virt. eigenvalues --    0.31687   0.32368   0.32687   0.34255   0.36454
 Alpha virt. eigenvalues --    0.38448   0.40389   0.43526   0.46606   0.48976
 Alpha virt. eigenvalues --    0.53910   0.56470   0.61335   0.70600   0.71875
 Alpha virt. eigenvalues --    0.73404   0.74445   0.74646   0.76832   0.77921
 Alpha virt. eigenvalues --    0.80530   0.82752   0.85222   0.87245   0.88202
 Alpha virt. eigenvalues --    0.89418   0.93940   0.95511   0.96462   0.98773
 Alpha virt. eigenvalues --    0.99937   1.01102   1.03582   1.05489   1.09472
 Alpha virt. eigenvalues --    1.10199   1.11381   1.13342   1.14146   1.15330
 Alpha virt. eigenvalues --    1.15748   1.16918   1.17130   1.18599   1.19503
 Alpha virt. eigenvalues --    1.20001   1.21652   1.22979   1.24550   1.26377
 Alpha virt. eigenvalues --    1.28379   1.34013   1.35946   1.39123   1.45568
 Alpha virt. eigenvalues --    1.45819   1.52648   1.54329   1.57384   1.58167
 Alpha virt. eigenvalues --    1.61642   1.67282   1.69589   1.71558   1.73740
 Alpha virt. eigenvalues --    1.76241   1.81584   1.88890   1.94096   1.97775
 Alpha virt. eigenvalues --    2.03113   2.05239   2.07731   2.09386   2.12335
 Alpha virt. eigenvalues --    2.13569   2.14518   2.15392   2.17715   2.20716
 Alpha virt. eigenvalues --    2.24714   2.25513   2.27470   2.32150   2.34611
 Alpha virt. eigenvalues --    2.36835   2.38530   2.41127   2.44833   2.49858
 Alpha virt. eigenvalues --    2.51576   2.54534   2.57382   2.61418   2.61887
 Alpha virt. eigenvalues --    2.63986   2.66187   2.69081   2.73234   2.75114
 Alpha virt. eigenvalues --    2.77583   2.82416   2.85069   2.90204   2.98324
 Alpha virt. eigenvalues --    3.01836   3.04272   3.05759   3.09812   3.22987
 Alpha virt. eigenvalues --    3.31163   3.32753   3.41502   3.52717   3.56984
 Alpha virt. eigenvalues --    4.39244   4.43057   4.48651   4.54131   4.60273
 Alpha virt. eigenvalues --    4.65870   4.68033   4.82998   4.90409   5.07299
          Condensed to atoms (all electrons):
              1          2          3          4          5          6
     1  H    0.447631   0.385614  -0.018482  -0.017736  -0.029634   0.003631
     2  C    0.385614   5.259198   0.371988   0.375040   0.374684  -0.069879
     3  H   -0.018482   0.371988   0.525363  -0.024535  -0.035155   0.001382
     4  H   -0.017736   0.375040  -0.024535   0.508816  -0.035359   0.001201
     5  C   -0.029634   0.374684  -0.035155  -0.035359   4.190400   0.605624
     6  O    0.003631  -0.069879   0.001382   0.001201   0.605624   8.173352
     7  N    0.003800  -0.123902   0.003663   0.003831   0.227771  -0.108143
     8  H   -0.000019  -0.000921   0.000601   0.000575  -0.017556   0.002245
     9  C   -0.000068   0.004509  -0.000278  -0.000243  -0.019868   0.004747
    10  H   -0.000003   0.000451  -0.000025  -0.000014  -0.001101   0.009926
    11  C    0.000003  -0.000206  -0.000001   0.000044  -0.001459  -0.000337
    12  H    0.000000  -0.000006   0.000000   0.000001   0.000081  -0.000021
    13  H    0.000000   0.000002   0.000000   0.000000  -0.000026  -0.000014
    14  H    0.000000  -0.000014   0.000000  -0.000008   0.001038   0.000722
    15  C    0.000000  -0.000052   0.000031  -0.000009   0.000909   0.000298
    16  O    0.000000   0.000000   0.000000   0.000000  -0.000045  -0.000001
    17  N    0.000000  -0.000030  -0.000007   0.000001   0.000854   0.000037
    18  H   -0.000003   0.000026   0.000192  -0.000003   0.000120  -0.000173
    19  C    0.000000   0.000000  -0.000001   0.000000   0.000001   0.000000
    20  H    0.000000   0.000000   0.000000   0.000000   0.000000   0.000000
    21  H    0.000000   0.000000   0.000000   0.000000  -0.000001   0.000000
    22  H    0.000000   0.000000   0.000000   0.000000   0.000000   0.000000
              7          8          9         10         11         12
     1  H    0.003800  -0.000019  -0.000068  -0.000003   0.000003   0.000000
     2  C   -0.123902  -0.000921   0.004509   0.000451  -0.000206  -0.000006
     3  H    0.003663   0.000601  -0.000278  -0.000025  -0.000001   0.000000
     4  H    0.003831   0.000575  -0.000243  -0.000014   0.000044   0.000001
     5  C    0.227771  -0.017556  -0.019868  -0.001101  -0.001459   0.000081
     6  O   -0.108143   0.002245   0.004747   0.009926  -0.000337  -0.000021
     7  N    7.499009   0.319956   0.128877  -0.032381  -0.074112  -0.000974
     8  H    0.319956   0.322504  -0.025319   0.002541   0.000771   0.001761
     9  C    0.128877  -0.025319   5.157841   0.396721   0.354778  -0.038108
    10  H   -0.032381   0.002541   0.396721   0.414943  -0.030783   0.003517
    11  C   -0.074112   0.000771   0.354778  -0.030783   5.105218   0.390518
    12  H   -0.000974   0.001761  -0.038108   0.003517   0.390518   0.541780
    13  H    0.004443  -0.000051  -0.033486  -0.000719   0.389812  -0.019704
    14  H   -0.002436  -0.000099  -0.039550  -0.002944   0.389098  -0.027057
    15  C   -0.041193  -0.002103   0.370492  -0.027342  -0.066784  -0.005978
    16  O    0.001939  -0.000058  -0.078925   0.000229   0.000575   0.000711
    17  N   -0.010169   0.004822  -0.120025  -0.000642   0.003537  -0.000067
    18  H    0.011147  -0.000260  -0.002641  -0.000091   0.000314  -0.000027
    19  C   -0.000069  -0.000181   0.003949  -0.000128  -0.000114  -0.000013
    20  H   -0.000044  -0.000005   0.000636  -0.000010  -0.000019  -0.000003
    21  H    0.000013  -0.000045  -0.000005  -0.000002   0.000009   0.000000
    22  H   -0.000004   0.000013  -0.000131   0.000016  -0.000003   0.000000
             13         14         15         16         17         18
     1  H    0.000000   0.000000   0.000000   0.000000   0.000000  -0.000003
     2  C    0.000002  -0.000014  -0.000052   0.000000  -0.000030   0.000026
     3  H    0.000000   0.000000   0.000031   0.000000  -0.000007   0.000192
     4  H    0.000000  -0.000008  -0.000009   0.000000   0.000001  -0.000003
     5  C   -0.000026   0.001038   0.000909  -0.000045   0.000854   0.000120
     6  O   -0.000014   0.000722   0.000298  -0.000001   0.000037  -0.000173
     7  N    0.004443  -0.002436  -0.041193   0.001939  -0.010169   0.011147
     8  H   -0.000051  -0.000099  -0.002103  -0.000058   0.004822  -0.000260
     9  C   -0.033486  -0.039550   0.370492  -0.078925  -0.120025  -0.002641
    10  H   -0.000719  -0.002944  -0.027342   0.000229  -0.000642  -0.000091
    11  C    0.389812   0.389098  -0.066784   0.000575   0.003537   0.000314
    12  H   -0.019704  -0.027057  -0.005978   0.000711  -0.000067  -0.000027
    13  H    0.475564  -0.023219  -0.003072   0.003950   0.000184  -0.000022
    14  H   -0.023219   0.523736   0.005898   0.000443  -0.000046  -0.000008
    15  C   -0.003072   0.005898   4.157418   0.588916   0.297670  -0.020451
    16  O    0.003950   0.000443   0.588916   8.215897  -0.097296   0.002393
    17  N    0.000184  -0.000046   0.297670  -0.097296   7.333009   0.320409
    18  H   -0.000022  -0.000008  -0.020451   0.002393   0.320409   0.317899
    19  C   -0.000002   0.000002  -0.027299  -0.005051   0.186851  -0.022534
    20  H    0.000000   0.000000  -0.001526   0.010704  -0.032173   0.002172
    21  H    0.000000   0.000000   0.000438   0.000392  -0.048499  -0.000417
    22  H    0.000000   0.000000   0.001278   0.000357  -0.047046  -0.001481
             19         20         21         22
     1  H    0.000000   0.000000   0.000000   0.000000
     2  C    0.000000   0.000000   0.000000   0.000000
     3  H   -0.000001   0.000000   0.000000   0.000000
     4  H    0.000000   0.000000   0.000000   0.000000
     5  C    0.000001   0.000000  -0.000001   0.000000
     6  O    0.000000   0.000000   0.000000   0.000000
     7  N   -0.000069  -0.000044   0.000013  -0.000004
     8  H   -0.000181  -0.000005  -0.000045   0.000013
     9  C    0.003949   0.000636  -0.000005  -0.000131
    10  H   -0.000128  -0.000010  -0.000002   0.000016
    11  C   -0.000114  -0.000019   0.000009  -0.000003
    12  H   -0.000013  -0.000003   0.000000   0.000000
    13  H   -0.000002   0.000000   0.000000   0.000000
    14  H    0.000002   0.000000   0.000000   0.000000
    15  C   -0.027299  -0.001526   0.000438   0.001278
    16  O   -0.005051   0.010704   0.000392   0.000357
    17  N    0.186851  -0.032173  -0.048499  -0.047046
    18  H   -0.022534   0.002172  -0.000417  -0.001481
    19  C    4.954977   0.396309   0.402470   0.402790
    20  H    0.396309   0.429964  -0.022819  -0.021869
    21  H    0.402470  -0.022819   0.539125  -0.036526
    22  H    0.402790  -0.021869  -0.036526   0.528421
 Mulliken atomic charges:
              1
     1  H    0.225265
     2  C   -0.576504
     3  H    0.175263
     4  H    0.188398
     5  C    0.738718
     6  O   -0.624597
     7  N   -0.811022
     8  H    0.390829
     9  C   -0.063905
    10  H    0.267842
    11  C   -0.460859
    12  H    0.153589
    13  H    0.206362
    14  H    0.174444
    15  C    0.772462
    16  O   -0.645129
    17  N   -0.791374
    18  H    0.393439
    19  C   -0.291958
    20  H    0.238684
    21  H    0.165870
    22  H    0.174184
 Sum of Mulliken atomic charges =   0.00000
 Mulliken charges with hydrogens summed into heavy atoms:
              1
     2  C    0.012422
     5  C    0.738718
     6  O   -0.624597
     7  N   -0.420194
     9  C    0.203937
    11  C    0.073536
    15  C    0.772462
    16  O   -0.645129
    17  N   -0.397935
    19  C    0.286779
 Sum of Mulliken charges with hydrogens summed into heavy atoms =   0.00000
 Electronic spatial extent (au):  <R**2>=           1832.9790
 Charge=              0.0000 electrons
 Dipole moment (field-independent basis, Debye):
    X=              0.8109    Y=             -4.1594    Z=             -3.2237  Tot=              5.3245
 Quadrupole moment (field-independent basis, Debye-Ang):
   XX=            -70.3045   YY=            -57.2610   ZZ=            -62.0941
   XY=              3.9523   XZ=             -7.9914   YZ=              0.5079
 Traceless Quadrupole moment (field-independent basis, Debye-Ang):
   XX=             -7.0846   YY=              5.9588   ZZ=              1.1258
   XY=              3.9523   XZ=             -7.9914   YZ=              0.5079
 Octapole moment (field-independent basis, Debye-Ang**2):
  XXX=              8.2154  YYY=             -7.8976  ZZZ=             -4.9724  XYY=              2.3324
  XXY=            -32.5640  XXZ=            -18.6044  XZZ=             -9.1619  YZZ=             -0.9991
  YYZ=              2.8731  XYZ=             -1.0457
 Hexadecapole moment (field-independent basis, Debye-Ang**3):
 XXXX=          -1559.0802 YYYY=           -620.4833 ZZZZ=           -177.4536 XXXY=             28.9662
 XXXZ=            -40.0894 YYYX=              9.3419 YYYZ=              4.7174 ZZZX=             -9.0356
 ZZZY=              3.2718 XXYY=           -361.1981 XXZZ=           -312.6997 YYZZ=           -135.6369
 XXYZ=             -6.5260 YYXZ=              1.6996 ZZXY=             -2.0719
 N-N= 5.563425409127D+02 E-N=-2.267641193704D+03  KE= 4.918547883575D+02
 Calling FoFJK, ICntrl=      2127 FMM=F ISym2X=0 I1Cent= 0 IOpClX= 0 NMat=1 NMatS=1 NMatT=0.
 ***** Axes restored to original set *****
 -------------------------------------------------------------------
 Center     Atomic                   Forces (Hartrees/Bohr)
 Number     Number              X              Y              Z
 -------------------------------------------------------------------
      1        1           0.004733978    0.007205864   -0.004225084
      2        6           0.006733807    0.006147565   -0.003160270
      3        1          -0.001394738   -0.004339029   -0.002682773
      4        1          -0.003651025    0.001275871    0.003560413
      5        6           0.016061667   -0.044714812    0.043928379
      6        8          -0.027527350    0.019910507   -0.029386049
      7        7          -0.006505195    0.016014981   -0.005000967
      8        1           0.010220958   -0.008167623    0.006743302
      9        6           0.009552255    0.002785301   -0.011848437
     10        1          -0.009605012    0.001046918   -0.002906277
     11        6           0.006134082   -0.004841374    0.000045941
     12        1           0.005061898   -0.001990856    0.001084153
     13        1          -0.006755596   -0.003889972   -0.003434542
     14        1          -0.000808636    0.004134723   -0.001088255
     15        6           0.032506097    0.022931853   -0.015794874
     16        8          -0.028876122   -0.023515161    0.019952418
     17        7          -0.014449252    0.000771001    0.006133513
     18        1           0.013833502    0.008881927   -0.005984493
     19        6          -0.001381853    0.003227461    0.001892118
     20        1          -0.006784027   -0.006479605    0.004297288
     21        1           0.003476518    0.002065868    0.002760233
     22        1          -0.000575953    0.001538590   -0.004885736
 -------------------------------------------------------------------
 Cartesian Forces:  Max     0.044714812 RMS     0.013401481

 GradGradGradGradGradGradGradGradGradGradGradGradGradGradGradGradGradGrad
 Berny optimization.
 Internal  Forces:  Max     0.044771533 RMS     0.007908667
 Search for a local minimum.
 Step number   1 out of a maximum of  108
 All quantities printed in internal units (Hartrees-Bohrs-Radians)
 Mixed Optimization -- RFO/linear search
 Second derivative matrix not updated -- first step.
     Eigenvalues ---    0.00370   0.00435   0.00999   0.01043   0.01269
     Eigenvalues ---    0.01422   0.01659   0.02551   0.02551   0.03503
     Eigenvalues ---    0.05232   0.05841   0.05844   0.05844   0.07166
     Eigenvalues ---    0.07464   0.07685   0.07686   0.15421   0.16000
     Eigenvalues ---    0.16000   0.16000   0.16000   0.16000   0.16000
     Eigenvalues ---    0.16000   0.16000   0.16000   0.16000   0.16000
     Eigenvalues ---    0.16180   0.22000   0.22000   0.25000   0.25000
     Eigenvalues ---    0.25000   0.25000   0.29427   0.29887   0.30174
     Eigenvalues ---    0.34808   0.34808   0.34810   0.34811   0.34814
     Eigenvalues ---    0.34815   0.34815   0.34816   0.34818   0.34821
     Eigenvalues ---    0.38367   0.38379   0.45968   0.45984   0.58325
     Eigenvalues ---    0.58330   0.91502   0.915111000.000001000.00000
     Eigenvalues --- 1000.000001000.000001000.000001000.000001000.00000
     Eigenvalues --- 1000.000001000.000001000.000001000.000001000.00000
     Eigenvalues --- 1000.000001000.000001000.000001000.000001000.00000
     Eigenvalues --- 1000.000001000.000001000.000001000.000001000.00000
     Eigenvalues --- 1000.000001000.000001000.000001000.000001000.00000
     Eigenvalues --- 1000.000001000.000001000.000001000.000001000.00000
     Eigenvalues --- 1000.000001000.000001000.000001000.000001000.00000
     Eigenvalues --- 1000.000001000.000001000.00000
 RFO step:  Lambda=-1.41064177D-02 EMin= 3.69667584D-03
 Linear search not attempted -- first point.
 Maximum step size (   0.300) exceeded in Quadratic search.
    -- Step size scaled by   0.937
 Iteration  1 RMS(Cart)=  0.06805185 RMS(Int)=  0.00167482
 Iteration  2 RMS(Cart)=  0.00248094 RMS(Int)=  0.00038618
 Iteration  3 RMS(Cart)=  0.00000246 RMS(Int)=  0.00038618
 Iteration  4 RMS(Cart)=  0.00000000 RMS(Int)=  0.00038618
 Iteration  1 RMS(Cart)=  0.00008534 RMS(Int)=  0.00004243
 Iteration  2 RMS(Cart)=  0.00005786 RMS(Int)=  0.00004684
 Iteration  3 RMS(Cart)=  0.00003931 RMS(Int)=  0.00005390
 Iteration  4 RMS(Cart)=  0.00002673 RMS(Int)=  0.00005992
 Iteration  5 RMS(Cart)=  0.00001819 RMS(Int)=  0.00006441
 Iteration  6 RMS(Cart)=  0.00001237 RMS(Int)=  0.00006761
 Iteration  7 RMS(Cart)=  0.00000841 RMS(Int)=  0.00006983
 Iteration  8 RMS(Cart)=  0.00000572 RMS(Int)=  0.00007136
 Iteration  9 RMS(Cart)=  0.00000389 RMS(Int)=  0.00007242
 Iteration 10 RMS(Cart)=  0.00000264 RMS(Int)=  0.00007313
 Iteration 11 RMS(Cart)=  0.00000180 RMS(Int)=  0.00007362
 Iteration 12 RMS(Cart)=  0.00000122 RMS(Int)=  0.00007396
 Iteration 13 RMS(Cart)=  0.00000083 RMS(Int)=  0.00007418
 Variable       Old X    -DE/DX   Delta X   Delta X   Delta X     New X
                                 (Linear)    (Quad)   (Total)
    R1        2.05988  -0.00874   0.00000  -0.02262  -0.02262   2.03726
    R2        2.05977  -0.00277   0.00000  -0.00718  -0.00718   2.05259
    R3        2.05988  -0.00320   0.00000  -0.00828  -0.00828   2.05160
    R4        2.89120  -0.00944   0.00000  -0.02870  -0.02870   2.86250
    R5        2.32248  -0.04477   0.00000  -0.04517  -0.04517   2.27731
    R6        2.52291   0.01708   0.00000   0.02680   0.02680   2.54971
    R7        1.90868  -0.01421   0.00000  -0.02811  -0.02811   1.88057
    R8        2.73817   0.00415   0.00000   0.00979   0.00979   2.74796
    R9        2.05975  -0.00754   0.00000  -0.01952  -0.01952   2.04022
   R10        2.88188   0.00636   0.00000   0.01906   0.01906   2.90094
   R11        2.87618   0.00959   0.00000   0.02846   0.02846   2.90464
   R12        2.05972  -0.00394   0.00000  -0.01020  -0.01020   2.04952
   R13        2.05984  -0.00787   0.00000  -0.02036  -0.02036   2.03948
   R14        2.05966  -0.00420   0.00000  -0.01086  -0.01086   2.04880
   R15        2.32245  -0.04220   0.00000  -0.04257  -0.04257   2.27987
   R16        2.52287   0.01041   0.00000   0.01633   0.01633   2.53920
   R17        1.90849  -0.01722   0.00000  -0.03405  -0.03405   1.87444
   R18        2.73835   0.00144   0.00000   0.00339   0.00339   2.74173
   R19        2.05983  -0.01017   0.00000  -0.02633  -0.02633   2.03350
   R20        2.05976  -0.00383   0.00000  -0.00992  -0.00992   2.04984
   R21        2.05978  -0.00421   0.00000  -0.01089  -0.01089   2.04889
    A1        1.91119   0.00013   0.00000  -0.00120  -0.00084   1.91035
    A2        1.91112   0.00038   0.00000  -0.00017   0.00014   1.91126
    A3        1.93900  -0.00793   0.00000  -0.04474  -0.04440   1.89460
    A4        1.91012  -0.00486   0.00000  -0.02182  -0.02255   1.88757
    A5        1.89609   0.00648   0.00000   0.03594   0.03574   1.93183
    A6        1.89604   0.00584   0.00000   0.03237   0.03214   1.92818
    A7        2.10320   0.00748   0.00000   0.02654   0.02654   2.12975
    A8        2.03508  -0.00658   0.00000  -0.02337  -0.02337   2.01171
    A9        2.14490  -0.00089   0.00000  -0.00317  -0.00317   2.14173
   A10        2.09426  -0.00467   0.00000  -0.02043  -0.02152   2.07274
   A11        2.12756   0.00680   0.00000   0.02724   0.02613   2.15369
   A12        2.06136  -0.00214   0.00000  -0.00682  -0.00797   2.05340
   A13        1.91114  -0.00293   0.00000  -0.06001  -0.05988   1.85126
   A14        1.93905  -0.00264   0.00000   0.00330   0.00153   1.94058
   A15        1.93900   0.00059   0.00000   0.01896   0.01761   1.95662
   A16        1.89609   0.00086   0.00000   0.00558   0.00560   1.90169
   A17        1.89608  -0.00367   0.00000  -0.02630  -0.02675   1.86933
   A18        1.88137   0.00790   0.00000   0.05927   0.05864   1.94002
   A19        1.91115   0.00466   0.00000   0.02434   0.02421   1.93536
   A20        1.91106   0.00344   0.00000   0.01920   0.01906   1.93012
   A21        1.91110  -0.00020   0.00000  -0.00096  -0.00098   1.91012
   A22        1.91011  -0.00409   0.00000  -0.02223  -0.02247   1.88763
   A23        1.91023  -0.00246   0.00000  -0.01459  -0.01459   1.89564
   A24        1.91015  -0.00137   0.00000  -0.00580  -0.00583   1.90432
   A25        2.10312  -0.00004   0.00000  -0.00014  -0.00059   2.10253
   A26        2.03504   0.00189   0.00000   0.00672   0.00627   2.04130
   A27        2.14503  -0.00185   0.00000  -0.00657  -0.00702   2.13801
   A28        2.09444  -0.00571   0.00000  -0.02586  -0.02604   2.06840
   A29        2.12752   0.00705   0.00000   0.02821   0.02803   2.15555
   A30        2.06122  -0.00134   0.00000  -0.00235  -0.00254   2.05869
   A31        1.91114  -0.00415   0.00000  -0.02452  -0.02438   1.88676
   A32        1.91107   0.00433   0.00000   0.02454   0.02439   1.93546
   A33        1.91103   0.00420   0.00000   0.02358   0.02342   1.93446
   A34        1.91016  -0.00059   0.00000  -0.00512  -0.00498   1.90517
   A35        1.91018  -0.00064   0.00000  -0.00584  -0.00571   1.90447
   A36        1.91022  -0.00316   0.00000  -0.01266  -0.01308   1.89714
    D1       -0.00005  -0.00004   0.00000  -0.00036  -0.00035  -0.00040
    D2       -3.14156   0.00000   0.00000   0.00110   0.00112  -3.14044
    D3        2.10334  -0.00060   0.00000  -0.00630  -0.00674   2.09660
    D4       -1.03817  -0.00056   0.00000  -0.00484  -0.00527  -1.04343
    D5       -2.10332   0.00062   0.00000   0.00660   0.00701  -2.09631
    D6        1.03836   0.00066   0.00000   0.00806   0.00848   1.04684
    D7       -0.00012  -0.00067   0.00000  -0.03567  -0.03534  -0.03546
    D8       -3.14159   0.00151   0.00000   0.05509   0.05477  -3.08683
    D9        3.14156  -0.00062   0.00000  -0.03418  -0.03386   3.10771
   D10        0.00009   0.00155   0.00000   0.05658   0.05625   0.05634
   D11       -0.26187  -0.00174   0.00000  -0.05975  -0.05978  -0.32165
   D12        1.83257  -0.00425   0.00000  -0.08974  -0.08929   1.74327
   D13       -2.35626   0.00436   0.00000   0.00000   0.00000  -2.35627
   D14        2.87984   0.00040   0.00000   0.02936   0.02939   2.90923
   D15       -1.30891  -0.00211   0.00000  -0.00062  -0.00012  -1.30903
   D16        0.78545   0.00649   0.00000   0.08912   0.08917   0.87462
   D17        1.04724   0.00293   0.00000   0.04425   0.04446   1.09170
   D18        3.14157   0.00289   0.00000   0.04371   0.04403  -3.09758
   D19       -1.04726   0.00321   0.00000   0.04779   0.04806  -0.99920
   D20       -3.13259  -0.00177   0.00000  -0.02438  -0.02463   3.12596
   D21       -1.03826  -0.00182   0.00000  -0.02492  -0.02505  -1.06332
   D22        1.05609  -0.00150   0.00000  -0.02084  -0.02103   1.03506
   D23       -1.08102  -0.00134   0.00000  -0.02007  -0.02020  -1.10122
   D24        1.01331  -0.00138   0.00000  -0.02061  -0.02062   0.99269
   D25        3.10766  -0.00106   0.00000  -0.01653  -0.01659   3.09107
   D26       -2.61796  -0.00302   0.00000  -0.05400  -0.05433  -2.67228
   D27        0.52362  -0.00131   0.00000   0.00000   0.00000   0.52362
   D28        1.56191   0.00261   0.00000   0.02555   0.02528   1.58720
   D29       -1.57969   0.00432   0.00000   0.07955   0.07961  -1.50008
   D30       -0.48967  -0.00076   0.00000   0.00062   0.00134  -0.48833
   D31        2.65191   0.00095   0.00000   0.05463   0.05566   2.70758
   D32        0.00001   0.00005   0.00000  -0.00179  -0.00198  -0.00197
   D33       -3.14158  -0.00115   0.00000  -0.03819  -0.03810   3.10351
   D34        3.14159   0.00180   0.00000   0.05363   0.05354  -3.08806
   D35        0.00000   0.00061   0.00000   0.01723   0.01742   0.01743
   D36        0.00002   0.00056   0.00000   0.01832   0.01841   0.01844
   D37        2.09441  -0.00005   0.00000   0.01206   0.01193   2.10635
   D38       -2.09438   0.00131   0.00000   0.02605   0.02636  -2.06802
   D39       -3.14156  -0.00061   0.00000  -0.01742  -0.01751   3.12411
   D40       -1.04717  -0.00122   0.00000  -0.02368  -0.02399  -1.07117
   D41        1.04722   0.00014   0.00000  -0.00969  -0.00957   1.03766
         Item               Value     Threshold  Converged?
 Maximum Force            0.044772     0.000450     NO 
 RMS     Force            0.007959     0.000300     NO 
 Maximum Displacement     0.232014     0.001800     NO 
 RMS     Displacement     0.067235     0.001200     NO 
 Predicted change in Energy=-7.683763D-03
 GradGradGradGradGradGradGradGradGradGradGradGradGradGradGradGradGradGrad

                          Input orientation:                          
 ---------------------------------------------------------------------
 Center     Atomic      Atomic             Coordinates (Angstroms)
 Number     Number       Type             X           Y           Z
 ---------------------------------------------------------------------
      1          1           0        1.800758    1.507957    1.367043
      2          6           0        1.896249    2.325976    0.671365
      3          1           0        1.129201    3.067059    0.876862
      4          1           0        1.750740    1.960263   -0.340438
      5          6           0        3.277415    2.929145    0.823309
      6          8           0        4.077166    2.502672    1.617531
      7          7           0        3.542549    3.972870    0.010407
      8          1           0        2.849314    4.258173   -0.644086
      9          6           0        4.832948    4.641463   -0.038817
     10          1           0        5.343787    4.372682    0.873556
     11          6           0        5.663026    4.157930   -1.236205
     12          1           0        5.169330    4.398623   -2.171406
     13          1           0        6.634899    4.627219   -1.238524
     14          1           0        5.788264    3.082594   -1.177791
     15          6           0        4.691574    6.172009   -0.043729
     16          8           0        5.541901    6.863246   -0.548377
     17          7           0        3.624204    6.687190    0.589362
     18          1           0        2.984993    6.064874    1.022975
     19          6           0        3.376003    8.111419    0.711720
     20          1           0        4.167473    8.633679    0.203027
     21          1           0        2.426121    8.378674    0.261239
     22          1           0        3.363783    8.412684    1.753178
 ---------------------------------------------------------------------
                    Distance matrix (angstroms):
                    1          2          3          4          5
     1  H    0.000000
     2  C    1.078072   0.000000
     3  H    1.766936   1.086184   0.000000
     4  H    1.767080   1.085662   1.758729   0.000000
     5  C    2.120362   1.514768   2.153303   2.150297   0.000000
     6  O    2.496845   2.383873   3.091540   3.088707   1.205101
     7  N    3.309092   2.420626   2.719464   2.717399   1.349247
     8  H    3.564799   2.524308   2.586663   2.565045   2.025545
     9  C    4.581427   3.806579   4.127343   4.096318   2.468801
    10  H    4.582927   4.014400   4.412187   4.494834   2.521153
    11  C    5.358765   4.602553   5.119631   4.575820   3.382699
    12  H    5.676605   4.805234   5.233321   4.580918   3.834974
    13  H    6.315670   5.603410   6.100957   5.636864   4.290374
    14  H    4.985565   4.374887   5.092024   4.273452   3.214391
    15  C    5.665727   4.808032   4.814426   5.145420   3.642495
    16  O    6.807650   5.946879   5.992851   6.201241   4.742001
    17  N    5.545646   4.691774   4.406024   5.168969   3.781256
    18  H    4.720835   3.910032   3.528768   4.497789   3.155658
    19  C    6.820304   5.971822   5.524578   6.448662   5.184413
    20  H    7.598169   6.720485   6.377492   7.118317   5.806777
    21  H    6.987176   6.089674   5.502204   6.481833   5.544186
    22  H    7.089951   6.353896   5.859778   6.972724   5.562492
                    6          7          8          9         10
     6  O    0.000000
     7  N    2.242798   0.000000
     8  H    3.115175   0.995155   0.000000
     9  C    2.808758   1.454156   2.109044   0.000000
    10  H    2.377975   2.036991   2.922112   1.079640   0.000000
    11  C    3.660416   2.466721   2.877087   1.535113   2.144557
    12  H    4.375328   2.754630   2.781170   2.172570   3.050066
    13  H    4.383236   3.398622   3.849702   2.164839   2.488502
    14  H    3.328362   2.692144   3.210024   2.154057   2.463719
    15  C    4.074471   2.481814   2.723439   1.537069   2.122350
    16  O    5.084409   3.558641   3.747745   2.387171   2.874727
    17  N    4.332724   2.776579   2.832309   2.457778   2.897357
    18  H    3.773012   2.390114   2.462046   2.562897   2.906846
    19  C    5.724523   4.200853   4.118631   3.837524   4.228063
    20  H    6.292712   4.706461   4.647601   4.054521   4.470953
    21  H    6.252430   4.551971   4.239958   4.455289   4.993564
    22  H    5.954457   4.772962   4.824056   4.426263   4.584296
                   11         12         13         14         15
    11  C    0.000000
    12  H    1.084559   0.000000
    13  H    1.079248   1.752260   0.000000
    14  H    1.084179   1.761330   1.762483   0.000000
    15  C    2.534213   2.810722   2.755072   3.468906   0.000000
    16  O    2.794014   2.974457   2.582782   3.840597   1.206456
    17  N    3.726480   3.904714   4.080310   4.560603   1.343687
    18  H    3.989010   4.213287   4.528029   4.647117   2.015380
    19  C    4.965376   5.031231   5.153979   5.888832   2.462263
    20  H    4.933599   4.957554   4.921177   5.945433   2.528911
    21  H    5.525810   5.411448   5.834083   6.436092   3.177209
    22  H    5.685584   5.897037   5.829256   6.548172   3.164258
                   16         17         18         19         20
    16  O    0.000000
    17  N    2.236740   0.000000
    18  H    3.105532   0.991911   0.000000
    19  C    2.799445   1.450863   2.106684   0.000000
    20  H    2.363915   2.057478   2.944373   1.076080   0.000000
    21  H    3.558102   2.098616   2.499250   1.084728   1.760887
    22  H    3.527338   2.097526   2.487748   1.084226   1.760035
                   21         22
    21  H    0.000000
    22  H    1.762455   0.000000
 Stoichiometry    C6H12N2O2
 Framework group  C1[X(C6H12N2O2)]
 Deg. of freedom    60
 Full point group                 C1      NOp   1
 Largest Abelian subgroup         C1      NOp   1
 Largest concise Abelian subgroup C1      NOp   1
                         Standard orientation:                         
 ---------------------------------------------------------------------
 Center     Atomic      Atomic             Coordinates (Angstroms)
 Number     Number       Type             X           Y           Z
 ---------------------------------------------------------------------
      1          1           0        3.930582   -1.368909   -0.076539
      2          6           0        3.030362   -1.198466   -0.644688
      3          1           0        2.554800   -2.150255   -0.863167
      4          1           0        3.281317   -0.721573   -1.587162
      5          6           0        2.107897   -0.313448    0.167915
      6          8           0        2.409645    0.089554    1.262815
      7          7           0        0.931284   -0.013946   -0.420599
      8          1           0        0.754842   -0.354514   -1.338866
      9          6           0       -0.056686    0.873795    0.171348
     10          1           0        0.187360    0.934827    1.221272
     11          6           0        0.022184    2.279046   -0.441533
     12          1           0       -0.202699    2.251509   -1.502164
     13          1           0       -0.684508    2.941103    0.034956
     14          1           0        1.023142    2.674365   -0.310194
     15          6           0       -1.480599    0.303795    0.070584
     16          8           0       -2.434725    1.041803    0.047695
     17          7           0       -1.602866   -1.034307    0.075725
     18          1           0       -0.780272   -1.584656    0.141622
     19          6           0       -2.879687   -1.722017    0.033450
     20          1           0       -3.657425   -0.980220   -0.019553
     21          1           0       -2.943067   -2.367025   -0.836367
     22          1           0       -3.023173   -2.323964    0.923739
 ---------------------------------------------------------------------
 Rotational constants (GHZ):      2.0286684      0.7907466      0.6354949
 Standard basis: 6-31G(d) (6D, 7F)
 There are   174 symmetry adapted basis functions of A   symmetry.
 Integral buffers will be    131072 words long.
 Raffenetti 1 integral format.
 Two-electron integral symmetry is turned on.
   174 basis functions,   328 primitive gaussians,   174 cartesian basis functions
    39 alpha electrons       39 beta electrons
       nuclear repulsion energy       554.6060201967 Hartrees.
 NAtoms=   22 NActive=   22 NUniq=   22 SFac= 7.50D-01 NAtFMM=   80 NAOKFM=F Big=F
 One-electron integrals computed using PRISM.
 NBasis=   174 RedAO= T  NBF=   174
 NBsUse=   174 1.00D-06 NBFU=   174
 Initial guess read from the read-write file.
 B after Tr=     0.000000    0.000000    0.000000
         Rot=    1.000000    0.000000    0.000000    0.000000 Ang=   0.00 deg.
 Initial guess orbital symmetries:
       Occupied  (A) (A) (A) (A) (A) (A) (A) (A) (A) (A) (A) (A)
                 (A) (A) (A) (A) (A) (A) (A) (A) (A) (A) (A) (A)
                 (A) (A) (A) (A) (A) (A) (A) (A) (A) (A) (A) (A)
                 (A) (A) (A)
       Virtual   (A) (A) (A) (A) (A) (A) (A) (A) (A) (A) (A) (A)
                 (A) (A) (A) (A) (A) (A) (A) (A) (A) (A) (A) (A)
                 (A) (A) (A) (A) (A) (A) (A) (A) (A) (A) (A) (A)
                 (A) (A) (A) (A) (A) (A) (A) (A) (A) (A) (A) (A)
                 (A) (A) (A) (A) (A) (A) (A) (A) (A) (A) (A) (A)
                 (A) (A) (A) (A) (A) (A) (A) (A) (A) (A) (A) (A)
                 (A) (A) (A) (A) (A) (A) (A) (A) (A) (A) (A) (A)
                 (A) (A) (A) (A) (A) (A) (A) (A) (A) (A) (A) (A)
                 (A) (A) (A) (A) (A) (A) (A) (A) (A) (A) (A) (A)
                 (A) (A) (A) (A) (A) (A) (A) (A) (A) (A) (A) (A)
                 (A) (A) (A) (A) (A) (A) (A) (A) (A) (A) (A) (A)
                 (A) (A) (A)
 Harris functional with IExCor=  205 diagonalized for initial guess.
 ExpMin= 1.61D-01 ExpMax= 5.48D+03 ExpMxC= 8.25D+02 IAcc=1 IRadAn=         1 AccDes= 0.00D+00
 HarFok:  IExCor=  205 AccDes= 0.00D+00 IRadAn=         1 IDoV= 1
 ScaDFX=  1.000000  1.000000  1.000000  1.000000
 FoFCou: FMM=F IPFlag=           0 FMFlag=      100000 FMFlg1=           0
         NFxFlg=           0 DoJE=T BraDBF=F KetDBF=T FulRan=T
         Omega=  0.000000  0.000000  1.000000  0.000000  0.000000 ICntrl=     500 IOpCl=  0
         NMat0=    1 NMatS0=    1 NMatT0=    0 NMatD0=    1 NMtDS0=    0 NMtDT0=    0
         I1Cent=           4 NGrid=           0.
 Petite list used in FoFCou.
 Requested convergence on RMS density matrix=1.00D-08 within 128 cycles.
 Requested convergence on MAX density matrix=1.00D-06.
 Requested convergence on             energy=1.00D-06.
 No special actions if energy rises.
 Integral accuracy reduced to 1.0D-05 until final iterations.
 Initial convergence to 1.0D-05 achieved.  Increase integral accuracy.
 SCF Done:  E(RHF) =  -492.855273573     A.U. after   13 cycles
             Convg  =    0.9862D-08             -V/T =  2.0016
 Calling FoFJK, ICntrl=      2127 FMM=F ISym2X=0 I1Cent= 0 IOpClX= 0 NMat=1 NMatS=1 NMatT=0.
 ***** Axes restored to original set *****
 -------------------------------------------------------------------
 Center     Atomic                   Forces (Hartrees/Bohr)
 Number     Number              X              Y              Z
 -------------------------------------------------------------------
      1        1          -0.000556825   -0.000788563    0.000473741
      2        6           0.000737028    0.001742020   -0.000908722
      3        1          -0.000054238   -0.000509056   -0.000334859
      4        1          -0.000385454    0.000037465    0.000328397
      5        6           0.005513461   -0.011737138    0.011016664
      6        8          -0.006007132    0.003698671   -0.006010286
      7        7          -0.000496525    0.012539370   -0.000800522
      8        1           0.000152561   -0.002499776   -0.002123244
      9        6          -0.000821203   -0.002336096   -0.007827982
     10        1           0.000505764    0.000850173    0.001433676
     11        6          -0.001526808    0.001787681    0.003521043
     12        1          -0.000223642    0.000234125   -0.000402381
     13        1           0.000794141    0.000774017   -0.000231712
     14        1          -0.000425139    0.000399455    0.000735318
     15        6           0.012967832    0.005839250   -0.001155863
     16        8          -0.004663265   -0.006811034    0.000625959
     17        7          -0.008296663    0.001180329    0.001312461
     18        1           0.000132866   -0.001705645    0.000747043
     19        6           0.001770618   -0.002812136   -0.000059043
     20        1           0.000577275    0.001039230   -0.000326116
     21        1           0.000044298   -0.000594942   -0.000111864
     22        1           0.000261050   -0.000327400    0.000098292
 -------------------------------------------------------------------
 Cartesian Forces:  Max     0.012967832 RMS     0.003896366

 GradGradGradGradGradGradGradGradGradGradGradGradGradGradGradGradGradGrad
 Berny optimization.
 Using GEDIIS/GDIIS optimizer.
 Internal  Forces:  Max     0.009256560 RMS     0.002018991
 Search for a local minimum.
 Step number   2 out of a maximum of  108
 All quantities printed in internal units (Hartrees-Bohrs-Radians)
 Mixed Optimization -- RFO/linear search
 Update second derivatives using D2CorX and points    1    2
 DE= -7.04D-03 DEPred=-7.68D-03 R= 9.16D-01
 SS=  1.41D+00  RLast= 3.00D-01 DXNew= 5.0454D-01 8.9977D-01
 Trust test= 9.16D-01 RLast= 3.00D-01 DXMaxT set to 5.05D-01
 Use linear search instead of GDIIS.
     Eigenvalues ---    0.00370   0.00435   0.01003   0.01043   0.01250
     Eigenvalues ---    0.01396   0.01650   0.02549   0.02555   0.03460
     Eigenvalues ---    0.05354   0.05640   0.05751   0.05958   0.07155
     Eigenvalues ---    0.07317   0.07466   0.07746   0.15699   0.15930
     Eigenvalues ---    0.15996   0.16000   0.16000   0.16000   0.16000
     Eigenvalues ---    0.16000   0.16000   0.16000   0.16149   0.16645
     Eigenvalues ---    0.16831   0.21992   0.22208   0.24468   0.24977
     Eigenvalues ---    0.25000   0.25758   0.29359   0.29992   0.31441
     Eigenvalues ---    0.34761   0.34808   0.34809   0.34811   0.34814
     Eigenvalues ---    0.34815   0.34815   0.34817   0.34819   0.36281
     Eigenvalues ---    0.38320   0.38803   0.45965   0.47235   0.55684
     Eigenvalues ---    0.58351   0.83707   0.915341000.000001000.00000
     Eigenvalues --- 1000.000001000.000001000.000001000.000001000.00000
     Eigenvalues --- 1000.000001000.000001000.000001000.000001000.00000
     Eigenvalues --- 1000.000001000.000001000.000001000.000001000.00000
     Eigenvalues --- 1000.000001000.000001000.000001000.000001000.00000
     Eigenvalues --- 1000.000001000.000001000.000001000.000001000.00000
     Eigenvalues --- 1000.000001000.000001000.000001000.000001000.00000
     Eigenvalues --- 1000.000001000.000001000.000001000.000001000.00000
     Eigenvalues --- 1000.000001000.000001000.00000
 RFO step:  Lambda=-1.88411925D-03 EMin= 3.69657730D-03
 Quartic linear search produced a step of  0.07119.
 Iteration  1 RMS(Cart)=  0.03873046 RMS(Int)=  0.00104841
 Iteration  2 RMS(Cart)=  0.00115838 RMS(Int)=  0.00031355
 Iteration  3 RMS(Cart)=  0.00000114 RMS(Int)=  0.00031355
 Iteration  4 RMS(Cart)=  0.00000000 RMS(Int)=  0.00031355
 Iteration  1 RMS(Cart)=  0.00006144 RMS(Int)=  0.00001991
 Iteration  2 RMS(Cart)=  0.00003278 RMS(Int)=  0.00002220
 Iteration  3 RMS(Cart)=  0.00001773 RMS(Int)=  0.00002509
 Iteration  4 RMS(Cart)=  0.00000979 RMS(Int)=  0.00002705
 Iteration  5 RMS(Cart)=  0.00000557 RMS(Int)=  0.00002827
 Iteration  6 RMS(Cart)=  0.00000328 RMS(Int)=  0.00002901
 Iteration  7 RMS(Cart)=  0.00000201 RMS(Int)=  0.00002945
 Iteration  8 RMS(Cart)=  0.00000128 RMS(Int)=  0.00002973
 Iteration  9 RMS(Cart)=  0.00000083 RMS(Int)=  0.00002990
 Variable       Old X    -DE/DX   Delta X   Delta X   Delta X     New X
                                 (Linear)    (Quad)   (Total)
    R1        2.03726   0.00095  -0.00161   0.00179   0.00018   2.03744
    R2        2.05259  -0.00037  -0.00051  -0.00149  -0.00200   2.05059
    R3        2.05160  -0.00027  -0.00059  -0.00123  -0.00181   2.04979
    R4        2.86250   0.00009  -0.00204  -0.00109  -0.00313   2.85936
    R5        2.27731  -0.00926  -0.00322  -0.01311  -0.01632   2.26099
    R6        2.54971   0.00874   0.00191   0.01732   0.01923   2.56894
    R7        1.88057   0.00057  -0.00200  -0.00009  -0.00209   1.87848
    R8        2.74796  -0.00011   0.00070   0.00018   0.00087   2.74883
    R9        2.04022   0.00124  -0.00139   0.00281   0.00142   2.04165
   R10        2.90094  -0.00458   0.00136  -0.01532  -0.01396   2.88698
   R11        2.90464  -0.00444   0.00203  -0.01420  -0.01217   2.89247
   R12        2.04952   0.00050  -0.00073   0.00102   0.00030   2.04982
   R13        2.03948   0.00105  -0.00145   0.00220   0.00075   2.04023
   R14        2.04880  -0.00041  -0.00077  -0.00178  -0.00255   2.04625
   R15        2.27987  -0.00745  -0.00303  -0.01087  -0.01390   2.26597
   R16        2.53920   0.00393   0.00116   0.00799   0.00916   2.54836
   R17        1.87444   0.00131  -0.00242   0.00132  -0.00111   1.87333
   R18        2.74173  -0.00313   0.00024  -0.00851  -0.00827   2.73347
   R19        2.03350   0.00108  -0.00187   0.00200   0.00012   2.03362
   R20        2.04984  -0.00014  -0.00071  -0.00092  -0.00162   2.04822
   R21        2.04889   0.00000  -0.00078  -0.00054  -0.00131   2.04758
    A1        1.91035  -0.00042  -0.00006  -0.00220  -0.00224   1.90811
    A2        1.91126  -0.00043   0.00001  -0.00241  -0.00238   1.90888
    A3        1.89460   0.00058  -0.00316   0.00228  -0.00085   1.89374
    A4        1.88757  -0.00055  -0.00161  -0.00563  -0.00730   1.88027
    A5        1.93183   0.00042   0.00254   0.00422   0.00675   1.93858
    A6        1.92818   0.00037   0.00229   0.00362   0.00588   1.93406
    A7        2.12975   0.00103   0.00189   0.00563   0.00750   2.13724
    A8        2.01171  -0.00124  -0.00166  -0.00640  -0.00809   2.00362
    A9        2.14173   0.00022  -0.00023   0.00075   0.00050   2.14223
   A10        2.07274  -0.00055  -0.00153  -0.00778  -0.01080   2.06194
   A11        2.15369  -0.00057   0.00186  -0.00303  -0.00268   2.15101
   A12        2.05340   0.00101  -0.00057   0.00366   0.00152   2.05492
   A13        1.85126  -0.00014  -0.00426   0.00059  -0.00386   1.84740
   A14        1.94058   0.00176   0.00011   0.01554   0.01559   1.95617
   A15        1.95662  -0.00063   0.00125  -0.00131  -0.00033   1.95629
   A16        1.90169   0.00009   0.00040   0.00288   0.00328   1.90497
   A17        1.86933  -0.00064  -0.00190  -0.01867  -0.02063   1.84870
   A18        1.94002  -0.00050   0.00417  -0.00026   0.00383   1.94384
   A19        1.93536   0.00007   0.00172   0.00147   0.00318   1.93854
   A20        1.93012   0.00020   0.00136   0.00235   0.00369   1.93381
   A21        1.91012  -0.00117  -0.00007  -0.00786  -0.00792   1.90220
   A22        1.88763  -0.00013  -0.00160  -0.00176  -0.00338   1.88425
   A23        1.89564   0.00053  -0.00104   0.00248   0.00145   1.89708
   A24        1.90432   0.00054  -0.00041   0.00348   0.00307   1.90739
   A25        2.10253  -0.00063  -0.00004  -0.00181  -0.00246   2.10006
   A26        2.04130  -0.00560   0.00045  -0.02240  -0.02257   2.01873
   A27        2.13801   0.00628  -0.00050   0.02747   0.02635   2.16436
   A28        2.06840  -0.00039  -0.00185  -0.00545  -0.00753   2.06087
   A29        2.15555  -0.00142   0.00200  -0.00572  -0.00396   2.15159
   A30        2.05869   0.00178  -0.00018   0.01003   0.00960   2.06829
   A31        1.88676   0.00111  -0.00174   0.00695   0.00523   1.89199
   A32        1.93546  -0.00091   0.00174  -0.00525  -0.00353   1.93193
   A33        1.93446  -0.00058   0.00167  -0.00316  -0.00150   1.93295
   A34        1.90517   0.00001  -0.00035   0.00066   0.00032   1.90549
   A35        1.90447  -0.00018  -0.00041  -0.00075  -0.00114   1.90333
   A36        1.89714   0.00056  -0.00093   0.00163   0.00066   1.89780
    D1       -0.00040  -0.00006  -0.00002   0.00158   0.00155   0.00114
    D2       -3.14044   0.00012   0.00008   0.01434   0.01443  -3.12601
    D3        2.09660   0.00005  -0.00048   0.00288   0.00235   2.09895
    D4       -1.04343   0.00022  -0.00038   0.01563   0.01523  -1.02820
    D5       -2.09631  -0.00012   0.00050   0.00093   0.00145  -2.09486
    D6        1.04684   0.00005   0.00060   0.01368   0.01433   1.06117
    D7       -0.03546  -0.00071  -0.00252  -0.04942  -0.05164  -0.08710
    D8       -3.08683   0.00078   0.00390   0.04614   0.04978  -3.03704
    D9        3.10771  -0.00054  -0.00241  -0.03657  -0.03872   3.06898
   D10        0.05634   0.00095   0.00400   0.05899   0.06270   0.11903
   D11       -0.32165  -0.00095  -0.00426  -0.02275  -0.02710  -0.34875
   D12        1.74327   0.00002  -0.00636  -0.01061  -0.01704   1.72623
   D13       -2.35627   0.00023   0.00000   0.00000   0.00000  -2.35626
   D14        2.90923   0.00059   0.00209   0.07238   0.07453   2.98376
   D15       -1.30903   0.00156  -0.00001   0.08451   0.08459  -1.22444
   D16        0.87462   0.00178   0.00635   0.09513   0.10164   0.97626
   D17        1.09170  -0.00036   0.00316  -0.01546  -0.01224   1.07946
   D18       -3.09758  -0.00035   0.00313  -0.01516  -0.01196  -3.10954
   D19       -0.99920  -0.00031   0.00342  -0.01441  -0.01093  -1.01013
   D20        3.12596   0.00054  -0.00175  -0.00403  -0.00579   3.12017
   D21       -1.06332   0.00055  -0.00178  -0.00373  -0.00551  -1.06883
   D22        1.03506   0.00059  -0.00150  -0.00298  -0.00448   1.03058
   D23       -1.10122  -0.00049  -0.00144  -0.02527  -0.02677  -1.12799
   D24        0.99269  -0.00048  -0.00147  -0.02497  -0.02649   0.96620
   D25        3.09107  -0.00044  -0.00118  -0.02422  -0.02546   3.06561
   D26       -2.67228   0.00001  -0.00387   0.06642   0.06219  -2.61009
   D27        0.52362  -0.00100   0.00000   0.00000   0.00001   0.52363
   D28        1.58720   0.00090   0.00180   0.07765   0.07918   1.66637
   D29       -1.50008  -0.00010   0.00567   0.01123   0.01699  -1.48309
   D30       -0.48833   0.00147   0.00010   0.08573   0.08562  -0.40271
   D31        2.70758   0.00047   0.00396   0.01931   0.02343   2.73101
   D32       -0.00197   0.00048  -0.00014   0.04361   0.04374   0.04177
   D33        3.10351  -0.00015  -0.00271   0.00583   0.00364   3.10716
   D34       -3.08806  -0.00030   0.00381  -0.02325  -0.01996  -3.10802
   D35        0.01743  -0.00094   0.00124  -0.06103  -0.06006  -0.04264
   D36        0.01844   0.00036   0.00131   0.02202   0.02341   0.04185
   D37        2.10635   0.00053   0.00085   0.02406   0.02497   2.13131
   D38       -2.06802   0.00023   0.00188   0.02047   0.02244  -2.04557
   D39        3.12411  -0.00031  -0.00125  -0.01586  -0.01718   3.10693
   D40       -1.07117  -0.00015  -0.00171  -0.01382  -0.01563  -1.08679
   D41        1.03766  -0.00044  -0.00068  -0.01741  -0.01815   1.01951
         Item               Value     Threshold  Converged?
 Maximum Force            0.009257     0.000450     NO 
 RMS     Force            0.002034     0.000300     NO 
 Maximum Displacement     0.147269     0.001800     NO 
 RMS     Displacement     0.038545     0.001200     NO 
 Predicted change in Energy=-1.029859D-03
 GradGradGradGradGradGradGradGradGradGradGradGradGradGradGradGradGradGrad

                          Input orientation:                          
 ---------------------------------------------------------------------
 Center     Atomic      Atomic             Coordinates (Angstroms)
 Number     Number       Type             X           Y           Z
 ---------------------------------------------------------------------
      1          1           0        1.790449    1.524371    1.366878
      2          6           0        1.898973    2.327544    0.655839
      3          1           0        1.111122    3.056637    0.814613
      4          1           0        1.788517    1.935438   -0.349462
      5          6           0        3.264284    2.952619    0.842145
      6          8           0        4.041788    2.563610    1.664145
      7          7           0        3.529750    3.999202    0.016177
      8          1           0        2.861168    4.225311   -0.683827
      9          6           0        4.827300    4.653298   -0.050434
     10          1           0        5.332482    4.401106    0.870674
     11          6           0        5.660532    4.157286   -1.230957
     12          1           0        5.170208    4.375833   -2.173522
     13          1           0        6.630149    4.631997   -1.242175
     14          1           0        5.788110    3.085324   -1.146450
     15          6           0        4.703125    6.178865   -0.057161
     16          8           0        5.517601    6.850086   -0.626309
     17          7           0        3.636398    6.680920    0.597494
     18          1           0        3.033463    6.046377    1.062845
     19          6           0        3.381612    8.098613    0.729992
     20          1           0        4.146564    8.632847    0.193773
     21          1           0        2.412718    8.353869    0.316636
     22          1           0        3.405385    8.397248    1.771284
 ---------------------------------------------------------------------
                    Distance matrix (angstroms):
                    1          2          3          4          5
     1  H    0.000000
     2  C    1.078165   0.000000
     3  H    1.764744   1.085124   0.000000
     4  H    1.764881   1.084702   1.752433   0.000000
     5  C    2.118355   1.513111   2.155849   2.152318   0.000000
     6  O    2.497381   2.379929   3.090887   3.086494   1.196463
     7  N    3.312755   2.421372   2.715822   2.724831   1.359423
     8  H    3.556249   2.514368   2.583367   2.550666   2.027520
     9  C    4.584912   3.805661   4.136135   4.087833   2.476292
    10  H    4.589969   4.016814   4.430645   4.486417   2.525147
    11  C    5.353367   4.588822   5.108123   4.550401   3.389835
    12  H    5.664630   4.785578   5.210126   4.551764   3.840876
    13  H    6.315631   5.594371   6.096867   5.613356   4.300435
    14  H    4.973398   4.352915   5.071568   4.237236   3.215870
    15  C    5.672379   4.817085   4.838469   5.156263   3.645226
    16  O    6.799095   5.932264   5.990289   6.175473   4.735403
    17  N    5.530776   4.687636   4.422622   5.179863   3.754804
    18  H    4.699581   3.909277   3.563083   4.521540   3.110197
    19  C    6.793974   5.958939   5.530263   6.456617   5.148553
    20  H    7.580098   6.709844   6.379143   7.121149   5.784789
    21  H    6.937743   6.057688   5.477482   6.483021   5.493162
    22  H    7.071634   6.352543   5.890755   6.990480   5.525142
                    6          7          8          9         10
     6  O    0.000000
     7  N    2.244750   0.000000
     8  H    3.109354   0.994049   0.000000
     9  C    2.814890   1.454619   2.109511   0.000000
    10  H    2.381570   2.035076   2.924853   1.080393   0.000000
    11  C    3.679912   2.473978   2.853142   1.527723   2.141009
    12  H    4.391488   2.761836   2.752001   2.168426   3.048622
    13  H    4.407327   3.405342   3.831757   2.161241   2.490257
    14  H    3.349816   2.699456   3.174992   2.140782   2.451055
    15  C    4.058365   2.476513   2.757152   1.530627   2.101760
    16  O    5.079181   3.534385   3.734888   2.373610   2.876235
    17  N    4.272508   2.746073   2.876244   2.439121   2.854624
    18  H    3.675316   2.352178   2.529196   2.529410   2.833608
    19  C    5.651967   4.163731   4.155986   3.816973   4.182971
    20  H    6.245687   4.677891   4.674270   4.044731   4.446597
    21  H    6.164150   4.505681   4.271654   4.433867   4.945333
    22  H    5.869226   4.736948   4.871222   4.399734   4.527024
                   11         12         13         14         15
    11  C    0.000000
    12  H    1.084715   0.000000
    13  H    1.079645   1.750558   0.000000
    14  H    1.082830   1.761276   1.763630   0.000000
    15  C    2.526105   2.819233   2.740525   3.454524   0.000000
    16  O    2.763548   2.938788   2.556750   3.810138   1.199099
    17  N    3.716057   3.917209   4.067556   4.538669   1.348532
    18  H    3.966319   4.222614   4.499971   4.608352   2.014879
    19  C    4.957102   5.048620   5.143915   5.869015   2.459968
    20  H    4.934835   4.977359   4.923102   5.938508   2.528785
    21  H    5.527626   5.443290   5.836861   6.425843   3.180618
    22  H    5.663605   5.903209   5.801478   6.512072   3.154134
[...]
    14  H    5.086847   4.283612   4.821246   4.104107   3.225852
    15  C    5.615660   4.848612   4.826570   5.353907   3.641386
    16  O    6.766763   5.966498   5.953020   6.377626   4.739798
    17  N    5.432371   4.773550   4.544260   5.483780   3.765168
    18  H    4.590250   4.029243   3.783007   4.853822   3.133751
    19  C    6.701188   6.098028   5.751288   6.852263   5.169138
    20  H    7.384585   6.671570   6.268302   7.318371   5.782415
    21  H    6.671797   6.154797   5.673603   6.990862   5.429953
    22  H    7.254746   6.734394   6.509095   7.518446   5.661853
                    6          7          8          9         10
     6  O    0.000000
     7  N    2.251327   0.000000
     8  H    3.106358   0.996584   0.000000
     9  C    2.810515   1.453540   2.098710   0.000000
    10  H    2.357799   2.035402   2.924114   1.081883   0.000000
    11  C    3.714401   2.472708   2.754124   1.526645   2.141302
    12  H    4.424836   2.754698   2.632282   2.167881   3.049809
    13  H    4.439440   3.402751   3.749740   2.157697   2.493957
    14  H    3.421421   2.716058   3.058305   2.148063   2.453465
    15  C    4.028503   2.474720   2.823481   1.532277   2.107093
    16  O    5.056108   3.548390   3.800581   2.385301   2.874662
    17  N    4.231135   2.753674   3.020819   2.446059   2.866234
    18  H    3.628801   2.377700   2.720270   2.544774   2.843367
    19  C    5.585250   4.189192   4.357542   3.806010   4.148720
    20  H    6.300905   4.640940   4.640760   4.162895   4.681420
    21  H    5.907301   4.584899   4.675483   4.508458   4.843895
    22  H    5.868200   4.786390   5.124995   4.189333   4.292946
                   11         12         13         14         15
    11  C    0.000000
    12  H    1.085884   0.000000
    13  H    1.080394   1.750705   0.000000
    14  H    1.084205   1.762955   1.764003   0.000000
    15  C    2.525140   2.821999   2.728346   3.459620   0.000000
    16  O    2.786429   2.982755   2.556629   3.830032   1.201682
    17  N    3.717408   3.918679   4.056136   4.551541   1.346730
    18  H    3.981376   4.240840   4.501076   4.637878   2.016577
    19  C    4.944155   5.062304   5.094775   5.865363   2.435366
    20  H    5.036801   4.969789   5.107069   6.046453   2.683503
    21  H    5.747096   5.818058   6.022513   6.606660   3.303902
    22  H    5.323691   5.605579   5.301125   6.227351   2.833752
                   16         17         18         19         20
    16  O    0.000000
    17  N    2.238070   0.000000
    18  H    3.103178   0.992619   0.000000
    19  C    2.759959   1.446658   2.117736   0.000000
    20  H    2.638423   2.080073   2.906656   1.080489   0.000000
    21  H    3.792206   2.066090   2.313836   1.082048   1.760881
    22  H    2.954106   2.105987   2.733659   1.084583   1.755010
                   21         22
    21  H    0.000000
    22  H    1.763604   0.000000
 Stoichiometry    C6H12N2O2
 Framework group  C1[X(C6H12N2O2)]
 Deg. of freedom    60
 Full point group                 C1      NOp   1
 Largest Abelian subgroup         C1      NOp   1
 Largest concise Abelian subgroup C1      NOp   1
                         Standard orientation:                         
 ---------------------------------------------------------------------
 Center     Atomic      Atomic             Coordinates (Angstroms)
 Number     Number       Type             X           Y           Z
 ---------------------------------------------------------------------
      1          1           0        3.805368   -1.582125   -0.097284
      2          6           0        3.123160   -1.010880   -0.709741
      3          1           0        2.667861   -1.656652   -1.452179
      4          1           0        3.688100   -0.242246   -1.228653
      5          6           0        2.095888   -0.350562    0.184620
      6          8           0        2.302793   -0.136820    1.345112
      7          7           0        0.923517   -0.021008   -0.430460
      8          1           0        0.896660   -0.089016   -1.424357
      9          6           0       -0.062401    0.848347    0.189996
     10          1           0        0.156912    0.835415    1.249338
     11          6           0        0.031902    2.282882   -0.323680
     12          1           0       -0.149054    2.326442   -1.393494
     13          1           0       -0.702886    2.908602    0.161925
     14          1           0        1.022301    2.675795   -0.123103
     15          6           0       -1.484583    0.297353    0.042764
     16          8           0       -2.434524    1.032998    0.020882
     17          7           0       -1.599590   -1.043174   -0.015930
     18          1           0       -0.780546   -1.591405    0.101971
     19          6           0       -2.894102   -1.688411    0.010995
     20          1           0       -3.544423   -1.240868   -0.726734
     21          1           0       -2.764526   -2.736967   -0.222600
     22          1           0       -3.368593   -1.599508    0.982218
 ---------------------------------------------------------------------
 Rotational constants (GHZ):      2.0681787      0.7834895      0.6406079

 **********************************************************************

            Population analysis using the SCF density.

 **********************************************************************

 Orbital symmetries:
       Occupied  (A) (A) (A) (A) (A) (A) (A) (A) (A) (A) (A) (A)
                 (A) (A) (A) (A) (A) (A) (A) (A) (A) (A) (A) (A)
                 (A) (A) (A) (A) (A) (A) (A) (A) (A) (A) (A) (A)
                 (A) (A) (A)
       Virtual   (A) (A) (A) (A) (A) (A) (A) (A) (A) (A) (A) (A)
                 (A) (A) (A) (A) (A) (A) (A) (A) (A) (A) (A) (A)
                 (A) (A) (A) (A) (A) (A) (A) (A) (A) (A) (A) (A)
                 (A) (A) (A) (A) (A) (A) (A) (A) (A) (A) (A) (A)
                 (A) (A) (A) (A) (A) (A) (A) (A) (A) (A) (A) (A)
                 (A) (A) (A) (A) (A) (A) (A) (A) (A) (A) (A) (A)
                 (A) (A) (A) (A) (A) (A) (A) (A) (A) (A) (A) (A)
                 (A) (A) (A) (A) (A) (A) (A) (A) (A) (A) (A) (A)
                 (A) (A) (A) (A) (A) (A) (A) (A) (A) (A) (A) (A)
                 (A) (A) (A) (A) (A) (A) (A) (A) (A) (A) (A) (A)
                 (A) (A) (A) (A) (A) (A) (A) (A) (A) (A) (A) (A)
                 (A) (A) (A)
 The electronic state is 1-A.
 Alpha  occ. eigenvalues --  -20.53497 -20.52194 -15.59748 -15.58370 -11.36034
 Alpha  occ. eigenvalues --  -11.34318 -11.27918 -11.25776 -11.24295 -11.21841
 Alpha  occ. eigenvalues --   -1.40409  -1.39074  -1.25429  -1.22633  -1.05708
 Alpha  occ. eigenvalues --   -0.99805  -0.96315  -0.87754  -0.80527  -0.78795
 Alpha  occ. eigenvalues --   -0.73462  -0.68127  -0.66330  -0.64367  -0.62762
 Alpha  occ. eigenvalues --   -0.62246  -0.59944  -0.59307  -0.58344  -0.56058
 Alpha  occ. eigenvalues --   -0.55367  -0.53905  -0.52603  -0.52381  -0.50246
 Alpha  occ. eigenvalues --   -0.43341  -0.42921  -0.39636  -0.38417
 Alpha virt. eigenvalues --    0.19134   0.19296   0.21715   0.24114   0.26491
 Alpha virt. eigenvalues --    0.27240   0.27885   0.29599   0.30314   0.31882
 Alpha virt. eigenvalues --    0.32423   0.33297   0.33646   0.34520   0.37500
 Alpha virt. eigenvalues --    0.39014   0.41493   0.43784   0.46245   0.48901
 Alpha virt. eigenvalues --    0.54099   0.56769   0.61398   0.71051   0.72670
 Alpha virt. eigenvalues --    0.73397   0.74989   0.75895   0.76334   0.77788
 Alpha virt. eigenvalues --    0.80826   0.82361   0.84969   0.87115   0.88740
 Alpha virt. eigenvalues --    0.89123   0.95093   0.96476   0.97431   1.00297
 Alpha virt. eigenvalues --    1.01468   1.02322   1.05225   1.05863   1.07991
 Alpha virt. eigenvalues --    1.09328   1.12668   1.13166   1.14748   1.15741
 Alpha virt. eigenvalues --    1.17520   1.17619   1.18524   1.19317   1.20077
 Alpha virt. eigenvalues --    1.21227   1.22299   1.23244   1.25300   1.25658
 Alpha virt. eigenvalues --    1.27534   1.34726   1.34923   1.39046   1.42109
 Alpha virt. eigenvalues --    1.46645   1.49484   1.53359   1.55281   1.60691
 Alpha virt. eigenvalues --    1.61281   1.69643   1.70652   1.72629   1.72839
 Alpha virt. eigenvalues --    1.78348   1.79078   1.91230   1.92870   1.98393
 Alpha virt. eigenvalues --    1.99959   2.03923   2.08391   2.10060   2.12394
 Alpha virt. eigenvalues --    2.12938   2.16686   2.18267   2.19858   2.22084
 Alpha virt. eigenvalues --    2.24084   2.25551   2.27057   2.32427   2.35004
 Alpha virt. eigenvalues --    2.36452   2.37140   2.42134   2.44305   2.48477
 Alpha virt. eigenvalues --    2.51849   2.54615   2.56855   2.59695   2.61624
 Alpha virt. eigenvalues --    2.65917   2.69511   2.71925   2.74799   2.77879
 Alpha virt. eigenvalues --    2.80181   2.84877   2.86218   2.92509   2.97282
 Alpha virt. eigenvalues --    3.02996   3.03276   3.06965   3.10672   3.24332
 Alpha virt. eigenvalues --    3.33901   3.36411   3.42561   3.52779   3.57339
 Alpha virt. eigenvalues --    4.38477   4.43284   4.50040   4.53370   4.60541
 Alpha virt. eigenvalues --    4.66944   4.71498   4.83554   4.93061   5.06863
          Condensed to atoms (all electrons):
              1          2          3          4          5          6
     1  H    0.459465   0.384307  -0.020868  -0.017087  -0.031608   0.003199
     2  C    0.384307   5.269368   0.374814   0.376347   0.372863  -0.072030
     3  H   -0.020868   0.374814   0.522120  -0.024389  -0.036252   0.002192
     4  H   -0.017087   0.376347  -0.024389   0.489835  -0.027374   0.000213
     5  C   -0.031608   0.372863  -0.036252  -0.027374   4.151213   0.620321
     6  O    0.003199  -0.072030   0.002192   0.000213   0.620321   8.127944
     7  N    0.004092  -0.121145   0.005206   0.000813   0.250501  -0.107551
     8  H    0.000058   0.000030   0.000301   0.000074  -0.019557   0.002358
     9  C   -0.000094   0.004823  -0.000040  -0.000285  -0.021943   0.003366
    10  H   -0.000004   0.000577  -0.000028  -0.000016  -0.002023   0.011004
    11  C   -0.000001  -0.000211  -0.000004   0.000080  -0.000576   0.000026
    12  H    0.000000  -0.000006   0.000000  -0.000002  -0.000022  -0.000013
    13  H    0.000000   0.000003   0.000000  -0.000001  -0.000049  -0.000018
    14  H    0.000001  -0.000043  -0.000001  -0.000001   0.001153   0.000479
    15  C    0.000002  -0.000128   0.000008  -0.000001   0.000820  -0.000037
    16  O    0.000000   0.000000   0.000000   0.000000  -0.000036  -0.000001
    17  N    0.000001   0.000005  -0.000003   0.000000   0.000412   0.000033
    18  H   -0.000006   0.000018   0.000027   0.000002   0.000542  -0.000074
    19  C    0.000000   0.000000   0.000000   0.000000   0.000001   0.000000
    20  H    0.000000   0.000000   0.000000   0.000000   0.000000   0.000000
    21  H    0.000000   0.000000   0.000000   0.000000   0.000000   0.000000
    22  H    0.000000   0.000000   0.000000   0.000000   0.000000   0.000000
              7          8          9         10         11         12
     1  H    0.004092   0.000058  -0.000094  -0.000004  -0.000001   0.000000
     2  C   -0.121145   0.000030   0.004823   0.000577  -0.000211  -0.000006
     3  H    0.005206   0.000301  -0.000040  -0.000028  -0.000004   0.000000
     4  H    0.000813   0.000074  -0.000285  -0.000016   0.000080  -0.000002
     5  C    0.250501  -0.019557  -0.021943  -0.002023  -0.000576  -0.000022
     6  O   -0.107551   0.002358   0.003366   0.011004   0.000026  -0.000013
     7  N    7.474654   0.321230   0.141592  -0.038244  -0.069029  -0.001695
     8  H    0.321230   0.330566  -0.024203   0.003153   0.000208   0.002636
     9  C    0.141592  -0.024203   5.139267   0.400689   0.349891  -0.036095
    10  H   -0.038244   0.003153   0.400689   0.429157  -0.028884   0.003422
    11  C   -0.069029   0.000208   0.349891  -0.028884   5.101148   0.389642
    12  H   -0.001695   0.002636  -0.036095   0.003422   0.389642   0.539788
    13  H    0.004304  -0.000048  -0.032214  -0.001086   0.390723  -0.021801
    14  H   -0.002095  -0.000130  -0.039468  -0.003260   0.391527  -0.028480
    15  C   -0.045042  -0.002285   0.385856  -0.032393  -0.059425  -0.005317
    16  O    0.001629  -0.000010  -0.078039   0.000346   0.003549   0.001005
    17  N   -0.004990   0.002039  -0.124097  -0.000266   0.003771  -0.000042
    18  H    0.009095  -0.000160  -0.002037   0.000094   0.000302  -0.000015
    19  C   -0.000028  -0.000056   0.004241  -0.000182  -0.000115  -0.000009
    20  H   -0.000039  -0.000007   0.000225  -0.000008   0.000013  -0.000002
    21  H   -0.000008  -0.000003   0.000050  -0.000001   0.000001   0.000000
    22  H   -0.000001   0.000003  -0.000246   0.000033  -0.000010   0.000000
             13         14         15         16         17         18
     1  H    0.000000   0.000001   0.000002   0.000000   0.000001  -0.000006
     2  C    0.000003  -0.000043  -0.000128   0.000000   0.000005   0.000018
     3  H    0.000000  -0.000001   0.000008   0.000000  -0.000003   0.000027
     4  H   -0.000001  -0.000001  -0.000001   0.000000   0.000000   0.000002
     5  C   -0.000049   0.001153   0.000820  -0.000036   0.000412   0.000542
     6  O   -0.000018   0.000479  -0.000037  -0.000001   0.000033  -0.000074
     7  N    0.004304  -0.002095  -0.045042   0.001629  -0.004990   0.009095
     8  H   -0.000048  -0.000130  -0.002285  -0.000010   0.002039  -0.000160
     9  C   -0.032214  -0.039468   0.385856  -0.078039  -0.124097  -0.002037
    10  H   -0.001086  -0.003260  -0.032393   0.000346  -0.000266   0.000094
    11  C    0.390723   0.391527  -0.059425   0.003549   0.003771   0.000302
    12  H   -0.021801  -0.028480  -0.005317   0.001005  -0.000042  -0.000015
    13  H    0.473861  -0.023314  -0.002167   0.003967   0.000139  -0.000020
    14  H   -0.023314   0.525390   0.005063   0.000246  -0.000032  -0.000008
    15  C   -0.002167   0.005063   4.139649   0.609106   0.295620  -0.022196
    16  O    0.003967   0.000246   0.609106   8.168353  -0.106297   0.002492
    17  N    0.000139  -0.000032   0.295620  -0.106297   7.324910   0.324838
    18  H   -0.000020  -0.000008  -0.022196   0.002492   0.324838   0.311692
    19  C   -0.000003   0.000001  -0.030376   0.007585   0.200773  -0.022788
    20  H   -0.000001   0.000000  -0.003725   0.003617  -0.039829   0.002617
    21  H    0.000000   0.000000   0.004168   0.000365  -0.038470  -0.003998
    22  H    0.000001   0.000000  -0.002237   0.001438  -0.047342   0.000839
             19         20         21         22
     1  H    0.000000   0.000000   0.000000   0.000000
     2  C    0.000000   0.000000   0.000000   0.000000
     3  H    0.000000   0.000000   0.000000   0.000000
     4  H    0.000000   0.000000   0.000000   0.000000
     5  C    0.000001   0.000000   0.000000   0.000000
     6  O    0.000000   0.000000   0.000000   0.000000
     7  N   -0.000028  -0.000039  -0.000008  -0.000001
     8  H   -0.000056  -0.000007  -0.000003   0.000003
     9  C    0.004241   0.000225   0.000050  -0.000246
    10  H   -0.000182  -0.000008  -0.000001   0.000033
    11  C   -0.000115   0.000013   0.000001  -0.000010
    12  H   -0.000009  -0.000002   0.000000   0.000000
    13  H   -0.000003  -0.000001   0.000000   0.000001
    14  H    0.000001   0.000000   0.000000   0.000000
    15  C   -0.030376  -0.003725   0.004168  -0.002237
    16  O    0.007585   0.003617   0.000365   0.001438
    17  N    0.200773  -0.039829  -0.038470  -0.047342
    18  H   -0.022788   0.002617  -0.003998   0.000839
    19  C    4.903194   0.403570   0.398149   0.406231
    20  H    0.403570   0.492141  -0.025496  -0.033269
    21  H    0.398149  -0.025496   0.530508  -0.031617
    22  H    0.406231  -0.033269  -0.031617   0.526009
 Mulliken atomic charges:
              1
     1  H    0.218545
     2  C   -0.589591
     3  H    0.176917
     4  H    0.201793
     5  C    0.741615
     6  O   -0.591410
     7  N   -0.823249
     8  H    0.383803
     9  C   -0.071239
    10  H    0.257921
    11  C   -0.472627
    12  H    0.157007
    13  H    0.207724
    14  H    0.172972
    15  C    0.765038
    16  O   -0.619315
    17  N   -0.791171
    18  H    0.398745
    19  C   -0.270188
    20  H    0.200192
    21  H    0.166352
    22  H    0.180166
 Sum of Mulliken atomic charges =   0.00000
 Mulliken charges with hydrogens summed into heavy atoms:
              1
     2  C    0.007665
     5  C    0.741615
     6  O   -0.591410
     7  N   -0.439445
     9  C    0.186682
    11  C    0.065076
    15  C    0.765038
    16  O   -0.619315
    17  N   -0.392426
    19  C    0.276521
 Sum of Mulliken charges with hydrogens summed into heavy atoms =   0.00000
 Electronic spatial extent (au):  <R**2>=           1853.1579
 Charge=              0.0000 electrons
 Dipole moment (field-independent basis, Debye):
    X=              1.6379    Y=             -2.8613    Z=             -3.2719  Tot=              4.6449
 Quadrupole moment (field-independent basis, Debye-Ang):
   XX=            -67.4558   YY=            -57.2882   ZZ=            -62.0883
   XY=              6.1969   XZ=             -8.6381   YZ=              0.6106
 Traceless Quadrupole moment (field-independent basis, Debye-Ang):
   XX=             -5.1784   YY=              4.9893   ZZ=              0.1891
   XY=              6.1969   XZ=             -8.6381   YZ=              0.6106
 Octapole moment (field-independent basis, Debye-Ang**2):
  XXX=             17.4718  YYY=             -9.2730  ZZZ=             -6.7290  XYY=              2.7563
  XXY=            -27.9891  XXZ=            -18.8445  XZZ=             -9.6520  YZZ=              1.6073
  YYZ=              2.5649  XYZ=              1.0203
 Hexadecapole moment (field-independent basis, Debye-Ang**3):
 XXXX=          -1589.3336 YYYY=           -592.4930 ZZZZ=           -187.2183 XXXY=             44.0193
 XXXZ=            -36.9466 YYYX=              7.9637 YYYZ=              4.1734 ZZZX=            -12.7861
 ZZZY=              1.3870 XXYY=           -359.1365 XXZZ=           -316.4768 YYZZ=           -134.6275
 XXYZ=             -0.6393 YYXZ=              2.9091 ZZXY=             -1.8299
 N-N= 5.552714335354D+02 E-N=-2.265773569794D+03  KE= 4.921200537701D+02
 1\1\GINC-RODAN\FOpt\RHF\6-31G(d)\C6H12N2O2\STEBOSS\10-Feb-2017\0\\# HF
 /6-31G* Opt=(ModRedundant) geom=nocrowd\\Phi Psi fixed scan\\0,1\H,1.5
 849027446,1.7499642712,1.4617416893\C,1.9140210257,2.2504159643,0.5628
 196583\H,1.1348907881,2.9148792154,0.206481527\H,2.0965883133,1.500513
 812,-0.2010787221\C,3.205593094,2.9839845949,0.8542096118\O,3.92900462
 21,2.6696309022,1.7559270237\N,3.478747707,4.0247463404,0.0154091073\H
 ,2.9087217755,4.1157122127,-0.7969793697\C,4.7819512552,4.6670619536,-
 0.0278176661\H,5.2669229058,4.4150826605,0.9058737888\C,5.6345738668,4
 .1597328742,-1.1881180064\H,5.1577503642,4.366309866,-2.1415899533\H,6
 .600245849,4.6442188854,-1.189255864\H,5.7739464645,3.0885777323,-1.09
 48264859\C,4.6665151289,6.1948378576,-0.0490200242\O,5.514243591,6.872
 8181075,-0.5645179708\N,3.5938471138,6.7186177531,0.5744544182\H,2.984
 0225032,6.1031865201,1.058861439\C,3.4583065634,8.1461801714,0.7655373
 452\H,3.6132900712,8.6599374602,-0.1722740404\H,2.4581662907,8.3556055
 735,1.1214700716\H,4.1754479622,8.5263852714,1.4848924228\\Version=EM6
 4L-G09RevA.02\State=1-A\HF=-492.8573654\RMSD=4.699e-09\RMSF=1.555e-04\
 Dipole=-1.7627056,-0.2090128,-0.4343644\Quadrupole=2.3173698,-0.972318
 8,-1.3450509,-2.0219895,1.1193064,8.2203795\PG=C01 [X(C6H12N2O2)]\\@


 ALMOST ANYTHING IS EASIER TO GET INTO THAN OUT OF.

                         -- AGNES ALLEN'S LAW FROM
                PAUL DICKSON'S "THE OFFICIAL RULES"
 Job cpu time:  0 days  0 hours 23 minutes 10.4 seconds.
 File lengths (MBytes):  RWF=     25 Int=      0 D2E=      0 Chk=      3 Scr=      1
 Normal termination of Gaussian 09 at Fri Feb 10 10:44:14 2017.
