 Entering Gaussian System, Link 0=g09
 Initial command:
 /home/steboss/local//g09/l1.exe /tmp/Gau-18951.inp -scrdir=/tmp/
 Entering Link 1 = /home/steboss/local//g09/l1.exe PID=     18953.
  
 Copyright (c) 1988,1990,1992,1993,1995,1998,2003,2009, Gaussian, Inc.
                  All Rights Reserved.
  
 This is part of the Gaussian(R) 09 program.  It is based on
 the Gaussian(R) 03 system (copyright 2003, Gaussian, Inc.),
 the Gaussian(R) 98 system (copyright 1998, Gaussian, Inc.),
 the Gaussian(R) 94 system (copyright 1995, Gaussian, Inc.),
 the Gaussian 92(TM) system (copyright 1992, Gaussian, Inc.),
 the Gaussian 90(TM) system (copyright 1990, Gaussian, Inc.),
 the Gaussian 88(TM) system (copyright 1988, Gaussian, Inc.),
 the Gaussian 86(TM) system (copyright 1986, Carnegie Mellon
 University), and the Gaussian 82(TM) system (copyright 1983,
 Carnegie Mellon University). Gaussian is a federally registered
 trademark of Gaussian, Inc.
  
 This software contains proprietary and confidential information,
 including trade secrets, belonging to Gaussian, Inc.
  
 This software is provided under written license and may be
 used, copied, transmitted, or stored only in accord with that
 written license.
  
 The following legend is applicable only to US Government
 contracts under FAR:
  
                    RESTRICTED RIGHTS LEGEND
  
 Use, reproduction and disclosure by the US Government is
 subject to restrictions as set forth in subparagraphs (a)
 and (c) of the Commercial Computer Software - Restricted
 Rights clause in FAR 52.227-19.
  
 Gaussian, Inc.
 340 Quinnipiac St., Bldg. 40, Wallingford CT 06492
  
  
 ---------------------------------------------------------------
 Warning -- This program may not be used in any manner that
 competes with the business of Gaussian, Inc. or will provide
 assistance to any competitor of Gaussian, Inc.  The licensee
 of this program is prohibited from giving any competitor of
 Gaussian, Inc. access to this program.  By using this program,
 the user acknowledges that Gaussian, Inc. is engaged in the
 business of creating and licensing software in the field of
 computational chemistry and represents and warrants to the
 licensee that it is not a competitor of Gaussian, Inc. and that
 it will not use this program in any manner prohibited above.
 ---------------------------------------------------------------
  

 Cite this work as:
 Gaussian 09, Revision A.02,
 M. J. Frisch, G. W. Trucks, H. B. Schlegel, G. E. Scuseria, 
 M. A. Robb, J. R. Cheeseman, G. Scalmani, V. Barone, B. Mennucci, 
 G. A. Petersson, H. Nakatsuji, M. Caricato, X. Li, H. P. Hratchian, 
 A. F. Izmaylov, J. Bloino, G. Zheng, J. L. Sonnenberg, M. Hada, 
 M. Ehara, K. Toyota, R. Fukuda, J. Hasegawa, M. Ishida, T. Nakajima, 
 Y. Honda, O. Kitao, H. Nakai, T. Vreven, J. A. Montgomery, Jr., 
 J. E. Peralta, F. Ogliaro, M. Bearpark, J. J. Heyd, E. Brothers, 
 K. N. Kudin, V. N. Staroverov, R. Kobayashi, J. Normand, 
 K. Raghavachari, A. Rendell, J. C. Burant, S. S. Iyengar, J. Tomasi, 
 M. Cossi, N. Rega, J. M. Millam, M. Klene, J. E. Knox, J. B. Cross, 
 V. Bakken, C. Adamo, J. Jaramillo, R. Gomperts, R. E. Stratmann, 
 O. Yazyev, A. J. Austin, R. Cammi, C. Pomelli, J. W. Ochterski, 
 R. L. Martin, K. Morokuma, V. G. Zakrzewski, G. A. Voth, 
 P. Salvador, J. J. Dannenberg, S. Dapprich, A. D. Daniels, 
 O. Farkas, J. B. Foresman, J. V. Ortiz, J. Cioslowski, 
 and D. J. Fox, Gaussian, Inc., Wallingford CT, 2009.
 
 ******************************************
 Gaussian 09:  EM64L-G09RevA.02 11-Jun-2009
                17-Jan-2017 
 ******************************************
 %chk=structure_180.chk
 %NProcShared=8
 Will use up to    8 processors via shared memory.
 -------------------
 #SP MP2/aug-cc-pVDZ
 -------------------
 1/38=1/1;
 2/12=2,17=6,18=5,40=1/2;
 3/5=16,7=10,11=9,16=1,25=1,30=1/1,2,3;
 4//1;
 5/5=2,38=5/2;
 8/10=1/1;
 9/16=-3/6;
 6/7=2,8=2,9=2,10=2/1;
 99/5=1,9=1/99;
 ------------------
 Phi Psi fixed scan
 ------------------
 Symbolic Z-matrix:
 Charge =  0 Multiplicity = 1
 H                     7.179    -1.4409    1.5148 
 C                     6.9394   -1.0414    0.5243 
 H                     6.7154   -1.8723   -0.1518 
 H                     7.8289   -0.5171    0.1613 
 C                     5.8007   -0.0404    0.6619 
 O                     5.8867    0.9466    1.3882 
 N                     4.6905   -0.3106   -0.0781 
 H                     4.5878   -1.1676   -0.6097 
 C                     3.4933    0.5033   -0.0003 
 H                     3.3266    0.7745    1.0499 
 C                     3.621     1.801    -0.822 
 H                     3.7774    1.5697   -1.881 
 H                     2.7232    2.4219   -0.7295 
 H                     4.4772    2.3691   -0.4501 
 C                     2.3284   -0.3708   -0.4999 
 O                     2.5319   -1.4234   -1.1086 
 N                     1.0956    0.1263   -0.2515 
 H                     0.9678    0.9925    0.2643 
 C                    -0.1503   -0.5338   -0.6061 
 H                    -0.2153   -0.6332   -1.6986 
 C                    -0.2777   -1.9331    0.0282 
 H                    -0.2843   -1.8583    1.1208 
 H                    -1.1987   -2.4324   -0.2907 
 H                     0.5709   -2.5446   -0.2818 
 C                    -1.2727    0.4103   -0.1238 
 O                    -1.0184    1.473     0.4475 
 N                    -2.5348   -0.0118   -0.3545 
 H                    -2.7416   -0.9148   -0.7691 
 C                    -3.701     0.7227    0.1026 
 H                    -3.4983    1.095     1.1145 
 C                    -4.0257    1.9214   -0.8094 
 H                    -4.248     1.5799   -1.8255 
 H                    -4.8891    2.4828   -0.4353 
 H                    -3.1636    2.5923   -0.838 
 C                    -4.8613   -0.2888    0.1378 
 O                    -4.7861   -1.3623   -0.4563 
 N                    -5.9528    0.1099    0.8397 
 H                    -5.9171    0.9974    1.3212 
 C                    -7.1617   -0.6914    0.9484 
 H                    -7.0017   -1.6056    0.3761 
 H                    -7.3662   -0.9528    1.9927 
 H                    -8.0261   -0.1563    0.5395 
 
                          Input orientation:                          
 ---------------------------------------------------------------------
 Center     Atomic      Atomic             Coordinates (Angstroms)
 Number     Number       Type             X           Y           Z
 ---------------------------------------------------------------------
      1          1           0        7.179000   -1.440900    1.514800
      2          6           0        6.939400   -1.041400    0.524300
      3          1           0        6.715400   -1.872300   -0.151800
      4          1           0        7.828900   -0.517100    0.161300
      5          6           0        5.800700   -0.040400    0.661900
      6          8           0        5.886700    0.946600    1.388200
      7          7           0        4.690500   -0.310600   -0.078100
      8          1           0        4.587800   -1.167600   -0.609700
      9          6           0        3.493300    0.503300   -0.000300
     10          1           0        3.326600    0.774500    1.049900
     11          6           0        3.621000    1.801000   -0.822000
     12          1           0        3.777400    1.569700   -1.881000
     13          1           0        2.723200    2.421900   -0.729500
     14          1           0        4.477200    2.369100   -0.450100
     15          6           0        2.328400   -0.370800   -0.499900
     16          8           0        2.531900   -1.423400   -1.108600
     17          7           0        1.095600    0.126300   -0.251500
     18          1           0        0.967800    0.992500    0.264300
     19          6           0       -0.150300   -0.533800   -0.606100
     20          1           0       -0.215300   -0.633200   -1.698600
     21          6           0       -0.277700   -1.933100    0.028200
     22          1           0       -0.284300   -1.858300    1.120800
     23          1           0       -1.198700   -2.432400   -0.290700
     24          1           0        0.570900   -2.544600   -0.281800
     25          6           0       -1.272700    0.410300   -0.123800
     26          8           0       -1.018400    1.473000    0.447500
     27          7           0       -2.534800   -0.011800   -0.354500
     28          1           0       -2.741600   -0.914800   -0.769100
     29          6           0       -3.701000    0.722700    0.102600
     30          1           0       -3.498300    1.095000    1.114500
     31          6           0       -4.025700    1.921400   -0.809400
     32          1           0       -4.248000    1.579900   -1.825500
     33          1           0       -4.889100    2.482800   -0.435300
     34          1           0       -3.163600    2.592300   -0.838000
     35          6           0       -4.861300   -0.288800    0.137800
     36          8           0       -4.786100   -1.362300   -0.456300
     37          7           0       -5.952800    0.109900    0.839700
     38          1           0       -5.917100    0.997400    1.321200
     39          6           0       -7.161700   -0.691400    0.948400
     40          1           0       -7.001700   -1.605600    0.376100
     41          1           0       -7.366200   -0.952800    1.992700
     42          1           0       -8.026100   -0.156300    0.539500
 ---------------------------------------------------------------------
                    Distance matrix (angstroms):
                    1          2          3          4          5
     1  H    0.000000
     2  C    1.094577   0.000000
     3  H    1.782859   1.094387   0.000000
     4  H    1.762878   1.094472   1.781707   0.000000
     5  C    2.142090   1.522358   2.203325   2.142764   0.000000
     6  O    2.717761   2.409698   3.317309   2.723939   1.228445
     7  N    3.163470   2.440186   2.558233   3.154284   1.361305
     8  H    3.361921   2.613791   2.287566   3.394454   2.087743
     9  C    4.433940   3.812730   4.006040   4.456990   2.461344
    10  H    4.468234   4.077508   4.464706   4.767446   2.633586
    11  C    5.350693   4.572039   4.849496   4.903763   3.216179
    12  H    5.671512   4.754109   4.844517   4.994034   3.626638
    13  H    6.309696   5.598464   5.891651   5.958139   4.179704
    14  H    5.067214   4.317800   4.804997   4.465182   2.965449
    15  C    5.360266   4.770745   4.649887   5.542029   3.676386
    16  O    5.336485   4.715755   4.314933   5.521977   3.966411
    17  N    6.525618   6.009608   5.965442   6.776555   4.795837
    18  H    6.787061   6.313823   6.435458   7.025966   4.958013
    19  C    7.683729   7.197174   7.009694   8.016035   6.104561
    20  H    8.102715   7.503176   7.208506   8.257231   6.489655
    21  C    7.619358   7.288880   6.995680   8.230415   6.397721
    22  H    7.485339   7.294174   7.114458   8.279098   6.367305
    23  H    8.627210   8.296251   7.935111   9.239602   7.457929
    24  H    6.936347   6.592966   6.182537   7.548885   5.874725
    25  C    8.805861   8.364571   8.307875   9.153168   7.131160
    26  O    8.765119   8.345938   8.447595   9.072879   6.988310
    27  N    9.994725   9.570414   9.437624  10.388824   8.397288
    28  H   10.193688   9.767839   9.525372  10.618817   8.705356
    29  C   11.182570  10.793887  10.737790  11.596514   9.548688
    30  H   10.981610  10.670432  10.711118  11.480981   9.378986
    31  C   11.926956  11.436361  11.410339  12.141667  10.127760
    32  H   12.282474  11.728201  11.615296  12.417580  10.478020
    33  H   12.838900  12.379589  12.398052  13.080629  11.038216
    34  H   11.347764  10.822673  10.862696  11.467433   9.462531
    35  C   12.173425  11.830989  11.688085  12.692275  10.677763
    36  O   12.126625  11.770807  11.516828  12.658358  10.727447
    37  N   13.240276  12.947347  12.860617  13.812625  11.755806
    38  H   13.322561  13.041524  13.037828  13.877737  11.782128
    39  C   14.371438  14.111817  13.970643  15.012261  12.981899
    40  H   14.227298  13.953299  13.729845  14.872043  12.900891
    41  H   14.561232  14.381038  14.273606  15.311268  13.265397
    42  H   15.290405  14.991658  14.857132  15.863614  13.827827
                    6          7          8          9         10
     6  O    0.000000
     7  N    2.271890   0.000000
     8  H    3.185685   1.013704   0.000000
     9  C    2.802287   1.449750   2.088350   0.000000
    10  H    2.588084   2.076066   2.848974   1.097387   0.000000
    11  C    3.278472   2.481143   3.129275   1.541273   2.155083
    12  H    3.940186   2.760386   3.125022   2.180586   3.070137
    13  H    4.082756   3.429453   4.046677   2.192216   2.498856
    14  H    2.718371   2.713793   3.542026   2.156754   2.473182
    15  C    4.238156   2.400220   2.398298   1.539689   2.170252
    16  O    4.806828   2.638145   2.130976   2.421733   3.181420
    17  N    5.129927   3.625501   3.741383   2.440122   2.662924
    18  H    5.045873   3.959015   4.305149   2.586016   2.495722
    19  C    6.527954   4.874623   4.780304   3.836456   4.067286
    20  H    7.018440   5.176578   4.953893   4.234332   4.699035
    21  C    6.938451   5.227506   4.966487   4.489688   4.622331
    22  H    6.783820   5.346155   5.216230   4.593940   4.469369
    23  H    8.027406   6.263379   5.931700   5.542340   5.706116
    24  H    6.575341   4.690773   4.259006   4.231945   4.514835
    25  C    7.336946   6.006791   6.088623   4.768507   4.760648
    26  O    6.988735   6.004084   6.286487   4.636408   4.441825
    27  N    8.653161   7.236756   7.220279   6.060427   6.078373
    28  H    9.086601   7.488568   7.335490   6.440189   6.556336
    29  C    9.676099   8.456810   8.531401   7.198380   7.091348
    30  H    9.390163   8.393715   8.571886   7.104601   6.832727
    31  C   10.199772   9.027113   9.152824   7.694219   7.669986
    32  H   10.650872   9.301837   9.332646   8.026092   8.141938
    33  H   11.036436   9.984959  10.157139   8.623936   8.521845
    34  H    9.464260   8.407804   8.618188   7.027089   6.999376
    35  C   10.890786   9.554265   9.519272   8.393202   8.306879
    36  O   11.074379   9.542277   9.377177   8.499227   8.523524
    37  N   11.881695  10.691072  10.716203   9.491531   9.305544
    38  H   11.804099  10.779150  10.898097   9.515573   9.250366
    39  C   13.158161  11.902662  11.861922  10.763659  10.590732
    40  H   13.177592  11.772462  11.639594  10.711403  10.620389
    41  H   13.401959  12.250088  12.235879  11.136472  10.872369
    42  H   13.982227  12.732523  12.706450  11.550889  11.402223
                   11         12         13         14         15
    11  C    0.000000
    12  H    1.095190   0.000000
    13  H    1.095499   1.778633   0.000000
    14  H    1.092761   1.782200   1.776898   0.000000
    15  C    2.547799   2.787934   2.829798   3.482366   0.000000
    16  O    3.415411   3.332645   3.868675   4.312873   1.232840
    17  N    3.083462   3.454088   2.854355   4.062612   1.352260
    18  H    2.978790   3.581805   2.472297   3.836832   2.072154
    19  C    4.440789   4.634319   4.124123   5.464881   2.486323
    20  H    4.627197   4.563737   4.348284   5.708950   2.824207
    21  C    5.464998   5.688452   5.342802   6.430145   3.084060
    22  H    5.693533   6.104047   5.548764   6.558241   3.415483
    23  H    6.436883   6.580838   6.256043   7.436105   4.090769
    24  H    5.336587   5.455873   5.431294   6.279487   2.803887
    25  C    5.135156   5.471332   4.514490   6.083150   3.703983
    26  O    4.821125   5.332069   4.035506   5.640062   3.936780
    27  N    6.434180   6.683952   5.806039   7.405806   4.878600
    28  H    6.918168   7.064448   6.403060   7.937054   5.106203
    29  C    7.458505   7.783222   6.697016   8.360566   6.157306
    30  H    7.411673   7.882523   6.623297   8.226780   6.221358
    31  C    7.647658   7.884186   6.767905   8.522256   6.761994
    32  H    7.935809   8.025598   7.106885   8.868127   6.986522
    33  H    8.546121   8.833574   7.618226   9.367002   7.761412
    34  H    6.830608   7.093028   5.890265   7.653895   6.249507
    35  C    8.788509   9.064034   8.100910   9.727160   7.218391
    36  O    8.989969   9.162965   8.413346   9.986597   7.183389
    37  N    9.862997  10.208331   9.114862  10.749533   8.402611
    38  H    9.808895  10.225700   8.993851  10.632993   8.554335
    39  C   11.207720  11.523107  10.498535  12.115546   9.605330
    40  H   11.219720  11.461502  10.583798  12.175631   9.452136
    41  H   11.671526  12.064343  10.981574  12.540670  10.026816
    42  H   11.888635  12.172120  11.126766  12.794118  10.408748
                   16         17         18         19         20
    16  O    0.000000
    17  N    2.280164   0.000000
    18  H    3.188704   1.016211   0.000000
    19  C    2.870208   1.453871   2.082627   0.000000
    20  H    2.918839   2.095089   2.809911   1.098937   0.000000
    21  C    3.073428   2.491047   3.188440   1.541625   2.162284
    22  H    3.618058   2.779563   3.229304   2.180468   3.074841
    23  H    3.950243   3.436902   4.090439   2.191644   2.487243
    24  H    2.405454   2.722120   3.600949   2.160698   2.505770
    25  C    4.336735   2.388683   2.347215   1.543930   2.164944
    26  O    4.838927   2.602153   2.051690   2.427121   3.112361
    27  N    5.313448   3.634485   3.695908   2.453900   2.751876
    28  H    5.308836   4.009477   4.297134   2.624227   2.706559
    29  C    6.702372   4.846489   4.679384   3.832560   4.151252
    30  H    6.902740   4.889607   4.547460   4.101531   4.655996
    31  C    7.367450   5.455396   5.191409   4.592174   4.672880
    32  H    7.449886   5.757125   5.649502   4.769257   4.601802
    33  H    8.413262   6.434556   6.083890   5.620078   5.757585
    34  H    6.974080   4.956402   4.565402   4.348132   4.453870
    35  C    7.582891   5.984022   5.969601   4.775660   5.007623
    36  O    7.347268   6.070607   6.258731   4.711634   4.792401
    37  N    8.839514   7.132386   7.000341   6.014457   6.317758
    38  H    9.118651   7.239486   6.965552   6.270171   6.654966
    39  C    9.936446   8.383996   8.330203   7.183386   7.433873
    40  H    9.650236   8.304193   8.383052   7.003938   7.162763
    41  H   10.383251   8.820598   8.730814   7.681050   8.053770
    42  H   10.760722   9.160292   9.071147   7.967630   8.139111
                   21         22         23         24         25
    21  C    0.000000
    22  H    1.095177   0.000000
    23  H    1.095098   1.777090   0.000000
    24  H    1.090942   1.780354   1.773176   0.000000
    25  C    2.550422   2.769930   2.848557   3.486439   0.000000
    26  O    3.510836   3.477038   3.978643   4.381651   1.233038
    27  N    2.988704   3.263560   2.765599   4.008208   1.350662
    28  H    2.782701   3.240407   2.216420   3.723757   2.080858
    29  C    4.333335   4.401378   4.046090   5.391859   2.458758
    30  H    4.552110   4.364839   4.439065   5.635134   2.637327
    31  C    5.441162   5.657727   5.216949   6.430571   3.214417
    32  H    5.616107   6.017709   5.268054   6.528117   3.621624
    33  H    6.401563   6.516961   6.148102   7.423605   4.179789
    34  H    5.436724   5.651115   5.422912   6.375233   2.974342
    35  C    4.870844   4.937464   4.265357   5.896906   3.665409
    36  O    4.570145   4.795776   3.747262   5.488691   3.949259
    37  N    6.085979   6.007056   5.508408   7.131816   4.787683
    38  H    6.485562   6.318514   6.051863   7.563697   4.899302
    39  C    7.055356   6.977823   6.334336   8.046170   6.086352
    40  H    6.740954   6.763276   5.899409   7.658905   6.093865
    41  H    7.420720   7.192597   6.741008   8.408611   6.593054
    42  H    7.965937   7.947967   7.244533   8.960297   6.809509
                   26         27         28         29         30
    26  O    0.000000
    27  N    2.268767   0.000000
    28  H    3.186083   1.014923   0.000000
    29  C    2.806822   1.452051   2.088472   0.000000
    30  H    2.595704   2.076367   2.856543   1.097104   0.000000
    31  C    3.290093   2.483340   3.113610   1.540797   2.159277
    32  H    3.950731   2.762681   3.099798   2.179810   3.072585
    33  H    4.096505   3.431077   4.033220   2.190632   2.502438
    34  H    2.739932   2.722223   3.533070   2.160771   2.483181
    35  C    4.238836   2.394095   2.389032   1.539697   2.174078
    36  O    4.801182   2.627273   2.116148   2.415996   3.188129
    37  N    5.134215   3.622658   3.734977   2.447334   2.659043
    38  H    4.998681   3.907225   4.255545   2.543923   2.429577
    39  C    6.532661   4.854648   4.747315   3.832949   4.079131
    40  H    6.729246   4.798663   4.465102   4.048506   4.484672
    41  H    6.968982   5.453188   5.386642   4.451232   4.463784
    42  H    7.195203   5.565473   5.496699   4.435089   4.732584
                   31         32         33         34         35
    31  C    0.000000
    32  H    1.094760   0.000000
    33  H    1.095710   1.777328   0.000000
    34  H    1.092768   1.782143   1.775249   0.000000
    35  C    2.545663   2.778979   2.830368   3.483548   0.000000
    36  O    3.389037   3.289499   3.846537   4.291510   1.229232
    37  N    3.116854   3.488629   2.896159   4.093486   1.357570
    38  H    2.995100   3.609283   2.519621   3.845467   2.041925
    39  C    4.444219   4.619846   4.141845   5.473455   2.472044
    40  H    4.764632   4.751559   4.672950   5.816134   2.524294
    41  H    5.222234   5.542237   4.882065   6.184047   3.186860
    42  H    4.705270   4.783477   4.213769   5.752931   3.192942
                   36         37         38         39         40
    36  O    0.000000
    37  N    2.282143   0.000000
    38  H    3.163361   1.010333   0.000000
    39  C    2.840205   1.454420   2.130740   0.000000
    40  H    2.379279   2.063506   2.974085   1.090362   0.000000
    41  H    3.580811   2.111028   2.520731   1.095770   1.781124
    42  H    3.597729   2.111766   2.527837   1.095773   1.782292
                   41         42
    41  H    0.000000
    42  H    1.783724   0.000000
 Stoichiometry    C12H22N4O4
 Framework group  C1[X(C12H22N4O4)]
 Deg. of freedom   120
 Full point group                 C1      NOp   1
 Largest Abelian subgroup         C1      NOp   1
 Largest concise Abelian subgroup C1      NOp   1
                         Standard orientation:                         
 ---------------------------------------------------------------------
 Center     Atomic      Atomic             Coordinates (Angstroms)
 Number     Number       Type             X           Y           Z
 ---------------------------------------------------------------------
      1          1           0        7.178996   -1.440897    1.514801
      2          6           0        6.939395   -1.041398    0.524301
      3          1           0        6.715397   -1.872298   -0.151799
      4          1           0        7.828895   -0.517096    0.161301
      5          6           0        5.800694   -0.040399    0.661901
      6          8           0        5.886693    0.946601    1.388201
      7          7           0        4.690495   -0.310600   -0.078099
      8          1           0        4.587796   -1.167601   -0.609699
      9          6           0        3.493294    0.503298   -0.000299
     10          1           0        3.326593    0.774498    1.049901
     11          6           0        3.620992    1.800998   -0.821999
     12          1           0        3.777392    1.569698   -1.880999
     13          1           0        2.723191    2.421897   -0.729499
     14          1           0        4.477191    2.369099   -0.450099
     15          6           0        2.328395   -0.370804   -0.499899
     16          8           0        2.531896   -1.423403   -1.108599
     17          7           0        1.095594    0.126295   -0.251499
     18          1           0        0.967793    0.992495    0.264301
     19          6           0       -0.150305   -0.533807   -0.606099
     20          1           0       -0.215305   -0.633207   -1.698599
     21          6           0       -0.277703   -1.933107    0.028201
     22          1           0       -0.284303   -1.858307    1.120801
     23          1           0       -1.198703   -2.432408   -0.290699
     24          1           0        0.570897   -2.544606   -0.281799
     25          6           0       -1.272706    0.410292   -0.123799
     26          8           0       -1.018408    1.472992    0.447501
     27          7           0       -2.534806   -0.011810   -0.354499
     28          1           0       -2.741605   -0.914810   -0.769099
     29          6           0       -3.701007    0.722689    0.102601
     30          1           0       -3.498307    1.094989    1.114501
     31          6           0       -4.025708    1.921388   -0.809399
     32          1           0       -4.248008    1.579888   -1.825499
     33          1           0       -4.889109    2.482787   -0.435299
     34          1           0       -3.163609    2.592289   -0.837999
     35          6           0       -4.861305   -0.288813    0.137801
     36          8           0       -4.786104   -1.362313   -0.456299
     37          7           0       -5.952806    0.109886    0.839701
     38          1           0       -5.917107    0.997386    1.321201
     39          6           0       -7.161705   -0.691416    0.948401
     40          1           0       -7.001704   -1.605615    0.376101
     41          1           0       -7.366205   -0.952816    1.992701
     42          1           0       -8.026106   -0.156317    0.539501
 ---------------------------------------------------------------------
 Rotational constants (GHZ):      1.0614586      0.0966310      0.0930393
 Standard basis: Aug-CC-pVDZ (5D, 7F)
 There are   658 symmetry adapted basis functions of A   symmetry.
 Integral buffers will be    131072 words long.
 Raffenetti 1 integral format.
 Two-electron integral symmetry is turned on.
   658 basis functions,  1102 primitive gaussians,   698 cartesian basis functions
    77 alpha electrons       77 beta electrons
       nuclear repulsion energy      1567.1854349844 Hartrees.
 NAtoms=   42 NActive=   42 NUniq=   42 SFac= 7.50D-01 NAtFMM=   80 NAOKFM=F Big=F
 One-electron integrals computed using PRISM.
 PrsmSu:  requested number of processors reduced to:   7 ShMem   1 Linda.
 NBasis=   658 RedAO= T  NBF=   658
 NBsUse=   658 1.00D-06 NBFU=   658
 Harris functional with IExCor=  205 diagonalized for initial guess.
 ExpMin= 2.97D-02 ExpMax= 1.17D+04 ExpMxC= 4.01D+02 IAcc=3 IRadAn=         0 AccDes= 0.00D+00
 HarFok:  IExCor=  205 AccDes= 0.00D+00 IRadAn=         0 IDoV= 1
 ScaDFX=  1.000000  1.000000  1.000000  1.000000
 FoFCou: FMM=F IPFlag=           0 FMFlag=      100000 FMFlg1=           0
         NFxFlg=           0 DoJE=T BraDBF=F KetDBF=T FulRan=T
         Omega=  0.000000  0.000000  1.000000  0.000000  0.000000 ICntrl=     500 IOpCl=  0
         NMat0=    1 NMatS0=    1 NMatT0=    0 NMatD0=    1 NMtDS0=    0 NMtDT0=    0
         I1Cent=           4 NGrid=           0.
 Petite list used in FoFCou.
 Initial guess orbital symmetries:
       Occupied  (A) (A) (A) (A) (A) (A) (A) (A) (A) (A) (A) (A)
                 (A) (A) (A) (A) (A) (A) (A) (A) (A) (A) (A) (A)
                 (A) (A) (A) (A) (A) (A) (A) (A) (A) (A) (A) (A)
                 (A) (A) (A) (A) (A) (A) (A) (A) (A) (A) (A) (A)
                 (A) (A) (A) (A) (A) (A) (A) (A) (A) (A) (A) (A)
                 (A) (A) (A) (A) (A) (A) (A) (A) (A) (A) (A) (A)
                 (A) (A) (A) (A) (A)
       Virtual   (A) (A) (A) (A) (A) (A) (A) (A) (A) (A) (A) (A)
                 (A) (A) (A) (A) (A) (A) (A) (A) (A) (A) (A) (A)
                 (A) (A) (A) (A) (A) (A) (A) (A) (A) (A) (A) (A)
                 (A) (A) (A) (A) (A) (A) (A) (A) (A) (A) (A) (A)
                 (A) (A) (A) (A) (A) (A) (A) (A) (A) (A) (A) (A)
                 (A) (A) (A) (A) (A) (A) (A) (A) (A) (A) (A) (A)
                 (A) (A) (A) (A) (A) (A) (A) (A) (A) (A) (A) (A)
                 (A) (A) (A) (A) (A) (A) (A) (A) (A) (A) (A) (A)
                 (A) (A) (A) (A) (A) (A) (A) (A) (A) (A) (A) (A)
                 (A) (A) (A) (A) (A) (A) (A) (A) (A) (A) (A) (A)
                 (A) (A) (A) (A) (A) (A) (A) (A) (A) (A) (A) (A)
                 (A) (A) (A) (A) (A) (A) (A) (A) (A) (A) (A) (A)
                 (A) (A) (A) (A) (A) (A) (A) (A) (A) (A) (A) (A)
                 (A) (A) (A) (A) (A) (A) (A) (A) (A) (A) (A) (A)
                 (A) (A) (A) (A) (A) (A) (A) (A) (A) (A) (A) (A)
                 (A) (A) (A) (A) (A) (A) (A) (A) (A) (A) (A) (A)
                 (A) (A) (A) (A) (A) (A) (A) (A) (A) (A) (A) (A)
                 (A) (A) (A) (A) (A) (A) (A) (A) (A) (A) (A) (A)
                 (A) (A) (A) (A) (A) (A) (A) (A) (A) (A) (A) (A)
                 (A) (A) (A) (A) (A) (A) (A) (A) (A) (A) (A) (A)
                 (A) (A) (A) (A) (A) (A) (A) (A) (A) (A) (A) (A)
                 (A) (A) (A) (A) (A) (A) (A) (A) (A) (A) (A) (A)
                 (A) (A) (A) (A) (A) (A) (A) (A) (A) (A) (A) (A)
                 (A) (A) (A) (A) (A) (A) (A) (A) (A) (A) (A) (A)
                 (A) (A) (A) (A) (A) (A) (A) (A) (A) (A) (A) (A)
                 (A) (A) (A) (A) (A) (A) (A) (A) (A) (A) (A) (A)
                 (A) (A) (A) (A) (A) (A) (A) (A) (A) (A) (A) (A)
                 (A) (A) (A) (A) (A) (A) (A) (A) (A) (A) (A) (A)
                 (A) (A) (A) (A) (A) (A) (A) (A) (A) (A) (A) (A)
                 (A) (A) (A) (A) (A) (A) (A) (A) (A) (A) (A) (A)
                 (A) (A) (A) (A) (A) (A) (A) (A) (A) (A) (A) (A)
                 (A) (A) (A) (A) (A) (A) (A) (A) (A) (A) (A) (A)
                 (A) (A) (A) (A) (A) (A) (A) (A) (A) (A) (A) (A)
                 (A) (A) (A) (A) (A) (A) (A) (A) (A) (A) (A) (A)
                 (A) (A) (A) (A) (A) (A) (A) (A) (A) (A) (A) (A)
                 (A) (A) (A) (A) (A) (A) (A) (A) (A) (A) (A) (A)
                 (A) (A) (A) (A) (A) (A) (A) (A) (A) (A) (A) (A)
                 (A) (A) (A) (A) (A) (A) (A) (A) (A) (A) (A) (A)
                 (A) (A) (A) (A) (A) (A) (A) (A) (A) (A) (A) (A)
                 (A) (A) (A) (A) (A) (A) (A) (A) (A) (A) (A) (A)
                 (A) (A) (A) (A) (A) (A) (A) (A) (A) (A) (A) (A)
                 (A) (A) (A) (A) (A) (A) (A) (A) (A) (A) (A) (A)
                 (A) (A) (A) (A) (A) (A) (A) (A) (A) (A) (A) (A)
                 (A) (A) (A) (A) (A) (A) (A) (A) (A) (A) (A) (A)
                 (A) (A) (A) (A) (A) (A) (A) (A) (A) (A) (A) (A)
                 (A) (A) (A) (A) (A) (A) (A) (A) (A) (A) (A) (A)
                 (A) (A) (A) (A) (A) (A) (A) (A) (A) (A) (A) (A)
                 (A) (A) (A) (A) (A) (A) (A) (A) (A) (A) (A) (A)
                 (A) (A) (A) (A) (A)
 The electronic state of the initial guess is 1-A.
 Requested convergence on RMS density matrix=1.00D-08 within 128 cycles.
 Requested convergence on MAX density matrix=1.00D-06.
 Requested convergence on             energy=1.00D-06.
 No special actions if energy rises.
 Initial convergence to 1.0D-05 achieved.  Increase integral accuracy.
 SCF Done:  E(RHF) =  -984.700368403     A.U. after   14 cycles
             Convg  =    0.8749D-08             -V/T =  2.0017
 ExpMin= 2.97D-02 ExpMax= 1.17D+04 ExpMxC= 4.01D+02 IAcc=3 IRadAn=         5 AccDes= 0.00D+00
 HarFok:  IExCor=  205 AccDes= 0.00D+00 IRadAn=         5 IDoV=-2
 ScaDFX=  1.000000  1.000000  1.000000  1.000000
 Range of M.O.s used for correlation:    21   658
 NBasis=   658 NAE=    77 NBE=    77 NFC=    20 NFV=     0
 NROrb=    638 NOA=    57 NOB=    57 NVA=   581 NVB=   581

 **** Warning!!: The largest alpha MO coefficient is  0.98945387D+02

 Disk-based method using OVN memory for 57 occupieds at a time.
 Estimated scratch disk usage= 19383616813 words.
 Actual    scratch disk usage= 19382066989 words.
 GetIJB would need an additional    27407128 words of memory to use all   8 processors.
 JobTyp=1 Pass  1:  I=   1 to  57 NPSUse=  1 ParTrn=F ParDer=F DoDerP=F.
 Spin components of T(2) and E(2):
     alpha-alpha T2 =       0.1370387960D+00 E2=     -0.4154916380D+00
     alpha-beta  T2 =       0.7453436794D+00 E2=     -0.2361322551D+01
     beta-beta   T2 =       0.1370387960D+00 E2=     -0.4154916380D+00
 ANorm=    0.1421063430D+01
 E2 =    -0.3192305827D+01 EUMP2 =    -0.98789267423009D+03

 **********************************************************************

            Population analysis using the SCF density.

 **********************************************************************

 Orbital symmetries:
       Occupied  (A) (A) (A) (A) (A) (A) (A) (A) (A) (A) (A) (A)
                 (A) (A) (A) (A) (A) (A) (A) (A) (A) (A) (A) (A)
                 (A) (A) (A) (A) (A) (A) (A) (A) (A) (A) (A) (A)
                 (A) (A) (A) (A) (A) (A) (A) (A) (A) (A) (A) (A)
                 (A) (A) (A) (A) (A) (A) (A) (A) (A) (A) (A) (A)
                 (A) (A) (A) (A) (A) (A) (A) (A) (A) (A) (A) (A)
                 (A) (A) (A) (A) (A)
       Virtual   (A) (A) (A) (A) (A) (A) (A) (A) (A) (A) (A) (A)
                 (A) (A) (A) (A) (A) (A) (A) (A) (A) (A) (A) (A)
                 (A) (A) (A) (A) (A) (A) (A) (A) (A) (A) (A) (A)
                 (A) (A) (A) (A) (A) (A) (A) (A) (A) (A) (A) (A)
                 (A) (A) (A) (A) (A) (A) (A) (A) (A) (A) (A) (A)
                 (A) (A) (A) (A) (A) (A) (A) (A) (A) (A) (A) (A)
                 (A) (A) (A) (A) (A) (A) (A) (A) (A) (A) (A) (A)
                 (A) (A) (A) (A) (A) (A) (A) (A) (A) (A) (A) (A)
                 (A) (A) (A) (A) (A) (A) (A) (A) (A) (A) (A) (A)
                 (A) (A) (A) (A) (A) (A) (A) (A) (A) (A) (A) (A)
                 (A) (A) (A) (A) (A) (A) (A) (A) (A) (A) (A) (A)
                 (A) (A) (A) (A) (A) (A) (A) (A) (A) (A) (A) (A)
                 (A) (A) (A) (A) (A) (A) (A) (A) (A) (A) (A) (A)
                 (A) (A) (A) (A) (A) (A) (A) (A) (A) (A) (A) (A)
                 (A) (A) (A) (A) (A) (A) (A) (A) (A) (A) (A) (A)
                 (A) (A) (A) (A) (A) (A) (A) (A) (A) (A) (A) (A)
                 (A) (A) (A) (A) (A) (A) (A) (A) (A) (A) (A) (A)
                 (A) (A) (A) (A) (A) (A) (A) (A) (A) (A) (A) (A)
                 (A) (A) (A) (A) (A) (A) (A) (A) (A) (A) (A) (A)
                 (A) (A) (A) (A) (A) (A) (A) (A) (A) (A) (A) (A)
                 (A) (A) (A) (A) (A) (A) (A) (A) (A) (A) (A) (A)
                 (A) (A) (A) (A) (A) (A) (A) (A) (A) (A) (A) (A)
                 (A) (A) (A) (A) (A) (A) (A) (A) (A) (A) (A) (A)
                 (A) (A) (A) (A) (A) (A) (A) (A) (A) (A) (A) (A)
                 (A) (A) (A) (A) (A) (A) (A) (A) (A) (A) (A) (A)
                 (A) (A) (A) (A) (A) (A) (A) (A) (A) (A) (A) (A)
                 (A) (A) (A) (A) (A) (A) (A) (A) (A) (A) (A) (A)
                 (A) (A) (A) (A) (A) (A) (A) (A) (A) (A) (A) (A)
                 (A) (A) (A) (A) (A) (A) (A) (A) (A) (A) (A) (A)
                 (A) (A) (A) (A) (A) (A) (A) (A) (A) (A) (A) (A)
                 (A) (A) (A) (A) (A) (A) (A) (A) (A) (A) (A) (A)
                 (A) (A) (A) (A) (A) (A) (A) (A) (A) (A) (A) (A)
                 (A) (A) (A) (A) (A) (A) (A) (A) (A) (A) (A) (A)
                 (A) (A) (A) (A) (A) (A) (A) (A) (A) (A) (A) (A)
                 (A) (A) (A) (A) (A) (A) (A) (A) (A) (A) (A) (A)
                 (A) (A) (A) (A) (A) (A) (A) (A) (A) (A) (A) (A)
                 (A) (A) (A) (A) (A) (A) (A) (A) (A) (A) (A) (A)
                 (A) (A) (A) (A) (A) (A) (A) (A) (A) (A) (A) (A)
                 (A) (A) (A) (A) (A) (A) (A) (A) (A) (A) (A) (A)
                 (A) (A) (A) (A) (A) (A) (A) (A) (A) (A) (A) (A)
                 (A) (A) (A) (A) (A) (A) (A) (A) (A) (A) (A) (A)
                 (A) (A) (A) (A) (A) (A) (A) (A) (A) (A) (A) (A)
                 (A) (A) (A) (A) (A) (A) (A) (A) (A) (A) (A) (A)
                 (A) (A) (A) (A) (A) (A) (A) (A) (A) (A) (A) (A)
                 (A) (A) (A) (A) (A) (A) (A) (A) (A) (A) (A) (A)
                 (A) (A) (A) (A) (A) (A) (A) (A) (A) (A) (A) (A)
                 (A) (A) (A) (A) (A) (A) (A) (A) (A) (A) (A) (A)
                 (A) (A) (A) (A) (A) (A) (A) (A) (A) (A) (A) (A)
                 (A) (A) (A) (A) (A)
 The electronic state is 1-A.
 Alpha  occ. eigenvalues --  -20.55475 -20.55121 -20.53979 -20.51769 -15.61752
 Alpha  occ. eigenvalues --  -15.60570 -15.59572 -15.58231 -11.38287 -11.37824
 Alpha  occ. eigenvalues --  -11.36677 -11.35225 -11.30916 -11.30324 -11.28718
 Alpha  occ. eigenvalues --  -11.28481 -11.24913 -11.23765 -11.23725 -11.22897
 Alpha  occ. eigenvalues --   -1.41182  -1.40355  -1.39215  -1.37090  -1.25610
 Alpha  occ. eigenvalues --   -1.25485  -1.24497  -1.22867  -1.07894  -1.05190
 Alpha  occ. eigenvalues --   -1.02310  -0.97990  -0.97369  -0.92235  -0.90352
 Alpha  occ. eigenvalues --   -0.87187  -0.82214  -0.80212  -0.78935  -0.77777
 Alpha  occ. eigenvalues --   -0.75957  -0.71702  -0.69103  -0.68025  -0.66931
 Alpha  occ. eigenvalues --   -0.65911  -0.65733  -0.64639  -0.64272  -0.62265
 Alpha  occ. eigenvalues --   -0.61731  -0.61039  -0.60644  -0.59625  -0.59207
 Alpha  occ. eigenvalues --   -0.57675  -0.57209  -0.56565  -0.56010  -0.55864
 Alpha  occ. eigenvalues --   -0.55335  -0.54799  -0.54175  -0.53606  -0.53007
 Alpha  occ. eigenvalues --   -0.52051  -0.51725  -0.50754  -0.48623  -0.44873
 Alpha  occ. eigenvalues --   -0.44261  -0.42940  -0.42105  -0.41406  -0.40950
 Alpha  occ. eigenvalues --   -0.39730  -0.38050
 Alpha virt. eigenvalues --    0.02207   0.03629   0.03798   0.03817   0.04353
 Alpha virt. eigenvalues --    0.04800   0.05170   0.05747   0.05975   0.06175
 Alpha virt. eigenvalues --    0.06636   0.06717   0.07234   0.07336   0.07645
 Alpha virt. eigenvalues --    0.08321   0.08607   0.09036   0.09810   0.10073
 Alpha virt. eigenvalues --    0.10501   0.11573   0.11903   0.12323   0.12596
 Alpha virt. eigenvalues --    0.12939   0.12994   0.13534   0.13870   0.13985
 Alpha virt. eigenvalues --    0.14282   0.14346   0.14759   0.15020   0.15500
 Alpha virt. eigenvalues --    0.15651   0.15723   0.16039   0.16258   0.16409
 Alpha virt. eigenvalues --    0.16987   0.17135   0.17445   0.17727   0.17979
 Alpha virt. eigenvalues --    0.18174   0.18506   0.18620   0.18761   0.19112
 Alpha virt. eigenvalues --    0.19417   0.19448   0.19900   0.20182   0.20461
 Alpha virt. eigenvalues --    0.20710   0.21073   0.21360   0.21580   0.21861
 Alpha virt. eigenvalues --    0.22324   0.22693   0.23029   0.23237   0.23611
 Alpha virt. eigenvalues --    0.24191   0.24469   0.24782   0.25426   0.25711
 Alpha virt. eigenvalues --    0.26029   0.27136   0.27254   0.28104   0.28391
 Alpha virt. eigenvalues --    0.28555   0.28965   0.29541   0.29798   0.30413
 Alpha virt. eigenvalues --    0.30990   0.31214   0.31477   0.31667   0.31763
 Alpha virt. eigenvalues --    0.32121   0.32406   0.32559   0.32726   0.33055
 Alpha virt. eigenvalues --    0.33644   0.33735   0.34082   0.34753   0.35226
 Alpha virt. eigenvalues --    0.35414   0.35999   0.36368   0.36422   0.36586
 Alpha virt. eigenvalues --    0.36890   0.37421   0.37775   0.38048   0.38418
 Alpha virt. eigenvalues --    0.38624   0.39094   0.39390   0.39672   0.39990
 Alpha virt. eigenvalues --    0.40251   0.40649   0.40841   0.41186   0.41789
 Alpha virt. eigenvalues --    0.42067   0.42179   0.42467   0.42892   0.43193
 Alpha virt. eigenvalues --    0.43371   0.43715   0.44121   0.44197   0.44761
 Alpha virt. eigenvalues --    0.45316   0.45413   0.45868   0.46297   0.46686
 Alpha virt. eigenvalues --    0.46922   0.47003   0.47421   0.47848   0.48105
 Alpha virt. eigenvalues --    0.48243   0.48559   0.48658   0.49011   0.49492
 Alpha virt. eigenvalues --    0.49738   0.49969   0.50601   0.51114   0.51381
 Alpha virt. eigenvalues --    0.51509   0.51680   0.52043   0.52556   0.52870
 Alpha virt. eigenvalues --    0.53082   0.53839   0.54001   0.54506   0.54781
 Alpha virt. eigenvalues --    0.55145   0.55245   0.55981   0.56373   0.57017
 Alpha virt. eigenvalues --    0.57045   0.57380   0.57713   0.58027   0.58415
 Alpha virt. eigenvalues --    0.59129   0.59278   0.59832   0.60097   0.60493
 Alpha virt. eigenvalues --    0.60731   0.61264   0.61368   0.61607   0.62195
 Alpha virt. eigenvalues --    0.62450   0.62812   0.62971   0.63308   0.63445
 Alpha virt. eigenvalues --    0.63724   0.63812   0.64492   0.65014   0.65361
 Alpha virt. eigenvalues --    0.65613   0.65787   0.66205   0.66643   0.67245
 Alpha virt. eigenvalues --    0.67321   0.67698   0.68175   0.68423   0.68763
 Alpha virt. eigenvalues --    0.69198   0.69914   0.70515   0.70716   0.70915
 Alpha virt. eigenvalues --    0.71100   0.71569   0.72286   0.72391   0.72864
 Alpha virt. eigenvalues --    0.73295   0.73365   0.73588   0.74182   0.74692
 Alpha virt. eigenvalues --    0.75254   0.75484   0.75664   0.75940   0.76540
 Alpha virt. eigenvalues --    0.76706   0.76902   0.77813   0.78294   0.78430
 Alpha virt. eigenvalues --    0.78680   0.79329   0.79892   0.80137   0.80605
 Alpha virt. eigenvalues --    0.80883   0.81331   0.81581   0.82503   0.82908
 Alpha virt. eigenvalues --    0.83184   0.83611   0.84119   0.84352   0.84789
 Alpha virt. eigenvalues --    0.84924   0.86544   0.86870   0.87444   0.87587
 Alpha virt. eigenvalues --    0.87995   0.88581   0.88949   0.89243   0.89932
 Alpha virt. eigenvalues --    0.90434   0.90597   0.91546   0.91749   0.92324
 Alpha virt. eigenvalues --    0.93005   0.93286   0.93707   0.94200   0.94697
 Alpha virt. eigenvalues --    0.94966   0.95699   0.96278   0.96551   0.97179
 Alpha virt. eigenvalues --    0.97607   0.98350   0.98627   0.99491   0.99697
 Alpha virt. eigenvalues --    1.00519   1.00765   1.01055   1.01633   1.02545
 Alpha virt. eigenvalues --    1.02885   1.03595   1.03929   1.04620   1.05654
 Alpha virt. eigenvalues --    1.05961   1.06040   1.07182   1.07444   1.08185
 Alpha virt. eigenvalues --    1.08832   1.09128   1.10004   1.10718   1.11287
 Alpha virt. eigenvalues --    1.11957   1.12794   1.13522   1.13866   1.14214
 Alpha virt. eigenvalues --    1.14784   1.15650   1.16636   1.16854   1.17308
 Alpha virt. eigenvalues --    1.17970   1.18390   1.18791   1.19290   1.19548
 Alpha virt. eigenvalues --    1.19939   1.20918   1.21548   1.22671   1.23159
 Alpha virt. eigenvalues --    1.23633   1.24075   1.25253   1.25417   1.26324
 Alpha virt. eigenvalues --    1.27189   1.28206   1.28828   1.29758   1.30752
 Alpha virt. eigenvalues --    1.31150   1.32785   1.33146   1.33379   1.33686
 Alpha virt. eigenvalues --    1.34822   1.36170   1.36567   1.37507   1.37953
 Alpha virt. eigenvalues --    1.38342   1.39057   1.40765   1.41520   1.41745
 Alpha virt. eigenvalues --    1.42694   1.43128   1.44469   1.45188   1.45833
 Alpha virt. eigenvalues --    1.46328   1.47482   1.49421   1.50711   1.51742
 Alpha virt. eigenvalues --    1.51918   1.53313   1.54893   1.55453   1.57017
 Alpha virt. eigenvalues --    1.57340   1.57658   1.58935   1.59567   1.60664
 Alpha virt. eigenvalues --    1.61200   1.62654   1.63406   1.64704   1.65322
 Alpha virt. eigenvalues --    1.66309   1.66550   1.67955   1.69089   1.69649
 Alpha virt. eigenvalues --    1.71270   1.71473   1.72736   1.74339   1.74664
 Alpha virt. eigenvalues --    1.75771   1.76384   1.77053   1.78263   1.78616
 Alpha virt. eigenvalues --    1.79106   1.81019   1.81477   1.82185   1.83570
 Alpha virt. eigenvalues --    1.84576   1.85316   1.85667   1.86034   1.86673
 Alpha virt. eigenvalues --    1.87005   1.87884   1.88763   1.89489   1.90099
 Alpha virt. eigenvalues --    1.90351   1.90706   1.90881   1.91001   1.91656
 Alpha virt. eigenvalues --    1.92610   1.93953   1.95016   1.95328   1.95938
 Alpha virt. eigenvalues --    1.96676   1.97562   1.98063   1.98648   1.99199
 Alpha virt. eigenvalues --    2.00641   2.01254   2.02535   2.02811   2.04026
 Alpha virt. eigenvalues --    2.04746   2.04980   2.05654   2.06991   2.07842
 Alpha virt. eigenvalues --    2.07899   2.08312   2.09372   2.09735   2.10486
 Alpha virt. eigenvalues --    2.11160   2.12279   2.13530   2.13681   2.13937
 Alpha virt. eigenvalues --    2.15210   2.16060   2.16509   2.16970   2.17833
 Alpha virt. eigenvalues --    2.18395   2.19714   2.20280   2.21428   2.21662
 Alpha virt. eigenvalues --    2.21953   2.22210   2.22819   2.24954   2.25650
 Alpha virt. eigenvalues --    2.26719   2.26970   2.27815   2.28867   2.29625
 Alpha virt. eigenvalues --    2.30322   2.31187   2.31895   2.32310   2.32646
 Alpha virt. eigenvalues --    2.33034   2.33828   2.34906   2.35495   2.36002
 Alpha virt. eigenvalues --    2.37272   2.37554   2.37964   2.38539   2.39906
 Alpha virt. eigenvalues --    2.41239   2.42120   2.42421   2.42644   2.44429
 Alpha virt. eigenvalues --    2.45025   2.46067   2.46082   2.47846   2.49206
 Alpha virt. eigenvalues --    2.49470   2.50202   2.51453   2.53164   2.53303
 Alpha virt. eigenvalues --    2.53757   2.54273   2.54741   2.55462   2.56680
 Alpha virt. eigenvalues --    2.57361   2.57828   2.59352   2.59891   2.60691
 Alpha virt. eigenvalues --    2.62306   2.62702   2.64592   2.65027   2.65306
 Alpha virt. eigenvalues --    2.65781   2.66656   2.67301   2.67777   2.70184
 Alpha virt. eigenvalues --    2.70701   2.71707   2.72437   2.72690   2.73985
 Alpha virt. eigenvalues --    2.74669   2.74981   2.75793   2.76025   2.76843
 Alpha virt. eigenvalues --    2.78851   2.80179   2.80365   2.80852   2.82309
 Alpha virt. eigenvalues --    2.84748   2.86722   2.87225   2.87989   2.88660
 Alpha virt. eigenvalues --    2.89808   2.90242   2.91495   2.91966   2.92632
 Alpha virt. eigenvalues --    2.93452   2.95963   2.97495   2.98103   2.98904
 Alpha virt. eigenvalues --    2.99613   3.01343   3.01604   3.02700   3.03450
 Alpha virt. eigenvalues --    3.05354   3.06067   3.06407   3.08313   3.09286
 Alpha virt. eigenvalues --    3.10275   3.13940   3.14007   3.14824   3.16262
 Alpha virt. eigenvalues --    3.20480   3.21562   3.23699   3.24207   3.24832
 Alpha virt. eigenvalues --    3.26729   3.29242   3.29853   3.33528   3.38218
 Alpha virt. eigenvalues --    3.40700   3.45066   3.46227   3.49757   3.51735
 Alpha virt. eigenvalues --    3.58574   3.60902   3.64824   3.66572   3.73458
 Alpha virt. eigenvalues --    3.75310   3.81860   3.82609   3.83343   3.84661
 Alpha virt. eigenvalues --    3.84729   3.85569   3.86153   3.88589   3.89764
 Alpha virt. eigenvalues --    3.92492   3.98878   4.00187   4.03436   4.04865
 Alpha virt. eigenvalues --    4.06507   4.09508   4.10403   4.12220   4.16819
 Alpha virt. eigenvalues --    4.17609   4.22783   4.23537   4.24582   4.30948
 Alpha virt. eigenvalues --    4.34706
          Condensed to atoms (all electrons):
              1          2          3          4          5          6
     1  H    0.743407   0.371862  -0.078273  -0.057526  -0.093235   0.022326
     2  C    0.371862   4.560614   0.344248   0.379974   0.133011  -0.059557
     3  H   -0.078273   0.344248   1.102817  -0.073982   0.116867  -0.011758
     4  H   -0.057526   0.379974  -0.073982   0.737095  -0.082088   0.020429
     5  C   -0.093235   0.133011   0.116867  -0.082088   5.763910   0.204325
     6  O    0.022326  -0.059557  -0.011758   0.020429   0.204325   8.741186
     7  N    0.067465  -0.044762  -0.220354   0.032822  -0.050174  -0.101233
     8  H   -0.006998  -0.055594  -0.001190  -0.000499  -0.143239  -0.005988
     9  C   -0.033944  -0.038196   0.014815   0.013901   0.000316  -0.011147
    10  H   -0.003336  -0.003960   0.001066   0.002080   0.119221  -0.009604
    11  C    0.002268   0.002134  -0.009657  -0.001519  -0.064971   0.032645
    12  H    0.000047   0.004300   0.000861  -0.000153   0.014909  -0.005683
    13  H    0.000115  -0.001131  -0.002152   0.000561  -0.059124   0.007098
    14  H   -0.000840   0.014730   0.003983  -0.000768   0.057443   0.019660
    15  C    0.023574  -0.001926  -0.031367  -0.013075  -0.351755   0.011506
    16  O   -0.000323   0.002185   0.000804   0.000337  -0.017492  -0.000152
    17  N    0.000110   0.011723   0.006382  -0.000967   0.006326   0.012989
    18  H   -0.000416   0.000990   0.000606  -0.000025  -0.017343   0.001060
    19  C    0.000382   0.006756   0.001315  -0.000020  -0.006958   0.000141
    20  H    0.000052   0.000026  -0.000022   0.000010   0.001043  -0.000413
    21  C   -0.000111  -0.000474  -0.000206  -0.000002  -0.002375   0.000627
    22  H   -0.000021  -0.000005  -0.000004   0.000015  -0.000987  -0.000004
    23  H    0.000010   0.000028   0.000036  -0.000002   0.001084   0.000005
    24  H    0.000010  -0.000291  -0.000568  -0.000013  -0.003839   0.000260
    25  C    0.000072   0.001335   0.000857  -0.000141  -0.009168   0.002516
    26  O   -0.000001  -0.000028  -0.000008   0.000004   0.001251  -0.000033
    27  N   -0.000007  -0.000072  -0.000032   0.000002   0.000188  -0.000018
    28  H   -0.000003   0.000009   0.000021  -0.000001  -0.000292   0.000020
    29  C   -0.000003   0.000010   0.000022  -0.000002  -0.000233   0.000034
    30  H    0.000000  -0.000004  -0.000001   0.000000   0.000000   0.000003
    31  C    0.000000   0.000001   0.000000   0.000000  -0.000018   0.000000
    32  H    0.000000   0.000001   0.000000   0.000000   0.000006   0.000000
    33  H    0.000000   0.000000   0.000000   0.000000  -0.000004   0.000000
    34  H    0.000000   0.000004   0.000002   0.000000   0.000010   0.000002
    35  C    0.000001   0.000005   0.000004   0.000000   0.000082   0.000000
    36  O    0.000000   0.000000   0.000000   0.000000  -0.000001   0.000000
    37  N    0.000000   0.000000   0.000000   0.000000   0.000000   0.000000
    38  H    0.000000   0.000000   0.000000   0.000000   0.000000   0.000000
    39  C    0.000000   0.000000   0.000000   0.000000   0.000000   0.000000
    40  H    0.000000   0.000000   0.000000   0.000000   0.000000   0.000000
    41  H    0.000000   0.000000   0.000000   0.000000   0.000000   0.000000
    42  H    0.000000   0.000000   0.000000   0.000000   0.000000   0.000000
              7          8          9         10         11         12
     1  H    0.067465  -0.006998  -0.033944  -0.003336   0.002268   0.000047
     2  C   -0.044762  -0.055594  -0.038196  -0.003960   0.002134   0.004300
     3  H   -0.220354  -0.001190   0.014815   0.001066  -0.009657   0.000861
     4  H    0.032822  -0.000499   0.013901   0.002080  -0.001519  -0.000153
     5  C   -0.050174  -0.143239   0.000316   0.119221  -0.064971   0.014909
     6  O   -0.101233  -0.005988  -0.011147  -0.009604   0.032645  -0.005683
     7  N    7.877307   0.273782  -1.201907  -0.248913   0.170003  -0.150364
     8  H    0.273782   0.964044   0.247916   0.016526  -0.016792   0.001752
     9  C   -1.201907   0.247916  10.952413   0.319731  -0.375070   0.209628
    10  H   -0.248913   0.016526   0.319731   1.426434  -0.051314   0.091394
    11  C    0.170003  -0.016792  -0.375070  -0.051314   4.364230   0.197599
    12  H   -0.150364   0.001752   0.209628   0.091394   0.197599   1.171920
    13  H    0.108206   0.003894  -0.370141  -0.080989   0.318468  -0.149977
    14  H    0.037230  -0.013891  -0.098413  -0.057459   0.419597  -0.230236
    15  C    0.549835  -0.196074  -2.812585  -0.158150   0.012308  -0.025203
    16  O   -0.101503   0.076169   0.250295  -0.011930  -0.028512   0.011953
    17  N    0.060198  -0.017952  -0.211578  -0.162688   0.108258  -0.076118
    18  H    0.006504  -0.000720  -0.252035  -0.010640  -0.005664   0.006278
    19  C    0.085776  -0.023122  -0.526118  -0.016814  -0.001319  -0.019140
    20  H   -0.000115   0.001548  -0.040699   0.003697  -0.000204  -0.001898
    21  C   -0.011196  -0.001951   0.023376   0.009262  -0.003239   0.002314
    22  H   -0.004767  -0.000272   0.009980   0.003013  -0.001701  -0.000236
    23  H    0.002926  -0.000354   0.003067  -0.001680   0.001514  -0.000038
    24  H   -0.005744  -0.000291   0.002298   0.003498  -0.001790   0.001180
    25  C    0.002738  -0.010339  -0.068690  -0.044853   0.084103  -0.011796
    26  O    0.000265   0.000476   0.032657   0.002320  -0.006324  -0.000640
    27  N   -0.000222   0.000589   0.023969   0.004293  -0.005528   0.000240
    28  H   -0.000171  -0.000363  -0.006826  -0.000834   0.001224  -0.000185
    29  C    0.000248  -0.000424   0.005940  -0.000089   0.003729  -0.000078
    30  H   -0.000095   0.000021   0.002933   0.000401  -0.000359   0.000017
    31  C   -0.000110   0.000007  -0.000441  -0.000020   0.000223   0.000015
    32  H   -0.000008  -0.000004   0.000444   0.000049  -0.000010  -0.000013
    33  H   -0.000008   0.000007  -0.000012   0.000009  -0.000005   0.000015
    34  H    0.000064  -0.000040  -0.000577  -0.000154   0.000512  -0.000053
    35  C    0.000237  -0.000143  -0.000401  -0.000632   0.000419  -0.000014
    36  O    0.000000   0.000013  -0.000008   0.000019   0.000000   0.000000
    37  N    0.000000   0.000003  -0.000019   0.000030  -0.000002   0.000003
    38  H    0.000000   0.000000  -0.000061  -0.000014   0.000005  -0.000001
    39  C    0.000001  -0.000001   0.000011   0.000000   0.000001   0.000000
    40  H    0.000000   0.000000  -0.000004  -0.000001   0.000000   0.000000
    41  H    0.000000   0.000000   0.000003   0.000001   0.000000   0.000000
    42  H    0.000000   0.000000   0.000000   0.000000   0.000000   0.000000
             13         14         15         16         17         18
     1  H    0.000115  -0.000840   0.023574  -0.000323   0.000110  -0.000416
     2  C   -0.001131   0.014730  -0.001926   0.002185   0.011723   0.000990
     3  H   -0.002152   0.003983  -0.031367   0.000804   0.006382   0.000606
     4  H    0.000561  -0.000768  -0.013075   0.000337  -0.000967  -0.000025
     5  C   -0.059124   0.057443  -0.351755  -0.017492   0.006326  -0.017343
     6  O    0.007098   0.019660   0.011506  -0.000152   0.012989   0.001060
     7  N    0.108206   0.037230   0.549835  -0.101503   0.060198   0.006504
     8  H    0.003894  -0.013891  -0.196074   0.076169  -0.017952  -0.000720
     9  C   -0.370141  -0.098413  -2.812585   0.250295  -0.211578  -0.252035
    10  H   -0.080989  -0.057459  -0.158150  -0.011930  -0.162688  -0.010640
    11  C    0.318468   0.419597   0.012308  -0.028512   0.108258  -0.005664
    12  H   -0.149977  -0.230236  -0.025203   0.011953  -0.076118   0.006278
    13  H    1.256179  -0.171170   0.261465  -0.014943  -0.051541  -0.003809
    14  H   -0.171170   1.066999  -0.072314  -0.000353   0.086588   0.002327
    15  C    0.261465  -0.072314   9.363497   0.134190  -0.516785   0.115625
    16  O   -0.014943  -0.000353   0.134190   8.799199  -0.207623  -0.001769
    17  N   -0.051541   0.086588  -0.516785  -0.207623   8.525847   0.190066
    18  H   -0.003809   0.002327   0.115625  -0.001769   0.190066   1.062436
    19  C    0.007307   0.016694  -0.209291   0.016262  -1.106224   0.187838
    20  H    0.001324   0.000839   0.268722  -0.004418  -0.249162   0.024278
    21  C    0.001575  -0.001702   0.106113  -0.003150   0.106154   0.004579
    22  H    0.000363  -0.000150   0.082030  -0.002334  -0.109355   0.009308
    23  H   -0.000533   0.000171  -0.079816   0.009664   0.122955   0.007576
    24  H    0.001168  -0.000760   0.067737   0.001097  -0.026134  -0.013681
    25  C   -0.001891   0.008981  -1.115759   0.001886   0.635445  -0.236391
    26  O   -0.000828  -0.000004   0.006154  -0.000440  -0.063182   0.077417
    27  N    0.003197  -0.000833   0.059803   0.003559   0.080999  -0.026716
    28  H   -0.000069   0.000182  -0.041013  -0.000048  -0.009431   0.005909
    29  C    0.001682   0.000394  -0.069244  -0.000777   0.014924  -0.030271
    30  H    0.000360  -0.000060  -0.005468  -0.000149  -0.011610  -0.003930
    31  C   -0.000222  -0.000014   0.000533   0.000097   0.003814  -0.001591
    32  H    0.000019  -0.000001  -0.001607  -0.000030  -0.004133  -0.001117
    33  H    0.000137  -0.000010   0.001856   0.000013   0.003463  -0.001483
    34  H   -0.000661   0.000091  -0.005957   0.000060  -0.000885   0.002475
    35  C    0.000247   0.000037  -0.022181   0.000876  -0.015035   0.001394
    36  O    0.000010  -0.000001   0.003047   0.000001   0.002330  -0.000411
    37  N   -0.000012  -0.000001   0.001594  -0.000009   0.000875   0.000031
    38  H   -0.000019   0.000002  -0.000299  -0.000004  -0.000363   0.000337
    39  C    0.000004   0.000000  -0.000029   0.000006  -0.000146  -0.000066
    40  H    0.000000   0.000000   0.000043   0.000001   0.000004   0.000004
    41  H    0.000001   0.000000   0.000004   0.000001   0.000003  -0.000015
    42  H   -0.000001   0.000000  -0.000018   0.000000  -0.000009   0.000026
             19         20         21         22         23         24
     1  H    0.000382   0.000052  -0.000111  -0.000021   0.000010   0.000010
     2  C    0.006756   0.000026  -0.000474  -0.000005   0.000028  -0.000291
     3  H    0.001315  -0.000022  -0.000206  -0.000004   0.000036  -0.000568
     4  H   -0.000020   0.000010  -0.000002   0.000015  -0.000002  -0.000013
     5  C   -0.006958   0.001043  -0.002375  -0.000987   0.001084  -0.003839
     6  O    0.000141  -0.000413   0.000627  -0.000004   0.000005   0.000260
     7  N    0.085776  -0.000115  -0.011196  -0.004767   0.002926  -0.005744
     8  H   -0.023122   0.001548  -0.001951  -0.000272  -0.000354  -0.000291
     9  C   -0.526118  -0.040699   0.023376   0.009980   0.003067   0.002298
    10  H   -0.016814   0.003697   0.009262   0.003013  -0.001680   0.003498
    11  C   -0.001319  -0.000204  -0.003239  -0.001701   0.001514  -0.001790
    12  H   -0.019140  -0.001898   0.002314  -0.000236  -0.000038   0.001180
    13  H    0.007307   0.001324   0.001575   0.000363  -0.000533   0.001168
    14  H    0.016694   0.000839  -0.001702  -0.000150   0.000171  -0.000760
    15  C   -0.209291   0.268722   0.106113   0.082030  -0.079816   0.067737
    16  O    0.016262  -0.004418  -0.003150  -0.002334   0.009664   0.001097
    17  N   -1.106224  -0.249162   0.106154  -0.109355   0.122955  -0.026134
    18  H    0.187838   0.024278   0.004579   0.009308   0.007576  -0.013681
    19  C   10.750802   0.248804  -0.180817   0.212886  -0.357302  -0.053998
    20  H    0.248804   1.362855   0.015371   0.091028  -0.089137  -0.013287
    21  C   -0.180817   0.015371   4.365023   0.208243   0.330723   0.388174
    22  H    0.212886   0.091028   0.208243   1.169042  -0.132681  -0.211186
    23  H   -0.357302  -0.089137   0.330723  -0.132681   1.357436  -0.251295
    24  H   -0.053998  -0.013287   0.388174  -0.211186  -0.251295   1.089246
    25  C   -2.600861  -0.292731  -0.140592  -0.233571   0.287293   0.013244
    26  O    0.097031  -0.006467  -0.008182   0.003503  -0.007063  -0.001116
    27  N    0.196925  -0.088241   0.053055  -0.038470  -0.094367   0.063631
    28  H   -0.271140  -0.002281  -0.023230   0.000726   0.004393   0.000417
    29  C   -0.393754  -0.016208  -0.019634  -0.036802  -0.019166   0.019944
    30  H   -0.086594   0.000023  -0.001162  -0.003807  -0.000217   0.002314
    31  C   -0.022703   0.001592  -0.008118   0.001674  -0.004508  -0.000254
    32  H   -0.005752   0.002901  -0.003934  -0.000301   0.000135  -0.000189
    33  H    0.021346  -0.000581   0.003388   0.000130  -0.000653   0.000353
    34  H   -0.020447  -0.001618  -0.001711  -0.000148   0.002304  -0.000750
    35  C   -0.050384  -0.019923   0.020854  -0.003131   0.028512  -0.004261
    36  O    0.038343   0.002281  -0.000887  -0.000223  -0.007066   0.000864
    37  N    0.023939   0.001774  -0.001359   0.000803   0.000154  -0.000102
    38  H   -0.005375  -0.000107  -0.000357   0.000071   0.000127  -0.000075
    39  C    0.004659   0.000004   0.000417  -0.000051   0.000876  -0.000040
    40  H    0.001620   0.000039   0.000048  -0.000006   0.000202   0.000013
    41  H    0.000059   0.000010  -0.000025  -0.000009  -0.000161  -0.000020
    42  H   -0.000274  -0.000012   0.000036   0.000016   0.000064   0.000002
             25         26         27         28         29         30
     1  H    0.000072  -0.000001  -0.000007  -0.000003  -0.000003   0.000000
     2  C    0.001335  -0.000028  -0.000072   0.000009   0.000010  -0.000004
     3  H    0.000857  -0.000008  -0.000032   0.000021   0.000022  -0.000001
     4  H   -0.000141   0.000004   0.000002  -0.000001  -0.000002   0.000000
     5  C   -0.009168   0.001251   0.000188  -0.000292  -0.000233   0.000000
     6  O    0.002516  -0.000033  -0.000018   0.000020   0.000034   0.000003
     7  N    0.002738   0.000265  -0.000222  -0.000171   0.000248  -0.000095
     8  H   -0.010339   0.000476   0.000589  -0.000363  -0.000424   0.000021
     9  C   -0.068690   0.032657   0.023969  -0.006826   0.005940   0.002933
    10  H   -0.044853   0.002320   0.004293  -0.000834  -0.000089   0.000401
    11  C    0.084103  -0.006324  -0.005528   0.001224   0.003729  -0.000359
    12  H   -0.011796  -0.000640   0.000240  -0.000185  -0.000078   0.000017
    13  H   -0.001891  -0.000828   0.003197  -0.000069   0.001682   0.000360
    14  H    0.008981  -0.000004  -0.000833   0.000182   0.000394  -0.000060
    15  C   -1.115759   0.006154   0.059803  -0.041013  -0.069244  -0.005468
    16  O    0.001886  -0.000440   0.003559  -0.000048  -0.000777  -0.000149
    17  N    0.635445  -0.063182   0.080999  -0.009431   0.014924  -0.011610
    18  H   -0.236391   0.077417  -0.026716   0.005909  -0.030271  -0.003930
    19  C   -2.600861   0.097031   0.196925  -0.271140  -0.393754  -0.086594
    20  H   -0.292731  -0.006467  -0.088241  -0.002281  -0.016208   0.000023
    21  C   -0.140592  -0.008182   0.053055  -0.023230  -0.019634  -0.001162
    22  H   -0.233571   0.003503  -0.038470   0.000726  -0.036802  -0.003807
    23  H    0.287293  -0.007063  -0.094367   0.004393  -0.019166  -0.000217
    24  H    0.013244  -0.001116   0.063631   0.000417   0.019944   0.002314
    25  C    8.954359   0.229236  -0.423122   0.246974  -0.312160   0.220479
    26  O    0.229236   8.758795  -0.226601  -0.003318  -0.050668  -0.007426
    27  N   -0.423122  -0.226601   8.346853   0.131521  -0.970568  -0.266746
    28  H    0.246974  -0.003318   0.131521   1.049743   0.050472   0.023084
    29  C   -0.312160  -0.050668  -0.970568   0.050472   9.198726   0.155833
    30  H    0.220479  -0.007426  -0.266746   0.023084   0.155833   1.408684
    31  C    0.015832   0.012916   0.150300   0.000208  -0.164162  -0.037014
    32  H    0.077395  -0.007926  -0.150040   0.009813   0.217498   0.087630
    33  H   -0.060439   0.009031   0.195870  -0.005727  -0.369145  -0.106248
    34  H    0.083122   0.019292  -0.038434  -0.005251  -0.050608  -0.018797
    35  C   -0.044109   0.043161   0.265791  -0.098981  -1.093880  -0.125016
    36  O   -0.022265  -0.001942  -0.049664   0.045335   0.169590  -0.022603
    37  N    0.008684   0.003521  -0.049838  -0.003818   0.168070  -0.052802
    38  H    0.017825  -0.001069   0.003909   0.006816  -0.115880   0.035007
    39  C   -0.004100   0.001824   0.008139  -0.009995  -0.011661  -0.008494
    40  H   -0.000497   0.000266   0.000656  -0.002933   0.035624   0.002081
    41  H   -0.001871   0.000028   0.000585   0.001094  -0.001171  -0.000918
    42  H    0.004061   0.000031   0.004361  -0.000423  -0.025547  -0.004070
             31         32         33         34         35         36
     1  H    0.000000   0.000000   0.000000   0.000000   0.000001   0.000000
     2  C    0.000001   0.000001   0.000000   0.000004   0.000005   0.000000
     3  H    0.000000   0.000000   0.000000   0.000002   0.000004   0.000000
     4  H    0.000000   0.000000   0.000000   0.000000   0.000000   0.000000
     5  C   -0.000018   0.000006  -0.000004   0.000010   0.000082  -0.000001
     6  O    0.000000   0.000000   0.000000   0.000002   0.000000   0.000000
     7  N   -0.000110  -0.000008  -0.000008   0.000064   0.000237   0.000000
     8  H    0.000007  -0.000004   0.000007  -0.000040  -0.000143   0.000013
     9  C   -0.000441   0.000444  -0.000012  -0.000577  -0.000401  -0.000008
    10  H   -0.000020   0.000049   0.000009  -0.000154  -0.000632   0.000019
    11  C    0.000223  -0.000010  -0.000005   0.000512   0.000419   0.000000
    12  H    0.000015  -0.000013   0.000015  -0.000053  -0.000014   0.000000
    13  H   -0.000222   0.000019   0.000137  -0.000661   0.000247   0.000010
    14  H   -0.000014  -0.000001  -0.000010   0.000091   0.000037  -0.000001
    15  C    0.000533  -0.001607   0.001856  -0.005957  -0.022181   0.003047
    16  O    0.000097  -0.000030   0.000013   0.000060   0.000876   0.000001
    17  N    0.003814  -0.004133   0.003463  -0.000885  -0.015035   0.002330
    18  H   -0.001591  -0.001117  -0.001483   0.002475   0.001394  -0.000411
    19  C   -0.022703  -0.005752   0.021346  -0.020447  -0.050384   0.038343
    20  H    0.001592   0.002901  -0.000581  -0.001618  -0.019923   0.002281
    21  C   -0.008118  -0.003934   0.003388  -0.001711   0.020854  -0.000887
    22  H    0.001674  -0.000301   0.000130  -0.000148  -0.003131  -0.000223
    23  H   -0.004508   0.000135  -0.000653   0.002304   0.028512  -0.007066
    24  H   -0.000254  -0.000189   0.000353  -0.000750  -0.004261   0.000864
    25  C    0.015832   0.077395  -0.060439   0.083122  -0.044109  -0.022265
    26  O    0.012916  -0.007926   0.009031   0.019292   0.043161  -0.001942
    27  N    0.150300  -0.150040   0.195870  -0.038434   0.265791  -0.049664
    28  H    0.000208   0.009813  -0.005727  -0.005251  -0.098981   0.045335
    29  C   -0.164162   0.217498  -0.369145  -0.050608  -1.093880   0.169590
    30  H   -0.037014   0.087630  -0.106248  -0.018797  -0.125016  -0.022603
    31  C    4.278150   0.241234   0.323963   0.372280   0.014199  -0.018693
    32  H    0.241234   1.099967  -0.199056  -0.161536  -0.166937   0.014674
    33  H    0.323963  -0.199056   1.321033  -0.165783   0.171041  -0.012793
    34  H    0.372280  -0.161536  -0.165783   0.991623   0.037486  -0.001848
    35  C    0.014199  -0.166937   0.171041   0.037486   5.794002   0.177411
    36  O   -0.018693   0.014674  -0.012793  -0.001848   0.177411   8.763687
    37  N   -0.014337   0.000778  -0.038427   0.016229  -0.032198  -0.206032
    38  H   -0.020825   0.005872  -0.004082  -0.001266   0.063710   0.009201
    39  C   -0.007391  -0.011465   0.009407   0.004896  -0.118946  -0.004400
    40  H   -0.012348  -0.002391   0.002583  -0.000107  -0.035057   0.001329
    41  H    0.001474   0.000243  -0.000402   0.000127  -0.018873   0.010953
    42  H    0.011959  -0.001137   0.000628   0.001101  -0.009394   0.010851
             37         38         39         40         41         42
     1  H    0.000000   0.000000   0.000000   0.000000   0.000000   0.000000
     2  C    0.000000   0.000000   0.000000   0.000000   0.000000   0.000000
     3  H    0.000000   0.000000   0.000000   0.000000   0.000000   0.000000
     4  H    0.000000   0.000000   0.000000   0.000000   0.000000   0.000000
     5  C    0.000000   0.000000   0.000000   0.000000   0.000000   0.000000
     6  O    0.000000   0.000000   0.000000   0.000000   0.000000   0.000000
     7  N    0.000000   0.000000   0.000001   0.000000   0.000000   0.000000
     8  H    0.000003   0.000000  -0.000001   0.000000   0.000000   0.000000
     9  C   -0.000019  -0.000061   0.000011  -0.000004   0.000003   0.000000
    10  H    0.000030  -0.000014   0.000000  -0.000001   0.000001   0.000000
    11  C   -0.000002   0.000005   0.000001   0.000000   0.000000   0.000000
    12  H    0.000003  -0.000001   0.000000   0.000000   0.000000   0.000000
    13  H   -0.000012  -0.000019   0.000004   0.000000   0.000001  -0.000001
    14  H   -0.000001   0.000002   0.000000   0.000000   0.000000   0.000000
    15  C    0.001594  -0.000299  -0.000029   0.000043   0.000004  -0.000018
    16  O   -0.000009  -0.000004   0.000006   0.000001   0.000001   0.000000
    17  N    0.000875  -0.000363  -0.000146   0.000004   0.000003  -0.000009
    18  H    0.000031   0.000337  -0.000066   0.000004  -0.000015   0.000026
    19  C    0.023939  -0.005375   0.004659   0.001620   0.000059  -0.000274
    20  H    0.001774  -0.000107   0.000004   0.000039   0.000010  -0.000012
    21  C   -0.001359  -0.000357   0.000417   0.000048  -0.000025   0.000036
    22  H    0.000803   0.000071  -0.000051  -0.000006  -0.000009   0.000016
    23  H    0.000154   0.000127   0.000876   0.000202  -0.000161   0.000064
    24  H   -0.000102  -0.000075  -0.000040   0.000013  -0.000020   0.000002
    25  C    0.008684   0.017825  -0.004100  -0.000497  -0.001871   0.004061
    26  O    0.003521  -0.001069   0.001824   0.000266   0.000028   0.000031
    27  N   -0.049838   0.003909   0.008139   0.000656   0.000585   0.004361
    28  H   -0.003818   0.006816  -0.009995  -0.002933   0.001094  -0.000423
    29  C    0.168070  -0.115880  -0.011661   0.035624  -0.001171  -0.025547
    30  H   -0.052802   0.035007  -0.008494   0.002081  -0.000918  -0.004070
    31  C   -0.014337  -0.020825  -0.007391  -0.012348   0.001474   0.011959
    32  H    0.000778   0.005872  -0.011465  -0.002391   0.000243  -0.001137
    33  H   -0.038427  -0.004082   0.009407   0.002583  -0.000402   0.000628
    34  H    0.016229  -0.001266   0.004896  -0.000107   0.000127   0.001101
    35  C   -0.032198   0.063710  -0.118946  -0.035057  -0.018873  -0.009394
    36  O   -0.206032   0.009201  -0.004400   0.001329   0.010953   0.010851
    37  N    7.271343   0.200047   0.283826  -0.023320  -0.051196  -0.040694
    38  H    0.200047   1.037244  -0.121801  -0.004052   0.010030   0.006278
    39  C    0.283826  -0.121801   4.109305   0.473482   0.354147   0.333904
    40  H   -0.023320  -0.004052   0.473482   0.947576  -0.119667  -0.121089
    41  H   -0.051196   0.010030   0.354147  -0.119667   1.043904  -0.144019
    42  H   -0.040694   0.006278   0.333904  -0.121089  -0.144019   1.071533
 Mulliken atomic charges:
              1
     1  H    0.043335
     2  C    0.372055
     3  H   -0.165131
     4  H    0.043556
     5  C    0.483304
     6  O   -0.871245
     7  N   -0.133960
     8  H   -0.090506
     9  C   -0.064822
    10  H   -0.138969
    11  C    0.854741
    12  H   -0.042600
    13  H   -0.064167
    14  H   -0.086966
    15  C    0.660279
    16  O   -0.912696
    17  N   -0.138532
    18  H   -0.098972
    19  C    0.039522
    20  H   -0.200698
    21  C    0.775084
    22  H   -0.012612
    23  H   -0.115215
    24  H   -0.065769
    25  C    0.738910
    26  O   -0.905914
    27  N   -0.168918
    28  H   -0.091628
    29  C   -0.290604
    30  H   -0.175277
    31  C    0.882297
    32  H   -0.041072
    33  H   -0.099414
    34  H   -0.055049
    35  C    1.240027
    36  O   -0.901103
    37  N   -0.467538
    38  H   -0.120831
    39  C    0.713678
    40  H   -0.144100
    41  H   -0.084315
    42  H   -0.098164
 Sum of Mulliken atomic charges =   0.00000
 Mulliken charges with hydrogens summed into heavy atoms:
              1
     2  C    0.293815
     5  C    0.483304
     6  O   -0.871245
     7  N   -0.224466
     9  C   -0.203791
    11  C    0.661007
    15  C    0.660279
    16  O   -0.912696
    17  N   -0.237503
    19  C   -0.161177
    21  C    0.581488
    25  C    0.738910
    26  O   -0.905914
    27  N   -0.260546
    29  C   -0.465880
    31  C    0.686762
    35  C    1.240027
    36  O   -0.901103
    37  N   -0.588369
    39  C    0.387098
 Sum of Mulliken charges with hydrogens summed into heavy atoms =   0.00000
 Electronic spatial extent (au):  <R**2>=          11262.1858
 Charge=              0.0000 electrons
 Dipole moment (field-independent basis, Debye):
    X=             -6.7360    Y=              0.0852    Z=              0.0023  Tot=              6.7365
 Quadrupole moment (field-independent basis, Debye-Ang):
   XX=           -102.4613   YY=           -128.3962   ZZ=           -125.0526
   XY=            -22.2286   XZ=            -20.0169   YZ=             -7.8500
 Traceless Quadrupole moment (field-independent basis, Debye-Ang):
   XX=             16.1754   YY=             -9.7595   ZZ=             -6.4159
   XY=            -22.2286   XZ=            -20.0169   YZ=             -7.8500
 Octapole moment (field-independent basis, Debye-Ang**2):
  XXX=           -274.6891  YYY=              1.3347  ZZZ=              0.3721  XYY=             -6.1163
  XXY=            -30.0326  XXZ=              6.1885  XZZ=            -40.5953  YZZ=             -2.1004
  YYZ=              2.2174  XYZ=            -27.6851
 Hexadecapole moment (field-independent basis, Debye-Ang**3):
 XXXX=         -11691.6210 YYYY=          -1071.9133 ZZZZ=           -490.7500 XXXY=           -896.7339
 XXXZ=           -901.7732 YYYX=            -22.2791 YYYZ=              2.8822 ZZZX=            -41.5107
 ZZZY=             -2.3229 XXYY=          -2449.9265 XXZZ=          -2387.1424 YYZZ=           -267.3358
 XXYZ=           -168.6237 YYXZ=            -27.3862 ZZXY=            -38.3969
 N-N= 1.567185434984D+03 E-N=-5.441988328768D+03  KE= 9.830705435357D+02
 1\1\GINC-TACHIKOMA\SP\RMP2-FC\Aug-CC-pVDZ\C12H22N4O4\STEBOSS\17-Jan-20
 17\0\\#SP MP2/aug-cc-pVDZ\\Phi Psi fixed scan\\0,1\H,0,7.179,-1.4409,1
 .5148\C,0,6.9394,-1.0414,0.5243\H,0,6.7154,-1.8723,-0.1518\H,0,7.8289,
 -0.5171,0.1613\C,0,5.8007,-0.0404,0.6619\O,0,5.8867,0.9466,1.3882\N,0,
 4.6905,-0.3106,-0.0781\H,0,4.5878,-1.1676,-0.6097\C,0,3.4933,0.5033,-0
 .0003\H,0,3.3266,0.7745,1.0499\C,0,3.621,1.801,-0.822\H,0,3.7774,1.569
 7,-1.881\H,0,2.7232,2.4219,-0.7295\H,0,4.4772,2.3691,-0.4501\C,0,2.328
 4,-0.3708,-0.4999\O,0,2.5319,-1.4234,-1.1086\N,0,1.0956,0.1263,-0.2515
 \H,0,0.9678,0.9925,0.2643\C,0,-0.1503,-0.5338,-0.6061\H,0,-0.2153,-0.6
 332,-1.6986\C,0,-0.2777,-1.9331,0.0282\H,0,-0.2843,-1.8583,1.1208\H,0,
 -1.1987,-2.4324,-0.2907\H,0,0.5709,-2.5446,-0.2818\C,0,-1.2727,0.4103,
 -0.1238\O,0,-1.0184,1.473,0.4475\N,0,-2.5348,-0.0118,-0.3545\H,0,-2.74
 16,-0.9148,-0.7691\C,0,-3.701,0.7227,0.1026\H,0,-3.4983,1.095,1.1145\C
 ,0,-4.0257,1.9214,-0.8094\H,0,-4.248,1.5799,-1.8255\H,0,-4.8891,2.4828
 ,-0.4353\H,0,-3.1636,2.5923,-0.838\C,0,-4.8613,-0.2888,0.1378\O,0,-4.7
 861,-1.3623,-0.4563\N,0,-5.9528,0.1099,0.8397\H,0,-5.9171,0.9974,1.321
 2\C,0,-7.1617,-0.6914,0.9484\H,0,-7.0017,-1.6056,0.3761\H,0,-7.3662,-0
 .9528,1.9927\H,0,-8.0261,-0.1563,0.5395\\Version=EM64L-G09RevA.02\Stat
 e=1-A\HF=-984.7003684\MP2=-987.8926742\RMSD=8.749e-09\PG=C01 [X(C12H22
 N4O4)]\\@


 ALMOST ALL THE CHEMICAL PROCESSES WHICH OCCUR IN NATURE,
 WHETHER IN ANIMAL OR VEGETABLE ORGANISMS,
 OR IN THE NON-LIVING SURFACE OF THE EARTH ... 
 TAKE PLACE BETWEEN SUBSTANCES IN SOLUTION

                                    -- W. OSTWALD, 1890
 Job cpu time:  0 days 12 hours 15 minutes 55.4 seconds.
 File lengths (MBytes):  RWF= 148108 Int=      0 D2E=      0 Chk=     19 Scr=      1
 Normal termination of Gaussian 09 at Tue Jan 17 01:59:08 2017.
