 Entering Gaussian System, Link 0=g09
 Initial command:
 /home/steboss/Software/g09/l1.exe /home/steboss/projects/phi_psi_scan/alanine/105/4169/Gau-2544.inp -scrdir=/home/steboss/projects/phi_psi_scan/alanine/105/4169/
 Entering Link 1 = /home/steboss/Software/g09/l1.exe PID=      2546.
  
 Copyright (c) 1988,1990,1992,1993,1995,1998,2003,2009, Gaussian, Inc.
                  All Rights Reserved.
  
 This is part of the Gaussian(R) 09 program.  It is based on
 the Gaussian(R) 03 system (copyright 2003, Gaussian, Inc.),
 the Gaussian(R) 98 system (copyright 1998, Gaussian, Inc.),
 the Gaussian(R) 94 system (copyright 1995, Gaussian, Inc.),
 the Gaussian 92(TM) system (copyright 1992, Gaussian, Inc.),
 the Gaussian 90(TM) system (copyright 1990, Gaussian, Inc.),
 the Gaussian 88(TM) system (copyright 1988, Gaussian, Inc.),
 the Gaussian 86(TM) system (copyright 1986, Carnegie Mellon
 University), and the Gaussian 82(TM) system (copyright 1983,
 Carnegie Mellon University). Gaussian is a federally registered
 trademark of Gaussian, Inc.
  
 This software contains proprietary and confidential information,
 including trade secrets, belonging to Gaussian, Inc.
  
 This software is provided under written license and may be
 used, copied, transmitted, or stored only in accord with that
 written license.
  
 The following legend is applicable only to US Government
 contracts under FAR:
  
                    RESTRICTED RIGHTS LEGEND
  
 Use, reproduction and disclosure by the US Government is
 subject to restrictions as set forth in subparagraphs (a)
 and (c) of the Commercial Computer Software - Restricted
 Rights clause in FAR 52.227-19.
  
 Gaussian, Inc.
 340 Quinnipiac St., Bldg. 40, Wallingford CT 06492
  
  
 ---------------------------------------------------------------
 Warning -- This program may not be used in any manner that
 competes with the business of Gaussian, Inc. or will provide
 assistance to any competitor of Gaussian, Inc.  The licensee
 of this program is prohibited from giving any competitor of
 Gaussian, Inc. access to this program.  By using this program,
 the user acknowledges that Gaussian, Inc. is engaged in the
 business of creating and licensing software in the field of
 computational chemistry and represents and warrants to the
 licensee that it is not a competitor of Gaussian, Inc. and that
 it will not use this program in any manner prohibited above.
 ---------------------------------------------------------------
  

 Cite this work as:
 Gaussian 09, Revision A.02,
 M. J. Frisch, G. W. Trucks, H. B. Schlegel, G. E. Scuseria, 
 M. A. Robb, J. R. Cheeseman, G. Scalmani, V. Barone, B. Mennucci, 
 G. A. Petersson, H. Nakatsuji, M. Caricato, X. Li, H. P. Hratchian, 
 A. F. Izmaylov, J. Bloino, G. Zheng, J. L. Sonnenberg, M. Hada, 
 M. Ehara, K. Toyota, R. Fukuda, J. Hasegawa, M. Ishida, T. Nakajima, 
 Y. Honda, O. Kitao, H. Nakai, T. Vreven, J. A. Montgomery, Jr., 
 J. E. Peralta, F. Ogliaro, M. Bearpark, J. J. Heyd, E. Brothers, 
 K. N. Kudin, V. N. Staroverov, R. Kobayashi, J. Normand, 
 K. Raghavachari, A. Rendell, J. C. Burant, S. S. Iyengar, J. Tomasi, 
 M. Cossi, N. Rega, J. M. Millam, M. Klene, J. E. Knox, J. B. Cross, 
 V. Bakken, C. Adamo, J. Jaramillo, R. Gomperts, R. E. Stratmann, 
 O. Yazyev, A. J. Austin, R. Cammi, C. Pomelli, J. W. Ochterski, 
 R. L. Martin, K. Morokuma, V. G. Zakrzewski, G. A. Voth, 
 P. Salvador, J. J. Dannenberg, S. Dapprich, A. D. Daniels, 
 O. Farkas, J. B. Foresman, J. V. Ortiz, J. Cioslowski, 
 and D. J. Fox, Gaussian, Inc., Wallingford CT, 2009.
 
 ******************************************
 Gaussian 09:  EM64L-G09RevA.02 11-Jun-2009
                10-Feb-2017 
 ******************************************
 %chk=structure_330.chk
 %NProcShared=8
 Will use up to    8 processors via shared memory.
 ----------------------------------------------------------------------
 # b3lyp/6-31G* Opt=(ModRedundant, maxcycles=1000, calcfc) geom=nocrowd
 ----------------------------------------------------------------------
 1/6=1000,10=4,14=-1,18=120,19=15,26=3,38=1/1,3;
 2/9=110,12=1,17=6,18=5,40=1/2;
 3/5=1,6=6,7=1,11=2,16=1,25=1,30=1,71=2,74=-5/1,2,3;
 4//1;
 5/5=2,38=5/2;
 8/6=4,10=90,11=11/1;
 11/6=1,8=1,9=11,15=111,16=1/1,2,10;
 10/6=1,7=6,13=1/2;
 6/7=2,8=2,9=2,10=2,28=1/1;
 7/10=1,18=20,25=1/1,2,3,16;
 1/6=1000,10=4,14=-1,18=20,19=15/3(2);
 2/9=110,12=1/2;
 99//99;
 2/9=110,12=1/2;
 3/5=1,6=6,7=1,11=2,16=1,25=1,30=1,71=1,74=-5/1,2,3;
 4/5=5,16=3/1;
 5/5=2,38=5/2;
 7//1,2,3,16;
 1/6=1000,14=-1,18=20,19=15/3(-5);
 2/9=110,12=1/2;
 6/7=2,8=2,9=2,10=2,19=2,28=1/1;
 99/9=1/99;
 ------------------
 Phi Psi fixed scan
 ------------------
 Symbolic Z-matrix:
 Charge =  0 Multiplicity = 1
 H                     1.3513    2.3068   -1.9013 
 C                     1.6731    2.7486   -0.9582 
 H                     1.7242    1.9746   -0.1925 
 H                     0.9598    3.5143   -0.6531 
 C                     3.0539    3.3932   -1.0948 
 O                     3.6506    3.3681   -2.1689 
 N                     3.5554    3.9697    0. 
 H                     3.0267    3.9647    0.8606 
 C                     4.8533    4.6139    0. 
 H                     5.4076    4.3155    0.8898 
 C                     5.6613    4.2208   -1.2322 
 H                     5.1233    4.5214   -2.1312 
 H                     6.6305    4.7189   -1.2058 
 H                     5.8085    3.1409   -1.2414 
 C                     4.7127    6.1294    0. 
 O                     5.5682    6.8352    0.5295 
 N                     3.6281    6.6291   -0.5968 
 H                     2.9524    6.0081   -1.0184 
 C                     3.3794    8.0551   -0.6638 
 H                     4.1904    8.5895   -0.169 
 H                     3.3232    8.366    -1.7069 
 H                     2.4372    8.2838   -0.1657 
 
 The following ModRedundant input section has been read:
 D    5    7    9   15 F                                                       
 D    7    9   15   17 F                                                       

 GradGradGradGradGradGradGradGradGradGradGradGradGradGradGradGradGradGrad
 Berny optimization.
 Initialization pass.
                           ----------------------------
                           !    Initial Parameters    !
                           ! (Angstroms and Degrees)  !
 --------------------------                            --------------------------
 ! Name  Definition              Value          Derivative Info.                !
 --------------------------------------------------------------------------------
 ! R1    R(1,2)                  1.09           calculate D2E/DX2 analytically  !
 ! R2    R(2,3)                  1.0899         calculate D2E/DX2 analytically  !
 ! R3    R(2,4)                  1.09           calculate D2E/DX2 analytically  !
 ! R4    R(2,5)                  1.53           calculate D2E/DX2 analytically  !
 ! R5    R(5,6)                  1.229          calculate D2E/DX2 analytically  !
 ! R6    R(5,7)                  1.3351         calculate D2E/DX2 analytically  !
 ! R7    R(7,8)                  1.01           calculate D2E/DX2 analytically  !
 ! R8    R(7,9)                  1.449          calculate D2E/DX2 analytically  !
 ! R9    R(9,10)                 1.09           calculate D2E/DX2 analytically  !
 ! R10   R(9,11)                 1.525          calculate D2E/DX2 analytically  !
 ! R11   R(9,15)                 1.522          calculate D2E/DX2 analytically  !
 ! R12   R(11,12)                1.09           calculate D2E/DX2 analytically  !
 ! R13   R(11,13)                1.09           calculate D2E/DX2 analytically  !
 ! R14   R(11,14)                1.0899         calculate D2E/DX2 analytically  !
 ! R15   R(15,16)                1.229          calculate D2E/DX2 analytically  !
 ! R16   R(15,17)                1.335          calculate D2E/DX2 analytically  !
 ! R17   R(17,18)                1.0099         calculate D2E/DX2 analytically  !
 ! R18   R(17,19)                1.4491         calculate D2E/DX2 analytically  !
 ! R19   R(19,20)                1.09           calculate D2E/DX2 analytically  !
 ! R20   R(19,21)                1.0899         calculate D2E/DX2 analytically  !
 ! R21   R(19,22)                1.09           calculate D2E/DX2 analytically  !
 ! A1    A(1,2,3)              109.5017         calculate D2E/DX2 analytically  !
 ! A2    A(1,2,4)              109.493          calculate D2E/DX2 analytically  !
 ! A3    A(1,2,5)              111.0973         calculate D2E/DX2 analytically  !
 ! A4    A(3,2,4)              109.4436         calculate D2E/DX2 analytically  !
 ! A5    A(3,2,5)              108.6387         calculate D2E/DX2 analytically  !
 ! A6    A(4,2,5)              108.6398         calculate D2E/DX2 analytically  !
 ! A7    A(2,5,6)              120.5054         calculate D2E/DX2 analytically  !
 ! A8    A(2,5,7)              116.5979         calculate D2E/DX2 analytically  !
 ! A9    A(6,5,7)              122.8967         calculate D2E/DX2 analytically  !
 ! A10   A(5,7,8)              119.9959         calculate D2E/DX2 analytically  !
 ! A11   A(5,7,9)              121.9004         calculate D2E/DX2 analytically  !
 ! A12   A(8,7,9)              118.1037         calculate D2E/DX2 analytically  !
 ! A13   A(7,9,10)             109.5            calculate D2E/DX2 analytically  !
 ! A14   A(7,9,11)             111.0992         calculate D2E/DX2 analytically  !
 ! A15   A(7,9,15)             111.0966         calculate D2E/DX2 analytically  !
 ! A16   A(10,9,11)            108.6382         calculate D2E/DX2 analytically  !
 ! A17   A(10,9,15)            108.6373         calculate D2E/DX2 analytically  !
 ! A18   A(11,9,15)            107.7947         calculate D2E/DX2 analytically  !
 ! A19   A(9,11,12)            109.5007         calculate D2E/DX2 analytically  !
 ! A20   A(9,11,13)            109.4959         calculate D2E/DX2 analytically  !
 ! A21   A(9,11,14)            109.4978         calculate D2E/DX2 analytically  !
 ! A22   A(12,11,13)           109.441          calculate D2E/DX2 analytically  !
 ! A23   A(12,11,14)           109.4482         calculate D2E/DX2 analytically  !
 ! A24   A(13,11,14)           109.4436         calculate D2E/DX2 analytically  !
 ! A25   A(9,15,16)            120.4998         calculate D2E/DX2 analytically  !
 ! A26   A(9,15,17)            116.5999         calculate D2E/DX2 analytically  !
 ! A27   A(16,15,17)           122.9004         calculate D2E/DX2 analytically  !
 ! A28   A(15,17,18)           120.0016         calculate D2E/DX2 analytically  !
 ! A29   A(15,17,19)           121.9009         calculate D2E/DX2 analytically  !
 ! A30   A(18,17,19)           118.0975         calculate D2E/DX2 analytically  !
 ! A31   A(17,19,20)           109.4983         calculate D2E/DX2 analytically  !
 ! A32   A(17,19,21)           109.5005         calculate D2E/DX2 analytically  !
 ! A33   A(17,19,22)           109.4932         calculate D2E/DX2 analytically  !
 ! A34   A(20,19,21)           109.4486         calculate D2E/DX2 analytically  !
 ! A35   A(20,19,22)           109.4406         calculate D2E/DX2 analytically  !
 ! A36   A(21,19,22)           109.4461         calculate D2E/DX2 analytically  !
 ! D1    D(1,2,5,6)             -0.0038         calculate D2E/DX2 analytically  !
 ! D2    D(1,2,5,7)            179.9948         calculate D2E/DX2 analytically  !
 ! D3    D(3,2,5,6)            120.5106         calculate D2E/DX2 analytically  !
 ! D4    D(3,2,5,7)            -59.4908         calculate D2E/DX2 analytically  !
 ! D5    D(4,2,5,6)           -120.5082         calculate D2E/DX2 analytically  !
 ! D6    D(4,2,5,7)             59.4904         calculate D2E/DX2 analytically  !
 ! D7    D(2,5,7,8)              0.0007         calculate D2E/DX2 analytically  !
 ! D8    D(2,5,7,9)            179.9954         calculate D2E/DX2 analytically  !
 ! D9    D(6,5,7,8)            179.9993         calculate D2E/DX2 analytically  !
 ! D10   D(6,5,7,9)             -0.006          calculate D2E/DX2 analytically  !
 ! D11   D(5,7,9,10)          -134.9963         calculate D2E/DX2 analytically  !
 ! D12   D(5,7,9,11)           -14.9937         calculate D2E/DX2 analytically  !
 ! D13   D(5,7,9,15)           105.0038         frozen, calculate D2E/DX2 analyt!
 ! D14   D(8,7,9,10)            44.9985         calculate D2E/DX2 analytically  !
 ! D15   D(8,7,9,11)           165.0011         calculate D2E/DX2 analytically  !
 ! D16   D(8,7,9,15)           -75.0013         calculate D2E/DX2 analytically  !
 ! D17   D(7,9,11,12)           60.0024         calculate D2E/DX2 analytically  !
 ! D18   D(7,9,11,13)          179.9986         calculate D2E/DX2 analytically  !
 ! D19   D(7,9,11,14)          -60.0038         calculate D2E/DX2 analytically  !
 ! D20   D(10,9,11,12)        -179.4843         calculate D2E/DX2 analytically  !
 ! D21   D(10,9,11,13)         -59.4881         calculate D2E/DX2 analytically  !
 ! D22   D(10,9,11,14)          60.5095         calculate D2E/DX2 analytically  !
 ! D23   D(15,9,11,12)         -61.938          calculate D2E/DX2 analytically  !
 ! D24   D(15,9,11,13)          58.0582         calculate D2E/DX2 analytically  !
 ! D25   D(15,9,11,14)         178.0558         calculate D2E/DX2 analytically  !
 ! D26   D(7,9,15,16)          149.9979         calculate D2E/DX2 analytically  !
 ! D27   D(7,9,15,17)          -29.9973         frozen, calculate D2E/DX2 analyt!
 ! D28   D(10,9,15,16)          29.4868         calculate D2E/DX2 analytically  !
 ! D29   D(10,9,15,17)        -150.5084         calculate D2E/DX2 analytically  !
 ! D30   D(11,9,15,16)         -88.0601         calculate D2E/DX2 analytically  !
 ! D31   D(11,9,15,17)          91.9447         calculate D2E/DX2 analytically  !
 ! D32   D(9,15,17,18)          -0.0044         calculate D2E/DX2 analytically  !
 ! D33   D(9,15,17,19)        -179.9964         calculate D2E/DX2 analytically  !
 ! D34   D(16,15,17,18)       -179.9995         calculate D2E/DX2 analytically  !
 ! D35   D(16,15,17,19)          0.0086         calculate D2E/DX2 analytically  !
 ! D36   D(15,17,19,20)         -0.0089         calculate D2E/DX2 analytically  !
 ! D37   D(15,17,19,21)        119.9979         calculate D2E/DX2 analytically  !
 ! D38   D(15,17,19,22)       -120.0014         calculate D2E/DX2 analytically  !
 ! D39   D(18,17,19,20)        179.9989         calculate D2E/DX2 analytically  !
 ! D40   D(18,17,19,21)        -59.9942         calculate D2E/DX2 analytically  !
 ! D41   D(18,17,19,22)         60.0065         calculate D2E/DX2 analytically  !
 --------------------------------------------------------------------------------
 Trust Radius=3.00D-01 FncErr=1.00D-07 GrdErr=1.00D-06
 Number of steps in this run= 132 maximum allowed number of steps= 132.
 GradGradGradGradGradGradGradGradGradGradGradGradGradGradGradGradGradGrad

                          Input orientation:                          
 ---------------------------------------------------------------------
 Center     Atomic      Atomic             Coordinates (Angstroms)
 Number     Number       Type             X           Y           Z
 ---------------------------------------------------------------------
      1          1           0        1.351300    2.306800   -1.901300
      2          6           0        1.673100    2.748600   -0.958200
      3          1           0        1.724200    1.974600   -0.192500
      4          1           0        0.959800    3.514300   -0.653100
      5          6           0        3.053900    3.393200   -1.094800
      6          8           0        3.650600    3.368100   -2.168900
      7          7           0        3.555400    3.969700    0.000000
      8          1           0        3.026700    3.964700    0.860600
      9          6           0        4.853300    4.613900    0.000000
     10          1           0        5.407600    4.315500    0.889800
     11          6           0        5.661300    4.220800   -1.232200
     12          1           0        5.123300    4.521400   -2.131200
     13          1           0        6.630500    4.718900   -1.205800
     14          1           0        5.808500    3.140900   -1.241400
     15          6           0        4.712700    6.129400    0.000000
     16          8           0        5.568200    6.835200    0.529500
     17          7           0        3.628100    6.629100   -0.596800
     18          1           0        2.952400    6.008100   -1.018400
     19          6           0        3.379400    8.055100   -0.663800
     20          1           0        4.190400    8.589500   -0.169000
     21          1           0        3.323200    8.366000   -1.706900
     22          1           0        2.437200    8.283800   -0.165700
 ---------------------------------------------------------------------
                    Distance matrix (angstroms):
                    1          2          3          4          5
     1  H    0.000000
     2  C    1.090037   0.000000
     3  H    1.780283   1.089947   0.000000
     4  H    1.780262   1.090036   1.779645   0.000000
     5  C    2.174754   1.529960   2.143519   2.143600   0.000000
     6  O    2.546517   2.400017   3.091766   3.091833   1.228972
     7  N    3.352348   2.439731   2.714917   2.714971   1.335081
     8  H    3.630935   2.572774   2.601158   2.601197   2.037386
     9  C    4.604526   3.809352   4.098076   4.098171   2.434448
    10  H    5.317771   4.451603   4.496512   4.775499   3.213904
    11  C    4.763107   4.260069   4.650500   4.789426   2.739039
    12  H    4.380102   4.052484   4.668900   4.531419   2.574758
    13  H    5.845674   5.340337   5.712245   5.823519   3.816002
    14  H    4.582338   4.163608   4.375152   4.898512   2.770012
    15  C    5.433804   4.646195   5.121577   4.620557   3.381863
    16  O    6.648116   5.838266   6.238834   5.802092   4.561515
    17  N    5.056463   4.360151   5.045063   4.101826   3.323967
    18  H    4.128275   3.502081   4.296476   3.212933   2.617984
    19  C    6.219932   5.581852   6.319358   5.145235   4.693082
    20  H    7.108704   6.409036   7.059716   6.035626   5.399099
    21  H    6.374958   5.902420   6.760192   5.498650   5.017562
    22  H    6.317912   5.643611   6.349417   5.016812   5.016125
                    6          7          8          9         10
     6  O    0.000000
     7  N    2.252801   0.000000
     8  H    3.150088   1.010040   0.000000
     9  C    2.775362   1.448978   2.120981   0.000000
    10  H    3.652432   2.083739   2.406782   1.089970   0.000000
    11  C    2.376430   2.452791   3.374391   1.525027   2.139209
    12  H    1.870927   2.702720   3.695472   2.150225   3.041326
    13  H    3.410576   3.386959   4.222109   2.150214   2.459625
    14  H    2.359748   2.702673   3.582661   2.150165   2.466256
    15  C    3.668373   2.450234   2.875614   1.522008   2.136554
    16  O    4.793677   3.541585   3.848197   2.392828   2.550391
    17  N    3.620238   2.726511   3.095921   2.432759   3.275568
    18  H    2.963230   2.357079   2.776985   2.567947   3.540357
    19  C    4.930197   4.142716   4.379448   3.801956   4.529004
    20  H    5.617295   4.666298   4.878837   4.034029   4.568338
    21  H    5.029875   4.721745   5.104058   4.396927   5.243484
    22  H    5.445113   4.459741   4.478329   4.396949   5.068014
                   11         12         13         14         15
    11  C    0.000000
    12  H    1.089957   0.000000
    13  H    1.090023   1.779613   0.000000
    14  H    1.089925   1.779613   1.779617   0.000000
    15  C    2.461892   2.701161   2.668599   3.416575   0.000000
    16  O    3.153941   3.554002   2.935724   4.103862   1.228985
    17  N    3.215205   3.005396   3.610284   4.163795   1.335001
    18  H    3.252428   2.856818   3.901996   4.053131   2.037280
    19  C    4.498000   4.204936   4.689738   5.512124   2.434469
    20  H    4.730696   4.611938   4.691544   5.784076   2.520605
    21  H    4.782754   4.266303   4.948805   5.804746   3.137929
    22  H    5.295301   5.023343   5.601257   6.242773   3.137961
                   16         17         18         19         20
    16  O    0.000000
    17  N    2.252780   0.000000
    18  H    3.150000   1.009930   0.000000
    19  C    2.775422   1.449074   2.120915   0.000000
    20  H    2.337478   2.083834   2.986260   1.090014   0.000000
    21  H    3.519213   2.083772   2.484193   1.089897   1.779642
    22  H    3.519220   2.083776   2.484218   1.090022   1.779655
                   21         22
    21  H    0.000000
    22  H    1.779621   0.000000
 Stoichiometry    C6H12N2O2
 Framework group  C1[X(C6H12N2O2)]
 Deg. of freedom    60
 Full point group                 C1      NOp   1
 Largest Abelian subgroup         C1      NOp   1
 Largest concise Abelian subgroup C1      NOp   1
                         Standard orientation:                         
 ---------------------------------------------------------------------
 Center     Atomic      Atomic             Coordinates (Angstroms)
 Number     Number       Type             X           Y           Z
 ---------------------------------------------------------------------
      1          1           0       -3.663259   -1.417712    0.369547
      2          6           0       -2.935918   -1.233826   -0.421238
      3          1           0       -3.446208   -0.841938   -1.301017
      4          1           0       -2.434337   -2.166856   -0.678244
      5          6           0       -1.881775   -0.218830    0.025240
      6          8           0       -1.927808    0.274653    1.149841
      7          7           0       -0.933401    0.087947   -0.862970
      8          1           0       -0.937615   -0.344379   -1.775799
      9          6           0        0.120800    1.035108   -0.561166
     10          1           0        0.251230    1.714843   -1.403178
     11          6           0       -0.216644    1.855200    0.679515
     12          1           0       -0.341219    1.189065    1.533184
     13          1           0        0.591895    2.557538    0.882335
     14          1           0       -1.141926    2.405991    0.510941
     15          6           0        1.440398    0.322110   -0.302707
     16          8           0        2.507953    0.870530   -0.567216
     17          7           0        1.364864   -0.905560    0.216282
     18          1           0        0.463454   -1.314461    0.416823
     19          6           0        2.549261   -1.687740    0.508197
     20          1           0        3.437870   -1.116425    0.239673
     21          1           0        2.576836   -1.922973    1.572049
     22          1           0        2.525139   -2.612993   -0.067540
 ---------------------------------------------------------------------
 Rotational constants (GHZ):      2.1267729      0.8805266      0.7444880
 Standard basis: 6-31G(d) (6D, 7F)
 There are   174 symmetry adapted basis functions of A   symmetry.
 Integral buffers will be    131072 words long.
 Raffenetti 2 integral format.
 Two-electron integral symmetry is turned on.
   174 basis functions,   328 primitive gaussians,   174 cartesian basis functions
    39 alpha electrons       39 beta electrons
       nuclear repulsion energy       570.1752308285 Hartrees.
 NAtoms=   22 NActive=   22 NUniq=   22 SFac= 7.50D-01 NAtFMM=   80 NAOKFM=F Big=F
 One-electron integrals computed using PRISM.
 NBasis=   174 RedAO= T  NBF=   174
 NBsUse=   174 1.00D-06 NBFU=   174
 Harris functional with IExCor=  402 diagonalized for initial guess.
 ExpMin= 1.61D-01 ExpMax= 5.48D+03 ExpMxC= 8.25D+02 IAcc=1 IRadAn=         1 AccDes= 0.00D+00
 HarFok:  IExCor=  402 AccDes= 0.00D+00 IRadAn=         1 IDoV= 1
 ScaDFX=  1.000000  1.000000  1.000000  1.000000
 FoFCou: FMM=F IPFlag=           0 FMFlag=      100000 FMFlg1=           0
         NFxFlg=           0 DoJE=T BraDBF=F KetDBF=T FulRan=T
         Omega=  0.000000  0.000000  1.000000  0.000000  0.000000 ICntrl=     500 IOpCl=  0
         NMat0=    1 NMatS0=    1 NMatT0=    0 NMatD0=    1 NMtDS0=    0 NMtDT0=    0
         I1Cent=           4 NGrid=           0.
 Petite list used in FoFCou.
 Initial guess orbital symmetries:
       Occupied  (A) (A) (A) (A) (A) (A) (A) (A) (A) (A) (A) (A)
                 (A) (A) (A) (A) (A) (A) (A) (A) (A) (A) (A) (A)
                 (A) (A) (A) (A) (A) (A) (A) (A) (A) (A) (A) (A)
                 (A) (A) (A)
       Virtual   (A) (A) (A) (A) (A) (A) (A) (A) (A) (A) (A) (A)
                 (A) (A) (A) (A) (A) (A) (A) (A) (A) (A) (A) (A)
                 (A) (A) (A) (A) (A) (A) (A) (A) (A) (A) (A) (A)
                 (A) (A) (A) (A) (A) (A) (A) (A) (A) (A) (A) (A)
                 (A) (A) (A) (A) (A) (A) (A) (A) (A) (A) (A) (A)
                 (A) (A) (A) (A) (A) (A) (A) (A) (A) (A) (A) (A)
                 (A) (A) (A) (A) (A) (A) (A) (A) (A) (A) (A) (A)
                 (A) (A) (A) (A) (A) (A) (A) (A) (A) (A) (A) (A)
                 (A) (A) (A) (A) (A) (A) (A) (A) (A) (A) (A) (A)
                 (A) (A) (A) (A) (A) (A) (A) (A) (A) (A) (A) (A)
                 (A) (A) (A) (A) (A) (A) (A) (A) (A) (A) (A) (A)
                 (A) (A) (A)
 The electronic state of the initial guess is 1-A.
 Requested convergence on RMS density matrix=1.00D-08 within 128 cycles.
 Requested convergence on MAX density matrix=1.00D-06.
 Requested convergence on             energy=1.00D-06.
 No special actions if energy rises.
 Integral accuracy reduced to 1.0D-05 until final iterations.
 Initial convergence to 1.0D-05 achieved.  Increase integral accuracy.
 SCF Done:  E(RB3LYP) =  -495.818161039     A.U. after   16 cycles
             Convg  =    0.2893D-08             -V/T =  2.0084
 Range of M.O.s used for correlation:     1   174
 NBasis=   174 NAE=    39 NBE=    39 NFC=     0 NFV=     0
 NROrb=    174 NOA=    39 NOB=    39 NVA=   135 NVB=   135
 Symmetrizing basis deriv contribution to polar:
 IMax=3 JMax=2 DiffMx= 0.00D+00
 G2DrvN: will do    23 centers at a time, making    1 passes doing MaxLOS=2.
 Calling FoFCou, ICntrl=  3107 FMM=F I1Cent=   0 AccDes= 0.00D+00.
 FoFDir/FoFCou used for L=0 through L=2.
 End of G2Drv Frequency-dependent properties file   721 does not exist.
 End of G2Drv Frequency-dependent properties file   722 does not exist.
          IDoAtm=1111111111111111111111
          Differentiating once with respect to nuclear coordinates.
          There are    69 degrees of freedom in the 1st order CPHF.  IDoFFX=5.
     63 vectors produced by pass  0 Test12= 7.63D-11 1.45D-07 XBig12= 1.98D-01 8.72D-02.
 AX will form    63 AO Fock derivatives at one time.
     63 vectors produced by pass  1 Test12= 7.63D-11 1.45D-07 XBig12= 4.57D-02 8.13D-02.
     63 vectors produced by pass  2 Test12= 7.63D-11 1.45D-07 XBig12= 9.52D-05 1.27D-03.
     63 vectors produced by pass  3 Test12= 7.63D-11 1.45D-07 XBig12= 1.94D-07 5.62D-05.
     31 vectors produced by pass  4 Test12= 7.63D-11 1.45D-07 XBig12= 1.96D-10 1.47D-06.
 Inverted reduced A of dimension   283 with in-core refinement.
 End of Minotr Frequency-dependent properties file   721 does not exist.
 End of Minotr Frequency-dependent properties file   722 does not exist.

 **********************************************************************

            Population analysis using the SCF density.

 **********************************************************************

 Orbital symmetries:
       Occupied  (A) (A) (A) (A) (A) (A) (A) (A) (A) (A) (A) (A)
                 (A) (A) (A) (A) (A) (A) (A) (A) (A) (A) (A) (A)
                 (A) (A) (A) (A) (A) (A) (A) (A) (A) (A) (A) (A)
                 (A) (A) (A)
       Virtual   (A) (A) (A) (A) (A) (A) (A) (A) (A) (A) (A) (A)
                 (A) (A) (A) (A) (A) (A) (A) (A) (A) (A) (A) (A)
                 (A) (A) (A) (A) (A) (A) (A) (A) (A) (A) (A) (A)
                 (A) (A) (A) (A) (A) (A) (A) (A) (A) (A) (A) (A)
                 (A) (A) (A) (A) (A) (A) (A) (A) (A) (A) (A) (A)
                 (A) (A) (A) (A) (A) (A) (A) (A) (A) (A) (A) (A)
                 (A) (A) (A) (A) (A) (A) (A) (A) (A) (A) (A) (A)
                 (A) (A) (A) (A) (A) (A) (A) (A) (A) (A) (A) (A)
                 (A) (A) (A) (A) (A) (A) (A) (A) (A) (A) (A) (A)
                 (A) (A) (A) (A) (A) (A) (A) (A) (A) (A) (A) (A)
                 (A) (A) (A) (A) (A) (A) (A) (A) (A) (A) (A) (A)
                 (A) (A) (A)
 The electronic state is 1-A.
 Alpha  occ. eigenvalues --  -19.10743 -19.09876 -14.37488 -14.36089 -10.29461
 Alpha  occ. eigenvalues --  -10.27422 -10.23246 -10.21594 -10.19894 -10.16059
 Alpha  occ. eigenvalues --   -1.04419  -1.02419  -0.94278  -0.91842  -0.78804
 Alpha  occ. eigenvalues --   -0.73238  -0.70974  -0.64983  -0.59344  -0.58366
 Alpha  occ. eigenvalues --   -0.54356  -0.51715  -0.46912  -0.45912  -0.45638
 Alpha  occ. eigenvalues --   -0.44064  -0.42140  -0.41337  -0.40588  -0.40016
 Alpha  occ. eigenvalues --   -0.38564  -0.37607  -0.36795  -0.36244  -0.34438
 Alpha  occ. eigenvalues --   -0.27761  -0.24900  -0.23344  -0.23192
 Alpha virt. eigenvalues --    0.01928   0.03806   0.05587   0.08807   0.11858
 Alpha virt. eigenvalues --    0.12744   0.14370   0.14903   0.16502   0.16748
 Alpha virt. eigenvalues --    0.17199   0.17551   0.18361   0.19110   0.19415
 Alpha virt. eigenvalues --    0.21429   0.22680   0.24969   0.29044   0.31511
 Alpha virt. eigenvalues --    0.36948   0.39762   0.42785   0.50315   0.51761
 Alpha virt. eigenvalues --    0.52429   0.53171   0.54180   0.54886   0.56142
 Alpha virt. eigenvalues --    0.58813   0.60048   0.61707   0.64803   0.65877
 Alpha virt. eigenvalues --    0.66819   0.68679   0.70667   0.72135   0.73902
 Alpha virt. eigenvalues --    0.76415   0.77282   0.79227   0.81002   0.83703
 Alpha virt. eigenvalues --    0.85438   0.86243   0.87057   0.87829   0.88712
 Alpha virt. eigenvalues --    0.89542   0.89797   0.91104   0.92613   0.94306
 Alpha virt. eigenvalues --    0.95369   0.96482   0.97430   1.02213   1.04091
 Alpha virt. eigenvalues --    1.05876   1.06906   1.10435   1.13959   1.16436
 Alpha virt. eigenvalues --    1.21400   1.27528   1.31174   1.34876   1.35208
 Alpha virt. eigenvalues --    1.36475   1.41533   1.44946   1.45649   1.50587
 Alpha virt. eigenvalues --    1.53056   1.53603   1.61240   1.65206   1.68102
 Alpha virt. eigenvalues --    1.74020   1.75805   1.79783   1.81024   1.83180
 Alpha virt. eigenvalues --    1.85285   1.86096   1.88574   1.91456   1.92704
 Alpha virt. eigenvalues --    1.95523   1.98700   1.99682   2.01252   2.03908
 Alpha virt. eigenvalues --    2.06177   2.11118   2.11760   2.13029   2.17544
 Alpha virt. eigenvalues --    2.19026   2.22891   2.25821   2.29664   2.30869
 Alpha virt. eigenvalues --    2.33393   2.34968   2.36748   2.38310   2.41985
 Alpha virt. eigenvalues --    2.44763   2.46304   2.51688   2.57360   2.65216
 Alpha virt. eigenvalues --    2.68120   2.71193   2.72023   2.77517   2.85929
 Alpha virt. eigenvalues --    2.94425   2.98311   3.02195   3.16349   3.19275
 Alpha virt. eigenvalues --    3.94548   4.06304   4.09205   4.18456   4.20196
 Alpha virt. eigenvalues --    4.24360   4.26622   4.40843   4.52046   4.69232
          Condensed to atoms (all electrons):
              1          2          3          4          5          6
     1  H    0.495646   0.360115  -0.020177  -0.021323  -0.017294   0.005092
     2  C    0.360115   5.337271   0.352213   0.347641   0.352100  -0.074699
     3  H   -0.020177   0.352213   0.545910  -0.026405  -0.028253   0.001183
     4  H   -0.021323   0.347641  -0.026405   0.560179  -0.025911   0.001353
     5  C   -0.017294   0.352100  -0.028253  -0.025911   4.390953   0.570822
     6  O    0.005092  -0.074699   0.001183   0.001353   0.570822   8.160997
     7  N    0.004697  -0.140026   0.005658   0.004856   0.231101  -0.102815
     8  H   -0.000140   0.000615   0.000653   0.000916  -0.019838   0.003792
     9  C   -0.000078   0.003105   0.000212  -0.000161  -0.024190  -0.006195
    10  H    0.000002  -0.000240   0.000017  -0.000002   0.002198  -0.000008
    11  C    0.000009   0.000096  -0.000034   0.000032  -0.003914  -0.048295
    12  H    0.000015   0.000167   0.000008  -0.000029   0.001124  -0.002081
    13  H   -0.000001   0.000033  -0.000001  -0.000001   0.000851   0.004372
    14  H    0.000012  -0.000336   0.000016   0.000003   0.000646  -0.006758
    15  C    0.000001  -0.000082  -0.000004   0.000040  -0.005887  -0.001424
    16  O    0.000000   0.000001   0.000000   0.000000  -0.000038  -0.000002
    17  N    0.000000  -0.000138   0.000002   0.000076   0.002678  -0.000483
    18  H    0.000000  -0.000133   0.000017   0.000166   0.006516   0.001198
    19  C    0.000000  -0.000002   0.000000  -0.000004  -0.000057   0.000012
    20  H    0.000000   0.000000   0.000000   0.000000  -0.000001   0.000000
    21  H    0.000000   0.000000   0.000000   0.000000  -0.000014   0.000003
    22  H    0.000000   0.000000   0.000000   0.000000   0.000006  -0.000001
              7          8          9         10         11         12
     1  H    0.004697  -0.000140  -0.000078   0.000002   0.000009   0.000015
     2  C   -0.140026   0.000615   0.003105  -0.000240   0.000096   0.000167
     3  H    0.005658   0.000653   0.000212   0.000017  -0.000034   0.000008
     4  H    0.004856   0.000916  -0.000161  -0.000002   0.000032  -0.000029
     5  C    0.231101  -0.019838  -0.024190   0.002198  -0.003914   0.001124
     6  O   -0.102815   0.003792  -0.006195  -0.000008  -0.048295  -0.002081
     7  N    7.236113   0.307316   0.172365  -0.043521  -0.037798  -0.006079
     8  H    0.307316   0.407349  -0.034588  -0.003076   0.005165  -0.000265
     9  C    0.172365  -0.034588   5.139250   0.371656   0.365384  -0.025596
    10  H   -0.043521  -0.003076   0.371656   0.571064  -0.032316   0.004924
    11  C   -0.037798   0.005165   0.365384  -0.032316   5.130601   0.380673
    12  H   -0.006079  -0.000265  -0.025596   0.004924   0.380673   0.501128
    13  H    0.004666  -0.000086  -0.031753  -0.003486   0.337841  -0.027761
    14  H   -0.002410  -0.000181  -0.027660  -0.004697   0.379087  -0.024425
    15  C   -0.047202   0.001407   0.341336  -0.039137  -0.039873  -0.007776
    16  O    0.002557   0.000048  -0.075482   0.004253  -0.002512  -0.000241
    17  N   -0.002074   0.001367  -0.121543   0.005168  -0.003894   0.004547
    18  H    0.004911   0.000109  -0.002747   0.000103  -0.000029   0.000440
    19  C   -0.000218  -0.000039   0.006724  -0.000140  -0.000186  -0.000142
    20  H   -0.000098  -0.000001   0.001107  -0.000026  -0.000031  -0.000005
    21  H   -0.000002   0.000004  -0.000265  -0.000002   0.000049  -0.000017
    22  H    0.000026  -0.000018  -0.000020   0.000013  -0.000009   0.000005
             13         14         15         16         17         18
     1  H   -0.000001   0.000012   0.000001   0.000000   0.000000   0.000000
     2  C    0.000033  -0.000336  -0.000082   0.000001  -0.000138  -0.000133
     3  H   -0.000001   0.000016  -0.000004   0.000000   0.000002   0.000017
     4  H   -0.000001   0.000003   0.000040   0.000000   0.000076   0.000166
     5  C    0.000851   0.000646  -0.005887  -0.000038   0.002678   0.006516
     6  O    0.004372  -0.006758  -0.001424  -0.000002  -0.000483   0.001198
     7  N    0.004666  -0.002410  -0.047202   0.002557  -0.002074   0.004911
     8  H   -0.000086  -0.000181   0.001407   0.000048   0.001367   0.000109
     9  C   -0.031753  -0.027660   0.341336  -0.075482  -0.121543  -0.002747
    10  H   -0.003486  -0.004697  -0.039137   0.004253   0.005168   0.000103
    11  C    0.337841   0.379087  -0.039873  -0.002512  -0.003894  -0.000029
    12  H   -0.027761  -0.024425  -0.007776  -0.000241   0.004547   0.000440
    13  H    0.599570  -0.032217  -0.002732   0.004130   0.000291  -0.000110
    14  H   -0.032217   0.560589   0.005117  -0.000053  -0.000071  -0.000028
    15  C   -0.002732   0.005117   4.377080   0.587220   0.271419  -0.015563
    16  O    0.004130  -0.000053   0.587220   8.102386  -0.103429   0.003690
    17  N    0.000291  -0.000071   0.271419  -0.103429   7.087055   0.295716
    18  H   -0.000110  -0.000028  -0.015563   0.003690   0.295716   0.399762
    19  C   -0.000007   0.000007  -0.027437  -0.010235   0.270039  -0.032228
    20  H   -0.000013   0.000001  -0.000585   0.023024  -0.038113   0.003652
    21  H    0.000002  -0.000001   0.002076   0.000619  -0.043535  -0.000667
    22  H    0.000000   0.000000   0.000910   0.000616  -0.045107  -0.000498
             19         20         21         22
     1  H    0.000000   0.000000   0.000000   0.000000
     2  C   -0.000002   0.000000   0.000000   0.000000
     3  H    0.000000   0.000000   0.000000   0.000000
     4  H   -0.000004   0.000000   0.000000   0.000000
     5  C   -0.000057  -0.000001  -0.000014   0.000006
     6  O    0.000012   0.000000   0.000003  -0.000001
     7  N   -0.000218  -0.000098  -0.000002   0.000026
     8  H   -0.000039  -0.000001   0.000004  -0.000018
     9  C    0.006724   0.001107  -0.000265  -0.000020
    10  H   -0.000140  -0.000026  -0.000002   0.000013
    11  C   -0.000186  -0.000031   0.000049  -0.000009
    12  H   -0.000142  -0.000005  -0.000017   0.000005
    13  H   -0.000007  -0.000013   0.000002   0.000000
    14  H    0.000007   0.000001  -0.000001   0.000000
    15  C   -0.027437  -0.000585   0.002076   0.000910
    16  O   -0.010235   0.023024   0.000619   0.000616
    17  N    0.270039  -0.038113  -0.043535  -0.045107
    18  H   -0.032228   0.003652  -0.000667  -0.000498
    19  C    4.965904   0.375008   0.381961   0.382933
    20  H    0.375008   0.475596  -0.023650  -0.024843
    21  H    0.381961  -0.023650   0.561533  -0.039142
    22  H    0.382933  -0.024843  -0.039142   0.572157
 Mulliken atomic charges:
              1
     1  H    0.193425
     2  C   -0.537697
     3  H    0.168986
     4  H    0.158571
     5  C    0.566403
     6  O   -0.506064
     7  N   -0.592025
     8  H    0.329491
     9  C   -0.050860
    10  H    0.167252
    11  C   -0.430046
    12  H    0.201386
    13  H    0.146412
    14  H    0.153360
    15  C    0.601097
    16  O   -0.536550
    17  N   -0.579972
    18  H    0.335725
    19  C   -0.311891
    20  H    0.208978
    21  H    0.161052
    22  H    0.152971
 Sum of Mulliken atomic charges =   0.00000
 Mulliken charges with hydrogens summed into heavy atoms:
              1
     2  C   -0.016716
     5  C    0.566403
     6  O   -0.506064
     7  N   -0.262534
     9  C    0.116391
    11  C    0.071112
    15  C    0.601097
    16  O   -0.536550
    17  N   -0.244247
    19  C    0.211109
 Sum of Mulliken charges with hydrogens summed into heavy atoms =   0.00000
 APT atomic charges:
              1
     1  H    0.634198
     2  C   -1.246099
     3  H    0.493018
     4  H    0.290527
     5  C    0.053692
     6  O   -0.260516
     7  N   -0.654475
     8  H    0.606950
     9  C   -0.486953
    10  H    0.502970
    11  C   -1.131134
    12  H    0.274321
    13  H    0.465048
    14  H    0.464556
    15  C   -0.330502
    16  O    0.116992
    17  N   -0.305624
    18  H    0.357155
    19  C   -1.355740
    20  H    0.567662
    21  H    0.461862
    22  H    0.482092
 Sum of APT charges=   0.00000
 APT Atomic charges with hydrogens summed into heavy atoms:
              1
     1  H    0.000000
     2  C    0.171644
     3  H    0.000000
     4  H    0.000000
     5  C    0.053692
     6  O   -0.260516
     7  N   -0.047524
     8  H    0.000000
     9  C    0.016017
    10  H    0.000000
    11  C    0.072791
    12  H    0.000000
    13  H    0.000000
    14  H    0.000000
    15  C   -0.330502
    16  O    0.116992
    17  N    0.051531
    18  H    0.000000
    19  C    0.155876
    20  H    0.000000
    21  H    0.000000
    22  H    0.000000
 Sum of APT charges=   0.00000
 Electronic spatial extent (au):  <R**2>=           1662.6304
 Charge=              0.0000 electrons
 Dipole moment (field-independent basis, Debye):
    X=             -2.0740    Y=             -3.5005    Z=             -2.0881  Tot=              4.5733
 Quadrupole moment (field-independent basis, Debye-Ang):
   XX=            -67.0119   YY=            -56.9740   ZZ=            -59.5771
   XY=             -3.6623   XZ=              8.9006   YZ=             -0.4013
 Traceless Quadrupole moment (field-independent basis, Debye-Ang):
   XX=             -5.8242   YY=              4.2136   ZZ=              1.6106
   XY=             -3.6623   XZ=              8.9006   YZ=             -0.4013
 Octapole moment (field-independent basis, Debye-Ang**2):
  XXX=            -20.5603  YYY=             -4.6420  ZZZ=             -9.3168  XYY=             -1.3223
  XXY=            -24.1232  XXZ=             -0.2142  XZZ=              2.6324  YZZ=             -2.5188
  YYZ=              1.6842  XYZ=              2.4799
 Hexadecapole moment (field-independent basis, Debye-Ang**3):
 XXXX=          -1360.8157 YYYY=           -539.6600 ZZZZ=           -216.3829 XXXY=            -31.5573
 XXXZ=             33.4218 YYYX=             -9.0818 YYYZ=             -3.6417 ZZZX=              7.2879
 ZZZY=             -2.7411 XXYY=           -315.3825 XXZZ=           -274.7749 YYZZ=           -128.2545
 XXYZ=             -0.8042 YYXZ=              0.4739 ZZXY=              0.8920
 N-N= 5.701752308285D+02 E-N=-2.296734198007D+03  KE= 4.917026738105D+02
  Exact polarizability:   0.000   0.000   0.000   0.000   0.000   0.000
 Approx polarizability: 114.149  11.386 111.637 -10.883  -2.560 110.290
 Calling FoFJK, ICntrl=    100147 FMM=F ISym2X=0 I1Cent= 0 IOpClX= 0 NMat=1 NMatS=1 NMatT=0.
 ***** Axes restored to original set *****
 -------------------------------------------------------------------
 Center     Atomic                   Forces (Hartrees/Bohr)
 Number     Number              X              Y              Z
 -------------------------------------------------------------------
      1        1           0.003361621    0.001468245   -0.000816206
      2        6           0.006965874    0.004208575    0.005466933
      3        1          -0.004582700   -0.003095462    0.003652345
      4        1          -0.006366147   -0.000219863    0.002889687
      5        6          -0.019750124   -0.023339948   -0.034407974
      6        8          -0.033693413   -0.013133764   -0.008357355
      7        7           0.005022947    0.001799667    0.018790435
      8        1          -0.001045299   -0.000305624    0.000262784
      9        6           0.004100404    0.004455814   -0.004719646
     10        1          -0.000555256    0.003207843    0.004718601
     11        6           0.020168469    0.009232696   -0.003415406
     12        1           0.015466982    0.000220309    0.004194405
     13        1           0.004830844    0.001489272    0.006744112
     14        1           0.002892542   -0.000232754   -0.004209271
     15        6           0.019679163    0.002456188    0.022459211
     16        8           0.004209398   -0.000530636   -0.000096076
     17        7          -0.016903083    0.008590661   -0.009011480
     18        1           0.001853871   -0.000150900    0.000462116
     19        6          -0.001988821   -0.001223884   -0.002816601
     20        1           0.001024296   -0.003041291    0.000328301
     21        1          -0.000998561    0.004286293   -0.003162080
     22        1          -0.003693004    0.003858560    0.001043164
 -------------------------------------------------------------------
 Cartesian Forces:  Max     0.034407974 RMS     0.009904575

 GradGradGradGradGradGradGradGradGradGradGradGradGradGradGradGradGradGrad
 Berny optimization.
 Internal  Forces:  Max     0.128691552 RMS     0.022558479
 Search for a local minimum.
 Step number   1 out of a maximum of  132
 All quantities printed in internal units (Hartrees-Bohrs-Radians)
 Mixed Optimization -- RFO/linear search
 Second derivative matrix not updated -- analytic derivatives used.
     Eigenvalues ---   -0.02568  -0.00054  -0.00019   0.00308   0.00771
     Eigenvalues ---    0.01412   0.01759   0.02401   0.03406   0.04411
     Eigenvalues ---    0.04530   0.04676   0.05328   0.05643   0.05846
     Eigenvalues ---    0.05967   0.06408   0.06608   0.11520   0.11684
     Eigenvalues ---    0.12472   0.12776   0.13350   0.13390   0.13453
     Eigenvalues ---    0.14231   0.14770   0.17212   0.17748   0.18559
     Eigenvalues ---    0.19773   0.21249   0.22650   0.22814   0.23626
     Eigenvalues ---    0.25412   0.29157   0.31122   0.33891   0.34560
     Eigenvalues ---    0.34745   0.34799   0.35045   0.35062   0.35238
     Eigenvalues ---    0.35483   0.35617   0.35862   0.35907   0.39335
     Eigenvalues ---    0.41345   0.46732   0.47611   0.50551   0.53837
     Eigenvalues ---    0.80508   0.83142   1.822131000.000001000.00000
     Eigenvalues --- 1000.000001000.000001000.000001000.000001000.00000
     Eigenvalues --- 1000.000001000.000001000.000001000.000001000.00000
     Eigenvalues --- 1000.000001000.000001000.000001000.000001000.00000
     Eigenvalues --- 1000.000001000.000001000.000001000.000001000.00000
     Eigenvalues --- 1000.000001000.000001000.000001000.000001000.00000
     Eigenvalues --- 1000.000001000.000001000.000001000.000001000.00000
     Eigenvalues --- 1000.000001000.000001000.000001000.000001000.00000
     Eigenvalues --- 1000.000001000.000001000.00000
 RFO step:  Lambda=-3.51533004D-02 EMin=-2.56763884D-02
 Linear search not attempted -- first point.
 Maximum step size (   0.300) exceeded in Quadratic search.
    -- Step size scaled by   0.311
 Iteration  1 RMS(Cart)=  0.06639492 RMS(Int)=  0.00204798
 Iteration  2 RMS(Cart)=  0.00298534 RMS(Int)=  0.00009180
 Iteration  3 RMS(Cart)=  0.00000569 RMS(Int)=  0.00009171
 Iteration  4 RMS(Cart)=  0.00000000 RMS(Int)=  0.00009171
 Iteration  1 RMS(Cart)=  0.00002597 RMS(Int)=  0.00001093
 Iteration  2 RMS(Cart)=  0.00001604 RMS(Int)=  0.00001213
 Iteration  3 RMS(Cart)=  0.00001020 RMS(Int)=  0.00001381
 Iteration  4 RMS(Cart)=  0.00000663 RMS(Int)=  0.00001509
 Iteration  5 RMS(Cart)=  0.00000439 RMS(Int)=  0.00001598
 Iteration  6 RMS(Cart)=  0.00000293 RMS(Int)=  0.00001657
 Iteration  7 RMS(Cart)=  0.00000197 RMS(Int)=  0.00001697
 Iteration  8 RMS(Cart)=  0.00000133 RMS(Int)=  0.00001723
 Iteration  9 RMS(Cart)=  0.00000090 RMS(Int)=  0.00001741
 Variable       Old X    -DE/DX   Delta X   Delta X   Delta X     New X
                                 (Linear)    (Quad)   (Total)
    R1        2.05987  -0.00088   0.00000   0.00000   0.00000   2.05987
    R2        2.05970   0.00455   0.00000   0.00307   0.00307   2.06277
    R3        2.05987   0.00482   0.00000   0.00356   0.00356   2.06343
    R4        2.89121   0.00057   0.00000  -0.00274  -0.00274   2.88846
    R5        2.32242  -0.00879   0.00000  -0.00012  -0.00012   2.32230
    R6        2.52294   0.06092   0.00000   0.01678   0.01678   2.53971
    R7        1.90870   0.00077   0.00000   0.00057   0.00057   1.90927
    R8        2.73817   0.05938   0.00000   0.01035   0.01035   2.74852
    R9        2.05975   0.00269   0.00000   0.00221   0.00221   2.06196
   R10        2.88188   0.01754   0.00000   0.00925   0.00925   2.89114
   R11        2.87618   0.01389   0.00000   0.00847   0.00847   2.88465
   R12        2.05972  -0.01103   0.00000  -0.00558  -0.00558   2.05414
   R13        2.05984   0.00514   0.00000   0.00159   0.00159   2.06143
   R14        2.05966   0.00066   0.00000   0.00486   0.00486   2.06452
   R15        2.32245   0.00258   0.00000  -0.00108  -0.00108   2.32137
   R16        2.52279   0.02730   0.00000   0.01283   0.01283   2.53562
   R17        1.90849  -0.00134   0.00000  -0.00009  -0.00009   1.90840
   R18        2.73835   0.00500   0.00000   0.00124   0.00124   2.73960
   R19        2.05983  -0.00058   0.00000   0.00039   0.00039   2.06022
   R20        2.05961   0.00430   0.00000   0.00375   0.00375   2.06336
   R21        2.05984   0.00448   0.00000   0.00324   0.00324   2.06308
    A1        1.91116  -0.00017   0.00000   0.00157   0.00161   1.91277
    A2        1.91101  -0.00031   0.00000  -0.00400  -0.00402   1.90699
    A3        1.93901  -0.00775   0.00000  -0.01161  -0.01160   1.92741
    A4        1.91015  -0.00551   0.00000  -0.00731  -0.00736   1.90279
    A5        1.89610   0.00667   0.00000   0.01820   0.01819   1.91429
    A6        1.89612   0.00711   0.00000   0.00326   0.00322   1.89934
    A7        2.10322  -0.02175   0.00000   0.00816   0.00793   2.11114
    A8        2.03502  -0.03935   0.00000  -0.00891  -0.00914   2.02588
    A9        2.14495   0.06110   0.00000   0.00075   0.00052   2.14547
   A10        2.09432  -0.06511   0.00000  -0.01090  -0.01108   2.08324
   A11        2.12756   0.12869   0.00000   0.01969   0.01951   2.14707
   A12        2.06130  -0.06358   0.00000  -0.00879  -0.00898   2.05232
   A13        1.91114  -0.02185   0.00000  -0.01197  -0.01192   1.89921
   A14        1.93905   0.06503   0.00000   0.00369   0.00319   1.94223
   A15        1.93900  -0.01367   0.00000   0.01084   0.01051   1.94951
   A16        1.89609  -0.01654   0.00000  -0.01515  -0.01505   1.88105
   A17        1.89608   0.00812   0.00000  -0.01506  -0.01488   1.88120
   A18        1.88137  -0.02208   0.00000   0.02713   0.02696   1.90833
   A19        1.91115   0.01440   0.00000   0.01558   0.01557   1.92672
   A20        1.91106  -0.01274   0.00000  -0.00405  -0.00408   1.90698
   A21        1.91110   0.00731   0.00000  -0.00402  -0.00402   1.90708
   A22        1.91011  -0.00275   0.00000   0.00689   0.00684   1.91695
   A23        1.91023  -0.00529   0.00000  -0.01185  -0.01182   1.89841
   A24        1.91015  -0.00093   0.00000  -0.00256  -0.00259   1.90756
   A25        2.10312  -0.00341   0.00000  -0.00167  -0.00167   2.10144
   A26        2.03505   0.00081   0.00000  -0.00427  -0.00427   2.03078
   A27        2.14502   0.00260   0.00000   0.00594   0.00594   2.15095
   A28        2.09442  -0.00324   0.00000  -0.00873  -0.00878   2.08565
   A29        2.12757   0.00407   0.00000   0.00362   0.00357   2.13114
   A30        2.06119  -0.00082   0.00000   0.00511   0.00507   2.06626
   A31        1.91111  -0.00655   0.00000  -0.00963  -0.00961   1.90149
   A32        1.91114   0.00508   0.00000   0.00914   0.00913   1.92028
   A33        1.91102   0.00474   0.00000   0.00578   0.00576   1.91678
   A34        1.91024  -0.00012   0.00000  -0.00209  -0.00207   1.90817
   A35        1.91010   0.00011   0.00000   0.00048   0.00049   1.91059
   A36        1.91020  -0.00326   0.00000  -0.00368  -0.00372   1.90647
    D1       -0.00007   0.00087   0.00000   0.07638   0.07644   0.07637
    D2        3.14150  -0.00083   0.00000   0.03745   0.03744  -3.10424
    D3        2.10331   0.00018   0.00000   0.08290   0.08290   2.18621
    D4       -1.03831  -0.00153   0.00000   0.04398   0.04391  -0.99440
    D5       -2.10327   0.00145   0.00000   0.08642   0.08646  -2.01680
    D6        1.03830  -0.00025   0.00000   0.04749   0.04747   1.08577
    D7        0.00001  -0.00250   0.00000  -0.05162  -0.05169  -0.05168
    D8        3.14151  -0.00185   0.00000  -0.08809  -0.08813   3.05338
    D9        3.14158  -0.00425   0.00000  -0.09157  -0.09153   3.05005
   D10       -0.00011  -0.00360   0.00000  -0.12804  -0.12797  -0.12808
   D11       -2.35613  -0.00920   0.00000  -0.01967  -0.01964  -2.37577
   D12       -0.26169  -0.00290   0.00000  -0.04397  -0.04392  -0.30561
   D13        1.83266   0.00353   0.00000   0.00000   0.00000   1.83266
   D14        0.78537  -0.00856   0.00000  -0.05547  -0.05548   0.72989
   D15        2.87981  -0.00227   0.00000  -0.07977  -0.07975   2.80006
   D16       -1.30902   0.00416   0.00000  -0.03581  -0.03584  -1.34486
   D17        1.04724   0.00761   0.00000   0.01690   0.01691   1.06415
   D18        3.14157   0.00525   0.00000   0.03241   0.03245  -3.10917
   D19       -1.04726   0.00078   0.00000   0.02432   0.02437  -1.02289
   D20       -3.13259   0.01012   0.00000  -0.00543  -0.00541  -3.13800
   D21       -1.03826   0.00776   0.00000   0.01008   0.01013  -1.02813
   D22        1.05609   0.00329   0.00000   0.00200   0.00206   1.05815
   D23       -1.08102  -0.00125   0.00000  -0.01656  -0.01666  -1.09768
   D24        1.01331  -0.00361   0.00000  -0.00104  -0.00112   1.01219
   D25        3.10766  -0.00808   0.00000  -0.00913  -0.00920   3.09846
   D26        2.61796  -0.02828   0.00000  -0.00450  -0.00456   2.61339
   D27       -0.52355  -0.03052   0.00000   0.00000   0.00000  -0.52355
   D28        0.51464   0.00197   0.00000   0.01334   0.01333   0.52797
   D29       -2.62687  -0.00027   0.00000   0.01784   0.01789  -2.60898
   D30       -1.53694   0.02929   0.00000   0.02453   0.02469  -1.51225
   D31        1.60474   0.02706   0.00000   0.02903   0.02925   1.63399
   D32       -0.00008   0.00125   0.00000  -0.01534  -0.01534  -0.01542
   D33       -3.14153   0.00204   0.00000   0.00274   0.00265  -3.13888
   D34       -3.14158  -0.00104   0.00000  -0.01072  -0.01063   3.13097
   D35        0.00015  -0.00025   0.00000   0.00736   0.00736   0.00751
   D36       -0.00016  -0.00039   0.00000  -0.04080  -0.04082  -0.04098
   D37        2.09436  -0.00144   0.00000  -0.04366  -0.04371   2.05065
   D38       -2.09442   0.00059   0.00000  -0.03902  -0.03903  -2.13345
   D39        3.14157   0.00038   0.00000  -0.02305  -0.02302   3.11855
   D40       -1.04710  -0.00066   0.00000  -0.02592  -0.02591  -1.07301
   D41        1.04731   0.00136   0.00000  -0.02128  -0.02123   1.02608
         Item               Value     Threshold  Converged?
 Maximum Force            0.128692     0.000450     NO 
 RMS     Force            0.022252     0.000300     NO 
 Maximum Displacement     0.247645     0.001800     NO 
 RMS     Displacement     0.066294     0.001200     NO 
 Predicted change in Energy=-1.050119D-02
 GradGradGradGradGradGradGradGradGradGradGradGradGradGradGradGradGradGrad

                          Input orientation:                          
 ---------------------------------------------------------------------
 Center     Atomic      Atomic             Coordinates (Angstroms)
 Number     Number       Type             X           Y           Z
 ---------------------------------------------------------------------
      1          1           0        1.358507    2.220940   -1.869151
      2          6           0        1.680045    2.680151   -0.934315
      3          1           0        1.794014    1.910548   -0.168642
      4          1           0        0.925269    3.398328   -0.607468
      5          6           0        3.007041    3.413383   -1.128717
      6          8           0        3.525073    3.499148   -2.239801
      7          7           0        3.531818    3.985872   -0.031862
      8          1           0        3.020754    3.948943    0.838908
      9          6           0        4.836634    4.628341   -0.020376
     10          1           0        5.369944    4.325832    0.882207
     11          6           0        5.676989    4.200275   -1.225047
     12          1           0        5.184393    4.485555   -2.151082
     13          1           0        6.657759    4.674218   -1.166313
     14          1           0        5.799252    3.114723   -1.211852
     15          6           0        4.716358    6.149986   -0.002976
     16          8           0        5.577985    6.835534    0.541655
     17          7           0        3.633229    6.668774   -0.601385
     18          1           0        2.964413    6.052363   -1.040228
     19          6           0        3.396056    8.097734   -0.660944
     20          1           0        4.193079    8.611581   -0.123082
     21          1           0        3.387381    8.432280   -1.700275
     22          1           0        2.435105    8.333092   -0.199355
 ---------------------------------------------------------------------
                    Distance matrix (angstroms):
                    1          2          3          4          5
     1  H    0.000000
     2  C    1.090036   0.000000
     3  H    1.782622   1.091573   0.000000
     4  H    1.779264   1.091922   1.777857   0.000000
     5  C    2.165138   1.528509   2.156778   2.146089   0.000000
     6  O    2.542677   2.403992   3.132078   3.071426   1.228910
     7  N    3.348715   2.438933   2.710284   2.733245   1.343959
     8  H    3.616993   2.559620   2.583622   2.605041   2.039255
     9  C    4.616374   3.820312   4.082391   4.142027   2.460072
    10  H    5.300204   4.429828   4.441301   4.778549   3.234145
    11  C    4.793946   4.286125   4.629939   4.858330   2.785158
    12  H    4.454814   4.125586   4.696318   4.658856   2.633561
    13  H    5.881719   5.367286   5.682362   5.899292   3.862495
    14  H    4.577237   4.151354   4.310482   4.919494   2.809369
    15  C    5.495013   4.703865   5.151735   4.723281   3.417317
    16  O    6.701526   5.885545   6.251276   5.897681   4.594673
    17  N    5.154107   4.453638   5.119638   4.246046   3.356749
    18  H    4.236253   3.610074   4.391369   3.374802   2.640807
    19  C    6.336251   5.689432   6.410162   5.309620   4.723695
    20  H    7.205820   6.492712   7.117685   6.171808   5.425795
    21  H    6.536481   6.048858   6.886051   5.709368   5.065635
    22  H    6.426949   5.750306   6.454534   5.176684   5.039281
                    6          7          8          9         10
     6  O    0.000000
     7  N    2.260960   0.000000
     8  H    3.152000   1.010342   0.000000
     9  C    2.814447   1.454456   2.120701   0.000000
    10  H    3.719393   2.080818   2.379625   1.091141   0.000000
    11  C    2.480332   2.464025   3.373228   1.529924   2.133204
    12  H    1.932411   2.733456   3.729521   2.163615   3.043153
    13  H    3.513814   3.395925   4.216011   2.152155   2.444642
    14  H    2.525143   2.700469   3.552688   2.153436   2.456862
    15  C    3.667354   2.467257   2.903176   1.526490   2.130319
    16  O    4.804416   3.554757   3.867842   2.395242   2.541232
    17  N    3.569683   2.744560   3.138002   2.439082   3.272095
    18  H    2.876147   2.368362   2.821117   2.563815   3.530332
    19  C    4.863788   4.161921   4.427514   3.810811   4.528222
    20  H    5.573482   4.673625   4.903057   4.036200   4.556672
    21  H    4.964457   4.751317   5.165479   4.403674   5.240485
    22  H    5.358961   4.486553   4.543317   4.418659   5.083422
                   11         12         13         14         15
    11  C    0.000000
    12  H    1.087004   0.000000
    13  H    1.090863   1.782182   0.000000
    14  H    1.092494   1.771831   1.780767   0.000000
    15  C    2.493520   2.757489   2.701904   3.441926   0.000000
    16  O    3.174213   3.595573   2.958776   4.119245   1.228414
    17  N    3.264874   3.094207   3.666767   4.206614   1.341791
    18  H    3.289751   2.935506   3.944108   4.086012   2.038317
    19  C    4.550940   4.297266   4.755478   5.559608   2.443326
    20  H    4.782880   4.703145   4.760862   5.829293   2.519464
    21  H    4.835082   4.359944   5.010342   5.859359   3.139406
    22  H    5.351825   5.115795   5.670377   6.290787   3.163642
                   16         17         18         19         20
    16  O    0.000000
    17  N    2.261952   0.000000
    18  H    3.153803   1.009882   0.000000
    19  C    2.792885   1.449733   2.124551   0.000000
    20  H    2.348229   2.077668   2.983350   1.090220   0.000000
    21  H    3.517754   2.092355   2.505707   1.091881   1.780122
    22  H    3.559419   2.089756   2.487762   1.091734   1.781529
                   21         22
    21  H    0.000000
    22  H    1.780288   0.000000
 Stoichiometry    C6H12N2O2
 Framework group  C1[X(C6H12N2O2)]
 Deg. of freedom    60
 Full point group                 C1      NOp   1
 Largest Abelian subgroup         C1      NOp   1
 Largest concise Abelian subgroup C1      NOp   1
                         Standard orientation:                         
 ---------------------------------------------------------------------
 Center     Atomic      Atomic             Coordinates (Angstroms)
 Number     Number       Type             X           Y           Z
 ---------------------------------------------------------------------
      1          1           0       -3.752571   -1.323823    0.295159
      2          6           0       -3.011153   -1.140257   -0.482518
      3          1           0       -3.491638   -0.670676   -1.342843
      4          1           0       -2.573267   -2.090701   -0.794300
      5          6           0       -1.898720   -0.233865    0.044059
      6          8           0       -1.875132    0.119660    1.220785
      7          7           0       -0.943411    0.102968   -0.839204
      8          1           0       -0.973828   -0.282202   -1.772751
      9          6           0        0.124758    1.041117   -0.532062
     10          1           0        0.251921    1.718823   -1.377716
     11          6           0       -0.215005    1.886485    0.696995
     12          1           0       -0.347707    1.251038    1.568876
     13          1           0        0.590943    2.599093    0.877603
     14          1           0       -1.144249    2.431141    0.514237
     15          6           0        1.454350    0.327152   -0.302693
     16          8           0        2.514447    0.884239   -0.576276
     17          7           0        1.384437   -0.915711    0.198114
     18          1           0        0.482080   -1.315854    0.411419
     19          6           0        2.569815   -1.705622    0.467640
     20          1           0        3.449640   -1.139811    0.160485
     21          1           0        2.636888   -1.927033    1.534731
     22          1           0        2.525818   -2.642047   -0.091875
 ---------------------------------------------------------------------
 Rotational constants (GHZ):      2.1119240      0.8642480      0.7360816
 Standard basis: 6-31G(d) (6D, 7F)
 There are   174 symmetry adapted basis functions of A   symmetry.
 Integral buffers will be    131072 words long.
 Raffenetti 2 integral format.
 Two-electron integral symmetry is turned on.
   174 basis functions,   328 primitive gaussians,   174 cartesian basis functions
    39 alpha electrons       39 beta electrons
       nuclear repulsion energy       567.1206981248 Hartrees.
 NAtoms=   22 NActive=   22 NUniq=   22 SFac= 7.50D-01 NAtFMM=   80 NAOKFM=F Big=F
 One-electron integrals computed using PRISM.
 NBasis=   174 RedAO= T  NBF=   174
 NBsUse=   174 1.00D-06 NBFU=   174
 Initial guess read from the read-write file.
 B after Tr=     0.000000    0.000000    0.000000
         Rot=    1.000000    0.000000    0.000000    0.000000 Ang=   0.00 deg.
 Initial guess orbital symmetries:
       Occupied  (A) (A) (A) (A) (A) (A) (A) (A) (A) (A) (A) (A)
                 (A) (A) (A) (A) (A) (A) (A) (A) (A) (A) (A) (A)
                 (A) (A) (A) (A) (A) (A) (A) (A) (A) (A) (A) (A)
                 (A) (A) (A)
       Virtual   (A) (A) (A) (A) (A) (A) (A) (A) (A) (A) (A) (A)
                 (A) (A) (A) (A) (A) (A) (A) (A) (A) (A) (A) (A)
                 (A) (A) (A) (A) (A) (A) (A) (A) (A) (A) (A) (A)
                 (A) (A) (A) (A) (A) (A) (A) (A) (A) (A) (A) (A)
                 (A) (A) (A) (A) (A) (A) (A) (A) (A) (A) (A) (A)
                 (A) (A) (A) (A) (A) (A) (A) (A) (A) (A) (A) (A)
                 (A) (A) (A) (A) (A) (A) (A) (A) (A) (A) (A) (A)
                 (A) (A) (A) (A) (A) (A) (A) (A) (A) (A) (A) (A)
                 (A) (A) (A) (A) (A) (A) (A) (A) (A) (A) (A) (A)
                 (A) (A) (A) (A) (A) (A) (A) (A) (A) (A) (A) (A)
                 (A) (A) (A) (A) (A) (A) (A) (A) (A) (A) (A) (A)
                 (A) (A) (A)
 Harris functional with IExCor=  402 diagonalized for initial guess.
 ExpMin= 1.61D-01 ExpMax= 5.48D+03 ExpMxC= 8.25D+02 IAcc=1 IRadAn=         1 AccDes= 0.00D+00
 HarFok:  IExCor=  402 AccDes= 0.00D+00 IRadAn=         1 IDoV= 1
 ScaDFX=  1.000000  1.000000  1.000000  1.000000
 FoFCou: FMM=F IPFlag=           0 FMFlag=      100000 FMFlg1=           0
         NFxFlg=           0 DoJE=T BraDBF=F KetDBF=T FulRan=T
         Omega=  0.000000  0.000000  1.000000  0.000000  0.000000 ICntrl=     500 IOpCl=  0
         NMat0=    1 NMatS0=    1 NMatT0=    0 NMatD0=    1 NMtDS0=    0 NMtDT0=    0
         I1Cent=           4 NGrid=           0.
 Petite list used in FoFCou.
 Requested convergence on RMS density matrix=1.00D-08 within 128 cycles.
 Requested convergence on MAX density matrix=1.00D-06.
 Requested convergence on             energy=1.00D-06.
 No special actions if energy rises.
 Integral accuracy reduced to 1.0D-05 until final iterations.
 Initial convergence to 1.0D-05 achieved.  Increase integral accuracy.
 SCF Done:  E(RB3LYP) =  -495.828399035     A.U. after   13 cycles
             Convg  =    0.8311D-08             -V/T =  2.0087
 Calling FoFJK, ICntrl=      2127 FMM=F ISym2X=0 I1Cent= 0 IOpClX= 0 NMat=1 NMatS=1 NMatT=0.
 ***** Axes restored to original set *****
 -------------------------------------------------------------------
 Center     Atomic                   Forces (Hartrees/Bohr)
 Number     Number              X              Y              Z
 -------------------------------------------------------------------
      1        1           0.002297461    0.001268880   -0.000736367
      2        6           0.005874471    0.002682998    0.004177362
      3        1          -0.003237626   -0.002403523    0.002680030
      4        1          -0.004636687   -0.000549746    0.002161682
      5        6          -0.017156038   -0.012010810   -0.026385847
      6        8          -0.023422505   -0.008449283   -0.004994284
      7        7           0.004931415   -0.000152431    0.014242774
      8        1          -0.000167187   -0.001643677    0.000483969
      9        6           0.002677914    0.001984311   -0.005723426
     10        1          -0.001160912    0.003051711    0.004061715
     11        6           0.015249455    0.005362024   -0.000956807
     12        1           0.010064932    0.000025301    0.002717879
     13        1           0.003373299    0.000716407    0.005005322
     14        1           0.002182570   -0.000111012   -0.002866425
     15        6           0.014131616    0.001725826    0.016544236
     16        8           0.003282516   -0.000465952   -0.000554269
     17        7          -0.012105603    0.006507120   -0.006161690
     18        1           0.001666226   -0.000304040   -0.000064272
     19        6          -0.001416695   -0.001124366   -0.002375737
     20        1           0.000728229   -0.002215155    0.000255622
     21        1          -0.000543214    0.003222146   -0.002206320
     22        1          -0.002613638    0.002883271    0.000694854
 -------------------------------------------------------------------
 Cartesian Forces:  Max     0.026385847 RMS     0.007157632

 GradGradGradGradGradGradGradGradGradGradGradGradGradGradGradGradGradGrad
 Berny optimization.
 Using GEDIIS/GDIIS optimizer.
 Internal  Forces:  Max     0.088665186 RMS     0.015643976
 Search for a local minimum.
 Step number   2 out of a maximum of  132
 All quantities printed in internal units (Hartrees-Bohrs-Radians)
 Mixed Optimization -- RFO/linear search
 Update second derivatives using D2CorX and points    1    2
 DE= -1.02D-02 DEPred=-1.05D-02 R= 9.75D-01
 SS=  1.41D+00  RLast= 3.00D-01 DXNew= 5.0454D-01 8.9999D-01
 Trust test= 9.75D-01 RLast= 3.00D-01 DXMaxT set to 5.05D-01
 Use linear search instead of GDIIS.
 Linear search step of   0.521 exceeds DXMaxT=   0.505 but not scaled.
 Quartic linear search produced a step of  1.75342.
 Iteration  1 RMS(Cart)=  0.11167364 RMS(Int)=  0.00633660
 Iteration  2 RMS(Cart)=  0.01032592 RMS(Int)=  0.00044324
 Iteration  3 RMS(Cart)=  0.00008909 RMS(Int)=  0.00043851
 Iteration  4 RMS(Cart)=  0.00000001 RMS(Int)=  0.00043851
 Iteration  1 RMS(Cart)=  0.00012283 RMS(Int)=  0.00005273
 Iteration  2 RMS(Cart)=  0.00007813 RMS(Int)=  0.00005844
 Iteration  3 RMS(Cart)=  0.00005092 RMS(Int)=  0.00006672
 Iteration  4 RMS(Cart)=  0.00003377 RMS(Int)=  0.00007329
 Iteration  5 RMS(Cart)=  0.00002265 RMS(Int)=  0.00007794
 Iteration  6 RMS(Cart)=  0.00001530 RMS(Int)=  0.00008115
 Iteration  7 RMS(Cart)=  0.00001038 RMS(Int)=  0.00008333
 Iteration  8 RMS(Cart)=  0.00000706 RMS(Int)=  0.00008481
 Iteration  9 RMS(Cart)=  0.00000481 RMS(Int)=  0.00008582
 Iteration 10 RMS(Cart)=  0.00000328 RMS(Int)=  0.00008650
 Iteration 11 RMS(Cart)=  0.00000224 RMS(Int)=  0.00008696
 Iteration 12 RMS(Cart)=  0.00000153 RMS(Int)=  0.00008728
 Iteration 13 RMS(Cart)=  0.00000104 RMS(Int)=  0.00008749
 Iteration 14 RMS(Cart)=  0.00000071 RMS(Int)=  0.00008764
 Variable       Old X    -DE/DX   Delta X   Delta X   Delta X     New X
                                 (Linear)    (Quad)   (Total)
    R1        2.05987  -0.00058   0.00000   0.00000   0.00000   2.05987
    R2        2.06277   0.00324   0.00539   0.00000   0.00539   2.06817
    R3        2.06343   0.00349   0.00625   0.00000   0.00625   2.06968
    R4        2.88846   0.00032  -0.00481   0.00000  -0.00481   2.88365
    R5        2.32230  -0.00595  -0.00020   0.00000  -0.00020   2.32210
    R6        2.53971   0.04286   0.02942   0.00000   0.02942   2.56913
    R7        1.90927   0.00056   0.00100   0.00000   0.00100   1.91027
    R8        2.74852   0.04133   0.01815   0.00000   0.01815   2.76668
    R9        2.06196   0.00195   0.00388   0.00000   0.00388   2.06583
   R10        2.89114   0.01221   0.01623   0.00000   0.01623   2.90736
   R11        2.88465   0.01002   0.01485   0.00000   0.01485   2.89950
   R12        2.05414  -0.00687  -0.00978   0.00000  -0.00978   2.04436
   R13        2.06143   0.00361   0.00278   0.00000   0.00278   2.06422
   R14        2.06452   0.00032   0.00851   0.00000   0.00851   2.07303
   R15        2.32137   0.00180  -0.00189   0.00000  -0.00189   2.31947
   R16        2.53562   0.01939   0.02250   0.00000   0.02250   2.55812
   R17        1.90840  -0.00089  -0.00016   0.00000  -0.00016   1.90824
   R18        2.73960   0.00350   0.00218   0.00000   0.00218   2.74178
   R19        2.06022  -0.00038   0.00068   0.00000   0.00068   2.06090
   R20        2.06336   0.00309   0.00658   0.00000   0.00658   2.06993
   R21        2.06308   0.00321   0.00567   0.00000   0.00567   2.06875
    A1        1.91277  -0.00010   0.00282   0.00000   0.00298   1.91575
    A2        1.90699  -0.00032  -0.00706   0.00000  -0.00715   1.89984
    A3        1.92741  -0.00569  -0.02034   0.00000  -0.02030   1.90711
    A4        1.90279  -0.00414  -0.01291   0.00000  -0.01319   1.88960
    A5        1.91429   0.00498   0.03189   0.00000   0.03184   1.94613
    A6        1.89934   0.00528   0.00564   0.00000   0.00545   1.90479
    A7        2.11114  -0.01442   0.01390   0.00000   0.01273   2.12387
    A8        2.02588  -0.02681  -0.01603   0.00000  -0.01716   2.00872
    A9        2.14547   0.04116   0.00091   0.00000  -0.00020   2.14527
   A10        2.08324  -0.04481  -0.01943   0.00000  -0.02028   2.06296
   A11        2.14707   0.08867   0.03421   0.00000   0.03336   2.18043
   A12        2.05232  -0.04380  -0.01574   0.00000  -0.01660   2.03572
   A13        1.89921  -0.01541  -0.02090   0.00000  -0.02072   1.87850
   A14        1.94223   0.04553   0.00559   0.00000   0.00321   1.94544
   A15        1.94951  -0.00951   0.01843   0.00000   0.01686   1.96637
   A16        1.88105  -0.01115  -0.02639   0.00000  -0.02592   1.85513
   A17        1.88120   0.00580  -0.02609   0.00000  -0.02523   1.85597
   A18        1.90833  -0.01656   0.04727   0.00000   0.04653   1.95486
   A19        1.92672   0.00996   0.02730   0.00000   0.02724   1.95396
   A20        1.90698  -0.00884  -0.00716   0.00000  -0.00735   1.89963
   A21        1.90708   0.00507  -0.00705   0.00000  -0.00704   1.90003
   A22        1.91695  -0.00161   0.01199   0.00000   0.01176   1.92870
   A23        1.89841  -0.00376  -0.02073   0.00000  -0.02061   1.87780
   A24        1.90756  -0.00081  -0.00454   0.00000  -0.00467   1.90290
   A25        2.10144  -0.00239  -0.00293   0.00000  -0.00295   2.09850
   A26        2.03078   0.00037  -0.00749   0.00000  -0.00751   2.02327
   A27        2.15095   0.00203   0.01041   0.00000   0.01039   2.16134
   A28        2.08565  -0.00255  -0.01539   0.00000  -0.01559   2.07006
   A29        2.13114   0.00292   0.00626   0.00000   0.00605   2.13719
   A30        2.06626  -0.00039   0.00888   0.00000   0.00865   2.07491
   A31        1.90149  -0.00480  -0.01685   0.00000  -0.01678   1.88471
   A32        1.92028   0.00375   0.01601   0.00000   0.01596   1.93623
   A33        1.91678   0.00351   0.01010   0.00000   0.01003   1.92681
   A34        1.90817  -0.00011  -0.00364   0.00000  -0.00354   1.90463
   A35        1.91059   0.00005   0.00086   0.00000   0.00091   1.91150
   A36        1.90647  -0.00242  -0.00653   0.00000  -0.00672   1.89975
    D1        0.07637   0.00051   0.13402   0.00000   0.13428   0.21065
    D2       -3.10424  -0.00052   0.06565   0.00000   0.06561  -3.03864
    D3        2.18621  -0.00003   0.14536   0.00000   0.14533   2.33154
    D4       -0.99440  -0.00106   0.07699   0.00000   0.07666  -0.91774
    D5       -2.01680   0.00106   0.15161   0.00000   0.15183  -1.86497
    D6        1.08577   0.00003   0.08324   0.00000   0.08316   1.16894
    D7       -0.05168  -0.00305  -0.09063   0.00000  -0.09095  -0.14263
    D8        3.05338  -0.00216  -0.15453   0.00000  -0.15477   2.89861
    D9        3.05005  -0.00551  -0.16049   0.00000  -0.16025   2.88980
   D10       -0.12808  -0.00462  -0.22439   0.00000  -0.22407  -0.35214
   D11       -2.37577  -0.00822  -0.03444   0.00000  -0.03428  -2.41005
   D12       -0.30561  -0.00429  -0.07700   0.00000  -0.07667  -0.38228
   D13        1.83266   0.00030   0.00000   0.00000   0.00000   1.83266
   D14        0.72989  -0.00742  -0.09728   0.00000  -0.09729   0.63260
   D15        2.80006  -0.00349  -0.13984   0.00000  -0.13968   2.66038
   D16       -1.34486   0.00110  -0.06284   0.00000  -0.06301  -1.40787
   D17        1.06415   0.00588   0.02965   0.00000   0.02969   1.09384
   D18       -3.10917   0.00448   0.05690   0.00000   0.05705  -3.05211
   D19       -1.02289   0.00123   0.04274   0.00000   0.04294  -0.97995
   D20       -3.13800   0.00671  -0.00948   0.00000  -0.00933   3.13585
   D21       -1.02813   0.00531   0.01777   0.00000   0.01803  -1.01010
   D22        1.05815   0.00206   0.00361   0.00000   0.00392   1.06207
   D23       -1.09768  -0.00150  -0.02921   0.00000  -0.02968  -1.12736
   D24        1.01219  -0.00290  -0.00197   0.00000  -0.00231   1.00987
   D25        3.09846  -0.00615  -0.01612   0.00000  -0.01643   3.08204
   D26        2.61339  -0.01942  -0.00800   0.00000  -0.00829   2.60510
   D27       -0.52355  -0.02165   0.00000   0.00000   0.00000  -0.52355
   D28        0.52797   0.00147   0.02337   0.00000   0.02332   0.55129
   D29       -2.60898  -0.00077   0.03137   0.00000   0.03161  -2.57736
   D30       -1.51225   0.02040   0.04329   0.00000   0.04407  -1.46817
   D31        1.63399   0.01816   0.05129   0.00000   0.05237   1.68636
   D32       -0.01542   0.00101  -0.02690   0.00000  -0.02691  -0.04232
   D33       -3.13888   0.00185   0.00465   0.00000   0.00424  -3.13463
   D34        3.13097  -0.00128  -0.01865   0.00000  -0.01824   3.11273
   D35        0.00751  -0.00044   0.01290   0.00000   0.01291   0.02042
   D36       -0.04098  -0.00043  -0.07158   0.00000  -0.07169  -0.11267
   D37        2.05065  -0.00126  -0.07665   0.00000  -0.07689   1.97375
   D38       -2.13345   0.00033  -0.06844   0.00000  -0.06847  -2.20192
   D39        3.11855   0.00042  -0.04036   0.00000  -0.04022   3.07834
   D40       -1.07301  -0.00041  -0.04543   0.00000  -0.04542  -1.11843
   D41        1.02608   0.00118  -0.03722   0.00000  -0.03700   0.98908
         Item               Value     Threshold  Converged?
 Maximum Force            0.088645     0.000450     NO 
 RMS     Force            0.015400     0.000300     NO 
 Maximum Displacement     0.475077     0.001800     NO 
 RMS     Displacement     0.114637     0.001200     NO 
 Predicted change in Energy=-1.211757D-02
 GradGradGradGradGradGradGradGradGradGradGradGradGradGradGradGradGradGrad

                          Input orientation:                          
 ---------------------------------------------------------------------
 Center     Atomic      Atomic             Coordinates (Angstroms)
 Number     Number       Type             X           Y           Z
 ---------------------------------------------------------------------
      1          1           0        1.394967    2.083807   -1.825882
      2          6           0        1.708870    2.568628   -0.901442
      3          1           0        1.931161    1.811243   -0.143338
      4          1           0        0.887905    3.192792   -0.532710
      5          6           0        2.921321    3.451569   -1.182408
      6          8           0        3.273673    3.718464   -2.328954
      7          7           0        3.489576    4.017027   -0.084384
      8          1           0        3.012093    3.924526    0.801796
      9          6           0        4.807531    4.653971   -0.056558
     10          1           0        5.305000    4.345327    0.866662
     11          6           0        5.696001    4.160121   -1.211438
     12          1           0        5.281637    4.414580   -2.177826
     13          1           0        6.693711    4.590035   -1.097658
     14          1           0        5.769640    3.066816   -1.159769
     15          6           0        4.723281    6.185306   -0.010329
     16          8           0        5.595964    6.835460    0.557354
     17          7           0        3.641869    6.736877   -0.609343
     18          1           0        2.984697    6.128403   -1.075794
     19          6           0        3.424906    8.170664   -0.656827
     20          1           0        4.193710    8.647933   -0.048123
     21          1           0        3.497547    8.543737   -1.684132
     22          1           0        2.436040    8.420311   -0.258998
 ---------------------------------------------------------------------
                    Distance matrix (angstroms):
                    1          2          3          4          5
     1  H    0.000000
     2  C    1.090035   0.000000
     3  H    1.786828   1.094426   0.000000
     4  H    1.777429   1.095229   1.774450   0.000000
     5  C    2.148160   1.525964   2.179623   2.150315   0.000000
     6  O    2.540615   2.410088   3.196366   3.032279   1.228802
     7  N    3.340291   2.436465   2.701411   2.765692   1.359526
     8  H    3.592776   2.537296   2.554928   2.613143   2.041811
     9  C    4.624051   3.829385   4.045015   4.210135   2.504216
    10  H    5.258577   4.383492   4.338718   4.774652   3.267937
    11  C    4.815342   4.304203   4.564219   4.951180   2.863868
    12  H    4.545610   4.219166   4.705550   4.848098   2.736665
    13  H    5.906622   5.382679   5.595919   5.998236   3.941347
    14  H    4.532966   4.099363   4.164555   4.923455   2.874276
    15  C    5.585356   4.791776   5.190959   4.892660   3.477664
    16  O    6.775426   5.953440   6.258156   6.051701   4.650936
    17  N    5.308446   4.603924   5.235032   4.488956   3.411868
    18  H    4.410060   3.785517   4.540627   3.648190   2.679706
    19  C    6.522053   5.864079   6.552647   5.588469   4.774902
    20  H    7.353988   6.622728   7.201981   6.397009   5.468799
    21  H    6.794971   6.286009   7.081956   6.063713   5.149169
    22  H    6.609859   5.931585   6.629333   5.458808   5.077064
[...]
    14  H    4.996172   4.245003   4.149594   4.848130   3.075497
    15  C    5.512738   4.858872   5.469834   4.942862   3.541926
    16  O    6.713481   6.009387   6.552269   6.038693   4.710900
    17  N    5.136115   4.711720   5.531305   4.783385   3.472382
    18  H    4.224838   3.922418   4.805044   4.091852   2.728377
    19  C    6.300862   6.003644   6.891902   6.017892   4.831851
    20  H    7.150914   6.735458   7.557537   6.693211   5.526673
    21  H    6.608003   6.434901   7.313299   6.601943   5.192773
    22  H    6.327666   6.116819   7.092193   5.991549   5.154394
                    6          7          8          9         10
     6  O    0.000000
     7  N    2.288742   0.000000
     8  H    3.150256   1.010737   0.000000
     9  C    2.971898   1.472835   2.101223   0.000000
    10  H    3.914653   2.058563   2.212334   1.095056   0.000000
    11  C    2.925273   2.542715   3.338444   1.535666   2.134722
    12  H    2.415621   2.873104   3.826202   2.189172   3.060849
    13  H    3.971279   3.444803   4.139093   2.139580   2.412567
    14  H    3.067315   2.792070   3.453186   2.174553   2.478633
    15  C    3.777967   2.523722   3.048203   1.544102   2.092737
    16  O    4.933167   3.604530   3.987625   2.403849   2.506359
    17  N    3.572401   2.804074   3.377935   2.460484   3.235234
    18  H    2.759695   2.416972   3.092767   2.547368   3.479705
    19  C    4.805303   4.239937   4.738963   3.834706   4.507176
    20  H    5.577624   4.723701   5.138245   4.052709   4.516218
    21  H    4.903135   4.820658   5.467582   4.376766   5.175479
    22  H    5.240304   4.627328   4.980338   4.512080   5.141774
                   11         12         13         14         15
    11  C    0.000000
    12  H    1.089615   0.000000
    13  H    1.093687   1.785271   0.000000
    14  H    1.094726   1.770422   1.779237   0.000000
    15  C    2.528843   2.840329   2.690098   3.482401   0.000000
    16  O    3.129202   3.583159   2.843069   4.076132   1.226124
    17  N    3.374701   3.287061   3.742189   4.322418   1.360496
    18  H    3.368989   3.103108   3.993005   4.186219   2.035361
    19  C    4.615915   4.422672   4.782500   5.636599   2.463421
    20  H    4.838034   4.817923   4.778770   5.886208   2.522138
    21  H    4.842052   4.425753   4.976794   5.884999   3.109763
    22  H    5.466251   5.278674   5.739921   6.425922   3.249993
                   16         17         18         19         20
    16  O    0.000000
    17  N    2.288751   0.000000
    18  H    3.158417   1.010931   0.000000
    19  C    2.838368   1.451572   2.133816   0.000000
    20  H    2.390729   2.061492   2.976072   1.090976   0.000000
    21  H    3.473493   2.117735   2.543048   1.097409   1.779519
    22  H    3.689660   2.105201   2.519214   1.095607   1.784627
                   21         22
    21  H    0.000000
    22  H    1.782735   0.000000
 Stoichiometry    C6H12N2O2
 Framework group  C1[X(C6H12N2O2)]
 Deg. of freedom    60
 Full point group                 C1      NOp   1
 Largest Abelian subgroup         C1      NOp   1
 Largest concise Abelian subgroup C1      NOp   1
                         Standard orientation:                         
 ---------------------------------------------------------------------
 Center     Atomic      Atomic             Coordinates (Angstroms)
 Number     Number       Type             X           Y           Z
 ---------------------------------------------------------------------
      1          1           0       -3.648350   -1.634979   -0.015065
      2          6           0       -3.215658   -0.832038   -0.614852
      3          1           0       -3.953863   -0.023809   -0.680623
      4          1           0       -3.021530   -1.198483   -1.628598
      5          6           0       -1.966068   -0.314294    0.087740
      6          8           0       -1.849312   -0.345420    1.307073
      7          7           0       -0.987730    0.157623   -0.752772
      8          1           0       -1.194987    0.108774   -1.740824
      9          6           0        0.130388    1.053707   -0.412057
     10          1           0        0.248800    1.718723   -1.273962
     11          6           0       -0.089970    1.940760    0.821981
     12          1           0       -0.184134    1.351724    1.733808
     13          1           0        0.767288    2.614806    0.905186
     14          1           0       -0.998954    2.539352    0.704244
     15          6           0        1.492432    0.332202   -0.319767
     16          8           0        2.526136    0.940771   -0.573698
     17          7           0        1.443803   -0.969995    0.071216
     18          1           0        0.548598   -1.335586    0.366057
     19          6           0        2.642029   -1.747231    0.330486
     20          1           0        3.488453   -1.189740   -0.073246
     21          1           0        2.799656   -1.900445    1.405654
     22          1           0        2.583010   -2.725174   -0.159923
 ---------------------------------------------------------------------
 Rotational constants (GHZ):      2.0711551      0.8126961      0.6997557

 **********************************************************************

            Population analysis using the SCF density.

 **********************************************************************

 Orbital symmetries:
       Occupied  (A) (A) (A) (A) (A) (A) (A) (A) (A) (A) (A) (A)
                 (A) (A) (A) (A) (A) (A) (A) (A) (A) (A) (A) (A)
                 (A) (A) (A) (A) (A) (A) (A) (A) (A) (A) (A) (A)
                 (A) (A) (A)
       Virtual   (A) (A) (A) (A) (A) (A) (A) (A) (A) (A) (A) (A)
                 (A) (A) (A) (A) (A) (A) (A) (A) (A) (A) (A) (A)
                 (A) (A) (A) (A) (A) (A) (A) (A) (A) (A) (A) (A)
                 (A) (A) (A) (A) (A) (A) (A) (A) (A) (A) (A) (A)
                 (A) (A) (A) (A) (A) (A) (A) (A) (A) (A) (A) (A)
                 (A) (A) (A) (A) (A) (A) (A) (A) (A) (A) (A) (A)
                 (A) (A) (A) (A) (A) (A) (A) (A) (A) (A) (A) (A)
                 (A) (A) (A) (A) (A) (A) (A) (A) (A) (A) (A) (A)
                 (A) (A) (A) (A) (A) (A) (A) (A) (A) (A) (A) (A)
                 (A) (A) (A) (A) (A) (A) (A) (A) (A) (A) (A) (A)
                 (A) (A) (A) (A) (A) (A) (A) (A) (A) (A) (A) (A)
                 (A) (A) (A)
 The electronic state is 1-A.
 Alpha  occ. eigenvalues --  -19.11882 -19.10500 -14.37068 -14.35694 -10.29809
 Alpha  occ. eigenvalues --  -10.27905 -10.24027 -10.21423 -10.20084 -10.17920
 Alpha  occ. eigenvalues --   -1.03848  -1.02432  -0.93253  -0.91193  -0.78267
 Alpha  occ. eigenvalues --   -0.73356  -0.70643  -0.64999  -0.58459  -0.57120
 Alpha  occ. eigenvalues --   -0.53313  -0.50833  -0.47254  -0.45374  -0.44865
 Alpha  occ. eigenvalues --   -0.44044  -0.42324  -0.41522  -0.40741  -0.40108
 Alpha  occ. eigenvalues --   -0.38630  -0.38091  -0.36933  -0.36097  -0.34629
 Alpha  occ. eigenvalues --   -0.27873  -0.25503  -0.24930  -0.23422
 Alpha virt. eigenvalues --    0.01528   0.03229   0.05730   0.10143   0.11555
 Alpha virt. eigenvalues --    0.12902   0.13963   0.14225   0.16170   0.16458
 Alpha virt. eigenvalues --    0.17183   0.17461   0.18286   0.18644   0.18861
 Alpha virt. eigenvalues --    0.20826   0.21276   0.25401   0.28002   0.31088
 Alpha virt. eigenvalues --    0.35827   0.39239   0.42177   0.49967   0.52122
 Alpha virt. eigenvalues --    0.52239   0.53203   0.53563   0.54637   0.56292
 Alpha virt. eigenvalues --    0.56643   0.59361   0.60847   0.62969   0.65709
 Alpha virt. eigenvalues --    0.66834   0.69063   0.70033   0.72221   0.75228
 Alpha virt. eigenvalues --    0.76607   0.77807   0.78359   0.79887   0.83543
 Alpha virt. eigenvalues --    0.84606   0.85480   0.85559   0.86587   0.88204
 Alpha virt. eigenvalues --    0.89238   0.90086   0.91054   0.92312   0.94009
 Alpha virt. eigenvalues --    0.94024   0.95141   0.95663   0.98691   1.00886
 Alpha virt. eigenvalues --    1.06371   1.07330   1.09087   1.12127   1.16304
 Alpha virt. eigenvalues --    1.17766   1.19450   1.27881   1.29188   1.34034
 Alpha virt. eigenvalues --    1.36315   1.39628   1.42276   1.46369   1.49057
 Alpha virt. eigenvalues --    1.50948   1.56254   1.59656   1.67603   1.69837
 Alpha virt. eigenvalues --    1.71645   1.73744   1.76737   1.79755   1.80126
 Alpha virt. eigenvalues --    1.82803   1.84609   1.86098   1.88005   1.91518
 Alpha virt. eigenvalues --    1.93445   1.93939   1.97972   1.99209   2.02246
 Alpha virt. eigenvalues --    2.04057   2.06106   2.08757   2.10518   2.16774
 Alpha virt. eigenvalues --    2.17612   2.21665   2.23948   2.28783   2.30415
 Alpha virt. eigenvalues --    2.32255   2.33396   2.34859   2.38851   2.40614
 Alpha virt. eigenvalues --    2.41435   2.45129   2.51882   2.54169   2.61393
 Alpha virt. eigenvalues --    2.66130   2.69673   2.72846   2.75569   2.82862
 Alpha virt. eigenvalues --    2.93806   2.97608   3.00480   3.11480   3.16068
 Alpha virt. eigenvalues --    3.90790   4.02361   4.06744   4.15548   4.18049
 Alpha virt. eigenvalues --    4.20880   4.24876   4.38010   4.48942   4.65316
          Condensed to atoms (all electrons):
              1          2          3          4          5          6
     1  H    0.512291   0.357724  -0.021486  -0.024750  -0.020180   0.003635
     2  C    0.357724   5.334206   0.360496   0.342888   0.343465  -0.080121
     3  H   -0.021486   0.360496   0.522558  -0.026637  -0.019890  -0.000060
     4  H   -0.024750   0.342888  -0.026637   0.571121  -0.024407   0.002593
     5  C   -0.020180   0.343465  -0.019890  -0.024407   4.327607   0.574755
     6  O    0.003635  -0.080121  -0.000060   0.002593   0.574755   8.084352
     7  N    0.003974  -0.123839   0.000223   0.005407   0.259830  -0.094985
     8  H   -0.000082   0.001814  -0.000009   0.002043  -0.018344   0.003751
     9  C   -0.000089   0.005272  -0.000176   0.000072  -0.021062   0.003940
    10  H   -0.000001  -0.000211   0.000025  -0.000017   0.003760   0.000105
    11  C   -0.000004  -0.000083   0.000025   0.000004  -0.002262  -0.005597
    12  H   -0.000004   0.000256  -0.000002  -0.000008   0.002230   0.011878
    13  H    0.000000   0.000011  -0.000001   0.000000   0.000376   0.000458
    14  H    0.000005  -0.000146   0.000008  -0.000001   0.000972  -0.000845
    15  C    0.000006  -0.000157  -0.000001  -0.000002  -0.004179  -0.000975
    16  O    0.000000   0.000000   0.000000   0.000000  -0.000012   0.000000
    17  N    0.000002  -0.000062  -0.000001   0.000017   0.000492  -0.001624
    18  H   -0.000017   0.000470   0.000008  -0.000112   0.007519   0.008150
    19  C    0.000000   0.000000   0.000000   0.000000  -0.000057   0.000014
    20  H    0.000000   0.000000   0.000000   0.000000  -0.000002   0.000000
    21  H    0.000000   0.000000   0.000000   0.000000  -0.000006   0.000004
    22  H    0.000000   0.000000   0.000000   0.000000   0.000004  -0.000002
              7          8          9         10         11         12
     1  H    0.003974  -0.000082  -0.000089  -0.000001  -0.000004  -0.000004
     2  C   -0.123839   0.001814   0.005272  -0.000211  -0.000083   0.000256
     3  H    0.000223  -0.000009  -0.000176   0.000025   0.000025  -0.000002
     4  H    0.005407   0.002043   0.000072  -0.000017   0.000004  -0.000008
     5  C    0.259830  -0.018344  -0.021062   0.003760  -0.002262   0.002230
     6  O   -0.094985   0.003751   0.003940   0.000105  -0.005597   0.011878
     7  N    7.205709   0.299908   0.182054  -0.041625  -0.040618  -0.005829
     8  H    0.299908   0.412892  -0.029579  -0.006626   0.004056  -0.000098
     9  C    0.182054  -0.029579   5.113155   0.365789   0.370857  -0.028189
    10  H   -0.041625  -0.006626   0.365789   0.582440  -0.033488   0.004986
    11  C   -0.040618   0.004056   0.370857  -0.033488   5.098956   0.372192
    12  H   -0.005829  -0.000098  -0.028189   0.004986   0.372192   0.506046
    13  H    0.003987  -0.000119  -0.033126  -0.002654   0.360176  -0.022886
    14  H   -0.000501   0.000064  -0.028889  -0.005504   0.370191  -0.028279
    15  C   -0.044427   0.001630   0.326555  -0.043081  -0.036737  -0.006214
    16  O    0.002224  -0.000033  -0.076386   0.005500  -0.003313  -0.000061
    17  N    0.006477   0.000293  -0.114223   0.005184  -0.002282   0.002543
    18  H   -0.004792   0.000296   0.000376   0.000111  -0.000259   0.000437
    19  C   -0.000134   0.000000   0.006260  -0.000173  -0.000134  -0.000093
    20  H   -0.000080   0.000002   0.001030  -0.000023  -0.000016  -0.000004
    21  H    0.000000   0.000001  -0.000280  -0.000005   0.000046  -0.000013
    22  H    0.000016  -0.000004  -0.000066   0.000011  -0.000005   0.000002
             13         14         15         16         17         18
     1  H    0.000000   0.000005   0.000006   0.000000   0.000002  -0.000017
     2  C    0.000011  -0.000146  -0.000157   0.000000  -0.000062   0.000470
     3  H   -0.000001   0.000008  -0.000001   0.000000  -0.000001   0.000008
     4  H    0.000000  -0.000001  -0.000002   0.000000   0.000017  -0.000112
     5  C    0.000376   0.000972  -0.004179  -0.000012   0.000492   0.007519
     6  O    0.000458  -0.000845  -0.000975   0.000000  -0.001624   0.008150
     7  N    0.003987  -0.000501  -0.044427   0.002224   0.006477  -0.004792
     8  H   -0.000119   0.000064   0.001630  -0.000033   0.000293   0.000296
     9  C   -0.033126  -0.028889   0.326555  -0.076386  -0.114223   0.000376
    10  H   -0.002654  -0.005504  -0.043081   0.005500   0.005184   0.000111
    11  C    0.360176   0.370191  -0.036737  -0.003313  -0.002282  -0.000259
    12  H   -0.022886  -0.028279  -0.006214  -0.000061   0.002543   0.000437
    13  H    0.546573  -0.027993  -0.001627   0.005967   0.000349  -0.000067
    14  H   -0.027993   0.566762   0.004438  -0.000041  -0.000105  -0.000020
    15  C   -0.001627   0.004438   4.388646   0.575866   0.289371  -0.017939
    16  O    0.005967  -0.000041   0.575866   8.092264  -0.093849   0.003086
    17  N    0.000349  -0.000105   0.289371  -0.093849   7.043698   0.295830
    18  H   -0.000067  -0.000020  -0.017939   0.003086   0.295830   0.389598
    19  C   -0.000006   0.000005  -0.027518  -0.007910   0.273600  -0.031070
    20  H   -0.000012   0.000000  -0.000629   0.020509  -0.041041   0.003842
    21  H    0.000004  -0.000001   0.000637   0.000626  -0.042552  -0.000761
    22  H    0.000000   0.000000   0.001936   0.000399  -0.040339  -0.000785
             19         20         21         22
     1  H    0.000000   0.000000   0.000000   0.000000
     2  C    0.000000   0.000000   0.000000   0.000000
     3  H    0.000000   0.000000   0.000000   0.000000
     4  H    0.000000   0.000000   0.000000   0.000000
     5  C   -0.000057  -0.000002  -0.000006   0.000004
     6  O    0.000014   0.000000   0.000004  -0.000002
     7  N   -0.000134  -0.000080   0.000000   0.000016
     8  H    0.000000   0.000002   0.000001  -0.000004
     9  C    0.006260   0.001030  -0.000280  -0.000066
    10  H   -0.000173  -0.000023  -0.000005   0.000011
    11  C   -0.000134  -0.000016   0.000046  -0.000005
    12  H   -0.000093  -0.000004  -0.000013   0.000002
    13  H   -0.000006  -0.000012   0.000004   0.000000
    14  H    0.000005   0.000000  -0.000001   0.000000
    15  C   -0.027518  -0.000629   0.000637   0.001936
    16  O   -0.007910   0.020509   0.000626   0.000399
    17  N    0.273600  -0.041041  -0.042552  -0.040339
    18  H   -0.031070   0.003842  -0.000761  -0.000785
    19  C    4.960015   0.375974   0.382198   0.379309
    20  H    0.375974   0.490309  -0.026359  -0.024154
    21  H    0.382198  -0.026359   0.566012  -0.040405
    22  H    0.379309  -0.024154  -0.040405   0.570096
 Mulliken atomic charges:
              1
     1  H    0.188976
     2  C   -0.541981
     3  H    0.184921
     4  H    0.151789
     5  C    0.589389
     6  O   -0.509425
     7  N   -0.612976
     8  H    0.328144
     9  C   -0.043296
    10  H    0.165495
    11  C   -0.451705
    12  H    0.191109
    13  H    0.170590
    14  H    0.149878
    15  C    0.594401
    16  O   -0.524837
    17  N   -0.581781
    18  H    0.346099
    19  C   -0.310281
    20  H    0.200652
    21  H    0.160854
    22  H    0.153985
 Sum of Mulliken atomic charges =   0.00000
 Mulliken charges with hydrogens summed into heavy atoms:
              1
     2  C   -0.016294
     5  C    0.589389
     6  O   -0.509425
     7  N   -0.284832
     9  C    0.122198
    11  C    0.059872
    15  C    0.594401
    16  O   -0.524837
    17  N   -0.235682
    19  C    0.205210
 Sum of Mulliken charges with hydrogens summed into heavy atoms =   0.00000
 Electronic spatial extent (au):  <R**2>=           1763.2890
 Charge=              0.0000 electrons
 Dipole moment (field-independent basis, Debye):
    X=             -2.4819    Y=             -1.6298    Z=             -2.2387  Tot=              3.7186
 Quadrupole moment (field-independent basis, Debye-Ang):
   XX=            -63.8503   YY=            -56.7942   ZZ=            -60.6564
   XY=             -6.4508   XZ=              9.7740   YZ=              0.7624
 Traceless Quadrupole moment (field-independent basis, Debye-Ang):
   XX=             -3.4167   YY=              3.6395   ZZ=             -0.2228
   XY=             -6.4508   XZ=              9.7740   YZ=              0.7624
 Octapole moment (field-independent basis, Debye-Ang**2):
  XXX=            -28.7898  YYY=             -5.1002  ZZZ=            -10.2932  XYY=             -0.9994
  XXY=            -20.9941  XXZ=             -2.9893  XZZ=              3.5146  YZZ=              1.5873
  YYZ=              3.0243  XYZ=              0.1520
 Hexadecapole moment (field-independent basis, Debye-Ang**3):
 XXXX=          -1458.4781 YYYY=           -529.2459 ZZZZ=           -232.8860 XXXY=            -43.1863
 XXXZ=             33.2783 YYYX=             -3.9362 YYYZ=             -4.6277 ZZZX=             11.8213
 ZZZY=             -4.3672 XXYY=           -329.4279 XXZZ=           -300.8605 YYZZ=           -131.1954
 XXYZ=              6.6662 YYXZ=              1.4659 ZZXY=             -2.7499
 N-N= 5.570455983597D+02 E-N=-2.270108719833D+03  KE= 4.912321350995D+02
 1\1\GINC-NODE002\FOpt\RB3LYP\6-31G(d)\C6H12N2O2\STEBOSS\10-Feb-2017\0\
 \# b3lyp/6-31G* Opt=(ModRedundant, maxcycles=1000, calcfc) geom=nocrow
 d\\Phi Psi fixed scan\\0,1\H,0.9406717957,2.5268158549,-1.6716801169\C
 ,1.6764196013,2.4935522941,-0.8659195265\H,2.071487071,1.4720836017,-0
 .8108832467\H,1.1845379219,2.7195789405,0.0862426581\C,2.8123247311,3.
 4535501561,-1.1995265981\O,3.1310572417,3.7020177378,-2.3562662704\N,3
 .4196422002,4.0267031727,-0.1091263637\H,3.0503661896,3.7577073246,0.7
 924639997\C,4.7464464739,4.6637729563,-0.0545877915\H,5.1688018396,4.3
 833115045,0.9160331311\C,5.7398289474,4.2081850114,-1.1334299365\H,5.4
 064348272,4.4820617469,-2.1339797218\H,6.7020597298,4.6832704284,-0.92
 23422493\H,5.8682117146,3.1215422156,-1.099502352\C,4.6878793978,6.205
 5632333,0.0062751045\O,5.5816555428,6.830600955,0.5665181791\N,3.61774
 68577,6.7789777746,-0.6076959731\H,3.004164376,6.1744533965,-1.1368918
 757\C,3.4844117048,8.2173281895,-0.7506346469\H,4.2203862399,8.6820120
 076,-0.0928809471\H,3.6770000664,8.5406455463,-1.781499753\H,2.4795655
 295,8.5438659518,-0.4607857033\\Version=EM64L-G09RevA.02\State=1-A\HF=
 -495.8437835\RMSD=3.858e-09\RMSF=1.236e-03\Dipole=-1.1771626,-0.681253
 6,0.5390371\Quadrupole=-0.0749529,3.6157177,-3.5407649,-2.9809094,-3.8
 929025,-6.7956673\PG=C01 [X(C6H12N2O2)]\\@


 ALTHOUGH J.J. COULD DIAGNOSE THE FAULTS OF AN
 APPARATUS WITH UNCANNY ACCURACY, IT WAS JUST AS
 WELL NOT TO LET HIM HANDLE IT.
   -- GEORGE THOMPSON, ABOUT HIS FATHER
 Job cpu time:  0 days  2 hours 39 minutes 24.7 seconds.
 File lengths (MBytes):  RWF=    186 Int=      0 D2E=      0 Chk=      4 Scr=      2
 Normal termination of Gaussian 09 at Fri Feb 10 19:04:19 2017.
