 Entering Gaussian System, Link 0=g09
 Initial command:
 /home/steboss/Software/g09/l1.exe /home/steboss/projects/phi_psi_scan/alanine/105/4164/Gau-1869.inp -scrdir=/home/steboss/projects/phi_psi_scan/alanine/105/4164/
 Entering Link 1 = /home/steboss/Software/g09/l1.exe PID=      1871.
  
 Copyright (c) 1988,1990,1992,1993,1995,1998,2003,2009, Gaussian, Inc.
                  All Rights Reserved.
  
 This is part of the Gaussian(R) 09 program.  It is based on
 the Gaussian(R) 03 system (copyright 2003, Gaussian, Inc.),
 the Gaussian(R) 98 system (copyright 1998, Gaussian, Inc.),
 the Gaussian(R) 94 system (copyright 1995, Gaussian, Inc.),
 the Gaussian 92(TM) system (copyright 1992, Gaussian, Inc.),
 the Gaussian 90(TM) system (copyright 1990, Gaussian, Inc.),
 the Gaussian 88(TM) system (copyright 1988, Gaussian, Inc.),
 the Gaussian 86(TM) system (copyright 1986, Carnegie Mellon
 University), and the Gaussian 82(TM) system (copyright 1983,
 Carnegie Mellon University). Gaussian is a federally registered
 trademark of Gaussian, Inc.
  
 This software contains proprietary and confidential information,
 including trade secrets, belonging to Gaussian, Inc.
  
 This software is provided under written license and may be
 used, copied, transmitted, or stored only in accord with that
 written license.
  
 The following legend is applicable only to US Government
 contracts under FAR:
  
                    RESTRICTED RIGHTS LEGEND
  
 Use, reproduction and disclosure by the US Government is
 subject to restrictions as set forth in subparagraphs (a)
 and (c) of the Commercial Computer Software - Restricted
 Rights clause in FAR 52.227-19.
  
 Gaussian, Inc.
 340 Quinnipiac St., Bldg. 40, Wallingford CT 06492
  
  
 ---------------------------------------------------------------
 Warning -- This program may not be used in any manner that
 competes with the business of Gaussian, Inc. or will provide
 assistance to any competitor of Gaussian, Inc.  The licensee
 of this program is prohibited from giving any competitor of
 Gaussian, Inc. access to this program.  By using this program,
 the user acknowledges that Gaussian, Inc. is engaged in the
 business of creating and licensing software in the field of
 computational chemistry and represents and warrants to the
 licensee that it is not a competitor of Gaussian, Inc. and that
 it will not use this program in any manner prohibited above.
 ---------------------------------------------------------------
  

 Cite this work as:
 Gaussian 09, Revision A.02,
 M. J. Frisch, G. W. Trucks, H. B. Schlegel, G. E. Scuseria, 
 M. A. Robb, J. R. Cheeseman, G. Scalmani, V. Barone, B. Mennucci, 
 G. A. Petersson, H. Nakatsuji, M. Caricato, X. Li, H. P. Hratchian, 
 A. F. Izmaylov, J. Bloino, G. Zheng, J. L. Sonnenberg, M. Hada, 
 M. Ehara, K. Toyota, R. Fukuda, J. Hasegawa, M. Ishida, T. Nakajima, 
 Y. Honda, O. Kitao, H. Nakai, T. Vreven, J. A. Montgomery, Jr., 
 J. E. Peralta, F. Ogliaro, M. Bearpark, J. J. Heyd, E. Brothers, 
 K. N. Kudin, V. N. Staroverov, R. Kobayashi, J. Normand, 
 K. Raghavachari, A. Rendell, J. C. Burant, S. S. Iyengar, J. Tomasi, 
 M. Cossi, N. Rega, J. M. Millam, M. Klene, J. E. Knox, J. B. Cross, 
 V. Bakken, C. Adamo, J. Jaramillo, R. Gomperts, R. E. Stratmann, 
 O. Yazyev, A. J. Austin, R. Cammi, C. Pomelli, J. W. Ochterski, 
 R. L. Martin, K. Morokuma, V. G. Zakrzewski, G. A. Voth, 
 P. Salvador, J. J. Dannenberg, S. Dapprich, A. D. Daniels, 
 O. Farkas, J. B. Foresman, J. V. Ortiz, J. Cioslowski, 
 and D. J. Fox, Gaussian, Inc., Wallingford CT, 2009.
 
 ******************************************
 Gaussian 09:  EM64L-G09RevA.02 11-Jun-2009
                10-Feb-2017 
 ******************************************
 %chk=structure_270.chk
 %NProcShared=8
 Will use up to    8 processors via shared memory.
 ----------------------------------------------------------------------
 # b3lyp/6-31G* Opt=(ModRedundant, maxcycles=1000, calcfc) geom=nocrowd
 ----------------------------------------------------------------------
 1/6=1000,10=4,14=-1,18=120,19=15,26=3,38=1/1,3;
 2/9=110,12=1,17=6,18=5,40=1/2;
 3/5=1,6=6,7=1,11=2,16=1,25=1,30=1,71=2,74=-5/1,2,3;
 4//1;
 5/5=2,38=5/2;
 8/6=4,10=90,11=11/1;
 11/6=1,8=1,9=11,15=111,16=1/1,2,10;
 10/6=1,7=6,13=1/2;
 6/7=2,8=2,9=2,10=2,28=1/1;
 7/10=1,18=20,25=1/1,2,3,16;
 1/6=1000,10=4,14=-1,18=20,19=15/3(2);
 2/9=110,12=1/2;
 99//99;
 2/9=110,12=1/2;
 3/5=1,6=6,7=1,11=2,16=1,25=1,30=1,71=1,74=-5/1,2,3;
 4/5=5,16=3/1;
 5/5=2,38=5/2;
 7//1,2,3,16;
 1/6=1000,14=-1,18=20,19=15/3(-5);
 2/9=110,12=1/2;
 6/7=2,8=2,9=2,10=2,19=2,28=1/1;
 99/9=1/99;
 ------------------
 Phi Psi fixed scan
 ------------------
 Symbolic Z-matrix:
 Charge =  0 Multiplicity = 1
 H                     1.3513    2.3068   -1.9013 
 C                     1.6731    2.7486   -0.9582 
 H                     1.7242    1.9746   -0.1925 
 H                     0.9598    3.5143   -0.6531 
 C                     3.0539    3.3932   -1.0948 
 O                     3.6506    3.3681   -2.1689 
 N                     3.5554    3.9697    0. 
 H                     3.0267    3.9647    0.8606 
 C                     4.8533    4.6139    0. 
 H                     5.4076    4.3155    0.8898 
 C                     5.6613    4.2208   -1.2322 
 H                     5.1233    4.5214   -2.1312 
 H                     6.6305    4.7189   -1.2058 
 H                     5.8085    3.1409   -1.2414 
 C                     4.7127    6.1294    0. 
 O                     4.6551    6.7505    1.059 
 N                     4.6575    6.7246   -1.1937 
 H                     4.7088    6.171    -2.0369 
 C                     4.5242    8.1613   -1.3275 
 H                     4.482     8.6165   -0.3381 
 H                     5.3811    8.557    -1.8727 
 H                     3.6091    8.3926   -1.8727 
 
 The following ModRedundant input section has been read:
 D    5    7    9   15 F                                                       
 D    7    9   15   17 F                                                       

 GradGradGradGradGradGradGradGradGradGradGradGradGradGradGradGradGradGrad
 Berny optimization.
 Initialization pass.
                           ----------------------------
                           !    Initial Parameters    !
                           ! (Angstroms and Degrees)  !
 --------------------------                            --------------------------
 ! Name  Definition              Value          Derivative Info.                !
 --------------------------------------------------------------------------------
 ! R1    R(1,2)                  1.09           calculate D2E/DX2 analytically  !
 ! R2    R(2,3)                  1.0899         calculate D2E/DX2 analytically  !
 ! R3    R(2,4)                  1.09           calculate D2E/DX2 analytically  !
 ! R4    R(2,5)                  1.53           calculate D2E/DX2 analytically  !
 ! R5    R(5,6)                  1.229          calculate D2E/DX2 analytically  !
 ! R6    R(5,7)                  1.3351         calculate D2E/DX2 analytically  !
 ! R7    R(7,8)                  1.01           calculate D2E/DX2 analytically  !
 ! R8    R(7,9)                  1.449          calculate D2E/DX2 analytically  !
 ! R9    R(9,10)                 1.09           calculate D2E/DX2 analytically  !
 ! R10   R(9,11)                 1.525          calculate D2E/DX2 analytically  !
 ! R11   R(9,15)                 1.522          calculate D2E/DX2 analytically  !
 ! R12   R(11,12)                1.09           calculate D2E/DX2 analytically  !
 ! R13   R(11,13)                1.09           calculate D2E/DX2 analytically  !
 ! R14   R(11,14)                1.0899         calculate D2E/DX2 analytically  !
 ! R15   R(15,16)                1.2291         calculate D2E/DX2 analytically  !
 ! R16   R(15,17)                1.335          calculate D2E/DX2 analytically  !
 ! R17   R(17,18)                1.01           calculate D2E/DX2 analytically  !
 ! R18   R(17,19)                1.4491         calculate D2E/DX2 analytically  !
 ! R19   R(19,20)                1.0899         calculate D2E/DX2 analytically  !
 ! R20   R(19,21)                1.09           calculate D2E/DX2 analytically  !
 ! R21   R(19,22)                1.09           calculate D2E/DX2 analytically  !
 ! A1    A(1,2,3)              109.5017         calculate D2E/DX2 analytically  !
 ! A2    A(1,2,4)              109.493          calculate D2E/DX2 analytically  !
 ! A3    A(1,2,5)              111.0973         calculate D2E/DX2 analytically  !
 ! A4    A(3,2,4)              109.4436         calculate D2E/DX2 analytically  !
 ! A5    A(3,2,5)              108.6387         calculate D2E/DX2 analytically  !
 ! A6    A(4,2,5)              108.6398         calculate D2E/DX2 analytically  !
 ! A7    A(2,5,6)              120.5054         calculate D2E/DX2 analytically  !
 ! A8    A(2,5,7)              116.5979         calculate D2E/DX2 analytically  !
 ! A9    A(6,5,7)              122.8967         calculate D2E/DX2 analytically  !
 ! A10   A(5,7,8)              119.9959         calculate D2E/DX2 analytically  !
 ! A11   A(5,7,9)              121.9004         calculate D2E/DX2 analytically  !
 ! A12   A(8,7,9)              118.1037         calculate D2E/DX2 analytically  !
 ! A13   A(7,9,10)             109.5            calculate D2E/DX2 analytically  !
 ! A14   A(7,9,11)             111.0992         calculate D2E/DX2 analytically  !
 ! A15   A(7,9,15)             111.0966         calculate D2E/DX2 analytically  !
 ! A16   A(10,9,11)            108.6382         calculate D2E/DX2 analytically  !
 ! A17   A(10,9,15)            108.6373         calculate D2E/DX2 analytically  !
 ! A18   A(11,9,15)            107.7947         calculate D2E/DX2 analytically  !
 ! A19   A(9,11,12)            109.5007         calculate D2E/DX2 analytically  !
 ! A20   A(9,11,13)            109.4959         calculate D2E/DX2 analytically  !
 ! A21   A(9,11,14)            109.4978         calculate D2E/DX2 analytically  !
 ! A22   A(12,11,13)           109.441          calculate D2E/DX2 analytically  !
 ! A23   A(12,11,14)           109.4482         calculate D2E/DX2 analytically  !
 ! A24   A(13,11,14)           109.4436         calculate D2E/DX2 analytically  !
 ! A25   A(9,15,16)            120.4987         calculate D2E/DX2 analytically  !
 ! A26   A(9,15,17)            116.5998         calculate D2E/DX2 analytically  !
 ! A27   A(16,15,17)           122.9016         calculate D2E/DX2 analytically  !
 ! A28   A(15,17,18)           120.001          calculate D2E/DX2 analytically  !
 ! A29   A(15,17,19)           121.8978         calculate D2E/DX2 analytically  !
 ! A30   A(18,17,19)           118.1012         calculate D2E/DX2 analytically  !
 ! A31   A(17,19,20)           109.5013         calculate D2E/DX2 analytically  !
 ! A32   A(17,19,21)           109.4994         calculate D2E/DX2 analytically  !
 ! A33   A(17,19,22)           109.4995         calculate D2E/DX2 analytically  !
 ! A34   A(20,19,21)           109.4436         calculate D2E/DX2 analytically  !
 ! A35   A(20,19,22)           109.446          calculate D2E/DX2 analytically  !
 ! A36   A(21,19,22)           109.4374         calculate D2E/DX2 analytically  !
 ! D1    D(1,2,5,6)             -0.0038         calculate D2E/DX2 analytically  !
 ! D2    D(1,2,5,7)            179.9948         calculate D2E/DX2 analytically  !
 ! D3    D(3,2,5,6)            120.5106         calculate D2E/DX2 analytically  !
 ! D4    D(3,2,5,7)            -59.4908         calculate D2E/DX2 analytically  !
 ! D5    D(4,2,5,6)           -120.5082         calculate D2E/DX2 analytically  !
 ! D6    D(4,2,5,7)             59.4904         calculate D2E/DX2 analytically  !
 ! D7    D(2,5,7,8)              0.0007         calculate D2E/DX2 analytically  !
 ! D8    D(2,5,7,9)            179.9954         calculate D2E/DX2 analytically  !
 ! D9    D(6,5,7,8)            179.9993         calculate D2E/DX2 analytically  !
 ! D10   D(6,5,7,9)             -0.006          calculate D2E/DX2 analytically  !
 ! D11   D(5,7,9,10)          -134.9963         calculate D2E/DX2 analytically  !
 ! D12   D(5,7,9,11)           -14.9937         calculate D2E/DX2 analytically  !
 ! D13   D(5,7,9,15)           105.0038         frozen, calculate D2E/DX2 analyt!
 ! D14   D(8,7,9,10)            44.9985         calculate D2E/DX2 analytically  !
 ! D15   D(8,7,9,11)           165.0011         calculate D2E/DX2 analytically  !
 ! D16   D(8,7,9,15)           -75.0013         calculate D2E/DX2 analytically  !
 ! D17   D(7,9,11,12)           60.0024         calculate D2E/DX2 analytically  !
 ! D18   D(7,9,11,13)          179.9986         calculate D2E/DX2 analytically  !
 ! D19   D(7,9,11,14)          -60.0038         calculate D2E/DX2 analytically  !
 ! D20   D(10,9,11,12)        -179.4843         calculate D2E/DX2 analytically  !
 ! D21   D(10,9,11,13)         -59.4881         calculate D2E/DX2 analytically  !
 ! D22   D(10,9,11,14)          60.5095         calculate D2E/DX2 analytically  !
 ! D23   D(15,9,11,12)         -61.938          calculate D2E/DX2 analytically  !
 ! D24   D(15,9,11,13)          58.0582         calculate D2E/DX2 analytically  !
 ! D25   D(15,9,11,14)         178.0558         calculate D2E/DX2 analytically  !
 ! D26   D(7,9,15,16)           90.0012         calculate D2E/DX2 analytically  !
 ! D27   D(7,9,15,17)          -90.0009         frozen, calculate D2E/DX2 analyt!
 ! D28   D(10,9,15,16)         -30.5099         calculate D2E/DX2 analytically  !
 ! D29   D(10,9,15,17)         149.488          calculate D2E/DX2 analytically  !
 ! D30   D(11,9,15,16)        -148.0568         calculate D2E/DX2 analytically  !
 ! D31   D(11,9,15,17)          31.9411         calculate D2E/DX2 analytically  !
 ! D32   D(9,15,17,18)           0.0048         calculate D2E/DX2 analytically  !
 ! D33   D(9,15,17,19)         179.9994         calculate D2E/DX2 analytically  !
 ! D34   D(16,15,17,18)       -179.9974         calculate D2E/DX2 analytically  !
 ! D35   D(16,15,17,19)         -0.0028         calculate D2E/DX2 analytically  !
 ! D36   D(15,17,19,20)          0.0031         calculate D2E/DX2 analytically  !
 ! D37   D(15,17,19,21)        120.005          calculate D2E/DX2 analytically  !
 ! D38   D(15,17,19,22)       -120.0018         calculate D2E/DX2 analytically  !
 ! D39   D(18,17,19,20)        179.9978         calculate D2E/DX2 analytically  !
 ! D40   D(18,17,19,21)        -60.0003         calculate D2E/DX2 analytically  !
 ! D41   D(18,17,19,22)         59.9929         calculate D2E/DX2 analytically  !
 --------------------------------------------------------------------------------
 Trust Radius=3.00D-01 FncErr=1.00D-07 GrdErr=1.00D-06
 Number of steps in this run= 132 maximum allowed number of steps= 132.
 GradGradGradGradGradGradGradGradGradGradGradGradGradGradGradGradGradGrad

                          Input orientation:                          
 ---------------------------------------------------------------------
 Center     Atomic      Atomic             Coordinates (Angstroms)
 Number     Number       Type             X           Y           Z
 ---------------------------------------------------------------------
      1          1           0        1.351300    2.306800   -1.901300
      2          6           0        1.673100    2.748600   -0.958200
      3          1           0        1.724200    1.974600   -0.192500
      4          1           0        0.959800    3.514300   -0.653100
      5          6           0        3.053900    3.393200   -1.094800
      6          8           0        3.650600    3.368100   -2.168900
      7          7           0        3.555400    3.969700    0.000000
      8          1           0        3.026700    3.964700    0.860600
      9          6           0        4.853300    4.613900    0.000000
     10          1           0        5.407600    4.315500    0.889800
     11          6           0        5.661300    4.220800   -1.232200
     12          1           0        5.123300    4.521400   -2.131200
     13          1           0        6.630500    4.718900   -1.205800
     14          1           0        5.808500    3.140900   -1.241400
     15          6           0        4.712700    6.129400    0.000000
     16          8           0        4.655100    6.750500    1.059000
     17          7           0        4.657500    6.724600   -1.193700
     18          1           0        4.708800    6.171000   -2.036900
     19          6           0        4.524200    8.161300   -1.327500
     20          1           0        4.482000    8.616500   -0.338100
     21          1           0        5.381100    8.557000   -1.872700
     22          1           0        3.609100    8.392600   -1.872700
 ---------------------------------------------------------------------
                    Distance matrix (angstroms):
                    1          2          3          4          5
     1  H    0.000000
     2  C    1.090037   0.000000
     3  H    1.780283   1.089947   0.000000
     4  H    1.780262   1.090036   1.779645   0.000000
     5  C    2.174754   1.529960   2.143519   2.143600   0.000000
     6  O    2.546517   2.400017   3.091766   3.091833   1.228972
     7  N    3.352348   2.439731   2.714917   2.714971   1.335081
     8  H    3.630935   2.572774   2.601158   2.601197   2.037386
     9  C    4.604526   3.809352   4.098076   4.098171   2.434448
    10  H    5.317771   4.451603   4.496512   4.775499   3.213904
    11  C    4.763107   4.260069   4.650500   4.789426   2.739039
    12  H    4.380102   4.052484   4.668900   4.531419   2.574758
    13  H    5.845674   5.340337   5.712245   5.823519   3.816002
    14  H    4.582338   4.163608   4.375152   4.898512   2.770012
    15  C    5.433804   4.646195   5.121577   4.620557   3.381863
    16  O    6.278928   5.382994   5.741572   5.201876   4.298158
    17  N    5.563148   4.977015   5.671785   4.926587   3.698586
    18  H    5.120863   4.700201   5.469865   4.798745   3.367851
    19  C    6.683690   6.128823   6.885019   5.895284   4.995068
    20  H    7.215067   6.535036   7.193156   6.207863   5.467625
    21  H    7.436740   6.951481   7.715179   6.816461   5.717151
    22  H    6.491182   6.036484   6.896858   5.683663   5.089929
                    6          7          8          9         10
     6  O    0.000000
     7  N    2.252801   0.000000
     8  H    3.150088   1.010040   0.000000
     9  C    2.775362   1.448978   2.120981   0.000000
    10  H    3.652432   2.083739   2.406782   1.089970   0.000000
    11  C    2.376430   2.452791   3.374391   1.525027   2.139209
    12  H    1.870927   2.702720   3.695472   2.150225   3.041326
    13  H    3.410576   3.386959   4.222109   2.150214   2.459625
    14  H    2.359748   2.702673   3.582661   2.150165   2.466256
    15  C    3.668373   2.450234   2.875614   1.522008   2.136554
    16  O    4.782153   3.172329   3.232914   2.392869   2.554234
    17  N    3.637438   3.198284   3.807454   2.432758   3.272214
    18  H    2.998910   3.213256   4.011574   2.567957   3.535078
    19  C    4.944279   4.502259   4.964045   3.801922   4.526256
    20  H    5.620388   4.750332   5.019365   4.033978   4.567611
    21  H    5.477869   5.280484   5.839807   4.397001   5.061860
    22  H    5.033394   4.803325   5.236069   4.397000   5.242972
                   11         12         13         14         15
    11  C    0.000000
    12  H    1.089957   0.000000
    13  H    1.090023   1.779613   0.000000
    14  H    1.089925   1.779613   1.779617   0.000000
    15  C    2.461892   2.701161   2.668599   3.416575   0.000000
    16  O    3.558289   3.919882   3.627523   4.432988   1.229050
    17  N    2.697797   2.439255   2.813487   3.764304   1.335002
    18  H    2.314752   1.703491   2.547990   3.320191   2.037328
    19  C    4.102392   3.775411   4.037503   5.182785   2.434421
    20  H    4.638140   4.516228   4.534340   5.705940   2.520556
    21  H    4.392196   4.052080   4.091059   5.469493   3.137994
    22  H    4.693152   4.164831   4.803091   5.728547   3.137995
                   16         17         18         19         20
    16  O    0.000000
    17  N    2.252850   0.000000
    18  H    3.150127   1.009995   0.000000
    19  C    2.775405   1.449061   2.120995   0.000000
    20  H    2.337479   2.083780   2.986274   1.089908   0.000000
    21  H    3.519287   2.083825   2.484340   1.090000   1.779584
    22  H    3.519300   2.083844   2.484312   1.090023   1.779630
                   21         22
    21  H    0.000000
    22  H    1.779610   0.000000
 Stoichiometry    C6H12N2O2
 Framework group  C1[X(C6H12N2O2)]
 Deg. of freedom    60
 Full point group                 C1      NOp   1
 Largest Abelian subgroup         C1      NOp   1
 Largest concise Abelian subgroup C1      NOp   1
                         Standard orientation:                         
 ---------------------------------------------------------------------
 Center     Atomic      Atomic             Coordinates (Angstroms)
 Number     Number       Type             X           Y           Z
 ---------------------------------------------------------------------
      1          1           0        3.748825    0.035282   -1.480600
      2          6           0        3.099589   -0.688518   -0.987867
      3          1           0        3.676089   -1.256684   -0.257922
      4          1           0        2.683671   -1.369045   -1.730884
      5          6           0        1.946359    0.009284   -0.264050
      6          8           0        1.844209    1.233757   -0.288609
      7          7           0        1.080789   -0.777807    0.379158
      8          1           0        1.206845   -1.779914    0.370638
      9          6           0       -0.053223   -0.238632    1.102239
     10          1           0       -0.133648   -0.730190    2.071743
     11          6           0        0.102440    1.261563    1.327834
     12          1           0        0.175022    1.768583    0.365717
     13          1           0       -0.762866    1.639236    1.872588
     14          1           0        1.006387    1.450523    1.906721
     15          6           0       -1.348561   -0.461667    0.334865
     16          8           0       -2.009389   -1.483031    0.510035
     17          7           0       -1.710826    0.499003   -0.518427
     18          1           0       -1.134156    1.320910   -0.628025
     19          6           0       -2.922389    0.405058   -1.307773
     20          1           0       -3.432882   -0.530768   -1.080774
     21          1           0       -3.577694    1.242879   -1.069591
     22          1           0       -2.669185    0.432490   -2.367624
 ---------------------------------------------------------------------
 Rotational constants (GHZ):      2.2290822      0.7906915      0.7720187
 Standard basis: 6-31G(d) (6D, 7F)
 There are   174 symmetry adapted basis functions of A   symmetry.
 Integral buffers will be    131072 words long.
 Raffenetti 2 integral format.
 Two-electron integral symmetry is turned on.
   174 basis functions,   328 primitive gaussians,   174 cartesian basis functions
    39 alpha electrons       39 beta electrons
       nuclear repulsion energy       568.2891807892 Hartrees.
 NAtoms=   22 NActive=   22 NUniq=   22 SFac= 7.50D-01 NAtFMM=   80 NAOKFM=F Big=F
 One-electron integrals computed using PRISM.
 NBasis=   174 RedAO= T  NBF=   174
 NBsUse=   174 1.00D-06 NBFU=   174
 Harris functional with IExCor=  402 diagonalized for initial guess.
 ExpMin= 1.61D-01 ExpMax= 5.48D+03 ExpMxC= 8.25D+02 IAcc=1 IRadAn=         1 AccDes= 0.00D+00
 HarFok:  IExCor=  402 AccDes= 0.00D+00 IRadAn=         1 IDoV= 1
 ScaDFX=  1.000000  1.000000  1.000000  1.000000
 FoFCou: FMM=F IPFlag=           0 FMFlag=      100000 FMFlg1=           0
         NFxFlg=           0 DoJE=T BraDBF=F KetDBF=T FulRan=T
         Omega=  0.000000  0.000000  1.000000  0.000000  0.000000 ICntrl=     500 IOpCl=  0
         NMat0=    1 NMatS0=    1 NMatT0=    0 NMatD0=    1 NMtDS0=    0 NMtDT0=    0
         I1Cent=           4 NGrid=           0.
 Petite list used in FoFCou.
 Initial guess orbital symmetries:
       Occupied  (A) (A) (A) (A) (A) (A) (A) (A) (A) (A) (A) (A)
                 (A) (A) (A) (A) (A) (A) (A) (A) (A) (A) (A) (A)
                 (A) (A) (A) (A) (A) (A) (A) (A) (A) (A) (A) (A)
                 (A) (A) (A)
       Virtual   (A) (A) (A) (A) (A) (A) (A) (A) (A) (A) (A) (A)
                 (A) (A) (A) (A) (A) (A) (A) (A) (A) (A) (A) (A)
                 (A) (A) (A) (A) (A) (A) (A) (A) (A) (A) (A) (A)
                 (A) (A) (A) (A) (A) (A) (A) (A) (A) (A) (A) (A)
                 (A) (A) (A) (A) (A) (A) (A) (A) (A) (A) (A) (A)
                 (A) (A) (A) (A) (A) (A) (A) (A) (A) (A) (A) (A)
                 (A) (A) (A) (A) (A) (A) (A) (A) (A) (A) (A) (A)
                 (A) (A) (A) (A) (A) (A) (A) (A) (A) (A) (A) (A)
                 (A) (A) (A) (A) (A) (A) (A) (A) (A) (A) (A) (A)
                 (A) (A) (A) (A) (A) (A) (A) (A) (A) (A) (A) (A)
                 (A) (A) (A) (A) (A) (A) (A) (A) (A) (A) (A) (A)
                 (A) (A) (A)
 The electronic state of the initial guess is 1-A.
 Requested convergence on RMS density matrix=1.00D-08 within 128 cycles.
 Requested convergence on MAX density matrix=1.00D-06.
 Requested convergence on             energy=1.00D-06.
 No special actions if energy rises.
 Integral accuracy reduced to 1.0D-05 until final iterations.
 Initial convergence to 1.0D-05 achieved.  Increase integral accuracy.
 SCF Done:  E(RB3LYP) =  -495.813885060     A.U. after   15 cycles
             Convg  =    0.4447D-08             -V/T =  2.0083
 Range of M.O.s used for correlation:     1   174
 NBasis=   174 NAE=    39 NBE=    39 NFC=     0 NFV=     0
 NROrb=    174 NOA=    39 NOB=    39 NVA=   135 NVB=   135
 Symmetrizing basis deriv contribution to polar:
 IMax=3 JMax=2 DiffMx= 0.00D+00
 G2DrvN: will do    23 centers at a time, making    1 passes doing MaxLOS=2.
 Calling FoFCou, ICntrl=  3107 FMM=F I1Cent=   0 AccDes= 0.00D+00.
 FoFDir/FoFCou used for L=0 through L=2.
 End of G2Drv Frequency-dependent properties file   721 does not exist.
 End of G2Drv Frequency-dependent properties file   722 does not exist.
          IDoAtm=1111111111111111111111
          Differentiating once with respect to nuclear coordinates.
          There are    69 degrees of freedom in the 1st order CPHF.  IDoFFX=5.
     63 vectors produced by pass  0 Test12= 7.63D-11 1.45D-07 XBig12= 2.05D-01 8.19D-02.
 AX will form    63 AO Fock derivatives at one time.
     63 vectors produced by pass  1 Test12= 7.63D-11 1.45D-07 XBig12= 5.13D-02 6.95D-02.
     63 vectors produced by pass  2 Test12= 7.63D-11 1.45D-07 XBig12= 4.11D-05 8.93D-04.
     63 vectors produced by pass  3 Test12= 7.63D-11 1.45D-07 XBig12= 9.00D-08 4.32D-05.
     26 vectors produced by pass  4 Test12= 7.63D-11 1.45D-07 XBig12= 1.00D-10 1.04D-06.
 Inverted reduced A of dimension   278 with in-core refinement.
 End of Minotr Frequency-dependent properties file   721 does not exist.
 End of Minotr Frequency-dependent properties file   722 does not exist.

 **********************************************************************

            Population analysis using the SCF density.

 **********************************************************************

 Orbital symmetries:
       Occupied  (A) (A) (A) (A) (A) (A) (A) (A) (A) (A) (A) (A)
                 (A) (A) (A) (A) (A) (A) (A) (A) (A) (A) (A) (A)
                 (A) (A) (A) (A) (A) (A) (A) (A) (A) (A) (A) (A)
                 (A) (A) (A)
       Virtual   (A) (A) (A) (A) (A) (A) (A) (A) (A) (A) (A) (A)
                 (A) (A) (A) (A) (A) (A) (A) (A) (A) (A) (A) (A)
                 (A) (A) (A) (A) (A) (A) (A) (A) (A) (A) (A) (A)
                 (A) (A) (A) (A) (A) (A) (A) (A) (A) (A) (A) (A)
                 (A) (A) (A) (A) (A) (A) (A) (A) (A) (A) (A) (A)
                 (A) (A) (A) (A) (A) (A) (A) (A) (A) (A) (A) (A)
                 (A) (A) (A) (A) (A) (A) (A) (A) (A) (A) (A) (A)
                 (A) (A) (A) (A) (A) (A) (A) (A) (A) (A) (A) (A)
                 (A) (A) (A) (A) (A) (A) (A) (A) (A) (A) (A) (A)
                 (A) (A) (A) (A) (A) (A) (A) (A) (A) (A) (A) (A)
                 (A) (A) (A) (A) (A) (A) (A) (A) (A) (A) (A) (A)
                 (A) (A) (A)
 The electronic state is 1-A.
 Alpha  occ. eigenvalues --  -19.10331 -19.09995 -14.37035 -14.35851 -10.29028
 Alpha  occ. eigenvalues --  -10.27392 -10.23254 -10.21409 -10.19286 -10.16857
 Alpha  occ. eigenvalues --   -1.03975  -1.02452  -0.93488  -0.92098  -0.78936
 Alpha  occ. eigenvalues --   -0.73187  -0.70208  -0.65469  -0.59583  -0.57635
 Alpha  occ. eigenvalues --   -0.54182  -0.51895  -0.46499  -0.45889  -0.45109
 Alpha  occ. eigenvalues --   -0.44032  -0.41960  -0.41481  -0.40338  -0.39534
 Alpha  occ. eigenvalues --   -0.38455  -0.37976  -0.36520  -0.36172  -0.35730
 Alpha  occ. eigenvalues --   -0.27162  -0.24845  -0.23247  -0.23061
 Alpha virt. eigenvalues --    0.01922   0.04017   0.07406   0.08705   0.11865
 Alpha virt. eigenvalues --    0.12409   0.13942   0.15343   0.16455   0.16724
 Alpha virt. eigenvalues --    0.17049   0.17481   0.18567   0.19638   0.19968
 Alpha virt. eigenvalues --    0.22216   0.23667   0.27572   0.28237   0.31998
 Alpha virt. eigenvalues --    0.36223   0.39988   0.43144   0.49711   0.51226
 Alpha virt. eigenvalues --    0.52455   0.53356   0.53579   0.55902   0.56903
 Alpha virt. eigenvalues --    0.57686   0.59500   0.62739   0.65131   0.65548
 Alpha virt. eigenvalues --    0.67465   0.68719   0.70972   0.71134   0.73230
 Alpha virt. eigenvalues --    0.75464   0.76966   0.79778   0.81753   0.82797
 Alpha virt. eigenvalues --    0.86001   0.86587   0.87103   0.88562   0.88969
 Alpha virt. eigenvalues --    0.89419   0.90380   0.90973   0.91937   0.94566
 Alpha virt. eigenvalues --    0.95474   0.96121   0.98316   1.01058   1.02246
 Alpha virt. eigenvalues --    1.05341   1.09233   1.11979   1.15210   1.18373
 Alpha virt. eigenvalues --    1.22543   1.27104   1.29086   1.32717   1.36159
 Alpha virt. eigenvalues --    1.39260   1.40829   1.44829   1.46028   1.47070
 Alpha virt. eigenvalues --    1.53084   1.53773   1.58922   1.63210   1.70306
 Alpha virt. eigenvalues --    1.73156   1.76741   1.80848   1.82224   1.83267
 Alpha virt. eigenvalues --    1.85667   1.86608   1.89867   1.91307   1.93704
 Alpha virt. eigenvalues --    1.95534   1.96733   1.98695   2.01006   2.03709
 Alpha virt. eigenvalues --    2.06054   2.08353   2.12857   2.15859   2.17025
 Alpha virt. eigenvalues --    2.20117   2.23165   2.27222   2.28609   2.30913
 Alpha virt. eigenvalues --    2.31987   2.37051   2.37891   2.38544   2.41563
 Alpha virt. eigenvalues --    2.44974   2.47712   2.48874   2.59671   2.64536
 Alpha virt. eigenvalues --    2.65131   2.69028   2.73199   2.77514   2.89732
 Alpha virt. eigenvalues --    2.92657   2.99155   3.00313   3.16754   3.19524
 Alpha virt. eigenvalues --    3.96990   3.99745   4.08599   4.17627   4.21190
 Alpha virt. eigenvalues --    4.24876   4.32436   4.38433   4.48212   4.69887
          Condensed to atoms (all electrons):
              1          2          3          4          5          6
     1  H    0.500217   0.359905  -0.020885  -0.020955  -0.017476   0.005059
     2  C    0.359905   5.331462   0.351153   0.350815   0.351809  -0.074558
     3  H   -0.020885   0.351153   0.550507  -0.026170  -0.027591   0.001240
     4  H   -0.020955   0.350815  -0.026170   0.547544  -0.025571   0.001254
     5  C   -0.017476   0.351809  -0.027591  -0.025571   4.359591   0.576230
     6  O    0.005059  -0.074558   0.001240   0.001254   0.576230   8.163455
     7  N    0.004582  -0.136077   0.005213   0.004777   0.248791  -0.099782
     8  H   -0.000133   0.000773   0.000648   0.000797  -0.020272   0.003639
     9  C   -0.000108   0.003775   0.000190  -0.000128  -0.027285  -0.009637
    10  H    0.000002  -0.000236   0.000017   0.000000   0.002783   0.000036
    11  C    0.000006   0.000241  -0.000039   0.000023  -0.005571  -0.047151
    12  H    0.000016   0.000238   0.000004  -0.000030  -0.001726   0.003856
    13  H   -0.000001   0.000036  -0.000002  -0.000001   0.000966   0.004822
    14  H    0.000012  -0.000360   0.000012   0.000004   0.000641  -0.006380
    15  C    0.000002  -0.000148  -0.000001   0.000035  -0.003285  -0.000154
    16  O    0.000000   0.000001   0.000000  -0.000001  -0.000032   0.000001
    17  N    0.000000   0.000000   0.000000   0.000008   0.002575  -0.000544
    18  H    0.000000  -0.000036   0.000001   0.000000   0.000854  -0.000197
    19  C    0.000000  -0.000001   0.000000   0.000000  -0.000067   0.000007
    20  H    0.000000   0.000000   0.000000   0.000000  -0.000001   0.000000
    21  H    0.000000   0.000000   0.000000   0.000000   0.000002   0.000000
    22  H    0.000000   0.000000   0.000000   0.000000  -0.000004   0.000000
              7          8          9         10         11         12
     1  H    0.004582  -0.000133  -0.000108   0.000002   0.000006   0.000016
     2  C   -0.136077   0.000773   0.003775  -0.000236   0.000241   0.000238
     3  H    0.005213   0.000648   0.000190   0.000017  -0.000039   0.000004
     4  H    0.004777   0.000797  -0.000128   0.000000   0.000023  -0.000030
     5  C    0.248791  -0.020272  -0.027285   0.002783  -0.005571  -0.001726
     6  O   -0.099782   0.003639  -0.009637   0.000036  -0.047151   0.003856
     7  N    7.124199   0.306446   0.259014  -0.041377  -0.041271  -0.005670
     8  H    0.306446   0.400921  -0.033483  -0.002674   0.005904  -0.000272
     9  C    0.259014  -0.033483   5.084667   0.372053   0.326091  -0.019740
    10  H   -0.041377  -0.002674   0.372053   0.574443  -0.037481   0.004798
    11  C   -0.041271   0.005904   0.326091  -0.037481   5.216459   0.365430
    12  H   -0.005670  -0.000272  -0.019740   0.004798   0.365430   0.510044
    13  H    0.004176  -0.000078  -0.036308  -0.004234   0.338102  -0.031918
    14  H   -0.001751  -0.000229  -0.020425  -0.004057   0.370967  -0.022101
    15  C   -0.056036   0.000621   0.342255  -0.039176  -0.053581  -0.013122
    16  O   -0.000557   0.002117  -0.077216   0.003117   0.003035  -0.000057
    17  N    0.000390   0.000066  -0.116769   0.005167   0.003179  -0.003411
    18  H   -0.000727  -0.000058  -0.001600   0.000140   0.005702   0.017543
    19  C   -0.000243   0.000003   0.006897  -0.000144   0.000166   0.000290
    20  H   -0.000031  -0.000004   0.001077  -0.000024  -0.000117  -0.000006
    21  H   -0.000005   0.000000  -0.000029   0.000012  -0.000100   0.000058
    22  H    0.000041   0.000000  -0.000300  -0.000001   0.000049  -0.000047
             13         14         15         16         17         18
     1  H   -0.000001   0.000012   0.000002   0.000000   0.000000   0.000000
     2  C    0.000036  -0.000360  -0.000148   0.000001   0.000000  -0.000036
     3  H   -0.000002   0.000012  -0.000001   0.000000   0.000000   0.000001
     4  H   -0.000001   0.000004   0.000035  -0.000001   0.000008   0.000000
     5  C    0.000966   0.000641  -0.003285  -0.000032   0.002575   0.000854
     6  O    0.004822  -0.006380  -0.000154   0.000001  -0.000544  -0.000197
     7  N    0.004176  -0.001751  -0.056036  -0.000557   0.000390  -0.000727
     8  H   -0.000078  -0.000229   0.000621   0.002117   0.000066  -0.000058
     9  C   -0.036308  -0.020425   0.342255  -0.077216  -0.116769  -0.001600
    10  H   -0.004234  -0.004057  -0.039176   0.003117   0.005167   0.000140
    11  C    0.338102   0.370967  -0.053581   0.003035   0.003179   0.005702
    12  H   -0.031918  -0.022101  -0.013122  -0.000057  -0.003411   0.017543
    13  H    0.624002  -0.031735   0.000170   0.000167  -0.000199  -0.002040
    14  H   -0.031735   0.553817   0.004331  -0.000097   0.000593  -0.000211
    15  C    0.000170   0.004331   4.384359   0.591454   0.272697  -0.015924
    16  O    0.000167  -0.000097   0.591454   8.103176  -0.105170   0.003772
    17  N   -0.000199   0.000593   0.272697  -0.105170   7.094826   0.288064
    18  H   -0.002040  -0.000211  -0.015924   0.003772   0.288064   0.391185
    19  C   -0.000267   0.000000  -0.029433  -0.009846   0.266894  -0.028081
    20  H   -0.000007   0.000002  -0.000491   0.022911  -0.038114   0.003542
    21  H    0.000021  -0.000002   0.001350   0.000649  -0.044953  -0.000154
    22  H    0.000003   0.000001   0.001938   0.000602  -0.043100  -0.001167
             19         20         21         22
     1  H    0.000000   0.000000   0.000000   0.000000
     2  C   -0.000001   0.000000   0.000000   0.000000
     3  H    0.000000   0.000000   0.000000   0.000000
     4  H    0.000000   0.000000   0.000000   0.000000
     5  C   -0.000067  -0.000001   0.000002  -0.000004
     6  O    0.000007   0.000000   0.000000   0.000000
     7  N   -0.000243  -0.000031  -0.000005   0.000041
     8  H    0.000003  -0.000004   0.000000   0.000000
     9  C    0.006897   0.001077  -0.000029  -0.000300
    10  H   -0.000144  -0.000024   0.000012  -0.000001
    11  C    0.000166  -0.000117  -0.000100   0.000049
    12  H    0.000290  -0.000006   0.000058  -0.000047
    13  H   -0.000267  -0.000007   0.000021   0.000003
    14  H    0.000000   0.000002  -0.000002   0.000001
    15  C   -0.029433  -0.000491   0.001350   0.001938
    16  O   -0.009846   0.022911   0.000649   0.000602
    17  N    0.266894  -0.038114  -0.044953  -0.043100
    18  H   -0.028081   0.003542  -0.000154  -0.001167
    19  C    4.968170   0.374776   0.383776   0.380723
    20  H    0.374776   0.478909  -0.024634  -0.024124
    21  H    0.383776  -0.024634   0.564134  -0.038765
    22  H    0.380723  -0.024124  -0.038765   0.566602
 Mulliken atomic charges:
              1
     1  H    0.189756
     2  C   -0.538792
     3  H    0.165704
     4  H    0.167597
     5  C    0.584637
     6  O   -0.521196
     7  N   -0.574101
     8  H    0.335266
     9  C   -0.052990
    10  H    0.166837
    11  C   -0.450044
    12  H    0.195824
    13  H    0.134324
    14  H    0.156968
    15  C    0.612137
    16  O   -0.538026
    17  N   -0.582198
    18  H    0.339392
    19  C   -0.313619
    20  H    0.206337
    21  H    0.158640
    22  H    0.157549
 Sum of Mulliken atomic charges =   0.00000
 Mulliken charges with hydrogens summed into heavy atoms:
              1
     2  C   -0.015736
     5  C    0.584637
     6  O   -0.521196
     7  N   -0.238835
     9  C    0.113847
    11  C    0.037071
    15  C    0.612137
    16  O   -0.538026
    17  N   -0.242807
    19  C    0.208907
 Sum of Mulliken charges with hydrogens summed into heavy atoms =   0.00000
 APT atomic charges:
              1
     1  H    0.626745
     2  C   -1.252180
     3  H    0.496827
     4  H    0.310468
     5  C    0.117358
     6  O   -0.318691
     7  N   -0.717221
     8  H    0.638497
     9  C   -0.474432
    10  H    0.500395
    11  C   -1.101976
    12  H    0.263785
    13  H    0.432268
    14  H    0.465560
    15  C   -0.251436
    16  O    0.025390
    17  N   -0.324838
    18  H    0.406401
    19  C   -1.354505
    20  H    0.519794
    21  H    0.575913
    22  H    0.415878
 Sum of APT charges=   0.00000
 APT Atomic charges with hydrogens summed into heavy atoms:
              1
     1  H    0.000000
     2  C    0.181860
     3  H    0.000000
     4  H    0.000000
     5  C    0.117358
     6  O   -0.318691
     7  N   -0.078724
     8  H    0.000000
     9  C    0.025963
    10  H    0.000000
    11  C    0.059637
    12  H    0.000000
    13  H    0.000000
    14  H    0.000000
    15  C   -0.251436
    16  O    0.025390
    17  N    0.081564
    18  H    0.000000
    19  C    0.157080
    20  H    0.000000
    21  H    0.000000
    22  H    0.000000
 Sum of APT charges=   0.00000
 Electronic spatial extent (au):  <R**2>=           1695.3951
 Charge=              0.0000 electrons
 Dipole moment (field-independent basis, Debye):
    X=              1.1014    Y=             -0.2087    Z=             -0.8984  Tot=              1.4366
 Quadrupole moment (field-independent basis, Debye-Ang):
   XX=            -60.0008   YY=            -63.0542   ZZ=            -57.2777
   XY=            -13.3339   XZ=              3.9763   YZ=              0.7300
 Traceless Quadrupole moment (field-independent basis, Debye-Ang):
   XX=              0.1101   YY=             -2.9433   ZZ=              2.8332
   XY=            -13.3339   XZ=              3.9763   YZ=              0.7300
 Octapole moment (field-independent basis, Debye-Ang**2):
  XXX=              5.1509  YYY=             -2.6682  ZZZ=             -1.1425  XYY=              4.9178
  XXY=              1.6233  XXZ=            -13.1566  XZZ=             -0.7837  YZZ=             -0.3132
  YYZ=             -2.5274  XYZ=             -0.8486
 Hexadecapole moment (field-independent basis, Debye-Ang**3):
 XXXX=          -1390.9123 YYYY=           -361.8467 ZZZZ=           -357.2472 XXXY=            -34.4336
 XXXZ=             19.1235 YYYX=            -25.1166 YYYZ=             -6.3457 ZZZX=              0.8872
 ZZZY=             -7.6690 XXYY=           -325.1739 XXZZ=           -291.1296 YYZZ=           -121.8300
 XXYZ=              4.4119 YYXZ=             12.1647 ZZXY=              1.6187
 N-N= 5.682891807892D+02 E-N=-2.293051929524D+03  KE= 4.917138245869D+02
  Exact polarizability:   0.000   0.000   0.000   0.000   0.000   0.000
 Approx polarizability: 106.506   7.558 132.945  -3.647 -14.841  97.118
 Calling FoFJK, ICntrl=    100147 FMM=F ISym2X=0 I1Cent= 0 IOpClX= 0 NMat=1 NMatS=1 NMatT=0.
 ***** Axes restored to original set *****
 -------------------------------------------------------------------
 Center     Atomic                   Forces (Hartrees/Bohr)
 Number     Number              X              Y              Z
 -------------------------------------------------------------------
      1        1           0.003517335    0.001403931   -0.000868878
      2        6           0.007193112    0.004578409    0.005784589
      3        1          -0.004564709   -0.003235127    0.003643276
      4        1          -0.005781763   -0.000062767    0.002674174
      5        6          -0.020942023   -0.017861218   -0.031328949
      6        8          -0.030713729   -0.012975825   -0.010213938
      7        7           0.003902712    0.003390905    0.019557590
      8        1          -0.000576914    0.001666534    0.000365488
      9        6           0.012843563    0.003185075   -0.015285015
     10        1          -0.002054708    0.003507307    0.005454329
     11        6           0.019861853    0.000129947    0.001576274
     12        1           0.016414494   -0.007813977    0.002943182
     13        1           0.006008992    0.001045343    0.005733346
     14        1           0.002937655    0.000216298   -0.005963050
     15        6          -0.001072102    0.001020973    0.030458288
     16        8          -0.001292956    0.001584400    0.005717698
     17        7          -0.003743954    0.012505288   -0.016248774
     18        1          -0.000578494    0.003291229    0.002387295
     19        6          -0.000933342   -0.000920562   -0.002616931
     20        1           0.000292838   -0.002829764    0.000756693
     21        1           0.002075240    0.004148075   -0.002267165
     22        1          -0.002793100    0.004025529   -0.002259521
 -------------------------------------------------------------------
 Cartesian Forces:  Max     0.031328949 RMS     0.009824630

 GradGradGradGradGradGradGradGradGradGradGradGradGradGradGradGradGradGrad
 Berny optimization.
 Internal  Forces:  Max     0.121958285 RMS     0.021931758
 Search for a local minimum.
 Step number   1 out of a maximum of  132
 All quantities printed in internal units (Hartrees-Bohrs-Radians)
 Mixed Optimization -- RFO/linear search
 Second derivative matrix not updated -- analytic derivatives used.
     Eigenvalues ---   -0.02139  -0.00065  -0.00022   0.00309   0.00853
     Eigenvalues ---    0.01408   0.01711   0.02369   0.04186   0.04370
     Eigenvalues ---    0.04585   0.05062   0.05467   0.05759   0.05838
     Eigenvalues ---    0.05973   0.06416   0.06616   0.11238   0.11878
     Eigenvalues ---    0.12446   0.12564   0.13280   0.13441   0.13722
     Eigenvalues ---    0.14225   0.14497   0.17109   0.17807   0.18515
     Eigenvalues ---    0.19035   0.21355   0.22715   0.23529   0.23923
     Eigenvalues ---    0.27355   0.28906   0.30936   0.33877   0.34533
     Eigenvalues ---    0.34570   0.34832   0.34938   0.35084   0.35381
     Eigenvalues ---    0.35522   0.35842   0.35892   0.36234   0.39379
     Eigenvalues ---    0.45916   0.46842   0.50805   0.53699   0.59416
     Eigenvalues ---    0.80701   0.83492   1.803221000.000001000.00000
     Eigenvalues --- 1000.000001000.000001000.000001000.000001000.00000
     Eigenvalues --- 1000.000001000.000001000.000001000.000001000.00000
     Eigenvalues --- 1000.000001000.000001000.000001000.000001000.00000
     Eigenvalues --- 1000.000001000.000001000.000001000.000001000.00000
     Eigenvalues --- 1000.000001000.000001000.000001000.000001000.00000
     Eigenvalues --- 1000.000001000.000001000.000001000.000001000.00000
     Eigenvalues --- 1000.000001000.000001000.000001000.000001000.00000
     Eigenvalues --- 1000.000001000.000001000.00000
 RFO step:  Lambda=-3.96993709D-02 EMin=-2.13901234D-02
 Linear search not attempted -- first point.
 Maximum step size (   0.300) exceeded in Quadratic search.
    -- Step size scaled by   0.305
 Iteration  1 RMS(Cart)=  0.05850800 RMS(Int)=  0.00174373
 Iteration  2 RMS(Cart)=  0.00260764 RMS(Int)=  0.00011089
 Iteration  3 RMS(Cart)=  0.00000334 RMS(Int)=  0.00011087
 Iteration  4 RMS(Cart)=  0.00000000 RMS(Int)=  0.00011087
 Iteration  1 RMS(Cart)=  0.00004299 RMS(Int)=  0.00001462
 Iteration  2 RMS(Cart)=  0.00002311 RMS(Int)=  0.00001631
 Iteration  3 RMS(Cart)=  0.00001260 RMS(Int)=  0.00001841
 Iteration  4 RMS(Cart)=  0.00000702 RMS(Int)=  0.00001983
 Iteration  5 RMS(Cart)=  0.00000401 RMS(Int)=  0.00002069
 Iteration  6 RMS(Cart)=  0.00000237 RMS(Int)=  0.00002120
 Iteration  7 RMS(Cart)=  0.00000145 RMS(Int)=  0.00002150
 Iteration  8 RMS(Cart)=  0.00000091 RMS(Int)=  0.00002169
 Variable       Old X    -DE/DX   Delta X   Delta X   Delta X     New X
                                 (Linear)    (Quad)   (Total)
    R1        2.05987  -0.00085   0.00000  -0.00001  -0.00001   2.05986
    R2        2.05970   0.00464   0.00000   0.00296   0.00296   2.06266
    R3        2.05987   0.00448   0.00000   0.00353   0.00353   2.06340
    R4        2.89121  -0.00046   0.00000  -0.00328  -0.00328   2.88792
    R5        2.32242  -0.00572   0.00000   0.00074   0.00074   2.32316
    R6        2.52294   0.05629   0.00000   0.01446   0.01446   2.53740
    R7        1.90870   0.00060   0.00000   0.00018   0.00018   1.90888
    R8        2.73817   0.05323   0.00000   0.00984   0.00984   2.74801
    R9        2.05975   0.00245   0.00000   0.00208   0.00208   2.06183
   R10        2.88188   0.02215   0.00000   0.00754   0.00754   2.88942
   R11        2.87618   0.02348   0.00000   0.00596   0.00596   2.88214
   R12        2.05972  -0.01269   0.00000  -0.00549  -0.00549   2.05423
   R13        2.05984   0.00596   0.00000   0.00242   0.00242   2.06227
   R14        2.05966   0.00023   0.00000   0.00479   0.00479   2.06445
   R15        2.32257   0.00579   0.00000  -0.00122  -0.00122   2.32134
   R16        2.52279   0.02735   0.00000   0.01255   0.01255   2.53534
   R17        1.90861  -0.00383   0.00000   0.00021   0.00021   1.90883
   R18        2.73833   0.00510   0.00000   0.00143   0.00143   2.73976
   R19        2.05963  -0.00051   0.00000   0.00039   0.00039   2.06002
   R20        2.05980   0.00427   0.00000   0.00300   0.00300   2.06280
   R21        2.05985   0.00433   0.00000   0.00360   0.00360   2.06345
    A1        1.91116  -0.00016   0.00000   0.00179   0.00182   1.91299
    A2        1.91101   0.00003   0.00000  -0.00373  -0.00376   1.90726
    A3        1.93901  -0.00788   0.00000  -0.01119  -0.01119   1.92782
    A4        1.91015  -0.00516   0.00000  -0.00706  -0.00711   1.90304
    A5        1.89610   0.00685   0.00000   0.01772   0.01771   1.91381
    A6        1.89612   0.00636   0.00000   0.00257   0.00254   1.89866
    A7        2.10322  -0.02042   0.00000   0.00746   0.00725   2.11047
    A8        2.03502  -0.03832   0.00000  -0.00795  -0.00815   2.02686
    A9        2.14495   0.05874   0.00000   0.00048   0.00028   2.14523
   A10        2.09432  -0.06043   0.00000  -0.00473  -0.00486   2.08947
   A11        2.12756   0.12196   0.00000   0.01289   0.01276   2.14033
   A12        2.06130  -0.06153   0.00000  -0.00817  -0.00829   2.05300
   A13        1.91114  -0.01401   0.00000  -0.01260  -0.01276   1.89838
   A14        1.93905   0.05872   0.00000   0.01100   0.01088   1.94993
   A15        1.93900  -0.03256   0.00000  -0.01285  -0.01357   1.92544
   A16        1.89609  -0.02403   0.00000  -0.01718  -0.01702   1.87907
   A17        1.89608   0.00320   0.00000  -0.01103  -0.01110   1.88498
   A18        1.88137   0.00803   0.00000   0.04267   0.04274   1.92412
   A19        1.91115   0.02033   0.00000   0.02404   0.02400   1.93515
   A20        1.91106  -0.01113   0.00000  -0.00374  -0.00381   1.90726
   A21        1.91110   0.00728   0.00000  -0.00441  -0.00441   1.90669
   A22        1.91011  -0.00380   0.00000   0.00309   0.00300   1.91310
   A23        1.91023  -0.01045   0.00000  -0.01542  -0.01539   1.89484
   A24        1.91015  -0.00224   0.00000  -0.00356  -0.00359   1.90656
   A25        2.10310  -0.00956   0.00000   0.00565   0.00564   2.10874
   A26        2.03505   0.01578   0.00000  -0.01360  -0.01362   2.02143
   A27        2.14504  -0.00622   0.00000   0.00795   0.00793   2.15297
   A28        2.09441   0.00035   0.00000  -0.00925  -0.00930   2.08512
   A29        2.12752   0.00209   0.00000   0.00539   0.00534   2.13286
   A30        2.06126  -0.00244   0.00000   0.00387   0.00382   2.06507
   A31        1.91116  -0.00601   0.00000  -0.00936  -0.00935   1.90181
   A32        1.91113   0.00433   0.00000   0.00519   0.00518   1.91630
   A33        1.91113   0.00493   0.00000   0.00913   0.00912   1.92025
   A34        1.91015   0.00003   0.00000   0.00062   0.00063   1.91078
   A35        1.91019  -0.00010   0.00000  -0.00209  -0.00207   1.90813
   A36        1.91004  -0.00319   0.00000  -0.00350  -0.00354   1.90650
    D1       -0.00007   0.00074   0.00000   0.07456   0.07461   0.07454
    D2        3.14150  -0.00075   0.00000   0.03796   0.03795  -3.10373
    D3        2.10331   0.00010   0.00000   0.08130   0.08130   2.18460
    D4       -1.03831  -0.00138   0.00000   0.04470   0.04464  -0.99367
    D5       -2.10327   0.00146   0.00000   0.08444   0.08448  -2.01878
    D6        1.03830  -0.00002   0.00000   0.04785   0.04783   1.08613
    D7        0.00001  -0.00321   0.00000  -0.05254  -0.05253  -0.05252
    D8        3.14151  -0.00049   0.00000  -0.08303  -0.08314   3.05838
    D9        3.14158  -0.00473   0.00000  -0.09009  -0.08999   3.05159
   D10       -0.00011  -0.00201   0.00000  -0.12058  -0.12059  -0.12070
   D11       -2.35613  -0.01239   0.00000  -0.03003  -0.02989  -2.38602
   D12       -0.26169  -0.01431   0.00000  -0.05265  -0.05249  -0.31418
   D13        1.83266   0.01330   0.00000   0.00000   0.00000   1.83266
   D14        0.78537  -0.00972   0.00000  -0.05997  -0.05989   0.72548
   D15        2.87981  -0.01164   0.00000  -0.08259  -0.08249   2.79732
   D16       -1.30902   0.01597   0.00000  -0.02994  -0.03000  -1.33902
   D17        1.04724   0.00155   0.00000   0.01645   0.01664   1.06388
   D18        3.14157   0.00253   0.00000   0.03268   0.03292  -3.10870
   D19       -1.04726  -0.00258   0.00000   0.02332   0.02355  -1.02371
   D20       -3.13259   0.00500   0.00000  -0.00344  -0.00343  -3.13602
   D21       -1.03826   0.00598   0.00000   0.01279   0.01285  -1.02541
   D22        1.05609   0.00087   0.00000   0.00342   0.00349   1.05958
   D23       -1.08102   0.00026   0.00000  -0.00238  -0.00269  -1.08371
   D24        1.01331   0.00125   0.00000   0.01385   0.01359   1.02690
   D25        3.10766  -0.00386   0.00000   0.00448   0.00423   3.11189
   D26        1.57082  -0.03116   0.00000  -0.01041  -0.01038   1.56044
   D27       -1.57081  -0.02865   0.00000   0.00000   0.00000  -1.57081
   D28       -0.53250   0.00427   0.00000   0.02027   0.02025  -0.51225
   D29        2.60906   0.00678   0.00000   0.03068   0.03062   2.63968
   D30       -2.58408   0.02662   0.00000   0.02319   0.02317  -2.56091
   D31        0.55748   0.02912   0.00000   0.03359   0.03354   0.59102
   D32        0.00008  -0.00137   0.00000   0.00991   0.00988   0.00996
   D33        3.14158  -0.00182   0.00000  -0.00820  -0.00815   3.13343
   D34       -3.14155   0.00121   0.00000   0.02059   0.02054  -3.12100
   D35       -0.00005   0.00076   0.00000   0.00248   0.00252   0.00247
   D36        0.00005   0.00030   0.00000   0.03866   0.03868   0.03873
   D37        2.09448  -0.00069   0.00000   0.03686   0.03687   2.13135
   D38       -2.09443   0.00109   0.00000   0.04135   0.04140  -2.05302
   D39        3.14155  -0.00014   0.00000   0.02088   0.02085  -3.12078
   D40       -1.04720  -0.00113   0.00000   0.01909   0.01904  -1.02816
   D41        1.04707   0.00065   0.00000   0.02358   0.02357   1.07065
         Item               Value     Threshold  Converged?
 Maximum Force            0.121958     0.000450     NO 
 RMS     Force            0.021636     0.000300     NO 
 Maximum Displacement     0.283142     0.001800     NO 
 RMS     Displacement     0.058354     0.001200     NO 
 Predicted change in Energy=-1.189313D-02
 GradGradGradGradGradGradGradGradGradGradGradGradGradGradGradGradGradGrad

                          Input orientation:                          
 ---------------------------------------------------------------------
 Center     Atomic      Atomic             Coordinates (Angstroms)
 Number     Number       Type             X           Y           Z
 ---------------------------------------------------------------------
      1          1           0        1.352196    2.271418   -1.883042
      2          6           0        1.675276    2.722086   -0.944594
      3          1           0        1.774231    1.947957   -0.181486
      4          1           0        0.929572    3.450111   -0.618767
      5          6           0        3.013495    3.436878   -1.128193
      6          8           0        3.539576    3.517932   -2.236347
      7          7           0        3.540971    3.996424   -0.027460
      8          1           0        3.029791    3.967019    0.843287
      9          6           0        4.853317    4.622773   -0.018189
     10          1           0        5.381141    4.318501    0.886941
     11          6           0        5.697166    4.186318   -1.216235
     12          1           0        5.219507    4.470295   -2.150513
     13          1           0        6.682036    4.651994   -1.152012
     14          1           0        5.810929    3.099921   -1.199888
     15          6           0        4.715166    6.141494    0.004742
     16          8           0        4.647421    6.751326    1.068925
     17          7           0        4.662093    6.741584   -1.194044
     18          1           0        4.705369    6.180577   -2.032922
     19          6           0        4.521597    8.177816   -1.333605
     20          1           0        4.512279    8.630885   -0.342145
     21          1           0        5.359279    8.577092   -1.908429
     22          1           0        3.587593    8.413900   -1.847622
 ---------------------------------------------------------------------
                    Distance matrix (angstroms):
                    1          2          3          4          5
     1  H    0.000000
     2  C    1.090031   0.000000
     3  H    1.782704   1.091513   0.000000
     4  H    1.779416   1.091906   1.777957   0.000000
     5  C    2.165181   1.528224   2.156135   2.145327   0.000000
     6  O    2.542293   2.403666   3.131089   3.071365   1.229364
     7  N    3.348070   2.438420   2.709486   2.732675   1.342735
     8  H    3.622466   2.565364   2.589055   2.610693   2.041581
     9  C    4.611333   3.817169   4.081921   4.139034   2.454262
    10  H    5.300543   4.431309   4.446439   4.778883   3.231683
    11  C    4.794814   4.288749   4.633615   4.860959   2.787741
    12  H    4.456758   4.131833   4.702040   4.668036   2.641888
    13  H    5.882920   5.369843   5.686852   5.900823   3.864617
    14  H    4.586220   4.160717   4.319618   4.928284   2.818566
    15  C    5.463587   4.672742   5.125381   4.686473   3.390306
    16  O    6.296205   5.396544   5.735077   5.250593   4.299141
    17  N    5.604688   5.013947   5.687168   5.009636   3.693683
    18  H    5.152452   4.725155   5.471240   4.869489   3.347963
    19  C    6.725512   6.165862   6.905544   5.980370   4.979262
    20  H    7.266589   6.582206   7.223867   6.304977   5.462777
    21  H    7.471204   6.984408   7.731775   6.897207   5.703795
    22  H    6.536692   6.071998   6.919011   5.763190   5.061414
                    6          7          8          9         10
     6  O    0.000000
     7  N    2.260119   0.000000
     8  H    3.153682   1.010134   0.000000
     9  C    2.804784   1.454183   2.120708   0.000000
    10  H    3.713112   2.079925   2.377875   1.091073   0.000000
    11  C    2.478419   2.469499   3.377072   1.529016   2.130891
    12  H    1.933011   2.747615   3.743125   2.168905   3.045537
    13  H    3.512397   3.400100   4.217737   2.151888   2.441491
    14  H    2.531408   2.707585   3.558252   2.152327   2.454488
    15  C    3.645212   2.445628   2.876106   1.525164   2.131925
    16  O    4.754680   3.164771   3.228003   2.398947   2.547568
    17  N    3.569086   3.186493   3.809638   2.430753   3.273968
    18  H    2.913784   3.185628   3.997497   2.551037   3.528399
    19  C    4.847043   4.489062   4.969421   3.805087   4.534749
    20  H    5.538632   4.745597   5.035341   4.035618   4.567519
    21  H    5.386460   5.275112   5.852455   4.411989   5.094131
    22  H    4.911610   4.777997   5.227512   4.395626   5.240892
                   11         12         13         14         15
    11  C    0.000000
    12  H    1.087049   0.000000
    13  H    1.091305   1.780172   0.000000
    14  H    1.092459   1.769574   1.780463   0.000000
    15  C    2.505558   2.773516   2.724934   3.450072   0.000000
    16  O    3.592101   3.986875   3.671433   4.453541   1.228402
    17  N    2.757037   2.526717   2.906600   3.818582   1.341646
    18  H    2.372279   1.789757   2.649487   3.377373   2.038063
    19  C    4.162667   3.860069   4.139069   5.240732   2.444432
    20  H    4.682111   4.591392   4.603836   5.745761   2.521619
    21  H    4.457824   4.116300   4.210493   5.541247   3.163423
    22  H    4.766697   4.278657   4.920507   5.796650   3.141099
                   16         17         18         19         20
    16  O    0.000000
    17  N    2.263038   0.000000
    18  H    3.154452   1.010108   0.000000
    19  C    2.796937   1.449820   2.124095   0.000000
    20  H    2.354171   2.077891   2.983290   1.090115   0.000000
    21  H    3.564379   2.089379   2.487244   1.091585   1.781446
    22  H    3.520460   2.092452   2.504295   1.091931   1.780053
                   21         22
    21  H    0.000000
    22  H    1.780226   0.000000
 Stoichiometry    C6H12N2O2
 Framework group  C1[X(C6H12N2O2)]
 Deg. of freedom    60
 Full point group                 C1      NOp   1
 Largest Abelian subgroup         C1      NOp   1
 Largest concise Abelian subgroup C1      NOp   1
                         Standard orientation:                         
 ---------------------------------------------------------------------
 Center     Atomic      Atomic             Coordinates (Angstroms)
 Number     Number       Type             X           Y           Z
 ---------------------------------------------------------------------
      1          1           0       -3.800905   -0.583659   -1.273629
      2          6           0       -3.141637    0.269818   -1.115172
      3          1           0       -3.692729    1.071331   -0.619919
      4          1           0       -2.779858    0.629974   -2.080398
      5          6           0       -1.941634   -0.133886   -0.259320
      6          8           0       -1.776471   -1.302122    0.086052
      7          7           0       -1.075722    0.846225    0.044847
      8          1           0       -1.217839    1.773814   -0.328986
      9          6           0        0.058145    0.643291    0.932436
     10          1           0        0.130914    1.495753    1.609529
     11          6           0       -0.109310   -0.614186    1.786017
     12          1           0       -0.181781   -1.500213    1.160414
     13          1           0        0.744829   -0.709499    2.458557
     14          1           0       -1.024595   -0.529401    2.376382
     15          6           0        1.352496    0.567440    0.129301
     16          8           0        1.997796    1.582093   -0.121771
     17          7           0        1.714682   -0.657514   -0.280970
     18          1           0        1.130089   -1.449957   -0.056016
     19          6           0        2.914400   -0.887516   -1.061835
     20          1           0        3.436720    0.059840   -1.196185
     21          1           0        3.565609   -1.591475   -0.540370
     22          1           0        2.651471   -1.297029   -2.039322
 ---------------------------------------------------------------------
 Rotational constants (GHZ):      2.1870132      0.7894567      0.7708212
 Standard basis: 6-31G(d) (6D, 7F)
 There are   174 symmetry adapted basis functions of A   symmetry.
 Integral buffers will be    131072 words long.
 Raffenetti 2 integral format.
 Two-electron integral symmetry is turned on.
   174 basis functions,   328 primitive gaussians,   174 cartesian basis functions
    39 alpha electrons       39 beta electrons
       nuclear repulsion energy       566.0654266622 Hartrees.
 NAtoms=   22 NActive=   22 NUniq=   22 SFac= 7.50D-01 NAtFMM=   80 NAOKFM=F Big=F
 One-electron integrals computed using PRISM.
 NBasis=   174 RedAO= T  NBF=   174
 NBsUse=   174 1.00D-06 NBFU=   174
 Initial guess read from the read-write file.
 B after Tr=     0.000000    0.000000    0.000000
         Rot=    1.000000    0.000000    0.000000    0.000000 Ang=   0.00 deg.
 Initial guess orbital symmetries:
       Occupied  (A) (A) (A) (A) (A) (A) (A) (A) (A) (A) (A) (A)
                 (A) (A) (A) (A) (A) (A) (A) (A) (A) (A) (A) (A)
                 (A) (A) (A) (A) (A) (A) (A) (A) (A) (A) (A) (A)
                 (A) (A) (A)
       Virtual   (A) (A) (A) (A) (A) (A) (A) (A) (A) (A) (A) (A)
                 (A) (A) (A) (A) (A) (A) (A) (A) (A) (A) (A) (A)
                 (A) (A) (A) (A) (A) (A) (A) (A) (A) (A) (A) (A)
                 (A) (A) (A) (A) (A) (A) (A) (A) (A) (A) (A) (A)
                 (A) (A) (A) (A) (A) (A) (A) (A) (A) (A) (A) (A)
                 (A) (A) (A) (A) (A) (A) (A) (A) (A) (A) (A) (A)
                 (A) (A) (A) (A) (A) (A) (A) (A) (A) (A) (A) (A)
                 (A) (A) (A) (A) (A) (A) (A) (A) (A) (A) (A) (A)
                 (A) (A) (A) (A) (A) (A) (A) (A) (A) (A) (A) (A)
                 (A) (A) (A) (A) (A) (A) (A) (A) (A) (A) (A) (A)
                 (A) (A) (A) (A) (A) (A) (A) (A) (A) (A) (A) (A)
                 (A) (A) (A)
 Harris functional with IExCor=  402 diagonalized for initial guess.
 ExpMin= 1.61D-01 ExpMax= 5.48D+03 ExpMxC= 8.25D+02 IAcc=1 IRadAn=         1 AccDes= 0.00D+00
 HarFok:  IExCor=  402 AccDes= 0.00D+00 IRadAn=         1 IDoV= 1
 ScaDFX=  1.000000  1.000000  1.000000  1.000000
 FoFCou: FMM=F IPFlag=           0 FMFlag=      100000 FMFlg1=           0
         NFxFlg=           0 DoJE=T BraDBF=F KetDBF=T FulRan=T
         Omega=  0.000000  0.000000  1.000000  0.000000  0.000000 ICntrl=     500 IOpCl=  0
         NMat0=    1 NMatS0=    1 NMatT0=    0 NMatD0=    1 NMtDS0=    0 NMtDT0=    0
         I1Cent=           4 NGrid=           0.
 Petite list used in FoFCou.
 Requested convergence on RMS density matrix=1.00D-08 within 128 cycles.
 Requested convergence on MAX density matrix=1.00D-06.
 Requested convergence on             energy=1.00D-06.
 No special actions if energy rises.
 Integral accuracy reduced to 1.0D-05 until final iterations.
 Initial convergence to 1.0D-05 achieved.  Increase integral accuracy.
 SCF Done:  E(RB3LYP) =  -495.825539703     A.U. after   16 cycles
             Convg  =    0.6641D-08             -V/T =  2.0086
 Calling FoFJK, ICntrl=      2127 FMM=F ISym2X=0 I1Cent= 0 IOpClX= 0 NMat=1 NMatS=1 NMatT=0.
 ***** Axes restored to original set *****
 -------------------------------------------------------------------
 Center     Atomic                   Forces (Hartrees/Bohr)
 Number     Number              X              Y              Z
 -------------------------------------------------------------------
      1        1           0.002482510    0.001199688   -0.000750745
      2        6           0.005976025    0.002964496    0.004513584
      3        1          -0.003283629   -0.002462166    0.002686959
      4        1          -0.004271279   -0.000347291    0.001986314
      5        6          -0.018390637   -0.007412858   -0.024722649
      6        8          -0.021144561   -0.007956392   -0.006586902
      7        7           0.004552442   -0.000667981    0.014457393
      8        1           0.000119198    0.000077494    0.000588464
      9        6           0.010088234    0.001287239   -0.011833804
     10        1          -0.002563277    0.003392315    0.004822948
     11        6           0.014602260   -0.000912225    0.002769147
     12        1           0.010769819   -0.006138380    0.002100635
     13        1           0.004310731    0.000117975    0.004436034
     14        1           0.002226030    0.000142446   -0.004253332
     15        6          -0.000273430    0.001003171    0.020355530
     16        8          -0.000851191    0.000950106    0.004010309
     17        7          -0.001879617    0.009443275   -0.011647823
     18        1          -0.001099210    0.002224160    0.001743387
     19        6          -0.000976454   -0.000957200   -0.002104323
     20        1           0.000261001   -0.002087895    0.000591134
     21        1           0.001432747    0.003108091   -0.001653295
     22        1          -0.002087713    0.003031933   -0.001508964
 -------------------------------------------------------------------
 Cartesian Forces:  Max     0.024722649 RMS     0.007120335

 GradGradGradGradGradGradGradGradGradGradGradGradGradGradGradGradGradGrad
 Berny optimization.
 Using GEDIIS/GDIIS optimizer.
 Internal  Forces:  Max     0.083618478 RMS     0.015179065
 Search for a local minimum.
 Step number   2 out of a maximum of  132
 All quantities printed in internal units (Hartrees-Bohrs-Radians)
 Mixed Optimization -- RFO/linear search
 Update second derivatives using D2CorX and points    1    2
 DE= -1.17D-02 DEPred=-1.19D-02 R= 9.80D-01
 SS=  1.41D+00  RLast= 3.00D-01 DXNew= 5.0454D-01 8.9998D-01
 Trust test= 9.80D-01 RLast= 3.00D-01 DXMaxT set to 5.05D-01
 Use linear search instead of GDIIS.
 Linear search step of   0.568 exceeds DXMaxT=   0.505 but not scaled.
 Quartic linear search produced a step of  1.91420.
 Iteration  1 RMS(Cart)=  0.10832303 RMS(Int)=  0.00654926
 Iteration  2 RMS(Cart)=  0.01081873 RMS(Int)=  0.00063311
 Iteration  3 RMS(Cart)=  0.00009211 RMS(Int)=  0.00062923
 Iteration  4 RMS(Cart)=  0.00000002 RMS(Int)=  0.00062923
 Iteration  1 RMS(Cart)=  0.00027825 RMS(Int)=  0.00009547
 Iteration  2 RMS(Cart)=  0.00015148 RMS(Int)=  0.00010652
 Iteration  3 RMS(Cart)=  0.00008331 RMS(Int)=  0.00012039
 Iteration  4 RMS(Cart)=  0.00004650 RMS(Int)=  0.00012978
 Iteration  5 RMS(Cart)=  0.00002648 RMS(Int)=  0.00013550
 Iteration  6 RMS(Cart)=  0.00001546 RMS(Int)=  0.00013889
 Iteration  7 RMS(Cart)=  0.00000928 RMS(Int)=  0.00014089
 Iteration  8 RMS(Cart)=  0.00000573 RMS(Int)=  0.00014208
 Iteration  9 RMS(Cart)=  0.00000363 RMS(Int)=  0.00014279
 Iteration 10 RMS(Cart)=  0.00000235 RMS(Int)=  0.00014323
 Iteration 11 RMS(Cart)=  0.00000154 RMS(Int)=  0.00014350
 Iteration 12 RMS(Cart)=  0.00000103 RMS(Int)=  0.00014366
 Iteration 13 RMS(Cart)=  0.00000069 RMS(Int)=  0.00014377
 Variable       Old X    -DE/DX   Delta X   Delta X   Delta X     New X
                                 (Linear)    (Quad)   (Total)
    R1        2.05986  -0.00059  -0.00002   0.00000  -0.00002   2.05984
    R2        2.06266   0.00333   0.00567   0.00000   0.00567   2.06833
    R3        2.06340   0.00328   0.00676   0.00000   0.00676   2.07016
    R4        2.88792  -0.00041  -0.00628   0.00000  -0.00628   2.88164
    R5        2.32316  -0.00364   0.00142   0.00000   0.00142   2.32458
    R6        2.53740   0.03976   0.02769   0.00000   0.02769   2.56509
    R7        1.90888   0.00044   0.00034   0.00000   0.00034   1.90921
    R8        2.74801   0.03698   0.01883   0.00000   0.01883   2.76684
    R9        2.06183   0.00181   0.00399   0.00000   0.00399   2.06582
   R10        2.88942   0.01559   0.01443   0.00000   0.01443   2.90385
   R11        2.88214   0.01729   0.01141   0.00000   0.01141   2.89356
   R12        2.05423  -0.00814  -0.01052   0.00000  -0.01052   2.04371
   R13        2.06227   0.00420   0.00464   0.00000   0.00464   2.06691
   R14        2.06445   0.00002   0.00917   0.00000   0.00917   2.07362
   R15        2.32134   0.00399  -0.00234   0.00000  -0.00234   2.31900
   R16        2.53534   0.01981   0.02403   0.00000   0.02403   2.55938
   R17        1.90883  -0.00273   0.00041   0.00000   0.00041   1.90924
   R18        2.73976   0.00365   0.00274   0.00000   0.00274   2.74251
   R19        2.06002  -0.00033   0.00075   0.00000   0.00075   2.06077
   R20        2.06280   0.00310   0.00573   0.00000   0.00573   2.06853
   R21        2.06345   0.00316   0.00690   0.00000   0.00690   2.07035
    A1        1.91299  -0.00008   0.00349   0.00000   0.00366   1.91664
    A2        1.90726  -0.00006  -0.00719   0.00000  -0.00731   1.89995
    A3        1.92782  -0.00583  -0.02142   0.00000  -0.02138   1.90644
    A4        1.90304  -0.00391  -0.01361   0.00000  -0.01388   1.88916
    A5        1.91381   0.00513   0.03390   0.00000   0.03385   1.94767
    A6        1.89866   0.00477   0.00486   0.00000   0.00466   1.90332
    A7        2.11047  -0.01321   0.01389   0.00000   0.01269   2.12316
    A8        2.02686  -0.02628  -0.01561   0.00000  -0.01676   2.01010
    A9        2.14523   0.03944   0.00054   0.00000  -0.00059   2.14465
   A10        2.08947  -0.04124  -0.00930   0.00000  -0.01005   2.07941
   A11        2.14033   0.08362   0.02443   0.00000   0.02372   2.16405
   A12        2.05300  -0.04229  -0.01588   0.00000  -0.01656   2.03644
   A13        1.89838  -0.00960  -0.02443   0.00000  -0.02540   1.87298
   A14        1.94993   0.04037   0.02083   0.00000   0.02009   1.97002
   A15        1.92544  -0.02408  -0.02597   0.00000  -0.02993   1.89551
   A16        1.87907  -0.01651  -0.03258   0.00000  -0.03154   1.84753
   A17        1.88498   0.00209  -0.02124   0.00000  -0.02173   1.86326
   A18        1.92412   0.00652   0.08182   0.00000   0.08229   2.00640
   A19        1.93515   0.01456   0.04595   0.00000   0.04577   1.98092
   A20        1.90726  -0.00768  -0.00729   0.00000  -0.00767   1.89958
   A21        1.90669   0.00499  -0.00844   0.00000  -0.00841   1.89828
   A22        1.91310  -0.00244   0.00574   0.00000   0.00520   1.91830
   A23        1.89484  -0.00774  -0.02946   0.00000  -0.02926   1.86559
   A24        1.90656  -0.00182  -0.00688   0.00000  -0.00705   1.89951
   A25        2.10874  -0.00719   0.01079   0.00000   0.01070   2.11943
   A26        2.02143   0.01178  -0.02606   0.00000  -0.02616   1.99528
   A27        2.15297  -0.00461   0.01518   0.00000   0.01509   2.16806
   A28        2.08512   0.00020  -0.01780   0.00000  -0.01803   2.06708
   A29        2.13286   0.00142   0.01022   0.00000   0.00997   2.14283
   A30        2.06507  -0.00163   0.00731   0.00000   0.00705   2.07212
   A31        1.90181  -0.00450  -0.01790   0.00000  -0.01782   1.88399
   A32        1.91630   0.00327   0.00991   0.00000   0.00983   1.92613
   A33        1.92025   0.00372   0.01747   0.00000   0.01741   1.93766
   A34        1.91078  -0.00001   0.00121   0.00000   0.00126   1.91204
   A35        1.90813  -0.00010  -0.00396   0.00000  -0.00385   1.90428
   A36        1.90650  -0.00239  -0.00678   0.00000  -0.00698   1.89952
    D1        0.07454   0.00042   0.14282   0.00000   0.14309   0.21763
    D2       -3.10373  -0.00041   0.07265   0.00000   0.07262  -3.03111
    D3        2.18460  -0.00008   0.15562   0.00000   0.15559   2.34019
    D4       -0.99367  -0.00092   0.08545   0.00000   0.08512  -0.90855
    D5       -2.01878   0.00105   0.16172   0.00000   0.16193  -1.85685
    D6        1.08613   0.00021   0.09155   0.00000   0.09146   1.17759
    D7       -0.05252  -0.00360  -0.10055   0.00000  -0.10049  -0.15301
    D8        3.05838  -0.00080  -0.15914   0.00000  -0.15976   2.89862
    D9        3.05159  -0.00571  -0.17225   0.00000  -0.17163   2.87996
   D10       -0.12070  -0.00291  -0.23084   0.00000  -0.23090  -0.35159
   D11       -2.38602  -0.01066  -0.05722   0.00000  -0.05631  -2.44234
   D12       -0.31418  -0.01275  -0.10047   0.00000  -0.09940  -0.41357
   D13        1.83266   0.00667  -0.00001   0.00000   0.00000   1.83266
   D14        0.72548  -0.00796  -0.11465   0.00000  -0.11416   0.61132
   D15        2.79732  -0.01004  -0.15790   0.00000  -0.15724   2.64008
   D16       -1.33902   0.00938  -0.05743   0.00000  -0.05784  -1.39687
   D17        1.06388   0.00150   0.03185   0.00000   0.03295   1.09683
   D18       -3.10870   0.00270   0.06302   0.00000   0.06440  -3.04430
   D19       -1.02371  -0.00112   0.04509   0.00000   0.04647  -0.97724
   D20       -3.13602   0.00301  -0.00656   0.00000  -0.00649   3.14068
   D21       -1.02541   0.00421   0.02460   0.00000   0.02496  -1.00045
   D22        1.05958   0.00039   0.00667   0.00000   0.00703   1.06661
   D23       -1.08371  -0.00049  -0.00514   0.00000  -0.00688  -1.09059
   D24        1.02690   0.00071   0.02602   0.00000   0.02457   1.05147
   D25        3.11189  -0.00311   0.00809   0.00000   0.00664   3.11853
   D26        1.56044  -0.02092  -0.01986   0.00000  -0.01963   1.54081
   D27       -1.57081  -0.01890   0.00000   0.00000   0.00000  -1.57081
   D28       -0.51225   0.00327   0.03875   0.00000   0.03856  -0.47370
   D29        2.63968   0.00529   0.05861   0.00000   0.05819   2.69786
   D30       -2.56091   0.01827   0.04435   0.00000   0.04420  -2.51671
   D31        0.59102   0.02029   0.06421   0.00000   0.06383   0.65485
   D32        0.00996  -0.00076   0.01891   0.00000   0.01875   0.02871
   D33        3.13343  -0.00147  -0.01560   0.00000  -0.01532   3.11811
   D34       -3.12100   0.00133   0.03932   0.00000   0.03905  -3.08196
   D35        0.00247   0.00062   0.00482   0.00000   0.00498   0.00744
   D36        0.03873   0.00042   0.07404   0.00000   0.07416   0.11289
   D37        2.13135  -0.00038   0.07058   0.00000   0.07062   2.20197
   D38       -2.05302   0.00106   0.07926   0.00000   0.07952  -1.97350
   D39       -3.12078  -0.00027   0.03991   0.00000   0.03974  -3.08104
   D40       -1.02816  -0.00106   0.03645   0.00000   0.03621  -0.99196
   D41        1.07065   0.00038   0.04513   0.00000   0.04511   1.11576
         Item               Value     Threshold  Converged?
 Maximum Force            0.083631     0.000450     NO 
 RMS     Force            0.015020     0.000300     NO 
 Maximum Displacement     0.541828     0.001800     NO 
 RMS     Displacement     0.110578     0.001200     NO 
 Predicted change in Energy=-1.439300D-02
 GradGradGradGradGradGradGradGradGradGradGradGradGradGradGradGradGradGrad

                          Input orientation:                          
 ---------------------------------------------------------------------
 Center     Atomic      Atomic             Coordinates (Angstroms)
 Number     Number       Type             X           Y           Z
 ---------------------------------------------------------------------
      1          1           0        1.375013    2.218570   -1.863198
      2          6           0        1.694254    2.679844   -0.928610
      3          1           0        1.882857    1.905706   -0.178213
      4          1           0        0.890212    3.326130   -0.559943
      5          6           0        2.935881    3.527127   -1.185113
      6          8           0        3.303568    3.804655   -2.325711
      7          7           0        3.516425    4.051259   -0.075720
      8          1           0        3.040385    3.973655    0.812028
      9          6           0        4.857273    4.638933   -0.053506
     10          1           0        5.335045    4.324181    0.878008
     11          6           0        5.757175    4.116585   -1.184269
     12          1           0        5.393655    4.361841   -2.172859
     13          1           0        6.765171    4.518589   -1.047712
     14          1           0        5.801121    3.021855   -1.123247
     15          6           0        4.721763    6.162688    0.012787
     16          8           0        4.636373    6.751521    1.086057
     17          7           0        4.669454    6.771146   -1.196073
     18          1           0        4.696214    6.195516   -2.025947
     19          6           0        4.513395    8.206057   -1.347284
     20          1           0        4.569409    8.656457   -0.355711
     21          1           0        5.310040    8.611267   -1.979226
     22          1           0        3.545318    8.450718   -1.798139
 ---------------------------------------------------------------------
                    Distance matrix (angstroms):
                    1          2          3          4          5
     1  H    0.000000
     2  C    1.090020   0.000000
     3  H    1.787446   1.094512   0.000000
     4  H    1.777693   1.095484   1.774448   0.000000
     5  C    2.146726   1.524900   2.179843   2.148488   0.000000
     6  O    2.539470   2.409768   3.199403   3.028401   1.230114
     7  N    3.337585   2.434852   2.698601   2.767180   1.357387
     8  H    3.607024   2.552613   2.568436   2.631509   2.049117
     9  C    4.610778   3.822110   4.041440   4.209217   2.491665
    10  H    5.256392   4.384411   4.345368   4.777065   3.263088
    11  C    4.823561   4.317048   4.572797   4.970104   2.882214
    12  H    4.564973   4.250039   4.726195   4.894405   2.777236
    13  H    5.916833   5.395310   5.605371   6.014568   3.957946
    14  H    4.558862   4.125677   4.182305   4.952467   2.910107
    15  C    5.502374   4.709803   5.120329   4.801549   3.401547
    16  O    6.315236   5.412346   5.715081   5.336323   4.294950
    17  N    5.659005   5.065777   5.698567   5.153200   3.678185
    18  H    5.183914   4.751406   5.452667   4.986802   3.305461
    19  C    6.779793   6.217867   6.926823   6.128707   4.940367
    20  H    7.343232   6.656923   7.267854   6.480014   5.446681
    21  H    7.507628   7.025630   7.742983   7.034339   5.667074
    22  H    6.599554   6.122540   6.944431   5.902891   4.998895
                    6          7          8          9         10
     6  O    0.000000
     7  N    2.273452   0.000000
     8  H    3.153289   1.010313   0.000000
[...]
    14  H    5.110803   4.322486   4.305728   4.846532   3.099204
    15  C    5.272484   4.718780   5.443190   4.787701   3.440238
    16  O    6.001351   5.408468   6.170207   5.242237   4.328458
    17  N    5.421770   5.103945   5.879249   5.371084   3.740498
    18  H    4.918885   4.691094   5.403480   5.151742   3.274500
    19  C    6.330602   6.166962   7.049357   6.346987   4.938827
    20  H    7.015587   6.747786   7.631949   6.784355   5.555991
    21  H    7.003357   6.903547   7.735833   7.203414   5.607831
    22  H    5.972468   5.961687   6.933046   6.092203   4.922377
                    6          7          8          9         10
     6  O    0.000000
     7  N    2.286094   0.000000
     8  H    3.161339   1.009809   0.000000
     9  C    2.935836   1.474141   2.111103   0.000000
    10  H    3.882702   2.049789   2.228454   1.094832   0.000000
    11  C    2.885783   2.546129   3.367534   1.530666   2.130887
    12  H    2.379009   2.898962   3.863905   2.205764   3.071216
    13  H    3.931028   3.453495   4.170202   2.144634   2.419062
    14  H    3.045216   2.786863   3.495220   2.161953   2.460938
    15  C    3.720228   2.441233   2.897672   1.545617   2.082964
    16  O    4.807087   3.157793   3.248937   2.414855   2.445748
    17  N    3.615166   3.183459   3.857019   2.457614   3.277252
    18  H    2.863867   3.073734   3.923086   2.543761   3.551560
    19  C    4.799879   4.429735   4.968047   3.830622   4.531228
    20  H    5.588738   4.812649   5.192964   4.086563   4.551486
    21  H    5.251698   5.233717   5.879209   4.531681   5.279388
    22  H    4.835611   4.570204   5.030003   4.316176   5.067386
                   11         12         13         14         15
    11  C    0.000000
    12  H    1.088681   0.000000
    13  H    1.095201   1.782781   0.000000
    14  H    1.094853   1.758294   1.774355   0.000000
    15  C    2.617697   2.966590   2.834201   3.540293   0.000000
    16  O    3.644645   4.145070   3.695716   4.472461   1.225412
    17  N    2.966607   2.823597   3.163616   4.014549   1.363908
    18  H    2.681522   2.198573   3.083988   3.666173   2.035299
    19  C    4.398628   4.188694   4.465376   5.460669   2.461411
    20  H    4.812099   4.821042   4.723710   5.867695   2.563925
    21  H    4.781100   4.408887   4.727667   5.861253   3.298502
    22  H    5.036843   4.754956   5.287782   6.037695   3.020920
                   16         17         18         19         20
    16  O    0.000000
    17  N    2.287622   0.000000
    18  H    3.151275   1.012413   0.000000
    19  C    2.826694   1.453645   2.126354   0.000000
    20  H    2.449969   2.068332   2.974289   1.090796   0.000000
    21  H    3.771011   2.096316   2.462701   1.094228   1.784585
    22  H    3.313024   2.126329   2.575521   1.098253   1.776162
                   21         22
    21  H    0.000000
    22  H    1.783513   0.000000
 Stoichiometry    C6H12N2O2
 Framework group  C1[X(C6H12N2O2)]
 Deg. of freedom    60
 Full point group                 C1      NOp   1
 Largest Abelian subgroup         C1      NOp   1
 Largest concise Abelian subgroup C1      NOp   1
                         Standard orientation:                         
 ---------------------------------------------------------------------
 Center     Atomic      Atomic             Coordinates (Angstroms)
 Number     Number       Type             X           Y           Z
 ---------------------------------------------------------------------
      1          1           0        3.396775   -1.897130    0.361954
      2          6           0        3.173413   -0.881564    0.697268
      3          1           0        4.030503   -0.250595    0.435746
      4          1           0        3.060032   -0.876367    1.786116
      5          6           0        1.944941   -0.379245   -0.050637
      6          8           0        1.786293   -0.601556   -1.247583
      7          7           0        1.047138    0.314639    0.712127
      8          1           0        1.239611    0.403613    1.699422
      9          6           0       -0.080717    1.125609    0.218810
     10          1           0       -0.163977    1.953983    0.929809
     11          6           0        0.095235    1.735675   -1.173956
     12          1           0        0.176770    0.995354   -1.967998
     13          1           0       -0.758447    2.391995   -1.373799
     14          1           0        1.006647    2.341778   -1.199855
     15          6           0       -1.381680    0.328738    0.466649
     16          8           0       -2.003728    0.452528    1.515156
     17          7           0       -1.759888   -0.494480   -0.552918
     18          1           0       -1.076495   -0.674053   -1.277976
     19          6           0       -2.868360   -1.424487   -0.413424
     20          1           0       -3.562544   -1.011381    0.319575
     21          1           0       -3.378772   -1.543070   -1.374024
     22          1           0       -2.538370   -2.411383   -0.062279
 ---------------------------------------------------------------------
 Rotational constants (GHZ):      2.0161641      0.7750106      0.7553102

 **********************************************************************

            Population analysis using the SCF density.

 **********************************************************************

 Orbital symmetries:
       Occupied  (A) (A) (A) (A) (A) (A) (A) (A) (A) (A) (A) (A)
                 (A) (A) (A) (A) (A) (A) (A) (A) (A) (A) (A) (A)
                 (A) (A) (A) (A) (A) (A) (A) (A) (A) (A) (A) (A)
                 (A) (A) (A)
       Virtual   (A) (A) (A) (A) (A) (A) (A) (A) (A) (A) (A) (A)
                 (A) (A) (A) (A) (A) (A) (A) (A) (A) (A) (A) (A)
                 (A) (A) (A) (A) (A) (A) (A) (A) (A) (A) (A) (A)
                 (A) (A) (A) (A) (A) (A) (A) (A) (A) (A) (A) (A)
                 (A) (A) (A) (A) (A) (A) (A) (A) (A) (A) (A) (A)
                 (A) (A) (A) (A) (A) (A) (A) (A) (A) (A) (A) (A)
                 (A) (A) (A) (A) (A) (A) (A) (A) (A) (A) (A) (A)
                 (A) (A) (A) (A) (A) (A) (A) (A) (A) (A) (A) (A)
                 (A) (A) (A) (A) (A) (A) (A) (A) (A) (A) (A) (A)
                 (A) (A) (A) (A) (A) (A) (A) (A) (A) (A) (A) (A)
                 (A) (A) (A) (A) (A) (A) (A) (A) (A) (A) (A) (A)
                 (A) (A) (A)
 The electronic state is 1-A.
 Alpha  occ. eigenvalues --  -19.11292 -19.10901 -14.36817 -14.35765 -10.29350
 Alpha  occ. eigenvalues --  -10.28061 -10.23910 -10.21474 -10.19627 -10.18446
 Alpha  occ. eigenvalues --   -1.03391  -1.02607  -0.92711  -0.91477  -0.78289
 Alpha  occ. eigenvalues --   -0.73183  -0.70355  -0.65511  -0.58640  -0.56799
 Alpha  occ. eigenvalues --   -0.53009  -0.50893  -0.46843  -0.45482  -0.44443
 Alpha  occ. eigenvalues --   -0.44326  -0.42101  -0.41615  -0.40492  -0.39570
 Alpha  occ. eigenvalues --   -0.39128  -0.38050  -0.37038  -0.35940  -0.35513
 Alpha  occ. eigenvalues --   -0.27287  -0.25181  -0.24949  -0.23591
 Alpha virt. eigenvalues --    0.01651   0.03322   0.06441   0.09264   0.11563
 Alpha virt. eigenvalues --    0.12501   0.13739   0.15354   0.15545   0.16346
 Alpha virt. eigenvalues --    0.17036   0.17597   0.18229   0.18993   0.19967
 Alpha virt. eigenvalues --    0.20376   0.22149   0.26584   0.26947   0.30399
 Alpha virt. eigenvalues --    0.35753   0.39649   0.41715   0.49613   0.50448
 Alpha virt. eigenvalues --    0.52703   0.52952   0.53359   0.54227   0.56598
 Alpha virt. eigenvalues --    0.57143   0.58807   0.60843   0.62257   0.66156
 Alpha virt. eigenvalues --    0.66967   0.68582   0.70663   0.71781   0.73829
 Alpha virt. eigenvalues --    0.76429   0.77460   0.78851   0.81842   0.82442
 Alpha virt. eigenvalues --    0.83501   0.85876   0.86530   0.88243   0.88646
 Alpha virt. eigenvalues --    0.89027   0.89461   0.91291   0.91622   0.93458
 Alpha virt. eigenvalues --    0.94698   0.94757   0.96651   0.97472   1.00445
 Alpha virt. eigenvalues --    1.02530   1.07523   1.10545   1.12203   1.16952
 Alpha virt. eigenvalues --    1.19319   1.23333   1.25593   1.28821   1.31868
 Alpha virt. eigenvalues --    1.36901   1.38717   1.41773   1.44965   1.46075
 Alpha virt. eigenvalues --    1.49415   1.55956   1.60767   1.63648   1.69585
 Alpha virt. eigenvalues --    1.72310   1.74322   1.78320   1.79397   1.80726
 Alpha virt. eigenvalues --    1.82307   1.85508   1.87247   1.89120   1.90648
 Alpha virt. eigenvalues --    1.91669   1.96091   1.97156   1.98469   2.01850
 Alpha virt. eigenvalues --    2.03344   2.04665   2.08920   2.12034   2.17320
 Alpha virt. eigenvalues --    2.19258   2.21954   2.23796   2.27393   2.30340
 Alpha virt. eigenvalues --    2.32413   2.32673   2.36646   2.37729   2.41011
 Alpha virt. eigenvalues --    2.41577   2.44863   2.49937   2.55641   2.61688
 Alpha virt. eigenvalues --    2.63499   2.69209   2.72922   2.75091   2.87725
 Alpha virt. eigenvalues --    2.91285   2.97996   2.99218   3.12078   3.14889
 Alpha virt. eigenvalues --    3.92606   3.97444   4.04301   4.16255   4.17225
 Alpha virt. eigenvalues --    4.21850   4.28772   4.38100   4.48899   4.62842
          Condensed to atoms (all electrons):
              1          2          3          4          5          6
     1  H    0.516049   0.359570  -0.022721  -0.025321  -0.020285   0.002374
     2  C    0.359570   5.319883   0.362547   0.341056   0.345143  -0.080832
     3  H   -0.022721   0.362547   0.521061  -0.025937  -0.019950  -0.000018
     4  H   -0.025321   0.341056  -0.025937   0.575062  -0.025022   0.002960
     5  C   -0.020285   0.345143  -0.019950  -0.025022   4.313399   0.575531
     6  O    0.002374  -0.080832  -0.000018   0.002960   0.575531   8.097515
     7  N    0.003031  -0.118180   0.000173   0.006025   0.270213  -0.090335
     8  H   -0.000078   0.001868  -0.000078   0.002331  -0.016491   0.003555
     9  C   -0.000124   0.005764  -0.000167   0.000153  -0.025858   0.001650
    10  H   -0.000002  -0.000214   0.000021  -0.000020   0.004453   0.000116
    11  C   -0.000004   0.000038   0.000020  -0.000007  -0.003863  -0.005526
    12  H   -0.000003   0.000179   0.000000  -0.000007   0.001507   0.010461
    13  H    0.000000   0.000012  -0.000001   0.000000   0.000414   0.000613
    14  H    0.000004  -0.000132  -0.000004   0.000000   0.000940  -0.000921
    15  C    0.000014  -0.000203  -0.000003  -0.000001  -0.002862  -0.000324
    16  O    0.000000   0.000000   0.000000  -0.000001  -0.000013   0.000002
    17  N    0.000001  -0.000011   0.000000   0.000002   0.001630  -0.001877
    18  H   -0.000002   0.000124   0.000000  -0.000007   0.002139   0.008196
    19  C    0.000000  -0.000001   0.000000   0.000000  -0.000074   0.000017
    20  H    0.000000   0.000000   0.000000   0.000000  -0.000001   0.000000
    21  H    0.000000   0.000000   0.000000   0.000000   0.000002  -0.000001
    22  H    0.000000   0.000000   0.000000   0.000000   0.000000   0.000000
              7          8          9         10         11         12
     1  H    0.003031  -0.000078  -0.000124  -0.000002  -0.000004  -0.000003
     2  C   -0.118180   0.001868   0.005764  -0.000214   0.000038   0.000179
     3  H    0.000173  -0.000078  -0.000167   0.000021   0.000020   0.000000
     4  H    0.006025   0.002331   0.000153  -0.000020  -0.000007  -0.000007
     5  C    0.270213  -0.016491  -0.025858   0.004453  -0.003863   0.001507
     6  O   -0.090335   0.003555   0.001650   0.000116  -0.005526   0.010461
     7  N    7.114865   0.300379   0.254980  -0.038517  -0.040602  -0.004675
     8  H    0.300379   0.403631  -0.030137  -0.005974   0.004637  -0.000107
     9  C    0.254980  -0.030137   5.073720   0.360575   0.341420  -0.024106
    10  H   -0.038517  -0.005974   0.360575   0.585973  -0.036592   0.004606
    11  C   -0.040602   0.004637   0.341420  -0.036592   5.128623   0.369287
    12  H   -0.004675  -0.000107  -0.024106   0.004606   0.369287   0.510229
    13  H    0.003440  -0.000096  -0.033513  -0.003238   0.362302  -0.025672
    14  H   -0.000299  -0.000038  -0.023709  -0.005805   0.365188  -0.027253
    15  C   -0.060774   0.001346   0.332733  -0.044026  -0.035685  -0.007496
    16  O   -0.000738   0.001459  -0.075549   0.006816   0.002352  -0.000030
    17  N    0.002280  -0.000048  -0.117031   0.006372   0.006763   0.001519
    18  H   -0.002706  -0.000002   0.002450   0.000035  -0.002002   0.005765
    19  C   -0.000319   0.000008   0.006402  -0.000212  -0.000047  -0.000070
    20  H   -0.000025  -0.000002   0.000836  -0.000009  -0.000071   0.000000
    21  H   -0.000004   0.000000  -0.000079   0.000005  -0.000030   0.000015
    22  H    0.000081  -0.000001  -0.000284  -0.000002   0.000022   0.000000
             13         14         15         16         17         18
     1  H    0.000000   0.000004   0.000014   0.000000   0.000001  -0.000002
     2  C    0.000012  -0.000132  -0.000203   0.000000  -0.000011   0.000124
     3  H   -0.000001  -0.000004  -0.000003   0.000000   0.000000   0.000000
     4  H    0.000000   0.000000  -0.000001  -0.000001   0.000002  -0.000007
     5  C    0.000414   0.000940  -0.002862  -0.000013   0.001630   0.002139
     6  O    0.000613  -0.000921  -0.000324   0.000002  -0.001877   0.008196
     7  N    0.003440  -0.000299  -0.060774  -0.000738   0.002280  -0.002706
     8  H   -0.000096  -0.000038   0.001346   0.001459  -0.000048  -0.000002
     9  C   -0.033513  -0.023709   0.332733  -0.075549  -0.117031   0.002450
    10  H   -0.003238  -0.005805  -0.044026   0.006816   0.006372   0.000035
    11  C    0.362302   0.365188  -0.035685   0.002352   0.006763  -0.002002
    12  H   -0.025672  -0.027253  -0.007496  -0.000030   0.001519   0.005765
    13  H    0.569883  -0.028797  -0.000822   0.000157   0.000139   0.000134
    14  H   -0.028797   0.561599   0.003675  -0.000077   0.000064  -0.000142
    15  C   -0.000822   0.003675   4.399120   0.592276   0.266647  -0.016959
    16  O    0.000157  -0.000077   0.592276   8.074716  -0.101029   0.003299
    17  N    0.000139   0.000064   0.266647  -0.101029   7.076230   0.290837
    18  H    0.000134  -0.000142  -0.016959   0.003299   0.290837   0.393301
    19  C   -0.000052   0.000004  -0.026407  -0.002730   0.270009  -0.030714
    20  H   -0.000003   0.000001  -0.001758   0.016325  -0.039902   0.003974
    21  H   -0.000002  -0.000001   0.003543   0.000469  -0.037803  -0.001274
    22  H    0.000001   0.000000  -0.000897   0.000731  -0.043683  -0.000759
             19         20         21         22
     1  H    0.000000   0.000000   0.000000   0.000000
     2  C   -0.000001   0.000000   0.000000   0.000000
     3  H    0.000000   0.000000   0.000000   0.000000
     4  H    0.000000   0.000000   0.000000   0.000000
     5  C   -0.000074  -0.000001   0.000002   0.000000
     6  O    0.000017   0.000000  -0.000001   0.000000
     7  N   -0.000319  -0.000025  -0.000004   0.000081
     8  H    0.000008  -0.000002   0.000000  -0.000001
     9  C    0.006402   0.000836  -0.000079  -0.000284
    10  H   -0.000212  -0.000009   0.000005  -0.000002
    11  C   -0.000047  -0.000071  -0.000030   0.000022
    12  H   -0.000070   0.000000   0.000015   0.000000
    13  H   -0.000052  -0.000003  -0.000002   0.000001
    14  H    0.000004   0.000001  -0.000001   0.000000
    15  C   -0.026407  -0.001758   0.003543  -0.000897
    16  O   -0.002730   0.016325   0.000469   0.000731
    17  N    0.270009  -0.039902  -0.037803  -0.043683
    18  H   -0.030714   0.003974  -0.001274  -0.000759
    19  C    4.952571   0.379448   0.376501   0.383452
    20  H    0.379448   0.497560  -0.022688  -0.030701
    21  H    0.376501  -0.022688   0.564762  -0.039227
    22  H    0.383452  -0.030701  -0.039227   0.572005
 Mulliken atomic charges:
              1
     1  H    0.187499
     2  C   -0.536609
     3  H    0.185058
     4  H    0.148734
     5  C    0.599047
     6  O   -0.523156
     7  N   -0.598294
     8  H    0.333837
     9  C   -0.050125
    10  H    0.165640
    11  C   -0.456223
    12  H    0.185853
    13  H    0.155101
    14  H    0.155701
    15  C    0.598862
    16  O   -0.518436
    17  N   -0.581107
    18  H    0.344312
    19  C   -0.307786
    20  H    0.197018
    21  H    0.155812
    22  H    0.159263
 Sum of Mulliken atomic charges =   0.00000
 Mulliken charges with hydrogens summed into heavy atoms:
              1
     2  C   -0.015317
     5  C    0.599047
     6  O   -0.523156
     7  N   -0.264456
     9  C    0.115514
    11  C    0.040431
    15  C    0.598862
    16  O   -0.518436
    17  N   -0.236796
    19  C    0.204306
 Sum of Mulliken charges with hydrogens summed into heavy atoms =   0.00000
 Electronic spatial extent (au):  <R**2>=           1750.0066
 Charge=              0.0000 electrons
 Dipole moment (field-independent basis, Debye):
    X=              1.3986    Y=             -0.0628    Z=              0.2217  Tot=              1.4174
 Quadrupole moment (field-independent basis, Debye-Ang):
   XX=            -58.8670   YY=            -56.7499   ZZ=            -63.6059
   XY=              4.6004   XZ=             12.6795   YZ=             -1.4335
 Traceless Quadrupole moment (field-independent basis, Debye-Ang):
   XX=              0.8740   YY=              2.9910   ZZ=             -3.8650
   XY=              4.6004   XZ=             12.6795   YZ=             -1.4335
 Octapole moment (field-independent basis, Debye-Ang**2):
  XXX=             11.1639  YYY=             -1.6922  ZZZ=              1.2793  XYY=             -2.8506
  XXY=            -11.6928  XXZ=             -1.0163  XZZ=              5.1895  YZZ=             -0.3740
  YYZ=              0.0075  XYZ=             -2.1837
 Hexadecapole moment (field-independent basis, Debye-Ang**3):
 XXXX=          -1381.6197 YYYY=           -426.1389 ZZZZ=           -353.1867 XXXY=             22.4020
 XXXZ=             31.2675 YYYX=             -3.9428 YYYZ=              6.4056 ZZZX=             26.5417
 ZZZY=              6.0734 XXYY=           -301.3407 XXZZ=           -329.2943 YYZZ=           -133.4500
 XXYZ=             -6.2989 YYXZ=              0.7954 ZZXY=             13.6393
 N-N= 5.570804227470D+02 E-N=-2.270220794941D+03  KE= 4.912311279772D+02
 1\1\GINC-NODE002\FOpt\RB3LYP\6-31G(d)\C6H12N2O2\STEBOSS\10-Feb-2017\0\
 \# b3lyp/6-31G* Opt=(ModRedundant, maxcycles=1000, calcfc) geom=nocrow
 d\\Phi Psi fixed scan\\0,1\H,0.9066822633,2.9758426986,-1.72464956\C,1
 .6362771422,2.7431364394,-0.9453929047\H,1.8514543434,1.6700670451,-1.
 0031985445\H,1.1987862209,2.9554451851,0.0354220444\C,2.9167602666,3.5
 186880856,-1.2277249137\O,3.3595011339,3.6345608557,-2.3669468607\N,3.
 5110289968,4.0736311405,-0.1285360873\H,3.0454228192,3.9669068708,0.76
 1146317\C,4.8678779435,4.6457972178,-0.0601454515\H,5.2202060538,4.414
 7079696,0.9503591701\C,5.8873008496,4.0644595404,-1.0428767394\H,5.640
 9889237,4.2479991677,-2.0873238922\H,6.8684069249,4.496342107,-0.81843
 44248\H,5.952143833,2.9796321522,-0.9100279068\C,4.732348267,6.1852130
 463,-0.0325176228\O,4.6344735099,6.7879481635,1.029916402\N,4.73251728
 27,6.7887910307,-1.2556037409\H,4.6133760656,6.1915033161,-2.064327069
 \C,4.4566059697,8.2078745614,-1.4077811995\H,4.7564593342,8.7085577831
 ,-0.4862393154\H,5.031294339,8.6116104367,-2.2468669893\H,3.3900875171
 ,8.4055851867,-1.5798507109\\Version=EM64L-G09RevA.02\State=1-A\HF=-49
 5.8423624\RMSD=9.990e-09\RMSF=1.996e-03\Dipole=-0.307524,-0.4651977,-0
 .0033729\Quadrupole=3.0818884,2.0576314,-5.1395199,1.0133113,-2.820108
 8,-8.9140294\PG=C01 [X(C6H12N2O2)]\\@


 A SOLDIER'S LIFE IS A LIFE OF HONOR, BUT A DOG WOULD NOT LEAD IT.
 -- PRINCE RUPERT, FOUNDER OF THE HUDSON'S BAY COMPANY
 Job cpu time:  0 days  2 hours 40 minutes  9.4 seconds.
 File lengths (MBytes):  RWF=    186 Int=      0 D2E=      0 Chk=      4 Scr=      2
 Normal termination of Gaussian 09 at Fri Feb 10 18:59:39 2017.
