 Entering Gaussian System, Link 0=g09
 Initial command:
 /home/steboss/Software/g09/l1.exe /home/steboss/projects/phi_psi_scan/alanine/105/4159/Gau-8733.inp -scrdir=/home/steboss/projects/phi_psi_scan/alanine/105/4159/
 Entering Link 1 = /home/steboss/Software/g09/l1.exe PID=      8742.
  
 Copyright (c) 1988,1990,1992,1993,1995,1998,2003,2009, Gaussian, Inc.
                  All Rights Reserved.
  
 This is part of the Gaussian(R) 09 program.  It is based on
 the Gaussian(R) 03 system (copyright 2003, Gaussian, Inc.),
 the Gaussian(R) 98 system (copyright 1998, Gaussian, Inc.),
 the Gaussian(R) 94 system (copyright 1995, Gaussian, Inc.),
 the Gaussian 92(TM) system (copyright 1992, Gaussian, Inc.),
 the Gaussian 90(TM) system (copyright 1990, Gaussian, Inc.),
 the Gaussian 88(TM) system (copyright 1988, Gaussian, Inc.),
 the Gaussian 86(TM) system (copyright 1986, Carnegie Mellon
 University), and the Gaussian 82(TM) system (copyright 1983,
 Carnegie Mellon University). Gaussian is a federally registered
 trademark of Gaussian, Inc.
  
 This software contains proprietary and confidential information,
 including trade secrets, belonging to Gaussian, Inc.
  
 This software is provided under written license and may be
 used, copied, transmitted, or stored only in accord with that
 written license.
  
 The following legend is applicable only to US Government
 contracts under FAR:
  
                    RESTRICTED RIGHTS LEGEND
  
 Use, reproduction and disclosure by the US Government is
 subject to restrictions as set forth in subparagraphs (a)
 and (c) of the Commercial Computer Software - Restricted
 Rights clause in FAR 52.227-19.
  
 Gaussian, Inc.
 340 Quinnipiac St., Bldg. 40, Wallingford CT 06492
  
  
 ---------------------------------------------------------------
 Warning -- This program may not be used in any manner that
 competes with the business of Gaussian, Inc. or will provide
 assistance to any competitor of Gaussian, Inc.  The licensee
 of this program is prohibited from giving any competitor of
 Gaussian, Inc. access to this program.  By using this program,
 the user acknowledges that Gaussian, Inc. is engaged in the
 business of creating and licensing software in the field of
 computational chemistry and represents and warrants to the
 licensee that it is not a competitor of Gaussian, Inc. and that
 it will not use this program in any manner prohibited above.
 ---------------------------------------------------------------
  

 Cite this work as:
 Gaussian 09, Revision A.02,
 M. J. Frisch, G. W. Trucks, H. B. Schlegel, G. E. Scuseria, 
 M. A. Robb, J. R. Cheeseman, G. Scalmani, V. Barone, B. Mennucci, 
 G. A. Petersson, H. Nakatsuji, M. Caricato, X. Li, H. P. Hratchian, 
 A. F. Izmaylov, J. Bloino, G. Zheng, J. L. Sonnenberg, M. Hada, 
 M. Ehara, K. Toyota, R. Fukuda, J. Hasegawa, M. Ishida, T. Nakajima, 
 Y. Honda, O. Kitao, H. Nakai, T. Vreven, J. A. Montgomery, Jr., 
 J. E. Peralta, F. Ogliaro, M. Bearpark, J. J. Heyd, E. Brothers, 
 K. N. Kudin, V. N. Staroverov, R. Kobayashi, J. Normand, 
 K. Raghavachari, A. Rendell, J. C. Burant, S. S. Iyengar, J. Tomasi, 
 M. Cossi, N. Rega, J. M. Millam, M. Klene, J. E. Knox, J. B. Cross, 
 V. Bakken, C. Adamo, J. Jaramillo, R. Gomperts, R. E. Stratmann, 
 O. Yazyev, A. J. Austin, R. Cammi, C. Pomelli, J. W. Ochterski, 
 R. L. Martin, K. Morokuma, V. G. Zakrzewski, G. A. Voth, 
 P. Salvador, J. J. Dannenberg, S. Dapprich, A. D. Daniels, 
 O. Farkas, J. B. Foresman, J. V. Ortiz, J. Cioslowski, 
 and D. J. Fox, Gaussian, Inc., Wallingford CT, 2009.
 
 ******************************************
 Gaussian 09:  EM64L-G09RevA.02 11-Jun-2009
                10-Feb-2017 
 ******************************************
 %chk=structure_195.chk
 %NProcShared=8
 Will use up to    8 processors via shared memory.
 ----------------------------------------------------------------------
 # b3lyp/6-31G* Opt=(ModRedundant, maxcycles=1000, calcfc) geom=nocrowd
 ----------------------------------------------------------------------
 1/6=1000,10=4,14=-1,18=120,19=15,26=3,38=1/1,3;
 2/9=110,12=1,17=6,18=5,40=1/2;
 3/5=1,6=6,7=1,11=2,16=1,25=1,30=1,71=2,74=-5/1,2,3;
 4//1;
 5/5=2,38=5/2;
 8/6=4,10=90,11=11/1;
 11/6=1,8=1,9=11,15=111,16=1/1,2,10;
 10/6=1,7=6,13=1/2;
 6/7=2,8=2,9=2,10=2,28=1/1;
 7/10=1,18=20,25=1/1,2,3,16;
 1/6=1000,10=4,14=-1,18=20,19=15/3(2);
 2/9=110,12=1/2;
 99//99;
 2/9=110,12=1/2;
 3/5=1,6=6,7=1,11=2,16=1,25=1,30=1,71=1,74=-5/1,2,3;
 4/5=5,16=3/1;
 5/5=2,38=5/2;
 7//1,2,3,16;
 1/6=1000,14=-1,18=20,19=15/3(-5);
 2/9=110,12=1/2;
 6/7=2,8=2,9=2,10=2,19=2,28=1/1;
 99/9=1/99;
 ------------------
 Phi Psi fixed scan
 ------------------
 Symbolic Z-matrix:
 Charge =  0 Multiplicity = 1
 H                     1.3513    2.3068   -1.9013 
 C                     1.6731    2.7486   -0.9582 
 H                     1.7242    1.9746   -0.1925 
 H                     0.9598    3.5143   -0.6531 
 C                     3.0539    3.3932   -1.0948 
 O                     3.6506    3.3681   -2.1689 
 N                     3.5554    3.9697    0. 
 H                     3.0267    3.9647    0.8606 
 C                     4.8533    4.6139    0. 
 H                     5.4076    4.3155    0.8898 
 C                     5.6613    4.2208   -1.2322 
 H                     5.1233    4.5214   -2.1312 
 H                     6.6305    4.7189   -1.2058 
 H                     5.8085    3.1409   -1.2414 
 C                     4.7127    6.1294    0. 
 O                     3.6366    6.656     0.2741 
 N                     5.8056    6.8311   -0.3089 
 H                     6.6679    6.3528   -0.5272 
 C                     5.801     8.2797   -0.3436 
 H                     4.8071    8.6467   -0.0875 
 H                     6.5256    8.6631    0.3748 
 H                     6.0669    8.6206   -1.3442 
 
 The following ModRedundant input section has been read:
 D    5    7    9   15 F                                                       
 D    7    9   15   17 F                                                       

 GradGradGradGradGradGradGradGradGradGradGradGradGradGradGradGradGradGrad
 Berny optimization.
 Initialization pass.
                           ----------------------------
                           !    Initial Parameters    !
                           ! (Angstroms and Degrees)  !
 --------------------------                            --------------------------
 ! Name  Definition              Value          Derivative Info.                !
 --------------------------------------------------------------------------------
 ! R1    R(1,2)                  1.09           calculate D2E/DX2 analytically  !
 ! R2    R(2,3)                  1.0899         calculate D2E/DX2 analytically  !
 ! R3    R(2,4)                  1.09           calculate D2E/DX2 analytically  !
 ! R4    R(2,5)                  1.53           calculate D2E/DX2 analytically  !
 ! R5    R(5,6)                  1.229          calculate D2E/DX2 analytically  !
 ! R6    R(5,7)                  1.3351         calculate D2E/DX2 analytically  !
 ! R7    R(7,8)                  1.01           calculate D2E/DX2 analytically  !
 ! R8    R(7,9)                  1.449          calculate D2E/DX2 analytically  !
 ! R9    R(9,10)                 1.09           calculate D2E/DX2 analytically  !
 ! R10   R(9,11)                 1.525          calculate D2E/DX2 analytically  !
 ! R11   R(9,15)                 1.522          calculate D2E/DX2 analytically  !
 ! R12   R(11,12)                1.09           calculate D2E/DX2 analytically  !
 ! R13   R(11,13)                1.09           calculate D2E/DX2 analytically  !
 ! R14   R(11,14)                1.0899         calculate D2E/DX2 analytically  !
 ! R15   R(15,16)                1.229          calculate D2E/DX2 analytically  !
 ! R16   R(15,17)                1.335          calculate D2E/DX2 analytically  !
 ! R17   R(17,18)                1.0099         calculate D2E/DX2 analytically  !
 ! R18   R(17,19)                1.449          calculate D2E/DX2 analytically  !
 ! R19   R(19,20)                1.09           calculate D2E/DX2 analytically  !
 ! R20   R(19,21)                1.09           calculate D2E/DX2 analytically  !
 ! R21   R(19,22)                1.09           calculate D2E/DX2 analytically  !
 ! A1    A(1,2,3)              109.5017         calculate D2E/DX2 analytically  !
 ! A2    A(1,2,4)              109.493          calculate D2E/DX2 analytically  !
 ! A3    A(1,2,5)              111.0973         calculate D2E/DX2 analytically  !
 ! A4    A(3,2,4)              109.4436         calculate D2E/DX2 analytically  !
 ! A5    A(3,2,5)              108.6387         calculate D2E/DX2 analytically  !
 ! A6    A(4,2,5)              108.6398         calculate D2E/DX2 analytically  !
 ! A7    A(2,5,6)              120.5054         calculate D2E/DX2 analytically  !
 ! A8    A(2,5,7)              116.5979         calculate D2E/DX2 analytically  !
 ! A9    A(6,5,7)              122.8967         calculate D2E/DX2 analytically  !
 ! A10   A(5,7,8)              119.9959         calculate D2E/DX2 analytically  !
 ! A11   A(5,7,9)              121.9004         calculate D2E/DX2 analytically  !
 ! A12   A(8,7,9)              118.1037         calculate D2E/DX2 analytically  !
 ! A13   A(7,9,10)             109.5            calculate D2E/DX2 analytically  !
 ! A14   A(7,9,11)             111.0992         calculate D2E/DX2 analytically  !
 ! A15   A(7,9,15)             111.0966         calculate D2E/DX2 analytically  !
 ! A16   A(10,9,11)            108.6382         calculate D2E/DX2 analytically  !
 ! A17   A(10,9,15)            108.6373         calculate D2E/DX2 analytically  !
 ! A18   A(11,9,15)            107.7947         calculate D2E/DX2 analytically  !
 ! A19   A(9,11,12)            109.5007         calculate D2E/DX2 analytically  !
 ! A20   A(9,11,13)            109.4959         calculate D2E/DX2 analytically  !
 ! A21   A(9,11,14)            109.4978         calculate D2E/DX2 analytically  !
 ! A22   A(12,11,13)           109.441          calculate D2E/DX2 analytically  !
 ! A23   A(12,11,14)           109.4482         calculate D2E/DX2 analytically  !
 ! A24   A(13,11,14)           109.4436         calculate D2E/DX2 analytically  !
 ! A25   A(9,15,16)            120.4997         calculate D2E/DX2 analytically  !
 ! A26   A(9,15,17)            116.599          calculate D2E/DX2 analytically  !
 ! A27   A(16,15,17)           122.9013         calculate D2E/DX2 analytically  !
 ! A28   A(15,17,18)           120.0038         calculate D2E/DX2 analytically  !
 ! A29   A(15,17,19)           121.8978         calculate D2E/DX2 analytically  !
 ! A30   A(18,17,19)           118.0984         calculate D2E/DX2 analytically  !
 ! A31   A(17,19,20)           109.5036         calculate D2E/DX2 analytically  !
 ! A32   A(17,19,21)           109.496          calculate D2E/DX2 analytically  !
 ! A33   A(17,19,22)           109.5037         calculate D2E/DX2 analytically  !
 ! A34   A(20,19,21)           109.443          calculate D2E/DX2 analytically  !
 ! A35   A(20,19,22)           109.4397         calculate D2E/DX2 analytically  !
 ! A36   A(21,19,22)           109.4414         calculate D2E/DX2 analytically  !
 ! D1    D(1,2,5,6)             -0.0038         calculate D2E/DX2 analytically  !
 ! D2    D(1,2,5,7)            179.9948         calculate D2E/DX2 analytically  !
 ! D3    D(3,2,5,6)            120.5106         calculate D2E/DX2 analytically  !
 ! D4    D(3,2,5,7)            -59.4908         calculate D2E/DX2 analytically  !
 ! D5    D(4,2,5,6)           -120.5082         calculate D2E/DX2 analytically  !
 ! D6    D(4,2,5,7)             59.4904         calculate D2E/DX2 analytically  !
 ! D7    D(2,5,7,8)              0.0007         calculate D2E/DX2 analytically  !
 ! D8    D(2,5,7,9)            179.9954         calculate D2E/DX2 analytically  !
 ! D9    D(6,5,7,8)            179.9993         calculate D2E/DX2 analytically  !
 ! D10   D(6,5,7,9)             -0.006          calculate D2E/DX2 analytically  !
 ! D11   D(5,7,9,10)          -134.9963         calculate D2E/DX2 analytically  !
 ! D12   D(5,7,9,11)           -14.9937         calculate D2E/DX2 analytically  !
 ! D13   D(5,7,9,15)           105.0038         frozen, calculate D2E/DX2 analyt!
 ! D14   D(8,7,9,10)            44.9985         calculate D2E/DX2 analytically  !
 ! D15   D(8,7,9,11)           165.0011         calculate D2E/DX2 analytically  !
 ! D16   D(8,7,9,15)           -75.0013         calculate D2E/DX2 analytically  !
 ! D17   D(7,9,11,12)           60.0024         calculate D2E/DX2 analytically  !
 ! D18   D(7,9,11,13)          179.9986         calculate D2E/DX2 analytically  !
 ! D19   D(7,9,11,14)          -60.0038         calculate D2E/DX2 analytically  !
 ! D20   D(10,9,11,12)        -179.4843         calculate D2E/DX2 analytically  !
 ! D21   D(10,9,11,13)         -59.4881         calculate D2E/DX2 analytically  !
 ! D22   D(10,9,11,14)          60.5095         calculate D2E/DX2 analytically  !
 ! D23   D(15,9,11,12)         -61.938          calculate D2E/DX2 analytically  !
 ! D24   D(15,9,11,13)          58.0582         calculate D2E/DX2 analytically  !
 ! D25   D(15,9,11,14)         178.0558         calculate D2E/DX2 analytically  !
 ! D26   D(7,9,15,16)           15.0014         calculate D2E/DX2 analytically  !
 ! D27   D(7,9,15,17)         -165.0027         frozen, calculate D2E/DX2 analyt!
 ! D28   D(10,9,15,16)        -105.5096         calculate D2E/DX2 analytically  !
 ! D29   D(10,9,15,17)          74.4862         calculate D2E/DX2 analytically  !
 ! D30   D(11,9,15,16)         136.9435         calculate D2E/DX2 analytically  !
 ! D31   D(11,9,15,17)         -43.0607         calculate D2E/DX2 analytically  !
 ! D32   D(9,15,17,18)           0.0073         calculate D2E/DX2 analytically  !
 ! D33   D(9,15,17,19)         179.9965         calculate D2E/DX2 analytically  !
 ! D34   D(16,15,17,18)       -179.9969         calculate D2E/DX2 analytically  !
 ! D35   D(16,15,17,19)         -0.0077         calculate D2E/DX2 analytically  !
 ! D36   D(15,17,19,20)          0.0059         calculate D2E/DX2 analytically  !
 ! D37   D(15,17,19,21)        120.0063         calculate D2E/DX2 analytically  !
 ! D38   D(15,17,19,22)       -119.9951         calculate D2E/DX2 analytically  !
 ! D39   D(18,17,19,20)        179.9953         calculate D2E/DX2 analytically  !
 ! D40   D(18,17,19,21)        -60.0043         calculate D2E/DX2 analytically  !
 ! D41   D(18,17,19,22)         59.9943         calculate D2E/DX2 analytically  !
 --------------------------------------------------------------------------------
 Trust Radius=3.00D-01 FncErr=1.00D-07 GrdErr=1.00D-06
 Number of steps in this run= 132 maximum allowed number of steps= 132.
 GradGradGradGradGradGradGradGradGradGradGradGradGradGradGradGradGradGrad

                          Input orientation:                          
 ---------------------------------------------------------------------
 Center     Atomic      Atomic             Coordinates (Angstroms)
 Number     Number       Type             X           Y           Z
 ---------------------------------------------------------------------
      1          1           0        1.351300    2.306800   -1.901300
      2          6           0        1.673100    2.748600   -0.958200
      3          1           0        1.724200    1.974600   -0.192500
      4          1           0        0.959800    3.514300   -0.653100
      5          6           0        3.053900    3.393200   -1.094800
      6          8           0        3.650600    3.368100   -2.168900
      7          7           0        3.555400    3.969700    0.000000
      8          1           0        3.026700    3.964700    0.860600
      9          6           0        4.853300    4.613900    0.000000
     10          1           0        5.407600    4.315500    0.889800
     11          6           0        5.661300    4.220800   -1.232200
     12          1           0        5.123300    4.521400   -2.131200
     13          1           0        6.630500    4.718900   -1.205800
     14          1           0        5.808500    3.140900   -1.241400
     15          6           0        4.712700    6.129400    0.000000
     16          8           0        3.636600    6.656000    0.274100
     17          7           0        5.805600    6.831100   -0.308900
     18          1           0        6.667900    6.352800   -0.527200
     19          6           0        5.801000    8.279700   -0.343600
     20          1           0        4.807100    8.646700   -0.087500
     21          1           0        6.525600    8.663100    0.374800
     22          1           0        6.066900    8.620600   -1.344200
 ---------------------------------------------------------------------
                    Distance matrix (angstroms):
                    1          2          3          4          5
     1  H    0.000000
     2  C    1.090037   0.000000
     3  H    1.780283   1.089947   0.000000
     4  H    1.780262   1.090036   1.779645   0.000000
     5  C    2.174754   1.529960   2.143519   2.143600   0.000000
     6  O    2.546517   2.400017   3.091766   3.091833   1.228972
     7  N    3.352348   2.439731   2.714917   2.714971   1.335081
     8  H    3.630935   2.572774   2.601158   2.601197   2.037386
     9  C    4.604526   3.809352   4.098076   4.098171   2.434448
    10  H    5.317771   4.451603   4.496512   4.775499   3.213904
    11  C    4.763107   4.260069   4.650500   4.789426   2.739039
    12  H    4.380102   4.052484   4.668900   4.531419   2.574758
    13  H    5.845674   5.340337   5.712245   5.823519   3.816002
    14  H    4.582338   4.163608   4.375152   4.898512   2.770012
    15  C    5.433804   4.646195   5.121577   4.620557   3.381863
    16  O    5.373128   4.543311   5.078434   4.230276   3.585985
    17  N    6.545672   5.845165   6.344838   5.882297   4.473103
    18  H    6.820887   6.174467   6.612173   6.376154   4.705571
    19  C    7.609323   6.928951   7.509821   6.800150   5.655859
    20  H    7.444915   6.735552   7.350661   6.439189   5.629176
    21  H    8.506266   7.765627   8.252957   7.651461   6.479527
    22  H    7.900083   7.344036   8.022143   7.254956   6.038715
                    6          7          8          9         10
     6  O    0.000000
     7  N    2.252801   0.000000
     8  H    3.150088   1.010040   0.000000
     9  C    2.775362   1.448978   2.120981   0.000000
    10  H    3.652432   2.083739   2.406782   1.089970   0.000000
    11  C    2.376430   2.452791   3.374391   1.525027   2.139209
    12  H    1.870927   2.702720   3.695472   2.150225   3.041326
    13  H    3.410576   3.386959   4.222109   2.150214   2.459625
    14  H    2.359748   2.702673   3.582661   2.150165   2.466256
    15  C    3.668373   2.450234   2.875614   1.522008   2.136554
    16  O    4.096185   2.701468   2.821180   2.392836   2.998911
    17  N    4.482856   3.653277   4.160080   2.432750   2.814876
    18  H    4.550573   3.955346   4.570268   2.567973   2.783314
    19  C    5.663899   4.872051   5.269351   3.801879   4.170242
    20  H    5.790798   4.842390   5.098023   4.034014   4.480514
    21  H    6.540112   5.566917   5.878203   4.396940   4.518493
    22  H    5.840153   5.453932   5.981753   4.396970   4.894826
                   11         12         13         14         15
    11  C    0.000000
    12  H    1.089957   0.000000
    13  H    1.090023   1.779613   0.000000
    14  H    1.089925   1.779613   1.779617   0.000000
    15  C    2.461892   2.701161   2.668599   3.416575   0.000000
    16  O    3.506929   3.542917   3.860816   4.401116   1.228995
    17  N    2.772539   3.020103   2.438499   3.806198   1.335003
    18  H    2.460832   2.883163   1.769612   3.400728   2.037315
    19  C    4.157378   4.216587   3.756429   5.216643   2.434389
    20  H    4.650654   4.614628   4.472471   5.713853   2.520589
    21  H    4.802447   5.039857   4.250413   5.798364   3.137948
    22  H    4.419875   4.279391   3.944624   5.486752   3.137963
                   16         17         18         19         20
    16  O    0.000000
    17  N    2.252800   0.000000
    18  H    3.150046   1.009944   0.000000
    19  C    2.775353   1.449023   2.120889   0.000000
    20  H    2.337458   2.083848   2.986284   1.090006   0.000000
    21  H    3.519220   2.083763   2.484218   1.090018   1.779672
    22  H    3.519220   2.083851   2.484272   1.090007   1.779627
                   21         22
    21  H    0.000000
    22  H    1.779655   0.000000
 Stoichiometry    C6H12N2O2
 Framework group  C1[X(C6H12N2O2)]
 Deg. of freedom    60
 Full point group                 C1      NOp   1
 Largest Abelian subgroup         C1      NOp   1
 Largest concise Abelian subgroup C1      NOp   1
                         Standard orientation:                         
 ---------------------------------------------------------------------
 Center     Atomic      Atomic             Coordinates (Angstroms)
 Number     Number       Type             X           Y           Z
 ---------------------------------------------------------------------
      1          1           0        4.050481   -0.511414   -0.984402
      2          6           0        3.350242   -0.889112   -0.239291
      3          1           0        3.826307   -0.887561    0.741190
      4          1           0        3.056829   -1.906392   -0.498578
      5          6           0        2.093316   -0.019258   -0.173943
      6          8           0        1.974290    0.960988   -0.905599
      7          7           0        1.158592   -0.384701    0.706503
      8          1           0        1.302109   -1.199007    1.286579
      9          6           0       -0.076431    0.356529    0.864092
     10          1           0       -0.286035    0.492987    1.924979
     11          6           0        0.019066    1.728795    0.205703
     12          1           0        0.219581    1.608430   -0.858868
     13          1           0       -0.921727    2.262777    0.339577
     14          1           0        0.827497    2.297298    0.665245
     15          6           0       -1.244623   -0.383898    0.228793
     16          8           0       -1.138995   -1.569198   -0.078348
     17          7           0       -2.362188    0.319375    0.032104
     18          1           0       -2.400801    1.292002    0.301349
     19          6           0       -3.543434   -0.271079   -0.564293
     20          1           0       -3.348340   -1.317512   -0.798877
     21          1           0       -4.376115   -0.205378    0.136040
     22          1           0       -3.795780    0.264867   -1.479279
 ---------------------------------------------------------------------
 Rotational constants (GHZ):      2.8630760      0.7448653      0.6632825
 Standard basis: 6-31G(d) (6D, 7F)
 There are   174 symmetry adapted basis functions of A   symmetry.
 Integral buffers will be    131072 words long.
 Raffenetti 2 integral format.
 Two-electron integral symmetry is turned on.
   174 basis functions,   328 primitive gaussians,   174 cartesian basis functions
    39 alpha electrons       39 beta electrons
       nuclear repulsion energy       564.6782997588 Hartrees.
 NAtoms=   22 NActive=   22 NUniq=   22 SFac= 7.50D-01 NAtFMM=   80 NAOKFM=F Big=F
 One-electron integrals computed using PRISM.
 NBasis=   174 RedAO= T  NBF=   174
 NBsUse=   174 1.00D-06 NBFU=   174
 Harris functional with IExCor=  402 diagonalized for initial guess.
 ExpMin= 1.61D-01 ExpMax= 5.48D+03 ExpMxC= 8.25D+02 IAcc=1 IRadAn=         1 AccDes= 0.00D+00
 HarFok:  IExCor=  402 AccDes= 0.00D+00 IRadAn=         1 IDoV= 1
 ScaDFX=  1.000000  1.000000  1.000000  1.000000
 FoFCou: FMM=F IPFlag=           0 FMFlag=      100000 FMFlg1=           0
         NFxFlg=           0 DoJE=T BraDBF=F KetDBF=T FulRan=T
         Omega=  0.000000  0.000000  1.000000  0.000000  0.000000 ICntrl=     500 IOpCl=  0
         NMat0=    1 NMatS0=    1 NMatT0=    0 NMatD0=    1 NMtDS0=    0 NMtDT0=    0
         I1Cent=           4 NGrid=           0.
 Petite list used in FoFCou.
 Initial guess orbital symmetries:
       Occupied  (A) (A) (A) (A) (A) (A) (A) (A) (A) (A) (A) (A)
                 (A) (A) (A) (A) (A) (A) (A) (A) (A) (A) (A) (A)
                 (A) (A) (A) (A) (A) (A) (A) (A) (A) (A) (A) (A)
                 (A) (A) (A)
       Virtual   (A) (A) (A) (A) (A) (A) (A) (A) (A) (A) (A) (A)
                 (A) (A) (A) (A) (A) (A) (A) (A) (A) (A) (A) (A)
                 (A) (A) (A) (A) (A) (A) (A) (A) (A) (A) (A) (A)
                 (A) (A) (A) (A) (A) (A) (A) (A) (A) (A) (A) (A)
                 (A) (A) (A) (A) (A) (A) (A) (A) (A) (A) (A) (A)
                 (A) (A) (A) (A) (A) (A) (A) (A) (A) (A) (A) (A)
                 (A) (A) (A) (A) (A) (A) (A) (A) (A) (A) (A) (A)
                 (A) (A) (A) (A) (A) (A) (A) (A) (A) (A) (A) (A)
                 (A) (A) (A) (A) (A) (A) (A) (A) (A) (A) (A) (A)
                 (A) (A) (A) (A) (A) (A) (A) (A) (A) (A) (A) (A)
                 (A) (A) (A) (A) (A) (A) (A) (A) (A) (A) (A) (A)
                 (A) (A) (A)
 The electronic state of the initial guess is 1-A.
 Requested convergence on RMS density matrix=1.00D-08 within 128 cycles.
 Requested convergence on MAX density matrix=1.00D-06.
 Requested convergence on             energy=1.00D-06.
 No special actions if energy rises.
 Integral accuracy reduced to 1.0D-05 until final iterations.
 Initial convergence to 1.0D-05 achieved.  Increase integral accuracy.
 SCF Done:  E(RB3LYP) =  -495.814905336     A.U. after   14 cycles
             Convg  =    0.5062D-08             -V/T =  2.0084
 Range of M.O.s used for correlation:     1   174
 NBasis=   174 NAE=    39 NBE=    39 NFC=     0 NFV=     0
 NROrb=    174 NOA=    39 NOB=    39 NVA=   135 NVB=   135
 Symmetrizing basis deriv contribution to polar:
 IMax=3 JMax=2 DiffMx= 0.00D+00
 G2DrvN: will do    23 centers at a time, making    1 passes doing MaxLOS=2.
 Calling FoFCou, ICntrl=  3107 FMM=F I1Cent=   0 AccDes= 0.00D+00.
 FoFDir/FoFCou used for L=0 through L=2.
 End of G2Drv Frequency-dependent properties file   721 does not exist.
 End of G2Drv Frequency-dependent properties file   722 does not exist.
          IDoAtm=1111111111111111111111
          Differentiating once with respect to nuclear coordinates.
          There are    69 degrees of freedom in the 1st order CPHF.  IDoFFX=5.
     63 vectors produced by pass  0 Test12= 7.63D-11 1.45D-07 XBig12= 1.84D-01 9.58D-02.
 AX will form    63 AO Fock derivatives at one time.
     63 vectors produced by pass  1 Test12= 7.63D-11 1.45D-07 XBig12= 2.48D-02 5.26D-02.
     63 vectors produced by pass  2 Test12= 7.63D-11 1.45D-07 XBig12= 3.15D-05 1.27D-03.
     63 vectors produced by pass  3 Test12= 7.63D-11 1.45D-07 XBig12= 8.18D-08 4.40D-05.
     32 vectors produced by pass  4 Test12= 7.63D-11 1.45D-07 XBig12= 1.05D-10 1.17D-06.
 Inverted reduced A of dimension   284 with in-core refinement.
 End of Minotr Frequency-dependent properties file   721 does not exist.
 End of Minotr Frequency-dependent properties file   722 does not exist.

 **********************************************************************

            Population analysis using the SCF density.

 **********************************************************************

 Orbital symmetries:
       Occupied  (A) (A) (A) (A) (A) (A) (A) (A) (A) (A) (A) (A)
                 (A) (A) (A) (A) (A) (A) (A) (A) (A) (A) (A) (A)
                 (A) (A) (A) (A) (A) (A) (A) (A) (A) (A) (A) (A)
                 (A) (A) (A)
       Virtual   (A) (A) (A) (A) (A) (A) (A) (A) (A) (A) (A) (A)
                 (A) (A) (A) (A) (A) (A) (A) (A) (A) (A) (A) (A)
                 (A) (A) (A) (A) (A) (A) (A) (A) (A) (A) (A) (A)
                 (A) (A) (A) (A) (A) (A) (A) (A) (A) (A) (A) (A)
                 (A) (A) (A) (A) (A) (A) (A) (A) (A) (A) (A) (A)
                 (A) (A) (A) (A) (A) (A) (A) (A) (A) (A) (A) (A)
                 (A) (A) (A) (A) (A) (A) (A) (A) (A) (A) (A) (A)
                 (A) (A) (A) (A) (A) (A) (A) (A) (A) (A) (A) (A)
                 (A) (A) (A) (A) (A) (A) (A) (A) (A) (A) (A) (A)
                 (A) (A) (A) (A) (A) (A) (A) (A) (A) (A) (A) (A)
                 (A) (A) (A) (A) (A) (A) (A) (A) (A) (A) (A) (A)
                 (A) (A) (A)
 The electronic state is 1-A.
 Alpha  occ. eigenvalues --  -19.10100 -19.09306 -14.36121 -14.35952 -10.28026
 Alpha  occ. eigenvalues --  -10.27523 -10.23432 -10.21598 -10.18387 -10.16803
 Alpha  occ. eigenvalues --   -1.03269  -1.02226  -0.92478  -0.92279  -0.78679
 Alpha  occ. eigenvalues --   -0.72708  -0.70107  -0.65064  -0.59541  -0.57076
 Alpha  occ. eigenvalues --   -0.53922  -0.51227  -0.46471  -0.45655  -0.44688
 Alpha  occ. eigenvalues --   -0.44062  -0.42080  -0.40740  -0.39751  -0.39386
 Alpha  occ. eigenvalues --   -0.38443  -0.37691  -0.36639  -0.35373  -0.34838
 Alpha  occ. eigenvalues --   -0.25631  -0.24880  -0.23825  -0.22259
 Alpha virt. eigenvalues --    0.03461   0.03842   0.06707   0.08775   0.12140
 Alpha virt. eigenvalues --    0.13057   0.13629   0.16186   0.16389   0.16891
 Alpha virt. eigenvalues --    0.17008   0.17988   0.18239   0.19504   0.20283
 Alpha virt. eigenvalues --    0.21920   0.24904   0.26467   0.30317   0.33860
 Alpha virt. eigenvalues --    0.36585   0.41041   0.42298   0.49966   0.51459
 Alpha virt. eigenvalues --    0.52151   0.54011   0.54742   0.55592   0.56396
 Alpha virt. eigenvalues --    0.58070   0.60355   0.62632   0.65204   0.65683
 Alpha virt. eigenvalues --    0.68394   0.69195   0.71606   0.71987   0.74188
 Alpha virt. eigenvalues --    0.76275   0.76934   0.79617   0.81758   0.84319
 Alpha virt. eigenvalues --    0.86400   0.87112   0.87335   0.88004   0.88886
 Alpha virt. eigenvalues --    0.90353   0.90976   0.91246   0.92938   0.94639
 Alpha virt. eigenvalues --    0.95437   0.96825   0.97580   0.98561   1.01728
 Alpha virt. eigenvalues --    1.04231   1.07602   1.09748   1.13070   1.17066
 Alpha virt. eigenvalues --    1.25061   1.29593   1.31813   1.34953   1.35734
 Alpha virt. eigenvalues --    1.39027   1.39943   1.43459   1.47285   1.50223
 Alpha virt. eigenvalues --    1.52366   1.55505   1.59954   1.66945   1.69101
 Alpha virt. eigenvalues --    1.73318   1.77941   1.79919   1.81658   1.84052
 Alpha virt. eigenvalues --    1.85381   1.87026   1.87892   1.88810   1.93138
 Alpha virt. eigenvalues --    1.95271   1.96568   1.99297   2.00927   2.04259
 Alpha virt. eigenvalues --    2.08045   2.09139   2.13072   2.14724   2.18374
 Alpha virt. eigenvalues --    2.19453   2.24775   2.26781   2.28916   2.29807
 Alpha virt. eigenvalues --    2.31147   2.35335   2.36796   2.40218   2.42554
 Alpha virt. eigenvalues --    2.44773   2.47741   2.55742   2.59906   2.62193
 Alpha virt. eigenvalues --    2.66229   2.69034   2.70939   2.77331   2.89846
 Alpha virt. eigenvalues --    2.93817   2.98819   3.04433   3.16120   3.21099
 Alpha virt. eigenvalues --    3.93789   4.04091   4.05038   4.14901   4.23416
 Alpha virt. eigenvalues --    4.25970   4.30778   4.39520   4.51727   4.65040
          Condensed to atoms (all electrons):
              1          2          3          4          5          6
     1  H    0.503380   0.359907  -0.021602  -0.020685  -0.017683   0.005127
     2  C    0.359907   5.326404   0.349424   0.352282   0.356751  -0.073568
     3  H   -0.021602   0.349424   0.559701  -0.026265  -0.027929   0.001285
     4  H   -0.020685   0.352282  -0.026265   0.539417  -0.025375   0.001148
     5  C   -0.017683   0.356751  -0.027929  -0.025375   4.340387   0.573380
     6  O    0.005127  -0.073568   0.001285   0.001148   0.573380   8.159546
     7  N    0.004598  -0.134662   0.005224   0.004585   0.257150  -0.098108
     8  H   -0.000137   0.000094   0.000671   0.000848  -0.017069   0.003677
     9  C   -0.000113   0.004007   0.000204  -0.000168  -0.039948  -0.009868
    10  H    0.000003  -0.000246   0.000020   0.000000   0.002488  -0.000016
    11  C    0.000008   0.000141  -0.000045   0.000025  -0.000110  -0.043608
    12  H    0.000014   0.000226   0.000010  -0.000031   0.000171   0.002812
    13  H   -0.000001   0.000035  -0.000002  -0.000001   0.001045   0.005161
    14  H    0.000010  -0.000304   0.000011   0.000004   0.000167  -0.006215
    15  C    0.000000  -0.000168   0.000001   0.000036   0.001186  -0.001012
    16  O    0.000000  -0.000075   0.000001   0.000063   0.002601  -0.000053
    17  N    0.000000   0.000001   0.000000   0.000000   0.000190   0.000009
    18  H    0.000000   0.000000   0.000000   0.000000  -0.000006   0.000020
    19  C    0.000000   0.000000   0.000000   0.000000  -0.000002   0.000001
    20  H    0.000000   0.000000   0.000000   0.000000  -0.000002   0.000000
    21  H    0.000000   0.000000   0.000000   0.000000   0.000000   0.000000
    22  H    0.000000   0.000000   0.000000   0.000000   0.000000   0.000000
              7          8          9         10         11         12
     1  H    0.004598  -0.000137  -0.000113   0.000003   0.000008   0.000014
     2  C   -0.134662   0.000094   0.004007  -0.000246   0.000141   0.000226
     3  H    0.005224   0.000671   0.000204   0.000020  -0.000045   0.000010
     4  H    0.004585   0.000848  -0.000168   0.000000   0.000025  -0.000031
     5  C    0.257150  -0.017069  -0.039948   0.002488  -0.000110   0.000171
     6  O   -0.098108   0.003677  -0.009868  -0.000016  -0.043608   0.002812
     7  N    7.082690   0.306447   0.272066  -0.040608  -0.042076  -0.005481
     8  H    0.306447   0.400625  -0.035073  -0.002210   0.005272  -0.000193
     9  C    0.272066  -0.035073   5.161965   0.370777   0.348169  -0.028659
    10  H   -0.040608  -0.002210   0.370777   0.592817  -0.038380   0.004708
    11  C   -0.042076   0.005272   0.348169  -0.038380   5.179517   0.381647
    12  H   -0.005481  -0.000193  -0.028659   0.004708   0.381647   0.475249
    13  H    0.004327  -0.000095  -0.029716  -0.003859   0.313595  -0.030327
    14  H   -0.001788  -0.000197  -0.025989  -0.004758   0.377075  -0.022970
    15  C   -0.058316   0.001258   0.298217  -0.040394  -0.047495  -0.000500
    16  O   -0.000852   0.004696  -0.094292   0.000489   0.000715   0.000443
    17  N    0.003716   0.000149  -0.133050   0.001366   0.004613  -0.000590
    18  H    0.000157  -0.000015   0.002144   0.000374  -0.000186  -0.000386
    19  C   -0.000118   0.000001   0.006426  -0.000350   0.000018  -0.000134
    20  H   -0.000015  -0.000003   0.001281  -0.000032  -0.000088  -0.000007
    21  H    0.000000   0.000000  -0.000249   0.000031   0.000024   0.000001
    22  H    0.000004   0.000000   0.000030  -0.000004  -0.000066   0.000008
             13         14         15         16         17         18
     1  H   -0.000001   0.000010   0.000000   0.000000   0.000000   0.000000
     2  C    0.000035  -0.000304  -0.000168  -0.000075   0.000001   0.000000
     3  H   -0.000002   0.000011   0.000001   0.000001   0.000000   0.000000
     4  H   -0.000001   0.000004   0.000036   0.000063   0.000000   0.000000
     5  C    0.001045   0.000167   0.001186   0.002601   0.000190  -0.000006
     6  O    0.005161  -0.006215  -0.001012  -0.000053   0.000009   0.000020
     7  N    0.004327  -0.001788  -0.058316  -0.000852   0.003716   0.000157
     8  H   -0.000095  -0.000197   0.001258   0.004696   0.000149  -0.000015
     9  C   -0.029716  -0.025989   0.298217  -0.094292  -0.133050   0.002144
    10  H   -0.003859  -0.004758  -0.040394   0.000489   0.001366   0.000374
    11  C    0.313595   0.377075  -0.047495   0.000715   0.004613  -0.000186
    12  H   -0.030327  -0.022970  -0.000500   0.000443  -0.000590  -0.000386
    13  H    0.678172  -0.031861  -0.016120  -0.000044  -0.001994   0.014347
    14  H   -0.031861   0.553574   0.004604  -0.000085   0.000393  -0.000394
    15  C   -0.016120   0.004604   4.392066   0.622190   0.268969  -0.022811
    16  O   -0.000044  -0.000085   0.622190   8.086522  -0.103954   0.003763
    17  N   -0.001994   0.000393   0.268969  -0.103954   7.109522   0.296940
    18  H    0.014347  -0.000394  -0.022811   0.003763   0.296940   0.403164
    19  C    0.000591   0.000002  -0.027511  -0.009881   0.266529  -0.030312
    20  H   -0.000015   0.000001  -0.000299   0.022492  -0.038026   0.003636
    21  H   -0.000025   0.000001   0.001753   0.000592  -0.043709  -0.001502
    22  H    0.000024  -0.000003   0.001257   0.000591  -0.044725   0.000059
             19         20         21         22
     1  H    0.000000   0.000000   0.000000   0.000000
     2  C    0.000000   0.000000   0.000000   0.000000
     3  H    0.000000   0.000000   0.000000   0.000000
     4  H    0.000000   0.000000   0.000000   0.000000
     5  C   -0.000002  -0.000002   0.000000   0.000000
     6  O    0.000001   0.000000   0.000000   0.000000
     7  N   -0.000118  -0.000015   0.000000   0.000004
     8  H    0.000001  -0.000003   0.000000   0.000000
     9  C    0.006426   0.001281  -0.000249   0.000030
    10  H   -0.000350  -0.000032   0.000031  -0.000004
    11  C    0.000018  -0.000088   0.000024  -0.000066
    12  H   -0.000134  -0.000007   0.000001   0.000008
    13  H    0.000591  -0.000015  -0.000025   0.000024
    14  H    0.000002   0.000001   0.000001  -0.000003
    15  C   -0.027511  -0.000299   0.001753   0.001257
    16  O   -0.009881   0.022492   0.000592   0.000591
    17  N    0.266529  -0.038026  -0.043709  -0.044725
    18  H   -0.030312   0.003636  -0.001502   0.000059
    19  C    4.965784   0.375779   0.381259   0.383987
    20  H    0.375779   0.474929  -0.023984  -0.024427
    21  H    0.381259  -0.023984   0.569833  -0.039171
    22  H    0.383987  -0.024427  -0.039171   0.561979
 Mulliken atomic charges:
              1
     1  H    0.187174
     2  C   -0.540250
     3  H    0.159291
     4  H    0.174117
     5  C    0.592608
     6  O   -0.519716
     7  N   -0.558940
     8  H    0.331256
     9  C   -0.068164
    10  H    0.157782
    11  C   -0.438765
    12  H    0.223990
    13  H    0.096760
    14  H    0.158722
    15  C    0.623088
    16  O   -0.535918
    17  N   -0.586351
    18  H    0.331006
    19  C   -0.312070
    20  H    0.208779
    21  H    0.155147
    22  H    0.160455
 Sum of Mulliken atomic charges =   0.00000
 Mulliken charges with hydrogens summed into heavy atoms:
              1
     2  C   -0.019668
     5  C    0.592608
     6  O   -0.519716
     7  N   -0.227685
     9  C    0.089618
    11  C    0.040708
    15  C    0.623088
    16  O   -0.535918
    17  N   -0.255345
    19  C    0.212311
 Sum of Mulliken charges with hydrogens summed into heavy atoms =   0.00000
 APT atomic charges:
              1
     1  H    0.648887
     2  C   -1.250359
     3  H    0.476146
     4  H    0.320898
     5  C    0.097995
     6  O   -0.304451
     7  N   -0.725812
     8  H    0.632669
     9  C   -0.470205
    10  H    0.463872
    11  C   -1.086089
    12  H    0.319266
    13  H    0.361673
    14  H    0.465312
    15  C   -0.002647
    16  O   -0.250395
    17  N   -0.398534
    18  H    0.552188
    19  C   -1.366547
    20  H    0.383961
    21  H    0.639220
    22  H    0.492955
 Sum of APT charges=   0.00000
 APT Atomic charges with hydrogens summed into heavy atoms:
              1
     1  H    0.000000
     2  C    0.195572
     3  H    0.000000
     4  H    0.000000
     5  C    0.097995
     6  O   -0.304451
     7  N   -0.093144
     8  H    0.000000
     9  C   -0.006333
    10  H    0.000000
    11  C    0.060162
    12  H    0.000000
    13  H    0.000000
    14  H    0.000000
    15  C   -0.002647
    16  O   -0.250395
    17  N    0.153654
    18  H    0.000000
    19  C    0.149588
    20  H    0.000000
    21  H    0.000000
    22  H    0.000000
 Sum of APT charges=   0.00000
 Electronic spatial extent (au):  <R**2>=           1799.9630
 Charge=              0.0000 electrons
 Dipole moment (field-independent basis, Debye):
    X=             -1.4846    Y=              0.6337    Z=              2.7468  Tot=              3.1859
 Quadrupole moment (field-independent basis, Debye-Ang):
   XX=            -50.5597   YY=            -63.6665   ZZ=            -58.7496
   XY=             -9.9729   XZ=              4.1238   YZ=              0.9067
 Traceless Quadrupole moment (field-independent basis, Debye-Ang):
   XX=              7.0989   YY=             -6.0079   ZZ=             -1.0910
   XY=             -9.9729   XZ=              4.1238   YZ=              0.9067
 Octapole moment (field-independent basis, Debye-Ang**2):
  XXX=            -20.3840  YYY=              2.6379  ZZZ=              2.7169  XYY=              0.0282
  XXY=             -7.1282  XXZ=              1.7781  XZZ=             -2.2272  YZZ=             -5.1087
  YYZ=              4.0489  XYZ=              1.4353
 Hexadecapole moment (field-independent basis, Debye-Ang**3):
 XXXX=          -1600.9858 YYYY=           -412.9218 ZZZZ=           -177.1683 XXXY=            -20.0127
 XXXZ=             13.3594 YYYX=            -11.3781 YYYZ=             -2.5658 ZZZX=              4.2657
 ZZZY=             -6.5070 XXYY=           -355.3498 XXZZ=           -316.5698 YYZZ=            -94.7181
 XXYZ=             10.9481 YYXZ=              5.5178 ZZXY=             -5.2001
 N-N= 5.646782997588D+02 E-N=-2.286066894312D+03  KE= 4.916785399149D+02
  Exact polarizability:   0.000   0.000   0.000   0.000   0.000   0.000
 Approx polarizability: 115.210 -10.469 123.366  -3.375  -8.132  97.046
 Calling FoFJK, ICntrl=    100147 FMM=F ISym2X=0 I1Cent= 0 IOpClX= 0 NMat=1 NMatS=1 NMatT=0.
 ***** Axes restored to original set *****
 -------------------------------------------------------------------
 Center     Atomic                   Forces (Hartrees/Bohr)
 Number     Number              X              Y              Z
 -------------------------------------------------------------------
      1        1           0.003615329    0.001373296   -0.000888274
      2        6           0.007155809    0.004722445    0.005996299
      3        1          -0.004565257   -0.003375723    0.003739873
      4        1          -0.005413933    0.000130014    0.002585094
      5        6          -0.019299256   -0.015557019   -0.031780522
      6        8          -0.029725419   -0.013758637   -0.009288804
      7        7           0.011459088    0.002673828    0.022214325
      8        1          -0.001256545    0.003841372   -0.001613964
      9        6           0.007679761    0.002247480   -0.010015744
     10        1           0.000639332   -0.001735284    0.006768967
     11        6           0.016251845    0.001388005   -0.002056053
     12        1           0.014278323    0.000362019    0.004156062
     13        1           0.007528926   -0.005049598    0.003281934
     14        1           0.003920160    0.000360516   -0.004990469
     15        6          -0.030410094   -0.000350521    0.012097276
     16        8          -0.002436346    0.001845683    0.001334083
     17        7           0.016346021    0.012685829   -0.001087042
     18        1          -0.002179129    0.002651986    0.000539048
     19        6           0.003371272   -0.000041894   -0.000029970
     20        1          -0.000348221   -0.003128355    0.000129806
     21        1           0.002377948    0.004640453    0.001827912
     22        1           0.001010385    0.004074104   -0.002919840
 -------------------------------------------------------------------
 Cartesian Forces:  Max     0.031780522 RMS     0.009599702

 GradGradGradGradGradGradGradGradGradGradGradGradGradGradGradGradGradGrad
 Berny optimization.
 Internal  Forces:  Max     0.116810197 RMS     0.020659456
 Search for a local minimum.
 Step number   1 out of a maximum of  132
 All quantities printed in internal units (Hartrees-Bohrs-Radians)
 Mixed Optimization -- RFO/linear search
 Second derivative matrix not updated -- analytic derivatives used.
     Eigenvalues ---   -0.01907  -0.00055  -0.00021   0.00288   0.00676
     Eigenvalues ---    0.01156   0.01509   0.02013   0.04280   0.04313
     Eigenvalues ---    0.04439   0.04757   0.05384   0.05703   0.05836
     Eigenvalues ---    0.05987   0.06416   0.06604   0.11654   0.12144
     Eigenvalues ---    0.12474   0.13276   0.13372   0.13640   0.13972
     Eigenvalues ---    0.14260   0.14978   0.17771   0.18409   0.18594
     Eigenvalues ---    0.18904   0.21297   0.22644   0.23547   0.24281
     Eigenvalues ---    0.28976   0.30140   0.30741   0.33742   0.34476
     Eigenvalues ---    0.34565   0.34886   0.35063   0.35090   0.35315
     Eigenvalues ---    0.35509   0.35800   0.35888   0.36140   0.39402
     Eigenvalues ---    0.45506   0.46906   0.50436   0.52773   0.55038
     Eigenvalues ---    0.80832   0.83064   1.788481000.000001000.00000
     Eigenvalues --- 1000.000001000.000001000.000001000.000001000.00000
     Eigenvalues --- 1000.000001000.000001000.000001000.000001000.00000
     Eigenvalues --- 1000.000001000.000001000.000001000.000001000.00000
     Eigenvalues --- 1000.000001000.000001000.000001000.000001000.00000
     Eigenvalues --- 1000.000001000.000001000.000001000.000001000.00000
     Eigenvalues --- 1000.000001000.000001000.000001000.000001000.00000
     Eigenvalues --- 1000.000001000.000001000.000001000.000001000.00000
     Eigenvalues --- 1000.000001000.000001000.00000
 RFO step:  Lambda=-3.42525650D-02 EMin=-1.90701890D-02
 Linear search not attempted -- first point.
 Maximum step size (   0.300) exceeded in Quadratic search.
    -- Step size scaled by   0.305
 Iteration  1 RMS(Cart)=  0.06112132 RMS(Int)=  0.00170681
 Iteration  2 RMS(Cart)=  0.00253661 RMS(Int)=  0.00011707
 Iteration  3 RMS(Cart)=  0.00000322 RMS(Int)=  0.00011704
 Iteration  4 RMS(Cart)=  0.00000000 RMS(Int)=  0.00011704
 Iteration  1 RMS(Cart)=  0.00003109 RMS(Int)=  0.00001259
 Iteration  2 RMS(Cart)=  0.00001720 RMS(Int)=  0.00001399
 Iteration  3 RMS(Cart)=  0.00000983 RMS(Int)=  0.00001592
 Iteration  4 RMS(Cart)=  0.00000584 RMS(Int)=  0.00001737
 Iteration  5 RMS(Cart)=  0.00000361 RMS(Int)=  0.00001836
 Iteration  6 RMS(Cart)=  0.00000230 RMS(Int)=  0.00001902
 Iteration  7 RMS(Cart)=  0.00000151 RMS(Int)=  0.00001945
 Iteration  8 RMS(Cart)=  0.00000100 RMS(Int)=  0.00001973
 Iteration  9 RMS(Cart)=  0.00000067 RMS(Int)=  0.00001992
 Variable       Old X    -DE/DX   Delta X   Delta X   Delta X     New X
                                 (Linear)    (Quad)   (Total)
    R1        2.05987  -0.00085   0.00000   0.00000   0.00000   2.05987
    R2        2.05970   0.00481   0.00000   0.00314   0.00314   2.06284
    R3        2.05987   0.00436   0.00000   0.00355   0.00355   2.06342
    R4        2.89121  -0.00090   0.00000  -0.00272  -0.00272   2.88848
    R5        2.32242  -0.00603   0.00000  -0.00011  -0.00011   2.32231
    R6        2.52294   0.05385   0.00000   0.01478   0.01478   2.53772
    R7        1.90870  -0.00074   0.00000  -0.00057  -0.00057   1.90813
    R8        2.73817   0.04293   0.00000   0.00305   0.00305   2.74122
    R9        2.05975   0.00633   0.00000   0.00519   0.00519   2.06494
   R10        2.88188   0.02267   0.00000   0.00774   0.00774   2.88962
   R11        2.87618   0.02342   0.00000   0.01219   0.01219   2.88837
   R12        2.05972  -0.01038   0.00000  -0.00569  -0.00569   2.05403
   R13        2.05984   0.00447   0.00000   0.00380   0.00380   2.06364
   R14        2.05966   0.00022   0.00000   0.00449   0.00449   2.06415
   R15        2.32246   0.00322   0.00000  -0.00258  -0.00258   2.31988
   R16        2.52279   0.02818   0.00000   0.01451   0.01451   2.53730
   R17        1.90852  -0.00323   0.00000  -0.00106  -0.00106   1.90746
   R18        2.73826   0.00555   0.00000   0.00219   0.00219   2.74045
   R19        2.05981  -0.00070   0.00000   0.00014   0.00014   2.05995
   R20        2.05984   0.00442   0.00000   0.00316   0.00316   2.06299
   R21        2.05982   0.00420   0.00000   0.00352   0.00352   2.06333
    A1        1.91116  -0.00014   0.00000   0.00165   0.00168   1.91285
    A2        1.91101   0.00028   0.00000  -0.00370  -0.00372   1.90729
    A3        1.93901  -0.00791   0.00000  -0.01118  -0.01117   1.92784
    A4        1.91015  -0.00495   0.00000  -0.00708  -0.00713   1.90302
    A5        1.89610   0.00700   0.00000   0.01793   0.01793   1.91403
    A6        1.89612   0.00577   0.00000   0.00247   0.00244   1.89856
    A7        2.10322  -0.01957   0.00000   0.00724   0.00705   2.11027
    A8        2.03502  -0.03831   0.00000  -0.01045  -0.01063   2.02438
    A9        2.14495   0.05788   0.00000   0.00321   0.00302   2.14798
   A10        2.09432  -0.05815   0.00000  -0.00748  -0.00757   2.08676
   A11        2.12756   0.11681   0.00000   0.01414   0.01406   2.14162
   A12        2.06130  -0.05866   0.00000  -0.00666  -0.00675   2.05455
   A13        1.91114  -0.01521   0.00000  -0.01358  -0.01373   1.89740
   A14        1.93905   0.05630   0.00000   0.00785   0.00752   1.94657
   A15        1.93900  -0.03252   0.00000  -0.00850  -0.00926   1.92975
   A16        1.89609  -0.02070   0.00000  -0.02059  -0.02043   1.87566
   A17        1.89608   0.00837   0.00000  -0.01256  -0.01251   1.88357
   A18        1.88137   0.00332   0.00000   0.04730   0.04734   1.92871
   A19        1.91115   0.01172   0.00000   0.01419   0.01413   1.92528
   A20        1.91106  -0.00285   0.00000   0.00368   0.00360   1.91466
   A21        1.91110   0.00713   0.00000  -0.00558  -0.00557   1.90553
   A22        1.91011  -0.00434   0.00000   0.00881   0.00866   1.91876
   A23        1.91023  -0.00534   0.00000  -0.01192  -0.01189   1.89835
   A24        1.91015  -0.00635   0.00000  -0.00920  -0.00920   1.90095
   A25        2.10312  -0.00420   0.00000   0.00382   0.00382   2.10694
   A26        2.03504   0.00955   0.00000  -0.00625  -0.00626   2.02878
   A27        2.14503  -0.00535   0.00000   0.00243   0.00243   2.14746
   A28        2.09446  -0.00013   0.00000  -0.00376  -0.00379   2.09068
   A29        2.12752   0.00269   0.00000   0.00310   0.00308   2.13060
   A30        2.06121  -0.00256   0.00000   0.00066   0.00063   2.06184
   A31        1.91120  -0.00635   0.00000  -0.00960  -0.00958   1.90161
   A32        1.91107   0.00518   0.00000   0.00608   0.00606   1.91713
   A33        1.91120   0.00441   0.00000   0.00817   0.00815   1.91935
   A34        1.91014  -0.00010   0.00000   0.00046   0.00047   1.91061
   A35        1.91008   0.00003   0.00000  -0.00193  -0.00191   1.90817
   A36        1.91011  -0.00317   0.00000  -0.00318  -0.00322   1.90690
    D1       -0.00007   0.00047   0.00000   0.07213   0.07217   0.07210
    D2        3.14150  -0.00055   0.00000   0.03724   0.03724  -3.10444
    D3        2.10331  -0.00007   0.00000   0.07885   0.07883   2.18214
    D4       -1.03831  -0.00109   0.00000   0.04396   0.04391  -0.99440
    D5       -2.10327   0.00130   0.00000   0.08203   0.08205  -2.02121
    D6        1.03830   0.00028   0.00000   0.04713   0.04713   1.08543
    D7        0.00001  -0.00313   0.00000  -0.05506  -0.05505  -0.05503
    D8        3.14151   0.00050   0.00000  -0.07972  -0.07978   3.06174
    D9        3.14158  -0.00417   0.00000  -0.09086  -0.09080   3.05078
   D10       -0.00011  -0.00054   0.00000  -0.11552  -0.11553  -0.11564
   D11       -2.35613  -0.01029   0.00000  -0.02983  -0.02968  -2.38581
   D12       -0.26169  -0.01036   0.00000  -0.05931  -0.05912  -0.32081
   D13        1.83266   0.00972   0.00000   0.00000   0.00000   1.83266
   D14        0.78537  -0.00672   0.00000  -0.05404  -0.05398   0.73139
   D15        2.87981  -0.00679   0.00000  -0.08352  -0.08342   2.79639
   D16       -1.30902   0.01329   0.00000  -0.02421  -0.02430  -1.33332
   D17        1.04724   0.00284   0.00000   0.01800   0.01815   1.06539
   D18        3.14157   0.00297   0.00000   0.03975   0.03999  -3.10163
   D19       -1.04726  -0.00218   0.00000   0.02732   0.02753  -1.01974
   D20       -3.13259   0.00548   0.00000  -0.00727  -0.00723  -3.13982
   D21       -1.03826   0.00561   0.00000   0.01449   0.01461  -1.02365
   D22        1.05609   0.00046   0.00000   0.00205   0.00215   1.05824
   D23       -1.08102   0.00608   0.00000  -0.00732  -0.00765  -1.08868
   D24        1.01331   0.00621   0.00000   0.01444   0.01419   1.02749
   D25        3.10766   0.00106   0.00000   0.00200   0.00173   3.10939
   D26        0.26182  -0.02860   0.00000   0.00463   0.00462   0.26645
   D27       -2.87984  -0.03105   0.00000   0.00000   0.00000  -2.87984
   D28       -1.84149   0.00493   0.00000   0.03482   0.03480  -1.80669
   D29        1.30003   0.00249   0.00000   0.03019   0.03018   1.33021
   D30        2.39011   0.02313   0.00000   0.04006   0.04011   2.43022
   D31       -0.75155   0.02068   0.00000   0.03543   0.03548  -0.71607
   D32        0.00013   0.00143   0.00000   0.01718   0.01716   0.01729
   D33        3.14153   0.00169   0.00000   0.00394   0.00394  -3.13771
   D34       -3.14154  -0.00108   0.00000   0.01242   0.01242  -3.12912
   D35       -0.00013  -0.00082   0.00000  -0.00082  -0.00080  -0.00094
   D36        0.00010  -0.00022   0.00000   0.03684   0.03684   0.03694
   D37        2.09451  -0.00106   0.00000   0.03524   0.03523   2.12973
   D38       -2.09431   0.00093   0.00000   0.04008   0.04011  -2.05420
   D39        3.14151   0.00003   0.00000   0.02384   0.02383  -3.11784
   D40       -1.04727  -0.00081   0.00000   0.02224   0.02222  -1.02506
   D41        1.04710   0.00118   0.00000   0.02708   0.02710   1.07419
         Item               Value     Threshold  Converged?
 Maximum Force            0.116810     0.000450     NO 
 RMS     Force            0.020256     0.000300     NO 
 Maximum Displacement     0.251861     0.001800     NO 
 RMS     Displacement     0.060966     0.001200     NO 
 Predicted change in Energy=-1.009126D-02
 GradGradGradGradGradGradGradGradGradGradGradGradGradGradGradGradGradGrad

                          Input orientation:                          
 ---------------------------------------------------------------------
 Center     Atomic      Atomic             Coordinates (Angstroms)
 Number     Number       Type             X           Y           Z
 ---------------------------------------------------------------------
      1          1           0        1.353188    2.254823   -1.878103
      2          6           0        1.676240    2.712462   -0.943016
      3          1           0        1.777380    1.943532   -0.174817
      4          1           0        0.929371    3.441153   -0.621345
      5          6           0        3.013010    3.428992   -1.132759
      6          8           0        3.538697    3.501379   -2.241202
      7          7           0        3.537409    3.996767   -0.034566
      8          1           0        3.022237    3.971844    0.833505
      9          6           0        4.842858    4.629186   -0.026454
     10          1           0        5.371403    4.330626    0.882136
     11          6           0        5.690301    4.182356   -1.218259
     12          1           0        5.205586    4.459409   -2.150860
     13          1           0        6.678498    4.643557   -1.160865
     14          1           0        5.804214    3.096367   -1.190506
     15          6           0        4.702122    6.151065   -0.010109
     16          8           0        3.630303    6.678725    0.272474
     17          7           0        5.806111    6.852631   -0.313103
     18          1           0        6.659439    6.367714   -0.548770
     19          6           0        5.816313    8.302667   -0.330928
     20          1           0        4.833489    8.667367   -0.032059
     21          1           0        6.570131    8.676524    0.364612
     22          1           0        6.044599    8.661656   -1.336506
 ---------------------------------------------------------------------
                    Distance matrix (angstroms):
                    1          2          3          4          5
     1  H    0.000000
     2  C    1.090037   0.000000
     3  H    1.782701   1.091610   0.000000
     4  H    1.779448   1.091914   1.778026   0.000000
     5  C    2.165460   1.528519   2.156624   2.145517   0.000000
     6  O    2.542084   2.403418   3.130347   3.071830   1.228915
     7  N    3.347210   2.436939   2.707979   2.730363   1.342904
     8  H    3.617554   2.560035   2.584653   2.603519   2.039845
     9  C    4.609121   3.813317   4.078223   4.132880   2.452085
    10  H    5.298483   4.427625   4.442113   4.773182   3.230289
    11  C    4.791798   4.283577   4.627316   4.855115   2.782581
    12  H    4.446972   4.119100   4.689027   4.654274   2.627865
    13  H    5.880425   5.366485   5.681846   5.898247   3.861575
    14  H    4.581770   4.153168   4.309993   4.920052   2.811547
    15  C    5.466760   4.674427   5.126849   4.685177   3.394573
    16  O    5.420437   4.585523   5.104454   4.309967   3.593952
    17  N    6.589202   5.881634   6.352090   5.959512   4.493834
    18  H    6.843924   6.192622   6.599070   6.434571   4.719489
    19  C    7.673959   6.983212   7.534982   6.899338   5.679273
    20  H    7.526027   6.801394   7.387161   6.550016   5.653871
    21  H    8.572310   7.824966   8.282187   7.758827   6.513971
    22  H    7.959282   7.391232   8.043126   7.343750   6.050852
                    6          7          8          9         10
     6  O    0.000000
     7  N    2.261559   0.000000
     8  H    3.153076   1.009739   0.000000
     9  C    2.806758   1.450592   2.118087   0.000000
    10  H    3.715064   2.077339   2.376904   1.092719   0.000000
    11  C    2.477810   2.463842   3.372332   1.529122   2.129634
    12  H    1.924708   2.734145   3.729768   2.161827   3.040254
    13  H    3.511416   3.399018   4.218644   2.157931   2.445460
    14  H    2.529934   2.699134   3.549997   2.151454   2.450830
    15  C    3.654062   2.449113   2.877969   1.528460   2.134956
    16  O    4.052466   2.701074   2.830496   2.400054   2.986083
    17  N    4.482144   3.657943   4.166965   2.440026   2.824549
    18  H    4.562809   3.953842   4.569477   2.568123   2.802902
    19  C    5.647039   4.880779   5.283824   3.812451   4.176911
    20  H    5.765780   4.847095   5.106640   4.038196   4.464575
    21  H    6.539264   5.590784   5.911127   4.417844   4.537798
    22  H    5.807450   5.453644   5.986481   4.406952   4.912574
                   11         12         13         14         15
    11  C    0.000000
    12  H    1.086946   0.000000
    13  H    1.092031   1.784228   0.000000
    14  H    1.092300   1.771587   1.777371   0.000000
    15  C    2.512358   2.774526   2.739139   3.455304   0.000000
    16  O    3.563389   3.644095   3.935462   4.438411   1.227630
    17  N    2.821894   3.076604   2.521858   3.857377   1.342680
    18  H    2.482586   2.884790   1.829684   3.441649   2.041612
    19  C    4.216658   4.296019   3.849837   5.276797   2.444123
    20  H    4.717682   4.725959   4.568294   5.772378   2.519824
    21  H    4.845320   5.096434   4.313195   5.843216   3.163513
    22  H    4.494846   4.361880   4.071584   5.572391   3.140802
                   16         17         18         19         20
    16  O    0.000000
    17  N    2.259930   0.000000
    18  H    3.153861   1.009382   0.000000
    19  C    2.789251   1.450182   2.121876   0.000000
    20  H    2.344162   2.078039   2.981524   1.090078   0.000000
    21  H    3.555598   2.090361   2.484521   1.091689   1.781392
    22  H    3.514208   2.092081   2.502144   1.091868   1.780000
                   21         22
    21  H    0.000000
    22  H    1.780507   0.000000
 Stoichiometry    C6H12N2O2
 Framework group  C1[X(C6H12N2O2)]
 Deg. of freedom    60
 Full point group                 C1      NOp   1
 Largest Abelian subgroup         C1      NOp   1
 Largest concise Abelian subgroup C1      NOp   1
                         Standard orientation:                         
 ---------------------------------------------------------------------
 Center     Atomic      Atomic             Coordinates (Angstroms)
 Number     Number       Type             X           Y           Z
 ---------------------------------------------------------------------
      1          1           0        4.101836   -0.475827   -0.895926
      2          6           0        3.386950   -0.852966   -0.164567
      3          1           0        3.825599   -0.806368    0.833946
      4          1           0        3.145131   -1.891597   -0.399188
      5          6           0        2.100614   -0.028083   -0.200330
      6          8           0        1.946656    0.865629   -1.029671
      7          7           0        1.156656   -0.371054    0.691132
      8          1           0        1.308074   -1.164878    1.296515
      9          6           0       -0.078330    0.373029    0.850400
     10          1           0       -0.283317    0.487831    1.917562
     11          6           0        0.030031    1.775331    0.250380
     12          1           0        0.232735    1.714879   -0.815786
     13          1           0       -0.899462    2.322163    0.422280
     14          1           0        0.850272    2.310287    0.734264
     15          6           0       -1.247829   -0.387635    0.226020
     16          8           0       -1.140112   -1.575800   -0.063353
     17          7           0       -2.374341    0.315199    0.026558
     18          1           0       -2.405251    1.293539    0.273028
     19          6           0       -3.562008   -0.281801   -0.553154
     20          1           0       -3.372800   -1.339407   -0.737383
     21          1           0       -4.403014   -0.177083    0.134980
     22          1           0       -3.804937    0.211568   -1.496418
 ---------------------------------------------------------------------
 Rotational constants (GHZ):      2.8280174      0.7356627      0.6591332
 Standard basis: 6-31G(d) (6D, 7F)
 There are   174 symmetry adapted basis functions of A   symmetry.
 Integral buffers will be    131072 words long.
 Raffenetti 2 integral format.
 Two-electron integral symmetry is turned on.
   174 basis functions,   328 primitive gaussians,   174 cartesian basis functions
    39 alpha electrons       39 beta electrons
       nuclear repulsion energy       561.9900209780 Hartrees.
 NAtoms=   22 NActive=   22 NUniq=   22 SFac= 7.50D-01 NAtFMM=   80 NAOKFM=F Big=F
 One-electron integrals computed using PRISM.
 NBasis=   174 RedAO= T  NBF=   174
 NBsUse=   174 1.00D-06 NBFU=   174
 Initial guess read from the read-write file.
 B after Tr=     0.000000    0.000000    0.000000
         Rot=    1.000000    0.000000    0.000000    0.000000 Ang=   0.00 deg.
 Initial guess orbital symmetries:
       Occupied  (A) (A) (A) (A) (A) (A) (A) (A) (A) (A) (A) (A)
                 (A) (A) (A) (A) (A) (A) (A) (A) (A) (A) (A) (A)
                 (A) (A) (A) (A) (A) (A) (A) (A) (A) (A) (A) (A)
                 (A) (A) (A)
       Virtual   (A) (A) (A) (A) (A) (A) (A) (A) (A) (A) (A) (A)
                 (A) (A) (A) (A) (A) (A) (A) (A) (A) (A) (A) (A)
                 (A) (A) (A) (A) (A) (A) (A) (A) (A) (A) (A) (A)
                 (A) (A) (A) (A) (A) (A) (A) (A) (A) (A) (A) (A)
                 (A) (A) (A) (A) (A) (A) (A) (A) (A) (A) (A) (A)
                 (A) (A) (A) (A) (A) (A) (A) (A) (A) (A) (A) (A)
                 (A) (A) (A) (A) (A) (A) (A) (A) (A) (A) (A) (A)
                 (A) (A) (A) (A) (A) (A) (A) (A) (A) (A) (A) (A)
                 (A) (A) (A) (A) (A) (A) (A) (A) (A) (A) (A) (A)
                 (A) (A) (A) (A) (A) (A) (A) (A) (A) (A) (A) (A)
                 (A) (A) (A) (A) (A) (A) (A) (A) (A) (A) (A) (A)
                 (A) (A) (A)
 Harris functional with IExCor=  402 diagonalized for initial guess.
 ExpMin= 1.61D-01 ExpMax= 5.48D+03 ExpMxC= 8.25D+02 IAcc=1 IRadAn=         1 AccDes= 0.00D+00
 HarFok:  IExCor=  402 AccDes= 0.00D+00 IRadAn=         1 IDoV= 1
 ScaDFX=  1.000000  1.000000  1.000000  1.000000
 FoFCou: FMM=F IPFlag=           0 FMFlag=      100000 FMFlg1=           0
         NFxFlg=           0 DoJE=T BraDBF=F KetDBF=T FulRan=T
         Omega=  0.000000  0.000000  1.000000  0.000000  0.000000 ICntrl=     500 IOpCl=  0
         NMat0=    1 NMatS0=    1 NMatT0=    0 NMatD0=    1 NMtDS0=    0 NMtDT0=    0
         I1Cent=           4 NGrid=           0.
 Petite list used in FoFCou.
 Requested convergence on RMS density matrix=1.00D-08 within 128 cycles.
 Requested convergence on MAX density matrix=1.00D-06.
 Requested convergence on             energy=1.00D-06.
 No special actions if energy rises.
 Integral accuracy reduced to 1.0D-05 until final iterations.
 Initial convergence to 1.0D-05 achieved.  Increase integral accuracy.
 SCF Done:  E(RB3LYP) =  -495.824741375     A.U. after   13 cycles
             Convg  =    0.5528D-08             -V/T =  2.0087
 Calling FoFJK, ICntrl=      2127 FMM=F ISym2X=0 I1Cent= 0 IOpClX= 0 NMat=1 NMatS=1 NMatT=0.
 ***** Axes restored to original set *****
 -------------------------------------------------------------------
 Center     Atomic                   Forces (Hartrees/Bohr)
 Number     Number              X              Y              Z
 -------------------------------------------------------------------
      1        1           0.002526223    0.001162298   -0.000781135
      2        6           0.005825742    0.003260379    0.004582633
      3        1          -0.003244281   -0.002554555    0.002758263
      4        1          -0.004021502   -0.000204288    0.001897221
      5        6          -0.017335577   -0.005659793   -0.025071615
      6        8          -0.020257880   -0.009487170   -0.005587132
      7        7           0.010722051   -0.002139551    0.016568567
      8        1          -0.000710543    0.002217962   -0.000961419
      9        6           0.005835099    0.001449107   -0.007583647
     10        1          -0.000592443   -0.000705979    0.005649740
     11        6           0.012017397    0.000275210   -0.000141189
     12        1           0.009321734    0.000180015    0.002698414
     13        1           0.005263699   -0.004417430    0.002736019
     14        1           0.002982549    0.000231126   -0.003442526
     15        6          -0.022029392    0.000131810    0.005737726
     16        8          -0.001293515    0.001241256    0.001838671
     17        7           0.011854101    0.009245700   -0.000215525
     18        1          -0.001611928    0.001853452    0.000114536
     19        6           0.002730664   -0.000249613   -0.000106981
     20        1          -0.000294663   -0.002298706    0.000068728
     21        1           0.001720958    0.003410073    0.001316724
     22        1           0.000591507    0.003058698   -0.002076074
 -------------------------------------------------------------------
 Cartesian Forces:  Max     0.025071615 RMS     0.007019845

 GradGradGradGradGradGradGradGradGradGradGradGradGradGradGradGradGradGrad
 Berny optimization.
 Using GEDIIS/GDIIS optimizer.
 Internal  Forces:  Max     0.080484068 RMS     0.014307813
 Search for a local minimum.
 Step number   2 out of a maximum of  132
 All quantities printed in internal units (Hartrees-Bohrs-Radians)
 Mixed Optimization -- RFO/linear search
 Update second derivatives using D2CorX and points    1    2
 DE= -9.84D-03 DEPred=-1.01D-02 R= 9.75D-01
 SS=  1.41D+00  RLast= 3.00D-01 DXNew= 5.0454D-01 8.9998D-01
 Trust test= 9.75D-01 RLast= 3.00D-01 DXMaxT set to 5.05D-01
 Use linear search instead of GDIIS.
     Eigenvalues ---   -0.04128  -0.00056  -0.00021   0.00288   0.00677
     Eigenvalues ---    0.01155   0.01516   0.02017   0.04296   0.04338
     Eigenvalues ---    0.04442   0.04762   0.05376   0.05708   0.05835
     Eigenvalues ---    0.05985   0.06413   0.06604   0.11623   0.12129
     Eigenvalues ---    0.12473   0.13194   0.13361   0.13641   0.14002
     Eigenvalues ---    0.14261   0.14975   0.17686   0.18361   0.18568
     Eigenvalues ---    0.18776   0.21294   0.22371   0.22656   0.24282
     Eigenvalues ---    0.28705   0.30121   0.30738   0.33642   0.34377
     Eigenvalues ---    0.34566   0.34840   0.35045   0.35092   0.35254
     Eigenvalues ---    0.35508   0.35811   0.35885   0.36181   0.39338
     Eigenvalues ---    0.44752   0.46874   0.48963   0.50479   0.53346
     Eigenvalues ---    0.80440   0.82919   1.442101000.000001000.00000
     Eigenvalues --- 1000.000001000.000001000.000001000.000001000.00000
     Eigenvalues --- 1000.000001000.000001000.000001000.000001000.00000
     Eigenvalues --- 1000.000001000.000001000.000001000.000001000.00000
     Eigenvalues --- 1000.000001000.000001000.000001000.000001000.00000
     Eigenvalues --- 1000.000001000.000001000.000001000.000001000.00000
     Eigenvalues --- 1000.000001000.000001000.000001000.000001000.00000
     Eigenvalues --- 1000.000001000.000001000.000001000.000001000.00000
     Eigenvalues --- 1000.000001000.000001000.00000
 RFO step:  Lambda=-4.28691633D-02 EMin=-4.12779667D-02
 Quartic linear search produced a step of  1.67547.
 Maximum step size (   0.505) exceeded in Quadratic search.
    -- Step size scaled by   0.439
 Iteration  1 RMS(Cart)=  0.11717319 RMS(Int)=  0.00291418
 Iteration  2 RMS(Cart)=  0.00650729 RMS(Int)=  0.00050390
 Iteration  3 RMS(Cart)=  0.00001436 RMS(Int)=  0.00050388
 Iteration  4 RMS(Cart)=  0.00000001 RMS(Int)=  0.00050388
 Iteration  1 RMS(Cart)=  0.00032067 RMS(Int)=  0.00009900
 Iteration  2 RMS(Cart)=  0.00017224 RMS(Int)=  0.00011062
 Iteration  3 RMS(Cart)=  0.00009255 RMS(Int)=  0.00012472
 Iteration  4 RMS(Cart)=  0.00004974 RMS(Int)=  0.00013385
 Iteration  5 RMS(Cart)=  0.00002675 RMS(Int)=  0.00013911
 Iteration  6 RMS(Cart)=  0.00001439 RMS(Int)=  0.00014202
 Iteration  7 RMS(Cart)=  0.00000775 RMS(Int)=  0.00014361
 Iteration  8 RMS(Cart)=  0.00000417 RMS(Int)=  0.00014447
 Iteration  9 RMS(Cart)=  0.00000225 RMS(Int)=  0.00014493
 Iteration 10 RMS(Cart)=  0.00000122 RMS(Int)=  0.00014518
 Iteration 11 RMS(Cart)=  0.00000066 RMS(Int)=  0.00014532
 Variable       Old X    -DE/DX   Delta X   Delta X   Delta X     New X
                                 (Linear)    (Quad)   (Total)
    R1        2.05987  -0.00057   0.00000   0.00010   0.00010   2.05997
    R2        2.06284   0.00344   0.00527   0.00584   0.01111   2.07395
    R3        2.06342   0.00317   0.00595   0.00464   0.01059   2.07401
    R4        2.88848  -0.00068  -0.00456  -0.00254  -0.00710   2.88138
    R5        2.32231  -0.00419  -0.00018  -0.00311  -0.00329   2.31902
    R6        2.53772   0.03811   0.02477   0.03161   0.05638   2.59410
    R7        1.90813  -0.00052  -0.00095  -0.00004  -0.00100   1.90713
    R8        2.74122   0.02972   0.00511   0.00605   0.01116   2.75238
    R9        2.06494   0.00460   0.00870   0.00714   0.01584   2.08078
   R10        2.88962   0.01604   0.01297   0.01645   0.02942   2.91904
   R11        2.88837   0.01717   0.02043   0.03709   0.05752   2.94589
   R12        2.05403  -0.00643  -0.00953   0.00790  -0.00163   2.05240
   R13        2.06364   0.00304   0.00636   0.00402   0.01038   2.07402
   R14        2.06415  -0.00001   0.00752  -0.00567   0.00185   2.06600
   R15        2.31988   0.00209  -0.00432  -0.00151  -0.00583   2.31405
   R16        2.53730   0.02038   0.02431   0.02351   0.04782   2.58512
   R17        1.90746  -0.00228  -0.00178  -0.00181  -0.00358   1.90387
   R18        2.74045   0.00397   0.00367   0.00457   0.00824   2.74868
   R19        2.05995  -0.00048   0.00023  -0.00017   0.00006   2.06001
   R20        2.06299   0.00319   0.00529   0.00571   0.01100   2.07400
   R21        2.06333   0.00304   0.00589   0.00470   0.01059   2.07392
    A1        1.91285  -0.00008   0.00282  -0.00581  -0.00268   1.91017
    A2        1.90729   0.00009  -0.00624   0.00385  -0.00219   1.90510
    A3        1.92784  -0.00583  -0.01872  -0.01635  -0.03479   1.89305
    A4        1.90302  -0.00373  -0.01195  -0.00999  -0.02261   1.88041
    A5        1.91403   0.00520   0.03003   0.00275   0.03259   1.94662
    A6        1.89856   0.00437   0.00408   0.02579   0.02962   1.92818
    A7        2.11027  -0.01288   0.01181   0.01348   0.02494   2.13521
    A8        2.02438  -0.02634  -0.01782  -0.02432  -0.04248   1.98190
    A9        2.14798   0.03919   0.00506   0.01318   0.01790   2.16588
   A10        2.08676  -0.04001  -0.01268  -0.02403  -0.03738   2.04938
   A11        2.14162   0.08048   0.02355   0.04979   0.07267   2.21429
   A12        2.05455  -0.04039  -0.01130  -0.02361  -0.03560   2.01896
   A13        1.89740  -0.01061  -0.02301   0.01364  -0.01083   1.88658
   A14        1.94657   0.03897   0.01261   0.00525   0.01834   1.96491
   A15        1.92975  -0.02369  -0.01551  -0.03632  -0.05478   1.87496
   A16        1.87566  -0.01398  -0.03424   0.01824  -0.01537   1.86029
   A17        1.88357   0.00581  -0.02096   0.00287  -0.01913   1.86444
   A18        1.92871   0.00255   0.07931  -0.00174   0.07828   2.00699
   A19        1.92528   0.00809   0.02367   0.00079   0.02411   1.94939
   A20        1.91466  -0.00161   0.00603   0.00213   0.00784   1.92250
   A21        1.90553   0.00499  -0.00933   0.02226   0.01291   1.91844
   A22        1.91876  -0.00292   0.01450  -0.01084   0.00308   1.92184
   A23        1.89835  -0.00381  -0.01991  -0.00406  -0.02403   1.87432
   A24        1.90095  -0.00485  -0.01542  -0.01024  -0.02564   1.87530
   A25        2.10694  -0.00305   0.00640  -0.00330   0.00309   2.11003
   A26        2.02878   0.00694  -0.01048   0.00888  -0.00162   2.02716
   A27        2.14746  -0.00390   0.00407  -0.00556  -0.00150   2.14596
   A28        2.09068  -0.00014  -0.00634  -0.00165  -0.00803   2.08265
   A29        2.13060   0.00193   0.00516   0.00368   0.00880   2.13939
   A30        2.06184  -0.00179   0.00106  -0.00183  -0.00082   2.06102
   A31        1.90161  -0.00472  -0.01606  -0.01309  -0.02898   1.87263
   A32        1.91713   0.00385   0.01016   0.01282   0.02284   1.93996
   A33        1.91935   0.00329   0.01366   0.00691   0.02042   1.93978
   A34        1.91061  -0.00009   0.00079  -0.00242  -0.00147   1.90914
   A35        1.90817  -0.00001  -0.00320   0.00091  -0.00214   1.90604
   A36        1.90690  -0.00235  -0.00539  -0.00520  -0.01100   1.89589
    D1        0.07210   0.00013   0.12091  -0.11633   0.00465   0.07675
    D2       -3.10444  -0.00015   0.06240  -0.04333   0.01909  -3.08535
    D3        2.18214  -0.00033   0.13208  -0.13223  -0.00052   2.18162
    D4       -0.99440  -0.00060   0.07357  -0.05924   0.01393  -0.98047
    D5       -2.02121   0.00082   0.13748  -0.12728   0.01056  -2.01065
    D6        1.08543   0.00055   0.07897  -0.05429   0.02501   1.11044
    D7       -0.05503  -0.00321  -0.09223   0.07876  -0.01325  -0.06829
    D8        3.06174   0.00039  -0.13366   0.18313   0.04921   3.11094
    D9        3.05078  -0.00469  -0.15213   0.15348   0.00161   3.05239
   D10       -0.11564  -0.00108  -0.19357   0.25785   0.06407  -0.05156
   D11       -2.38581  -0.00874  -0.04973  -0.00952  -0.05860  -2.44441
   D12       -0.32081  -0.00934  -0.09906   0.02465  -0.07355  -0.39436
   D13        1.83266   0.00453   0.00000   0.00000   0.00000   1.83266
   D14        0.73139  -0.00524  -0.09044   0.09300   0.00286   0.73426
   D15        2.79639  -0.00584  -0.13977   0.12717  -0.01209   2.78431
   D16       -1.33332   0.00804  -0.04071   0.10252   0.06146  -1.27186
   D17        1.06539   0.00260   0.03040  -0.03397  -0.00262   1.06276
   D18       -3.10163   0.00312   0.06700  -0.04558   0.02266  -3.07897
   D19       -1.01974  -0.00074   0.04612  -0.04331   0.00388  -1.01585
   D20       -3.13982   0.00347  -0.01211  -0.00285  -0.01505   3.12831
   D21       -1.02365   0.00399   0.02448  -0.01446   0.01024  -1.01342
   D22        1.05824   0.00013   0.00360  -0.01219  -0.00854   1.04970
   D23       -1.08868   0.00366  -0.01282   0.01032  -0.00379  -1.09246
   D24        1.02749   0.00418   0.02377  -0.00129   0.02150   1.04899
   D25        3.10939   0.00032   0.00290   0.00098   0.00272   3.11210
   D26        0.26645  -0.01887   0.00775  -0.00371   0.00446   0.27091
   D27       -2.87984  -0.02106   0.00000   0.00000   0.00000  -2.87984
   D28       -1.80669   0.00410   0.05831  -0.00111   0.05679  -1.74990
   D29        1.33021   0.00191   0.05056   0.00261   0.05233   1.38254
   D30        2.43022   0.01610   0.06720  -0.02378   0.04299   2.47321
   D31       -0.71607   0.01391   0.05945  -0.02007   0.03854  -0.67753
   D32        0.01729   0.00144   0.02875  -0.01560   0.01334   0.03063
   D33       -3.13771   0.00152   0.00661   0.00247   0.00930  -3.12841
   D34       -3.12912  -0.00080   0.02080  -0.01178   0.00880  -3.12032
   D35       -0.00094  -0.00072  -0.00134   0.00629   0.00476   0.00382
   D36        0.03694  -0.00013   0.06173  -0.05582   0.00593   0.04287
   D37        2.12973  -0.00080   0.05902  -0.05908  -0.00028   2.12946
   D38       -2.05420   0.00080   0.06720  -0.05306   0.01438  -2.03983
   D39       -3.11784  -0.00004   0.03993  -0.03804   0.00188  -3.11596
   D40       -1.02506  -0.00071   0.03722  -0.04130  -0.00432  -1.02938
   D41        1.07419   0.00089   0.04540  -0.03528   0.01033   1.08452
         Item               Value     Threshold  Converged?
 Maximum Force            0.080486     0.000450     NO 
 RMS     Force            0.014049     0.000300     NO 
 Maximum Displacement     0.385605     0.001800     NO 
 RMS     Displacement     0.119481     0.001200     NO 
 Predicted change in Energy=-1.459302D-02
 GradGradGradGradGradGradGradGradGradGradGradGradGradGradGradGradGradGrad

                          Input orientation:                          
 ---------------------------------------------------------------------
 Center     Atomic      Atomic             Coordinates (Angstroms)
 Number     Number       Type             X           Y           Z
 ---------------------------------------------------------------------
      1          1           0        1.226473    2.316644   -1.790787
      2          6           0        1.611356    2.794125   -0.889581
      3          1           0        1.675233    2.053266   -0.082410
      4          1           0        0.911856    3.577203   -0.570153
      5          6           0        2.976258    3.395194   -1.206848
      6          8           0        3.453094    3.380819   -2.337499
      7          7           0        3.590577    3.965588   -0.119800
      8          1           0        3.073595    3.989738    0.746602
      9          6           0        4.907281    4.587339   -0.086593
     10          1           0        5.397239    4.300405    0.856824
     11          6           0        5.824747    4.094807   -1.227530
     12          1           0        5.409639    4.325307   -2.204329
     13          1           0        6.823634    4.538444   -1.127700
     14          1           0        5.940942    3.009256   -1.169746
     15          6           0        4.693654    6.130595   -0.032894
     16          8           0        3.602295    6.604597    0.256522
     17          7           0        5.788585    6.900917   -0.314164
     18          1           0        6.655879    6.453241   -0.563992
     19          6           0        5.750791    8.354744   -0.288806
     20          1           0        4.748783    8.647438    0.025280
     21          1           0        6.486631    8.757751    0.418764
     22          1           0        5.954359    8.773385   -1.282659
 ---------------------------------------------------------------------
                    Distance matrix (angstroms):
                    1          2          3          4          5
     1  H    0.000000
     2  C    1.090089   0.000000
[...]
    13  H    6.172020   5.586063   5.960370   6.013792   4.092272
    14  H    4.831510   4.454423   4.867049   5.106844   2.977599
    15  C    5.433722   4.483450   4.696794   4.497806   3.446494
    16  O    5.308874   4.263696   4.350707   4.072530   3.621477
    17  N    6.636744   5.742192   6.031350   5.719843   4.588665
    18  H    6.890890   6.094933   6.457187   6.185705   4.778046
    19  C    7.695803   6.755509   7.029358   6.541963   5.765662
    20  H    7.575729   6.569503   6.733374   6.266685   5.787646
    21  H    8.641099   7.698666   7.915556   7.553933   6.648110
    22  H    7.892919   7.015939   7.429752   6.693825   6.041159
                    6          7          8          9         10
     6  O    0.000000
     7  N    2.306761   0.000000
     8  H    3.141688   1.013966   0.000000
     9  C    2.980837   1.462786   2.052752   0.000000
    10  H    3.840967   2.058409   2.406936   1.101663   0.000000
    11  C    2.808340   2.533258   3.401995   1.533680   2.132027
    12  H    2.521551   2.928409   3.797158   2.196891   3.063270
    13  H    3.892886   3.442708   4.198742   2.161724   2.378822
    14  H    2.621477   2.727982   3.692448   2.168102   2.523092
    15  C    3.959669   2.435298   2.502860   1.553408   2.112309
    16  O    4.384437   2.671063   2.280511   2.416655   2.878358
    17  N    4.854822   3.672025   3.852591   2.479639   2.863619
    18  H    4.825345   3.956132   4.354903   2.598198   2.950230
    19  C    6.074587   4.891062   4.880883   3.856263   4.190240
    20  H    6.288197   4.864751   4.630836   4.066278   4.354213
    21  H    6.934915   5.679992   5.684786   4.506632   4.632562
    22  H    6.203641   5.379512   5.442929   4.429209   4.956403
                   11         12         13         14         15
    11  C    0.000000
    12  H    1.090234   0.000000
    13  H    1.097534   1.789114   0.000000
    14  H    1.091002   1.757470   1.763647   0.000000
    15  C    2.615635   2.879352   2.917381   3.543210   0.000000
    16  O    3.696845   3.876851   4.121489   4.520948   1.228002
    17  N    2.933373   3.086559   2.774914   3.994256   1.360539
    18  H    2.507610   2.661517   2.063596   3.555840   2.045548
    19  C    4.358366   4.364423   4.141688   5.432898   2.465992
    20  H    4.890551   4.951288   4.832010   5.924672   2.538341
    21  H    4.903935   5.027678   4.457274   5.949010   3.265652
    22  H    4.717152   4.466843   4.560406   5.807020   3.086751
                   16         17         18         19         20
    16  O    0.000000
    17  N    2.276568   0.000000
    18  H    3.157850   1.008860   0.000000
    19  C    2.816007   1.454270   2.126181   0.000000
    20  H    2.389045   2.066213   2.970486   1.090456   0.000000
    21  H    3.704400   2.101045   2.468173   1.094862   1.784780
    22  H    3.397262   2.121559   2.571386   1.097263   1.777688
                   21         22
    21  H    0.000000
    22  H    1.783648   0.000000
 Stoichiometry    C6H12N2O2
 Framework group  C1[X(C6H12N2O2)]
 Deg. of freedom    60
 Full point group                 C1      NOp   1
 Largest Abelian subgroup         C1      NOp   1
 Largest concise Abelian subgroup C1      NOp   1
                         Standard orientation:                         
 ---------------------------------------------------------------------
 Center     Atomic      Atomic             Coordinates (Angstroms)
 Number     Number       Type             X           Y           Z
 ---------------------------------------------------------------------
      1          1           0        4.118485   -0.871129   -0.506126
      2          6           0        3.133546   -1.229104   -0.200823
      3          1           0        3.210208   -1.735617    0.766701
      4          1           0        2.789946   -1.959727   -0.943206
      5          6           0        2.171435   -0.045497   -0.176904
      6          8           0        2.342605    0.934730   -0.889236
      7          7           0        1.139431   -0.196276    0.721461
      8          1           0        0.984604   -1.149948    1.029137
      9          6           0       -0.105180    0.570595    0.772434
     10          1           0       -0.346983    0.683242    1.841313
     11          6           0       -0.031983    1.984067    0.181745
     12          1           0        0.048100    1.980293   -0.905538
     13          1           0       -0.920570    2.552012    0.485772
     14          1           0        0.840560    2.511085    0.570595
     15          6           0       -1.239731   -0.335713    0.220640
     16          8           0       -1.099108   -1.555384    0.195770
     17          7           0       -2.404869    0.284309   -0.109654
     18          1           0       -2.415833    1.291170   -0.172176
     19          6           0       -3.565168   -0.447545   -0.592349
     20          1           0       -3.429269   -1.496736   -0.328107
     21          1           0       -4.476397   -0.066483   -0.119932
     22          1           0       -3.670275   -0.369978   -1.681809
 ---------------------------------------------------------------------
 Rotational constants (GHZ):      2.5021240      0.7366764      0.6323945

 **********************************************************************

            Population analysis using the SCF density.

 **********************************************************************

 Orbital symmetries:
       Occupied  (A) (A) (A) (A) (A) (A) (A) (A) (A) (A) (A) (A)
                 (A) (A) (A) (A) (A) (A) (A) (A) (A) (A) (A) (A)
                 (A) (A) (A) (A) (A) (A) (A) (A) (A) (A) (A) (A)
                 (A) (A) (A)
       Virtual   (A) (A) (A) (A) (A) (A) (A) (A) (A) (A) (A) (A)
                 (A) (A) (A) (A) (A) (A) (A) (A) (A) (A) (A) (A)
                 (A) (A) (A) (A) (A) (A) (A) (A) (A) (A) (A) (A)
                 (A) (A) (A) (A) (A) (A) (A) (A) (A) (A) (A) (A)
                 (A) (A) (A) (A) (A) (A) (A) (A) (A) (A) (A) (A)
                 (A) (A) (A) (A) (A) (A) (A) (A) (A) (A) (A) (A)
                 (A) (A) (A) (A) (A) (A) (A) (A) (A) (A) (A) (A)
                 (A) (A) (A) (A) (A) (A) (A) (A) (A) (A) (A) (A)
                 (A) (A) (A) (A) (A) (A) (A) (A) (A) (A) (A) (A)
                 (A) (A) (A) (A) (A) (A) (A) (A) (A) (A) (A) (A)
                 (A) (A) (A) (A) (A) (A) (A) (A) (A) (A) (A) (A)
                 (A) (A) (A)
 The electronic state is 1-A.
 Alpha  occ. eigenvalues --  -19.11914 -19.10174 -14.37071 -14.34958 -10.29120
 Alpha  occ. eigenvalues --  -10.28125 -10.24239 -10.22415 -10.18811 -10.18241
 Alpha  occ. eigenvalues --   -1.03987  -1.01968  -0.92807  -0.91483  -0.78124
 Alpha  occ. eigenvalues --   -0.72442  -0.70836  -0.65425  -0.59495  -0.55118
 Alpha  occ. eigenvalues --   -0.53437  -0.50325  -0.46908  -0.45774  -0.44705
 Alpha  occ. eigenvalues --   -0.44008  -0.42672  -0.41217  -0.40071  -0.39648
 Alpha  occ. eigenvalues --   -0.39014  -0.38362  -0.37220  -0.35892  -0.34706
 Alpha  occ. eigenvalues --   -0.26317  -0.26202  -0.24799  -0.23403
 Alpha virt. eigenvalues --    0.02044   0.03422   0.06580   0.10031   0.11278
 Alpha virt. eigenvalues --    0.13189   0.14251   0.15012   0.15737   0.16110
 Alpha virt. eigenvalues --    0.16427   0.16640   0.18043   0.18819   0.19431
 Alpha virt. eigenvalues --    0.21241   0.23210   0.25422   0.28330   0.32767
 Alpha virt. eigenvalues --    0.33925   0.39569   0.40573   0.48546   0.51212
 Alpha virt. eigenvalues --    0.52538   0.52939   0.54363   0.54859   0.55940
 Alpha virt. eigenvalues --    0.57848   0.60485   0.62013   0.63883   0.67572
 Alpha virt. eigenvalues --    0.68382   0.69028   0.71043   0.72062   0.72583
 Alpha virt. eigenvalues --    0.74487   0.76792   0.78814   0.80006   0.83948
 Alpha virt. eigenvalues --    0.85470   0.86272   0.86407   0.86946   0.88408
 Alpha virt. eigenvalues --    0.89564   0.90313   0.91284   0.93488   0.94203
 Alpha virt. eigenvalues --    0.94696   0.95886   0.97586   0.98300   1.00749
 Alpha virt. eigenvalues --    1.02625   1.05678   1.07109   1.10262   1.16154
 Alpha virt. eigenvalues --    1.18790   1.20943   1.27444   1.31798   1.35188
 Alpha virt. eigenvalues --    1.37228   1.39318   1.43490   1.44756   1.48223
 Alpha virt. eigenvalues --    1.51242   1.54148   1.60168   1.64168   1.67976
 Alpha virt. eigenvalues --    1.72817   1.76222   1.77654   1.79929   1.81385
 Alpha virt. eigenvalues --    1.82937   1.84345   1.85869   1.86704   1.89816
 Alpha virt. eigenvalues --    1.91898   1.96321   1.97386   1.99023   2.02881
 Alpha virt. eigenvalues --    2.05962   2.07140   2.08745   2.11024   2.15545
 Alpha virt. eigenvalues --    2.20971   2.21600   2.25884   2.26526   2.28720
 Alpha virt. eigenvalues --    2.31006   2.31933   2.36511   2.37743   2.39956
 Alpha virt. eigenvalues --    2.42541   2.47567   2.51298   2.55150   2.60667
 Alpha virt. eigenvalues --    2.64493   2.67231   2.69636   2.74217   2.87287
 Alpha virt. eigenvalues --    2.92574   2.97494   3.01918   3.10489   3.17674
 Alpha virt. eigenvalues --    3.90625   4.02319   4.03057   4.12583   4.20218
 Alpha virt. eigenvalues --    4.22081   4.24693   4.35560   4.50156   4.62374
          Condensed to atoms (all electrons):
              1          2          3          4          5          6
     1  H    0.518337   0.357727  -0.024395  -0.021622  -0.020402   0.004134
     2  C    0.357727   5.332044   0.346013   0.358844   0.345381  -0.079073
     3  H   -0.024395   0.346013   0.565236  -0.026441  -0.026910   0.002472
     4  H   -0.021622   0.358844  -0.026441   0.525809  -0.019635   0.000195
     5  C   -0.020402   0.345381  -0.026910  -0.019635   4.318241   0.592013
     6  O    0.004134  -0.079073   0.002472   0.000195   0.592013   8.068338
     7  N    0.004135  -0.124101   0.007503   0.000077   0.265215  -0.088110
     8  H   -0.000018   0.000169   0.000447   0.000410  -0.015058   0.003086
     9  C   -0.000176   0.005158   0.000488  -0.000286  -0.029181  -0.004285
    10  H    0.000007  -0.000248  -0.000008  -0.000004   0.002038  -0.000043
    11  C    0.000007   0.000316  -0.000026   0.000000  -0.001340   0.001727
    12  H    0.000002   0.000040  -0.000001  -0.000008   0.002169   0.004203
    13  H    0.000000   0.000014  -0.000001   0.000000   0.000489   0.001016
    14  H   -0.000002   0.000012  -0.000005   0.000003   0.000946   0.001958
    15  C   -0.000001  -0.000172  -0.000034   0.000077   0.000773  -0.000337
    16  O    0.000000  -0.000298  -0.000008   0.000091   0.001590  -0.000007
    17  N    0.000000   0.000000   0.000000   0.000000   0.000058  -0.000002
    18  H    0.000000   0.000000   0.000000   0.000000   0.000002   0.000001
    19  C    0.000000   0.000000   0.000000   0.000000  -0.000001   0.000000
    20  H    0.000000   0.000000   0.000000   0.000000  -0.000001   0.000000
    21  H    0.000000   0.000000   0.000000   0.000000   0.000000   0.000000
    22  H    0.000000   0.000000   0.000000   0.000000   0.000000   0.000000
              7          8          9         10         11         12
     1  H    0.004135  -0.000018  -0.000176   0.000007   0.000007   0.000002
     2  C   -0.124101   0.000169   0.005158  -0.000248   0.000316   0.000040
     3  H    0.007503   0.000447   0.000488  -0.000008  -0.000026  -0.000001
     4  H    0.000077   0.000410  -0.000286  -0.000004   0.000000  -0.000008
     5  C    0.265215  -0.015058  -0.029181   0.002038  -0.001340   0.002169
     6  O   -0.088110   0.003086  -0.004285  -0.000043   0.001727   0.004203
     7  N    7.101431   0.286150   0.279230  -0.045070  -0.040352  -0.003409
     8  H    0.286150   0.402938  -0.047091  -0.000020   0.005493  -0.000072
     9  C    0.279230  -0.047091   5.081885   0.371157   0.341247  -0.031638
    10  H   -0.045070  -0.000020   0.371157   0.594044  -0.041926   0.004680
    11  C   -0.040352   0.005493   0.341247  -0.041926   5.122300   0.381316
    12  H   -0.003409  -0.000072  -0.031638   0.004680   0.381316   0.514293
    13  H    0.003852  -0.000114  -0.025286  -0.005484   0.334360  -0.032967
    14  H   -0.004219  -0.000100  -0.020978  -0.003429   0.374997  -0.024192
    15  C   -0.050360  -0.002135   0.321289  -0.044932  -0.026473  -0.002628
    16  O   -0.016318   0.028229  -0.082870  -0.000927   0.002063   0.000107
    17  N    0.003555   0.001025  -0.111537   0.001566   0.000342   0.000691
    18  H    0.000149  -0.000062  -0.002537   0.000262   0.006489   0.000280
    19  C   -0.000119  -0.000013   0.005691  -0.000307  -0.000126  -0.000105
    20  H   -0.000007  -0.000020   0.000853  -0.000034  -0.000020  -0.000004
    21  H    0.000000   0.000000  -0.000156   0.000027   0.000014   0.000003
    22  H    0.000006   0.000000  -0.000005  -0.000006  -0.000040  -0.000009
             13         14         15         16         17         18
     1  H    0.000000  -0.000002  -0.000001   0.000000   0.000000   0.000000
     2  C    0.000014   0.000012  -0.000172  -0.000298   0.000000   0.000000
     3  H   -0.000001  -0.000005  -0.000034  -0.000008   0.000000   0.000000
     4  H    0.000000   0.000003   0.000077   0.000091   0.000000   0.000000
     5  C    0.000489   0.000946   0.000773   0.001590   0.000058   0.000002
     6  O    0.001016   0.001958  -0.000337  -0.000007  -0.000002   0.000001
     7  N    0.003852  -0.004219  -0.050360  -0.016318   0.003555   0.000149
     8  H   -0.000114  -0.000100  -0.002135   0.028229   0.001025  -0.000062
     9  C   -0.025286  -0.020978   0.321289  -0.082870  -0.111537  -0.002537
    10  H   -0.005484  -0.003429  -0.044932  -0.000927   0.001566   0.000262
    11  C    0.334360   0.374997  -0.026473   0.002063   0.000342   0.006489
    12  H   -0.032967  -0.024192  -0.002628   0.000107   0.000691   0.000280
    13  H    0.628109  -0.028062  -0.007640  -0.000051   0.000577   0.007482
    14  H   -0.028062   0.514503   0.002832  -0.000056   0.000091  -0.000217
    15  C   -0.007640   0.002832   4.385794   0.584137   0.275166  -0.020630
    16  O   -0.000051  -0.000056   0.584137   8.094509  -0.097889   0.003362
    17  N    0.000577   0.000091   0.275166  -0.097889   7.075227   0.301121
    18  H    0.007482  -0.000217  -0.020630   0.003362   0.301121   0.399870
    19  C    0.000102   0.000003  -0.023520  -0.005630   0.264975  -0.031703
    20  H   -0.000006   0.000001  -0.001430   0.018971  -0.039956   0.003927
    21  H   -0.000020   0.000000   0.003209   0.000478  -0.039029  -0.001387
    22  H    0.000021  -0.000001  -0.001347   0.000495  -0.042247  -0.000195
             19         20         21         22
     1  H    0.000000   0.000000   0.000000   0.000000
     2  C    0.000000   0.000000   0.000000   0.000000
     3  H    0.000000   0.000000   0.000000   0.000000
     4  H    0.000000   0.000000   0.000000   0.000000
     5  C   -0.000001  -0.000001   0.000000   0.000000
     6  O    0.000000   0.000000   0.000000   0.000000
     7  N   -0.000119  -0.000007   0.000000   0.000006
     8  H   -0.000013  -0.000020   0.000000   0.000000
     9  C    0.005691   0.000853  -0.000156  -0.000005
    10  H   -0.000307  -0.000034   0.000027  -0.000006
    11  C   -0.000126  -0.000020   0.000014  -0.000040
    12  H   -0.000105  -0.000004   0.000003  -0.000009
    13  H    0.000102  -0.000006  -0.000020   0.000021
    14  H    0.000003   0.000001   0.000000  -0.000001
    15  C   -0.023520  -0.001430   0.003209  -0.001347
    16  O   -0.005630   0.018971   0.000478   0.000495
    17  N    0.264975  -0.039956  -0.039029  -0.042247
    18  H   -0.031703   0.003927  -0.001387  -0.000195
    19  C    4.959977   0.378639   0.377175   0.385255
    20  H    0.378639   0.485713  -0.022112  -0.028325
    21  H    0.377175  -0.022112   0.563742  -0.039320
    22  H    0.385255  -0.028325  -0.039320   0.561592
 Mulliken atomic charges:
              1
     1  H    0.182269
     2  C   -0.541827
     3  H    0.155669
     4  H    0.182491
     5  C    0.583614
     6  O   -0.507285
     7  N   -0.579236
     8  H    0.336757
     9  C   -0.050971
    10  H    0.168656
    11  C   -0.460367
    12  H    0.187248
    13  H    0.123609
    14  H    0.185915
    15  C    0.608363
    16  O   -0.529979
    17  N   -0.593731
    18  H    0.333787
    19  C   -0.310295
    20  H    0.203812
    21  H    0.157376
    22  H    0.164124
 Sum of Mulliken atomic charges =   0.00000
 Mulliken charges with hydrogens summed into heavy atoms:
              1
     2  C   -0.021398
     5  C    0.583614
     6  O   -0.507285
     7  N   -0.242479
     9  C    0.117685
    11  C    0.036406
    15  C    0.608363
    16  O   -0.529979
    17  N   -0.259944
    19  C    0.215017
 Sum of Mulliken charges with hydrogens summed into heavy atoms =   0.00000
 Electronic spatial extent (au):  <R**2>=           1866.8366
 Charge=              0.0000 electrons
 Dipole moment (field-independent basis, Debye):
    X=             -2.9590    Y=              0.6766    Z=              1.2787  Tot=              3.2937
 Quadrupole moment (field-independent basis, Debye-Ang):
   XX=            -54.1001   YY=            -61.6129   ZZ=            -60.3643
   XY=            -10.1957   XZ=              4.9392   YZ=              1.9750
 Traceless Quadrupole moment (field-independent basis, Debye-Ang):
   XX=              4.5923   YY=             -2.9205   ZZ=             -1.6719
   XY=            -10.1957   XZ=              4.9392   YZ=              1.9750
 Octapole moment (field-independent basis, Debye-Ang**2):
  XXX=            -33.7477  YYY=              5.9182  ZZZ=             -0.0038  XYY=             -0.8415
  XXY=            -12.4885  XXZ=              0.2390  XZZ=             -5.1581  YZZ=             -4.1212
  YYZ=              1.7398  XYZ=              3.8039
 Hexadecapole moment (field-independent basis, Debye-Ang**3):
 XXXX=          -1613.0809 YYYY=           -489.3072 ZZZZ=           -174.3409 XXXY=            -27.3992
 XXXZ=             28.6001 YYYX=             -7.3682 YYYZ=             -0.8175 ZZZX=              0.5616
 ZZZY=             -4.1528 XXYY=           -367.0877 XXZZ=           -329.8998 YYZZ=           -107.7705
 XXYZ=             12.9755 YYXZ=              6.4040 ZZXY=             -3.8633
 N-N= 5.535588985570D+02 E-N=-2.263222496537D+03  KE= 4.912242922750D+02
 1\1\GINC-NODE007\FOpt\RB3LYP\6-31G(d)\C6H12N2O2\MANAGER\10-Feb-2017\0\
 \# b3lyp/6-31G* Opt=(ModRedundant, maxcycles=1000, calcfc) geom=nocrow
 d\\Phi Psi fixed scan\\0,1\H,1.2559741085,2.1182252181,-1.5131065942\C
 ,1.5669688774,2.9609681021,-0.8930037\H,1.3726551033,2.7337989109,0.16
 01678818\H,0.9623943605,3.8324865849,-1.1721975844\C,3.036649657,3.256
 7219824,-1.1753535528\O,3.5500919459,2.9853640077,-2.252527096\N,3.696
 211279,3.8240241295,-0.108595208\H,3.0888696031,4.226978239,0.59630967
 8\C,4.9855040195,4.5145338529,-0.1343625727\H,5.4859331452,4.255323400
 2,0.8122326189\C,5.9325867573,4.0981732003,-1.2665513677\H,5.600536295
 1,4.4529459663,-2.2425071388\H,6.9401667341,4.4795125131,-1.0569220899
 \H,6.0004722218,3.0106640855,-1.3213250213\C,4.7065520744,6.0376960067
 ,-0.0109096052\O,3.6408395188,6.4349808427,0.4521353782\N,5.7347762747
 ,6.8703113939,-0.3280429415\H,6.5371847974,6.487639927,-0.8050146837\C
 ,5.6285158256,8.3160223532,-0.2117314694\H,4.7792194871,8.5353074352,0
 .4361144623\H,6.5415285153,8.7282877914,0.2300477955\H,5.459269399,8.7
 908340569,-1.1863571894\\Version=EM64L-G09RevA.02\State=1-A\HF=-495.84
 1603\RMSD=5.159e-09\RMSF=2.912e-04\Dipole=0.9617599,0.6565745,0.568488
 2\Quadrupole=5.5096732,-0.592398,-4.9172752,5.0665741,-0.6542277,-5.34
 02122\PG=C01 [X(C6H12N2O2)]\\@


 FIREWORKS ENDED
 AND SPECTATORS GONE AWAY....
 AH, HOW VAST AND DARK
                     SHIKI
 Job cpu time:  0 days  1 hours 26 minutes  2.7 seconds.
 File lengths (MBytes):  RWF=    186 Int=      0 D2E=      0 Chk=      4 Scr=      2
 Normal termination of Gaussian 09 at Fri Feb 10 18:44:40 2017.
