 Entering Gaussian System, Link 0=g09
 Initial command:
 /home/steboss/Software/g09/l1.exe /home/steboss/projects/phi_psi_scan/alanine/255/4428/Gau-3233.inp -scrdir=/home/steboss/projects/phi_psi_scan/alanine/255/4428/
 Entering Link 1 = /home/steboss/Software/g09/l1.exe PID=      3235.
  
 Copyright (c) 1988,1990,1992,1993,1995,1998,2003,2009, Gaussian, Inc.
                  All Rights Reserved.
  
 This is part of the Gaussian(R) 09 program.  It is based on
 the Gaussian(R) 03 system (copyright 2003, Gaussian, Inc.),
 the Gaussian(R) 98 system (copyright 1998, Gaussian, Inc.),
 the Gaussian(R) 94 system (copyright 1995, Gaussian, Inc.),
 the Gaussian 92(TM) system (copyright 1992, Gaussian, Inc.),
 the Gaussian 90(TM) system (copyright 1990, Gaussian, Inc.),
 the Gaussian 88(TM) system (copyright 1988, Gaussian, Inc.),
 the Gaussian 86(TM) system (copyright 1986, Carnegie Mellon
 University), and the Gaussian 82(TM) system (copyright 1983,
 Carnegie Mellon University). Gaussian is a federally registered
 trademark of Gaussian, Inc.
  
 This software contains proprietary and confidential information,
 including trade secrets, belonging to Gaussian, Inc.
  
 This software is provided under written license and may be
 used, copied, transmitted, or stored only in accord with that
 written license.
  
 The following legend is applicable only to US Government
 contracts under FAR:
  
                    RESTRICTED RIGHTS LEGEND
  
 Use, reproduction and disclosure by the US Government is
 subject to restrictions as set forth in subparagraphs (a)
 and (c) of the Commercial Computer Software - Restricted
 Rights clause in FAR 52.227-19.
  
 Gaussian, Inc.
 340 Quinnipiac St., Bldg. 40, Wallingford CT 06492
  
  
 ---------------------------------------------------------------
 Warning -- This program may not be used in any manner that
 competes with the business of Gaussian, Inc. or will provide
 assistance to any competitor of Gaussian, Inc.  The licensee
 of this program is prohibited from giving any competitor of
 Gaussian, Inc. access to this program.  By using this program,
 the user acknowledges that Gaussian, Inc. is engaged in the
 business of creating and licensing software in the field of
 computational chemistry and represents and warrants to the
 licensee that it is not a competitor of Gaussian, Inc. and that
 it will not use this program in any manner prohibited above.
 ---------------------------------------------------------------
  

 Cite this work as:
 Gaussian 09, Revision A.02,
 M. J. Frisch, G. W. Trucks, H. B. Schlegel, G. E. Scuseria, 
 M. A. Robb, J. R. Cheeseman, G. Scalmani, V. Barone, B. Mennucci, 
 G. A. Petersson, H. Nakatsuji, M. Caricato, X. Li, H. P. Hratchian, 
 A. F. Izmaylov, J. Bloino, G. Zheng, J. L. Sonnenberg, M. Hada, 
 M. Ehara, K. Toyota, R. Fukuda, J. Hasegawa, M. Ishida, T. Nakajima, 
 Y. Honda, O. Kitao, H. Nakai, T. Vreven, J. A. Montgomery, Jr., 
 J. E. Peralta, F. Ogliaro, M. Bearpark, J. J. Heyd, E. Brothers, 
 K. N. Kudin, V. N. Staroverov, R. Kobayashi, J. Normand, 
 K. Raghavachari, A. Rendell, J. C. Burant, S. S. Iyengar, J. Tomasi, 
 M. Cossi, N. Rega, J. M. Millam, M. Klene, J. E. Knox, J. B. Cross, 
 V. Bakken, C. Adamo, J. Jaramillo, R. Gomperts, R. E. Stratmann, 
 O. Yazyev, A. J. Austin, R. Cammi, C. Pomelli, J. W. Ochterski, 
 R. L. Martin, K. Morokuma, V. G. Zakrzewski, G. A. Voth, 
 P. Salvador, J. J. Dannenberg, S. Dapprich, A. D. Daniels, 
 O. Farkas, J. B. Foresman, J. V. Ortiz, J. Cioslowski, 
 and D. J. Fox, Gaussian, Inc., Wallingford CT, 2009.
 
 ******************************************
 Gaussian 09:  EM64L-G09RevA.02 11-Jun-2009
                10-Feb-2017 
 ******************************************
 %chk=structure_270.chk
 %NProcShared=8
 Will use up to    8 processors via shared memory.
 ----------------------------------------------------------------------
 # b3lyp/6-31G* Opt=(ModRedundant, maxcycles=1000, calcfc) geom=nocrowd
 ----------------------------------------------------------------------
 1/6=1000,10=4,14=-1,18=120,19=15,26=3,38=1/1,3;
 2/9=110,12=1,17=6,18=5,40=1/2;
 3/5=1,6=6,7=1,11=2,16=1,25=1,30=1,71=2,74=-5/1,2,3;
 4//1;
 5/5=2,38=5/2;
 8/6=4,10=90,11=11/1;
 11/6=1,8=1,9=11,15=111,16=1/1,2,10;
 10/6=1,7=6,13=1/2;
 6/7=2,8=2,9=2,10=2,28=1/1;
 7/10=1,18=20,25=1/1,2,3,16;
 1/6=1000,10=4,14=-1,18=20,19=15/3(2);
 2/9=110,12=1/2;
 99//99;
 2/9=110,12=1/2;
 3/5=1,6=6,7=1,11=2,16=1,25=1,30=1,71=1,74=-5/1,2,3;
 4/5=5,16=3/1;
 5/5=2,38=5/2;
 7//1,2,3,16;
 1/6=1000,14=-1,18=20,19=15/3(-5);
 2/9=110,12=1/2;
 6/7=2,8=2,9=2,10=2,19=2,28=1/1;
 99/9=1/99;
 ------------------
 Phi Psi fixed scan
 ------------------
 Symbolic Z-matrix:
 Charge =  0 Multiplicity = 1
 H                     1.3513    2.3068    1.9013 
 C                     1.6731    2.7486    0.9582 
 H                     0.9598    3.5143    0.6531 
 H                     1.7242    1.9746    0.1925 
 C                     3.0539    3.3932    1.0948 
 O                     3.6506    3.3681    2.1689 
 N                     3.5554    3.9697    0. 
 H                     3.0267    3.9647   -0.8606 
 C                     4.8533    4.6139    0. 
 H                     5.4076    4.3155    0.8898 
 C                     5.6613    4.2208   -1.2322 
 H                     5.1233    4.5214   -2.1312 
 H                     6.6305    4.7189   -1.2058 
 H                     5.8085    3.1409   -1.2414 
 C                     4.7127    6.1294    0. 
 O                     4.6551    6.7505    1.059 
 N                     4.6575    6.7246   -1.1937 
 H                     4.7088    6.171    -2.0369 
 C                     4.5242    8.1613   -1.3275 
 H                     4.482     8.6165   -0.3381 
 H                     5.3811    8.557    -1.8727 
 H                     3.6091    8.3926   -1.8727 
 
 The following ModRedundant input section has been read:
 D    5    7    9   15 F                                                       
 D    7    9   15   17 F                                                       

 GradGradGradGradGradGradGradGradGradGradGradGradGradGradGradGradGradGrad
 Berny optimization.
 Initialization pass.
                           ----------------------------
                           !    Initial Parameters    !
                           ! (Angstroms and Degrees)  !
 --------------------------                            --------------------------
 ! Name  Definition              Value          Derivative Info.                !
 --------------------------------------------------------------------------------
 ! R1    R(1,2)                  1.09           calculate D2E/DX2 analytically  !
 ! R2    R(2,3)                  1.09           calculate D2E/DX2 analytically  !
 ! R3    R(2,4)                  1.0899         calculate D2E/DX2 analytically  !
 ! R4    R(2,5)                  1.53           calculate D2E/DX2 analytically  !
 ! R5    R(5,6)                  1.229          calculate D2E/DX2 analytically  !
 ! R6    R(5,7)                  1.3351         calculate D2E/DX2 analytically  !
 ! R7    R(7,8)                  1.01           calculate D2E/DX2 analytically  !
 ! R8    R(7,9)                  1.449          calculate D2E/DX2 analytically  !
 ! R9    R(9,10)                 1.09           calculate D2E/DX2 analytically  !
 ! R10   R(9,11)                 1.525          calculate D2E/DX2 analytically  !
 ! R11   R(9,15)                 1.522          calculate D2E/DX2 analytically  !
 ! R12   R(11,12)                1.09           calculate D2E/DX2 analytically  !
 ! R13   R(11,13)                1.09           calculate D2E/DX2 analytically  !
 ! R14   R(11,14)                1.0899         calculate D2E/DX2 analytically  !
 ! R15   R(15,16)                1.2291         calculate D2E/DX2 analytically  !
 ! R16   R(15,17)                1.335          calculate D2E/DX2 analytically  !
 ! R17   R(17,18)                1.01           calculate D2E/DX2 analytically  !
 ! R18   R(17,19)                1.4491         calculate D2E/DX2 analytically  !
 ! R19   R(19,20)                1.0899         calculate D2E/DX2 analytically  !
 ! R20   R(19,21)                1.09           calculate D2E/DX2 analytically  !
 ! R21   R(19,22)                1.09           calculate D2E/DX2 analytically  !
 ! A1    A(1,2,3)              109.493          calculate D2E/DX2 analytically  !
 ! A2    A(1,2,4)              109.5017         calculate D2E/DX2 analytically  !
 ! A3    A(1,2,5)              111.0973         calculate D2E/DX2 analytically  !
 ! A4    A(3,2,4)              109.4436         calculate D2E/DX2 analytically  !
 ! A5    A(3,2,5)              108.6398         calculate D2E/DX2 analytically  !
 ! A6    A(4,2,5)              108.6387         calculate D2E/DX2 analytically  !
 ! A7    A(2,5,6)              120.5054         calculate D2E/DX2 analytically  !
 ! A8    A(2,5,7)              116.5979         calculate D2E/DX2 analytically  !
 ! A9    A(6,5,7)              122.8967         calculate D2E/DX2 analytically  !
 ! A10   A(5,7,8)              119.9959         calculate D2E/DX2 analytically  !
 ! A11   A(5,7,9)              121.9004         calculate D2E/DX2 analytically  !
 ! A12   A(8,7,9)              118.1037         calculate D2E/DX2 analytically  !
 ! A13   A(7,9,10)             109.5            calculate D2E/DX2 analytically  !
 ! A14   A(7,9,11)             111.0992         calculate D2E/DX2 analytically  !
 ! A15   A(7,9,15)             111.0966         calculate D2E/DX2 analytically  !
 ! A16   A(10,9,11)            108.6382         calculate D2E/DX2 analytically  !
 ! A17   A(10,9,15)            108.6373         calculate D2E/DX2 analytically  !
 ! A18   A(11,9,15)            107.7947         calculate D2E/DX2 analytically  !
 ! A19   A(9,11,12)            109.5007         calculate D2E/DX2 analytically  !
 ! A20   A(9,11,13)            109.4959         calculate D2E/DX2 analytically  !
 ! A21   A(9,11,14)            109.4978         calculate D2E/DX2 analytically  !
 ! A22   A(12,11,13)           109.441          calculate D2E/DX2 analytically  !
 ! A23   A(12,11,14)           109.4482         calculate D2E/DX2 analytically  !
 ! A24   A(13,11,14)           109.4436         calculate D2E/DX2 analytically  !
 ! A25   A(9,15,16)            120.4987         calculate D2E/DX2 analytically  !
 ! A26   A(9,15,17)            116.5998         calculate D2E/DX2 analytically  !
 ! A27   A(16,15,17)           122.9016         calculate D2E/DX2 analytically  !
 ! A28   A(15,17,18)           120.001          calculate D2E/DX2 analytically  !
 ! A29   A(15,17,19)           121.8978         calculate D2E/DX2 analytically  !
 ! A30   A(18,17,19)           118.1012         calculate D2E/DX2 analytically  !
 ! A31   A(17,19,20)           109.5013         calculate D2E/DX2 analytically  !
 ! A32   A(17,19,21)           109.4994         calculate D2E/DX2 analytically  !
 ! A33   A(17,19,22)           109.4995         calculate D2E/DX2 analytically  !
 ! A34   A(20,19,21)           109.4436         calculate D2E/DX2 analytically  !
 ! A35   A(20,19,22)           109.446          calculate D2E/DX2 analytically  !
 ! A36   A(21,19,22)           109.4374         calculate D2E/DX2 analytically  !
 ! D1    D(1,2,5,6)              0.0038         calculate D2E/DX2 analytically  !
 ! D2    D(1,2,5,7)           -179.9948         calculate D2E/DX2 analytically  !
 ! D3    D(3,2,5,6)            120.5082         calculate D2E/DX2 analytically  !
 ! D4    D(3,2,5,7)            -59.4904         calculate D2E/DX2 analytically  !
 ! D5    D(4,2,5,6)           -120.5106         calculate D2E/DX2 analytically  !
 ! D6    D(4,2,5,7)             59.4908         calculate D2E/DX2 analytically  !
 ! D7    D(2,5,7,8)             -0.0007         calculate D2E/DX2 analytically  !
 ! D8    D(2,5,7,9)           -179.9954         calculate D2E/DX2 analytically  !
 ! D9    D(6,5,7,8)           -179.9993         calculate D2E/DX2 analytically  !
 ! D10   D(6,5,7,9)              0.006          calculate D2E/DX2 analytically  !
 ! D11   D(5,7,9,10)            14.996          calculate D2E/DX2 analytically  !
 ! D12   D(5,7,9,11)           134.9986         calculate D2E/DX2 analytically  !
 ! D13   D(5,7,9,15)          -105.0038         frozen, calculate D2E/DX2 analyt!
 ! D14   D(8,7,9,10)          -164.9988         calculate D2E/DX2 analytically  !
 ! D15   D(8,7,9,11)           -44.9962         calculate D2E/DX2 analytically  !
 ! D16   D(8,7,9,15)            75.0013         calculate D2E/DX2 analytically  !
 ! D17   D(7,9,11,12)           60.0024         calculate D2E/DX2 analytically  !
 ! D18   D(7,9,11,13)          179.9986         calculate D2E/DX2 analytically  !
 ! D19   D(7,9,11,14)          -60.0038         calculate D2E/DX2 analytically  !
 ! D20   D(10,9,11,12)        -179.4843         calculate D2E/DX2 analytically  !
 ! D21   D(10,9,11,13)         -59.4881         calculate D2E/DX2 analytically  !
 ! D22   D(10,9,11,14)          60.5095         calculate D2E/DX2 analytically  !
 ! D23   D(15,9,11,12)         -61.938          calculate D2E/DX2 analytically  !
 ! D24   D(15,9,11,13)          58.0582         calculate D2E/DX2 analytically  !
 ! D25   D(15,9,11,14)         178.0558         calculate D2E/DX2 analytically  !
 ! D26   D(7,9,15,16)           90.0012         calculate D2E/DX2 analytically  !
 ! D27   D(7,9,15,17)          -90.0009         frozen, calculate D2E/DX2 analyt!
 ! D28   D(10,9,15,16)         -30.5099         calculate D2E/DX2 analytically  !
 ! D29   D(10,9,15,17)         149.488          calculate D2E/DX2 analytically  !
 ! D30   D(11,9,15,16)        -148.0568         calculate D2E/DX2 analytically  !
 ! D31   D(11,9,15,17)          31.9411         calculate D2E/DX2 analytically  !
 ! D32   D(9,15,17,18)           0.0048         calculate D2E/DX2 analytically  !
 ! D33   D(9,15,17,19)         179.9994         calculate D2E/DX2 analytically  !
 ! D34   D(16,15,17,18)       -179.9974         calculate D2E/DX2 analytically  !
 ! D35   D(16,15,17,19)         -0.0028         calculate D2E/DX2 analytically  !
 ! D36   D(15,17,19,20)          0.0031         calculate D2E/DX2 analytically  !
 ! D37   D(15,17,19,21)        120.005          calculate D2E/DX2 analytically  !
 ! D38   D(15,17,19,22)       -120.0018         calculate D2E/DX2 analytically  !
 ! D39   D(18,17,19,20)        179.9978         calculate D2E/DX2 analytically  !
 ! D40   D(18,17,19,21)        -60.0003         calculate D2E/DX2 analytically  !
 ! D41   D(18,17,19,22)         59.9929         calculate D2E/DX2 analytically  !
 --------------------------------------------------------------------------------
 Trust Radius=3.00D-01 FncErr=1.00D-07 GrdErr=1.00D-06
 Number of steps in this run= 132 maximum allowed number of steps= 132.
 GradGradGradGradGradGradGradGradGradGradGradGradGradGradGradGradGradGrad

                          Input orientation:                          
 ---------------------------------------------------------------------
 Center     Atomic      Atomic             Coordinates (Angstroms)
 Number     Number       Type             X           Y           Z
 ---------------------------------------------------------------------
      1          1           0        1.351300    2.306800    1.901300
      2          6           0        1.673100    2.748600    0.958200
      3          1           0        0.959800    3.514300    0.653100
      4          1           0        1.724200    1.974600    0.192500
      5          6           0        3.053900    3.393200    1.094800
      6          8           0        3.650600    3.368100    2.168900
      7          7           0        3.555400    3.969700    0.000000
      8          1           0        3.026700    3.964700   -0.860600
      9          6           0        4.853300    4.613900    0.000000
     10          1           0        5.407600    4.315500    0.889800
     11          6           0        5.661300    4.220800   -1.232200
     12          1           0        5.123300    4.521400   -2.131200
     13          1           0        6.630500    4.718900   -1.205800
     14          1           0        5.808500    3.140900   -1.241400
     15          6           0        4.712700    6.129400    0.000000
     16          8           0        4.655100    6.750500    1.059000
     17          7           0        4.657500    6.724600   -1.193700
     18          1           0        4.708800    6.171000   -2.036900
     19          6           0        4.524200    8.161300   -1.327500
     20          1           0        4.482000    8.616500   -0.338100
     21          1           0        5.381100    8.557000   -1.872700
     22          1           0        3.609100    8.392600   -1.872700
 ---------------------------------------------------------------------
                    Distance matrix (angstroms):
                    1          2          3          4          5
     1  H    0.000000
     2  C    1.090037   0.000000
     3  H    1.780262   1.090036   0.000000
     4  H    1.780283   1.089947   1.779645   0.000000
     5  C    2.174754   1.529960   2.143600   2.143519   0.000000
     6  O    2.546517   2.400017   3.091833   3.091766   1.228972
     7  N    3.352348   2.439731   2.714971   2.714917   1.335081
     8  H    3.630935   2.572774   2.601197   2.601158   2.037386
     9  C    4.604526   3.809352   4.098171   4.098076   2.434448
    10  H    4.638058   4.050475   4.525580   4.419669   2.536250
    11  C    5.662007   4.782360   5.114450   4.751415   3.591432
    12  H    5.949243   4.958941   5.108944   4.841452   3.995288
    13  H    6.583483   5.756804   6.087972   5.792944   4.454471
    14  H    5.517148   4.700391   5.219047   4.483060   3.620678
    15  C    5.433804   4.646195   4.620557   5.121577   3.381863
    16  O    5.600985   4.991762   4.928792   5.670116   3.719756
    17  N    6.326685   5.417185   5.233515   5.752243   4.348217
    18  H    6.458658   5.467991   5.324393   5.611402   4.501379
    19  C    7.400514   6.530736   6.182421   6.958855   5.546539
    20  H    7.391110   6.633443   6.278600   7.211230   5.601387
    21  H    8.339506   7.449884   7.166337   7.808070   6.394275
    22  H    7.508508   6.604304   6.098874   7.000616   5.840231
                    6          7          8          9         10
     6  O    0.000000
     7  N    2.252801   0.000000
     8  H    3.150088   1.010040   0.000000
     9  C    2.775362   1.448978   2.120981   0.000000
    10  H    2.370804   2.083739   2.975844   1.089970   0.000000
    11  C    4.041966   2.452791   2.672974   1.525027   2.139209
    12  H    4.689329   2.702720   2.513975   2.150225   3.041326
    13  H    4.700326   3.386959   3.698020   2.150214   2.459625
    14  H    4.042066   2.702673   2.926101   2.150165   2.466256
    15  C    3.668373   2.450234   2.875614   1.522008   2.136554
    16  O    3.698855   3.172329   3.754628   2.392869   2.554234
    17  N    4.856647   3.198284   3.222966   2.432758   3.272214
    18  H    5.163796   3.213256   3.013453   2.567957   3.535078
    19  C    5.996896   4.502259   4.480173   3.801922   4.526256
    20  H    5.875541   4.750332   4.902055   4.033978   4.567611
    21  H    6.801018   5.280484   5.258970   4.397001   5.061860
    22  H    6.448399   4.803325   4.579283   4.397000   5.242972
                   11         12         13         14         15
    11  C    0.000000
    12  H    1.089957   0.000000
    13  H    1.090023   1.779613   0.000000
    14  H    1.089925   1.779613   1.779617   0.000000
    15  C    2.461892   2.701161   2.668599   3.416575   0.000000
    16  O    3.558289   3.919882   3.627523   4.432988   1.229050
    17  N    2.697797   2.439255   2.813487   3.764304   1.335002
    18  H    2.314752   1.703491   2.547990   3.320191   2.037328
    19  C    4.102392   3.775411   4.037503   5.182785   2.434421
    20  H    4.638140   4.516228   4.534340   5.705940   2.520556
    21  H    4.392196   4.052080   4.091059   5.469493   3.137994
    22  H    4.693152   4.164831   4.803091   5.728547   3.137995
                   16         17         18         19         20
    16  O    0.000000
    17  N    2.252850   0.000000
    18  H    3.150127   1.009995   0.000000
    19  C    2.775405   1.449061   2.120995   0.000000
    20  H    2.337479   2.083780   2.986274   1.089908   0.000000
    21  H    3.519287   2.083825   2.484340   1.090000   1.779584
    22  H    3.519300   2.083844   2.484312   1.090023   1.779630
                   21         22
    21  H    0.000000
    22  H    1.779610   0.000000
 Stoichiometry    C6H12N2O2
 Framework group  C1[X(C6H12N2O2)]
 Deg. of freedom    60
 Full point group                 C1      NOp   1
 Largest Abelian subgroup         C1      NOp   1
 Largest concise Abelian subgroup C1      NOp   1
                         Standard orientation:                         
 ---------------------------------------------------------------------
 Center     Atomic      Atomic             Coordinates (Angstroms)
 Number     Number       Type             X           Y           Z
 ---------------------------------------------------------------------
      1          1           0       -4.086526   -0.988331    0.702455
      2          6           0       -3.202965   -0.505402    1.119922
      3          1           0       -2.750613   -1.157752    1.866913
      4          1           0       -3.489686    0.436772    1.586915
      5          6           0       -2.167262   -0.216420    0.031535
      6          8           0       -2.388382   -0.524181   -1.137551
      7          7           0       -1.037178    0.376287    0.424024
      8          1           0       -0.901257    0.610143    1.397172
      9          6           0        0.020839    0.702710   -0.510635
     10          1           0       -0.362350    0.643060   -1.529283
     11          6           0        0.549657    2.112836   -0.270626
     12          1           0        0.945195    2.185574    0.742421
     13          1           0        1.342533    2.330713   -0.986186
     14          1           0       -0.260157    2.831376   -0.396477
     15          6           0        1.189950   -0.262108   -0.373473
     16          8           0        1.228006   -1.294615   -1.039089
     17          7           0        2.146314    0.077122    0.494006
     18          1           0        2.070430    0.936808    1.018670
     19          6           0        3.310362   -0.757040    0.715243
     20          1           0        3.249430   -1.642053    0.082045
     21          1           0        4.211991   -0.196168    0.469099
     22          1           0        3.346582   -1.061100    1.761372
 ---------------------------------------------------------------------
 Rotational constants (GHZ):      2.3204324      0.7241093      0.6810659
 Standard basis: 6-31G(d) (6D, 7F)
 There are   174 symmetry adapted basis functions of A   symmetry.
 Integral buffers will be    131072 words long.
 Raffenetti 2 integral format.
 Two-electron integral symmetry is turned on.
   174 basis functions,   328 primitive gaussians,   174 cartesian basis functions
    39 alpha electrons       39 beta electrons
       nuclear repulsion energy       556.2987438691 Hartrees.
 NAtoms=   22 NActive=   22 NUniq=   22 SFac= 7.50D-01 NAtFMM=   80 NAOKFM=F Big=F
 One-electron integrals computed using PRISM.
 NBasis=   174 RedAO= T  NBF=   174
 NBsUse=   174 1.00D-06 NBFU=   174
 Harris functional with IExCor=  402 diagonalized for initial guess.
 ExpMin= 1.61D-01 ExpMax= 5.48D+03 ExpMxC= 8.25D+02 IAcc=1 IRadAn=         1 AccDes= 0.00D+00
 HarFok:  IExCor=  402 AccDes= 0.00D+00 IRadAn=         1 IDoV= 1
 ScaDFX=  1.000000  1.000000  1.000000  1.000000
 FoFCou: FMM=F IPFlag=           0 FMFlag=      100000 FMFlg1=           0
         NFxFlg=           0 DoJE=T BraDBF=F KetDBF=T FulRan=T
         Omega=  0.000000  0.000000  1.000000  0.000000  0.000000 ICntrl=     500 IOpCl=  0
         NMat0=    1 NMatS0=    1 NMatT0=    0 NMatD0=    1 NMtDS0=    0 NMtDT0=    0
         I1Cent=           4 NGrid=           0.
 Petite list used in FoFCou.
 Initial guess orbital symmetries:
       Occupied  (A) (A) (A) (A) (A) (A) (A) (A) (A) (A) (A) (A)
                 (A) (A) (A) (A) (A) (A) (A) (A) (A) (A) (A) (A)
                 (A) (A) (A) (A) (A) (A) (A) (A) (A) (A) (A) (A)
                 (A) (A) (A)
       Virtual   (A) (A) (A) (A) (A) (A) (A) (A) (A) (A) (A) (A)
                 (A) (A) (A) (A) (A) (A) (A) (A) (A) (A) (A) (A)
                 (A) (A) (A) (A) (A) (A) (A) (A) (A) (A) (A) (A)
                 (A) (A) (A) (A) (A) (A) (A) (A) (A) (A) (A) (A)
                 (A) (A) (A) (A) (A) (A) (A) (A) (A) (A) (A) (A)
                 (A) (A) (A) (A) (A) (A) (A) (A) (A) (A) (A) (A)
                 (A) (A) (A) (A) (A) (A) (A) (A) (A) (A) (A) (A)
                 (A) (A) (A) (A) (A) (A) (A) (A) (A) (A) (A) (A)
                 (A) (A) (A) (A) (A) (A) (A) (A) (A) (A) (A) (A)
                 (A) (A) (A) (A) (A) (A) (A) (A) (A) (A) (A) (A)
                 (A) (A) (A) (A) (A) (A) (A) (A) (A) (A) (A) (A)
                 (A) (A) (A)
 The electronic state of the initial guess is 1-A.
 Requested convergence on RMS density matrix=1.00D-08 within 128 cycles.
 Requested convergence on MAX density matrix=1.00D-06.
 Requested convergence on             energy=1.00D-06.
 No special actions if energy rises.
 Integral accuracy reduced to 1.0D-05 until final iterations.
 Initial convergence to 1.0D-05 achieved.  Increase integral accuracy.
 SCF Done:  E(RB3LYP) =  -495.829106837     A.U. after   16 cycles
             Convg  =    0.4150D-08             -V/T =  2.0087
 Range of M.O.s used for correlation:     1   174
 NBasis=   174 NAE=    39 NBE=    39 NFC=     0 NFV=     0
 NROrb=    174 NOA=    39 NOB=    39 NVA=   135 NVB=   135
 Symmetrizing basis deriv contribution to polar:
 IMax=3 JMax=2 DiffMx= 0.00D+00
 G2DrvN: will do    23 centers at a time, making    1 passes doing MaxLOS=2.
 Calling FoFCou, ICntrl=  3107 FMM=F I1Cent=   0 AccDes= 0.00D+00.
 FoFDir/FoFCou used for L=0 through L=2.
 End of G2Drv Frequency-dependent properties file   721 does not exist.
 End of G2Drv Frequency-dependent properties file   722 does not exist.
          IDoAtm=1111111111111111111111
          Differentiating once with respect to nuclear coordinates.
          There are    69 degrees of freedom in the 1st order CPHF.  IDoFFX=5.
     63 vectors produced by pass  0 Test12= 7.63D-11 1.45D-07 XBig12= 1.91D-01 9.97D-02.
 AX will form    63 AO Fock derivatives at one time.
     63 vectors produced by pass  1 Test12= 7.63D-11 1.45D-07 XBig12= 3.08D-02 4.51D-02.
     63 vectors produced by pass  2 Test12= 7.63D-11 1.45D-07 XBig12= 6.42D-05 1.37D-03.
     63 vectors produced by pass  3 Test12= 7.63D-11 1.45D-07 XBig12= 8.32D-08 6.36D-05.
     27 vectors produced by pass  4 Test12= 7.63D-11 1.45D-07 XBig12= 7.45D-11 1.65D-06.
 Inverted reduced A of dimension   279 with in-core refinement.
 End of Minotr Frequency-dependent properties file   721 does not exist.
 End of Minotr Frequency-dependent properties file   722 does not exist.

 **********************************************************************

            Population analysis using the SCF density.

 **********************************************************************

 Orbital symmetries:
       Occupied  (A) (A) (A) (A) (A) (A) (A) (A) (A) (A) (A) (A)
                 (A) (A) (A) (A) (A) (A) (A) (A) (A) (A) (A) (A)
                 (A) (A) (A) (A) (A) (A) (A) (A) (A) (A) (A) (A)
                 (A) (A) (A)
       Virtual   (A) (A) (A) (A) (A) (A) (A) (A) (A) (A) (A) (A)
                 (A) (A) (A) (A) (A) (A) (A) (A) (A) (A) (A) (A)
                 (A) (A) (A) (A) (A) (A) (A) (A) (A) (A) (A) (A)
                 (A) (A) (A) (A) (A) (A) (A) (A) (A) (A) (A) (A)
                 (A) (A) (A) (A) (A) (A) (A) (A) (A) (A) (A) (A)
                 (A) (A) (A) (A) (A) (A) (A) (A) (A) (A) (A) (A)
                 (A) (A) (A) (A) (A) (A) (A) (A) (A) (A) (A) (A)
                 (A) (A) (A) (A) (A) (A) (A) (A) (A) (A) (A) (A)
                 (A) (A) (A) (A) (A) (A) (A) (A) (A) (A) (A) (A)
                 (A) (A) (A) (A) (A) (A) (A) (A) (A) (A) (A) (A)
                 (A) (A) (A) (A) (A) (A) (A) (A) (A) (A) (A) (A)
                 (A) (A) (A)
 The electronic state is 1-A.
 Alpha  occ. eigenvalues --  -19.09922 -19.09741 -14.36597 -14.36591 -10.27952
 Alpha  occ. eigenvalues --  -10.27581 -10.23202 -10.21960 -10.19918 -10.18767
 Alpha  occ. eigenvalues --   -1.03004  -1.02003  -0.93276  -0.92435  -0.79443
 Alpha  occ. eigenvalues --   -0.73129  -0.71170  -0.65586  -0.59959  -0.59347
 Alpha  occ. eigenvalues --   -0.54238  -0.49836  -0.46800  -0.46342  -0.45367
 Alpha  occ. eigenvalues --   -0.44001  -0.42781  -0.42267  -0.40339  -0.40129
 Alpha  occ. eigenvalues --   -0.38696  -0.38320  -0.36903  -0.36191  -0.35400
 Alpha  occ. eigenvalues --   -0.26702  -0.25249  -0.23598  -0.22759
 Alpha virt. eigenvalues --    0.02463   0.04713   0.05011   0.08275   0.11401
 Alpha virt. eigenvalues --    0.12130   0.13133   0.14788   0.15503   0.16176
 Alpha virt. eigenvalues --    0.16637   0.17494   0.17775   0.19037   0.19857
 Alpha virt. eigenvalues --    0.21100   0.23649   0.26389   0.26988   0.32914
 Alpha virt. eigenvalues --    0.33876   0.38462   0.42936   0.50369   0.50930
 Alpha virt. eigenvalues --    0.51844   0.52146   0.53848   0.54956   0.56099
 Alpha virt. eigenvalues --    0.57450   0.59440   0.60666   0.62213   0.64484
 Alpha virt. eigenvalues --    0.67989   0.68138   0.71036   0.71914   0.74304
 Alpha virt. eigenvalues --    0.75109   0.77247   0.79354   0.79876   0.84357
 Alpha virt. eigenvalues --    0.84919   0.84978   0.87001   0.87894   0.88244
 Alpha virt. eigenvalues --    0.89081   0.89586   0.90932   0.92153   0.93873
 Alpha virt. eigenvalues --    0.94737   0.95336   0.95760   0.97653   1.03907
 Alpha virt. eigenvalues --    1.04453   1.08096   1.08706   1.10625   1.14615
 Alpha virt. eigenvalues --    1.18195   1.25000   1.29496   1.33181   1.34171
 Alpha virt. eigenvalues --    1.38006   1.39215   1.44941   1.46528   1.48564
 Alpha virt. eigenvalues --    1.52428   1.54793   1.60834   1.64253   1.68750
 Alpha virt. eigenvalues --    1.72113   1.75113   1.78728   1.81039   1.83010
 Alpha virt. eigenvalues --    1.84264   1.85494   1.88502   1.90933   1.93773
 Alpha virt. eigenvalues --    1.94664   1.97343   1.97666   1.99725   2.01887
 Alpha virt. eigenvalues --    2.04829   2.06032   2.11339   2.12829   2.15629
 Alpha virt. eigenvalues --    2.20139   2.20669   2.25483   2.26421   2.29039
 Alpha virt. eigenvalues --    2.30129   2.33659   2.35818   2.39028   2.40841
 Alpha virt. eigenvalues --    2.43230   2.48183   2.54144   2.58706   2.62868
 Alpha virt. eigenvalues --    2.65458   2.70273   2.75122   2.76519   2.91296
 Alpha virt. eigenvalues --    2.92872   2.97940   2.99949   3.17170   3.17946
 Alpha virt. eigenvalues --    3.96737   3.98677   4.06944   4.18390   4.21421
 Alpha virt. eigenvalues --    4.22784   4.28831   4.35490   4.48877   4.67745
          Condensed to atoms (all electrons):
              1          2          3          4          5          6
     1  H    0.495681   0.361948  -0.020657  -0.021362  -0.017534   0.005122
     2  C    0.361948   5.348257   0.350196   0.347627   0.345200  -0.082281
     3  H   -0.020657   0.350196   0.553243  -0.027803  -0.026275   0.001342
     4  H   -0.021362   0.347627  -0.027803   0.561444  -0.025499   0.001508
     5  C   -0.017534   0.345200  -0.026275  -0.025499   4.333972   0.616893
     6  O    0.005122  -0.082281   0.001342   0.001508   0.616893   8.041979
     7  N    0.004432  -0.137442   0.004978   0.004753   0.212161  -0.107083
     8  H   -0.000164   0.000114   0.000878   0.001004  -0.016933   0.003621
     9  C   -0.000133   0.007216  -0.000287  -0.000254  -0.015994   0.001243
    10  H   -0.000011   0.001188  -0.000029  -0.000055   0.000772   0.019435
    11  C    0.000002  -0.000189  -0.000011   0.000018   0.004756   0.000625
    12  H    0.000000  -0.000009   0.000000   0.000003  -0.000327  -0.000013
    13  H    0.000000   0.000004   0.000000   0.000000  -0.000035  -0.000001
    14  H    0.000000  -0.000020   0.000000   0.000000   0.000413   0.000024
    15  C    0.000002  -0.000141   0.000063  -0.000009  -0.000446  -0.001234
    16  O    0.000000   0.000001   0.000002   0.000000   0.002197  -0.000266
    17  N    0.000000  -0.000001  -0.000001   0.000000   0.000076  -0.000012
    18  H    0.000000  -0.000001   0.000000   0.000000  -0.000054  -0.000001
    19  C    0.000000   0.000000   0.000000   0.000000   0.000001   0.000000
    20  H    0.000000   0.000000   0.000000   0.000000  -0.000003   0.000000
    21  H    0.000000   0.000000   0.000000   0.000000   0.000000   0.000000
    22  H    0.000000   0.000000   0.000000   0.000000   0.000000   0.000000
              7          8          9         10         11         12
     1  H    0.004432  -0.000164  -0.000133  -0.000011   0.000002   0.000000
     2  C   -0.137442   0.000114   0.007216   0.001188  -0.000189  -0.000009
     3  H    0.004978   0.000878  -0.000287  -0.000029  -0.000011   0.000000
     4  H    0.004753   0.001004  -0.000254  -0.000055   0.000018   0.000003
     5  C    0.212161  -0.016933  -0.015994   0.000772   0.004756  -0.000327
     6  O   -0.107083   0.003621   0.001243   0.019435   0.000625  -0.000013
     7  N    7.190037   0.294352   0.250294  -0.042277  -0.056636  -0.005557
     8  H    0.294352   0.424521  -0.029471   0.004587  -0.004539   0.005269
     9  C    0.250294  -0.029471   5.113733   0.364313   0.295166  -0.025165
    10  H   -0.042277   0.004587   0.364313   0.499120  -0.034720   0.004955
    11  C   -0.056636  -0.004539   0.295166  -0.034720   5.222868   0.350930
    12  H   -0.005557   0.005269  -0.025165   0.004955   0.350930   0.614426
    13  H    0.004478  -0.000118  -0.034114  -0.002958   0.376341  -0.032441
    14  H    0.000995   0.000046  -0.026251  -0.004397   0.362270  -0.027788
    15  C   -0.047868  -0.001832   0.343318  -0.028949  -0.051802  -0.015335
    16  O   -0.000373  -0.000184  -0.079016   0.002677   0.003446  -0.000090
    17  N   -0.000534   0.001937  -0.120175   0.004375   0.003148  -0.003786
    18  H    0.000262   0.000298  -0.002086   0.000132   0.000368   0.014819
    19  C   -0.000220  -0.000017   0.006946  -0.000121   0.000015   0.000285
    20  H   -0.000033   0.000002   0.001162  -0.000019  -0.000113  -0.000009
    21  H   -0.000004   0.000003  -0.000013   0.000010  -0.000134   0.000075
    22  H    0.000032  -0.000012  -0.000295  -0.000001   0.000058  -0.000047
             13         14         15         16         17         18
     1  H    0.000000   0.000000   0.000002   0.000000   0.000000   0.000000
     2  C    0.000004  -0.000020  -0.000141   0.000001  -0.000001  -0.000001
     3  H    0.000000   0.000000   0.000063   0.000002  -0.000001   0.000000
     4  H    0.000000   0.000000  -0.000009   0.000000   0.000000   0.000000
     5  C   -0.000035   0.000413  -0.000446   0.002197   0.000076  -0.000054
     6  O   -0.000001   0.000024  -0.001234  -0.000266  -0.000012  -0.000001
     7  N    0.004478   0.000995  -0.047868  -0.000373  -0.000534   0.000262
     8  H   -0.000118   0.000046  -0.001832  -0.000184   0.001937   0.000298
     9  C   -0.034114  -0.026251   0.343318  -0.079016  -0.120175  -0.002086
    10  H   -0.002958  -0.004397  -0.028949   0.002677   0.004375   0.000132
    11  C    0.376341   0.362270  -0.051802   0.003446   0.003148   0.000368
    12  H   -0.032441  -0.027788  -0.015335  -0.000090  -0.003786   0.014819
    13  H    0.534458  -0.021913   0.002246   0.000060  -0.000697  -0.000552
    14  H   -0.021913   0.545309   0.004261  -0.000094   0.000485  -0.000325
    15  C    0.002246   0.004261   4.381929   0.605387   0.241640  -0.019276
    16  O    0.000060  -0.000094   0.605387   8.068284  -0.105643   0.003953
    17  N   -0.000697   0.000485   0.241640  -0.105643   7.141575   0.291673
    18  H   -0.000552  -0.000325  -0.019276   0.003953   0.291673   0.416894
    19  C   -0.000122   0.000001  -0.025197  -0.009534   0.262590  -0.030709
    20  H   -0.000006   0.000002   0.000101   0.023504  -0.038492   0.003723
    21  H    0.000025  -0.000003   0.001198   0.000635  -0.045348  -0.000059
    22  H   -0.000001   0.000001   0.001989   0.000608  -0.043279  -0.001127
             19         20         21         22
     1  H    0.000000   0.000000   0.000000   0.000000
     2  C    0.000000   0.000000   0.000000   0.000000
     3  H    0.000000   0.000000   0.000000   0.000000
     4  H    0.000000   0.000000   0.000000   0.000000
     5  C    0.000001  -0.000003   0.000000   0.000000
     6  O    0.000000   0.000000   0.000000   0.000000
     7  N   -0.000220  -0.000033  -0.000004   0.000032
     8  H   -0.000017   0.000002   0.000003  -0.000012
     9  C    0.006946   0.001162  -0.000013  -0.000295
    10  H   -0.000121  -0.000019   0.000010  -0.000001
    11  C    0.000015  -0.000113  -0.000134   0.000058
    12  H    0.000285  -0.000009   0.000075  -0.000047
    13  H   -0.000122  -0.000006   0.000025  -0.000001
    14  H    0.000001   0.000002  -0.000003   0.000001
    15  C   -0.025197   0.000101   0.001198   0.001989
    16  O   -0.009534   0.023504   0.000635   0.000608
    17  N    0.262590  -0.038492  -0.045348  -0.043279
    18  H   -0.030709   0.003723  -0.000059  -0.001127
    19  C    4.969470   0.374764   0.384299   0.380596
    20  H    0.374764   0.469851  -0.024055  -0.023509
    21  H    0.384299  -0.024055   0.564228  -0.038979
    22  H    0.380596  -0.023509  -0.038979   0.568847
 Mulliken atomic charges:
              1
     1  H    0.192672
     2  C   -0.541667
     3  H    0.164360
     4  H    0.158624
     5  C    0.586659
     6  O   -0.500903
     7  N   -0.568748
     8  H    0.316639
     9  C   -0.050137
    10  H    0.211972
    11  C   -0.471868
    12  H    0.119807
    13  H    0.175347
    14  H    0.166985
    15  C    0.609956
    16  O   -0.515555
    17  N   -0.589531
    18  H    0.322067
    19  C   -0.313049
    20  H    0.213130
    21  H    0.158120
    22  H    0.155120
 Sum of Mulliken atomic charges =   0.00000
 Mulliken charges with hydrogens summed into heavy atoms:
              1
     2  C   -0.026010
     5  C    0.586659
     6  O   -0.500903
     7  N   -0.252109
     9  C    0.161834
    11  C   -0.009729
    15  C    0.609956
    16  O   -0.515555
    17  N   -0.267463
    19  C    0.213321
 Sum of Mulliken charges with hydrogens summed into heavy atoms =   0.00000
 APT atomic charges:
              1
     1  H    0.713291
     2  C   -1.226471
     3  H    0.284260
     4  H    0.431547
     5  C   -0.067396
     6  O   -0.116042
     7  N   -0.623987
     8  H    0.516553
     9  C   -0.394174
    10  H    0.438385
    11  C   -1.214486
    12  H    0.292736
    13  H    0.475620
    14  H    0.459494
    15  C   -0.090298
    16  O   -0.153342
    17  N   -0.379651
    18  H    0.504211
    19  C   -1.372741
    20  H    0.425981
    21  H    0.628528
    22  H    0.467980
 Sum of APT charges=   0.00000
 APT Atomic charges with hydrogens summed into heavy atoms:
              1
     1  H    0.000000
     2  C    0.202627
     3  H    0.000000
     4  H    0.000000
     5  C   -0.067396
     6  O   -0.116042
     7  N   -0.107433
     8  H    0.000000
     9  C    0.044211
    10  H    0.000000
    11  C    0.013364
    12  H    0.000000
    13  H    0.000000
    14  H    0.000000
    15  C   -0.090298
    16  O   -0.153342
    17  N    0.124561
    18  H    0.000000
    19  C    0.149748
    20  H    0.000000
    21  H    0.000000
    22  H    0.000000
 Sum of APT charges=   0.00000
 Electronic spatial extent (au):  <R**2>=           1838.6399
 Charge=              0.0000 electrons
 Dipole moment (field-independent basis, Debye):
    X=              2.2423    Y=              3.9182    Z=              5.3145  Tot=              6.9731
 Quadrupole moment (field-independent basis, Debye-Ang):
   XX=            -56.3892   YY=            -61.2258   ZZ=            -60.6724
   XY=              0.8922   XZ=             -3.1820   YZ=             -4.0207
 Traceless Quadrupole moment (field-independent basis, Debye-Ang):
   XX=              3.0400   YY=             -1.7967   ZZ=             -1.2433
   XY=              0.8922   XZ=             -3.1820   YZ=             -4.0207
 Octapole moment (field-independent basis, Debye-Ang**2):
  XXX=             22.9748  YYY=             -0.7358  ZZZ=              4.3952  XYY=             -0.9253
  XXY=              0.3944  XXZ=             24.0583  XZZ=              5.4964  YZZ=              6.6838
  YYZ=              3.8920  XYZ=              0.7741
 Hexadecapole moment (field-independent basis, Debye-Ang**3):
 XXXX=          -1572.1061 YYYY=           -426.8237 ZZZZ=           -281.8439 XXXY=            -10.5058
 XXXZ=            -17.2650 YYYX=             -1.7062 YYYZ=             -1.4465 ZZZX=              4.1397
 ZZZY=              1.5407 XXYY=           -337.2074 XXZZ=           -339.6055 YYZZ=           -117.8055
 XXYZ=             -9.3454 YYXZ=              5.0974 ZZXY=             -0.1879
 N-N= 5.562987438691D+02 E-N=-2.268855288437D+03  KE= 4.915673625505D+02
  Exact polarizability:   0.000   0.000   0.000   0.000   0.000   0.000
 Approx polarizability: 114.298   8.501 103.235  14.501  18.523 120.158
 Calling FoFJK, ICntrl=    100147 FMM=F ISym2X=0 I1Cent= 0 IOpClX= 0 NMat=1 NMatS=1 NMatT=0.
 ***** Axes restored to original set *****
 -------------------------------------------------------------------
 Center     Atomic                   Forces (Hartrees/Bohr)
 Number     Number              X              Y              Z
 -------------------------------------------------------------------
      1        1           0.003551017    0.001559768    0.000779467
      2        6           0.007721412    0.005343357   -0.005817466
      3        1          -0.005946727    0.000011162   -0.002504918
      4        1          -0.004559427   -0.003447407   -0.003701470
      5        6          -0.014231685   -0.017868489    0.045029868
      6        8           0.001368976   -0.000367461   -0.004672929
      7        7           0.009328022    0.008108074   -0.021028916
      8        1          -0.001074963    0.000397136   -0.000437784
      9        6           0.010665424    0.002163574   -0.018200344
     10        1          -0.007630367    0.001784740    0.004190780
     11        6           0.000597527   -0.013071707    0.006210036
     12        1           0.002809284   -0.007697944   -0.007638226
     13        1           0.002645214    0.000127604   -0.003117638
     14        1           0.001676900   -0.002831553   -0.003959039
     15        6          -0.000786277    0.000381996    0.041299089
     16        8          -0.000404978    0.001232563   -0.001223314
     17        7          -0.004432707    0.013551519   -0.020393689
     18        1           0.000039988    0.005780041    0.002221327
     19        6          -0.000785590   -0.000388530   -0.003538340
     20        1           0.000201041   -0.003250736    0.000866303
     21        1           0.002098940    0.004261430   -0.002211508
     22        1          -0.002851022    0.004220861   -0.002151291
 -------------------------------------------------------------------
 Cartesian Forces:  Max     0.045029868 RMS     0.010114838

 GradGradGradGradGradGradGradGradGradGradGradGradGradGradGradGradGradGrad
 Berny optimization.
 Internal  Forces:  Max     0.034800795 RMS     0.008366796
 Search for a local minimum.
 Step number   1 out of a maximum of  132
 All quantities printed in internal units (Hartrees-Bohrs-Radians)
 Mixed Optimization -- RFO/linear search
 Second derivative matrix not updated -- analytic derivatives used.
     Eigenvalues ---   -0.00067  -0.00035   0.00098   0.00227   0.00456
     Eigenvalues ---    0.01591   0.01664   0.02173   0.03895   0.04209
     Eigenvalues ---    0.04611   0.04998   0.05203   0.05581   0.05832
     Eigenvalues ---    0.05985   0.06398   0.06631   0.11276   0.11743
     Eigenvalues ---    0.12283   0.12470   0.13297   0.13345   0.13576
     Eigenvalues ---    0.14285   0.14670   0.17042   0.17827   0.18559
     Eigenvalues ---    0.18943   0.20085   0.21460   0.22341   0.23995
     Eigenvalues ---    0.24508   0.27549   0.29827   0.33470   0.34499
     Eigenvalues ---    0.34557   0.34843   0.35055   0.35159   0.35328
     Eigenvalues ---    0.35510   0.35740   0.35888   0.35922   0.37384
     Eigenvalues ---    0.39435   0.45620   0.46735   0.53331   0.54223
     Eigenvalues ---    0.61492   0.82474   0.831661000.000001000.00000
     Eigenvalues --- 1000.000001000.000001000.000001000.000001000.00000
     Eigenvalues --- 1000.000001000.000001000.000001000.000001000.00000
     Eigenvalues --- 1000.000001000.000001000.000001000.000001000.00000
     Eigenvalues --- 1000.000001000.000001000.000001000.000001000.00000
     Eigenvalues --- 1000.000001000.000001000.000001000.000001000.00000
     Eigenvalues --- 1000.000001000.000001000.000001000.000001000.00000
     Eigenvalues --- 1000.000001000.000001000.000001000.000001000.00000
     Eigenvalues --- 1000.000001000.000001000.00000
 RFO step:  Lambda=-1.73888664D-02 EMin=-6.70979466D-04
 Linear search not attempted -- first point.
 Maximum step size (   0.300) exceeded in Quadratic search.
    -- Step size scaled by   0.313
 Iteration  1 RMS(Cart)=  0.05483207 RMS(Int)=  0.00234996
 Iteration  2 RMS(Cart)=  0.00250559 RMS(Int)=  0.00006282
 Iteration  3 RMS(Cart)=  0.00000458 RMS(Int)=  0.00006273
 Iteration  4 RMS(Cart)=  0.00000000 RMS(Int)=  0.00006273
 Iteration  1 RMS(Cart)=  0.00001671 RMS(Int)=  0.00000589
 Iteration  2 RMS(Cart)=  0.00000873 RMS(Int)=  0.00000659
 Iteration  3 RMS(Cart)=  0.00000456 RMS(Int)=  0.00000741
 Iteration  4 RMS(Cart)=  0.00000238 RMS(Int)=  0.00000792
 Iteration  5 RMS(Cart)=  0.00000124 RMS(Int)=  0.00000821
 Iteration  6 RMS(Cart)=  0.00000065 RMS(Int)=  0.00000836
 Variable       Old X    -DE/DX   Delta X   Delta X   Delta X     New X
                                 (Linear)    (Quad)   (Total)
    R1        2.05987  -0.00100   0.00000   0.00005   0.00005   2.05992
    R2        2.05987   0.00460   0.00000   0.00363   0.00363   2.06350
    R3        2.05970   0.00483   0.00000   0.00365   0.00365   2.06335
    R4        2.89121  -0.00115   0.00000  -0.00338  -0.00338   2.88783
    R5        2.32242  -0.00341   0.00000  -0.00433  -0.00433   2.31809
    R6        2.52294   0.03480   0.00000   0.02077   0.02077   2.54371
    R7        1.90870   0.00093   0.00000   0.00044   0.00044   1.90914
    R8        2.73817   0.00622   0.00000   0.00442   0.00442   2.74259
    R9        2.05975  -0.00095   0.00000   0.00027   0.00027   2.06002
   R10        2.88188   0.01702   0.00000   0.00588   0.00588   2.88776
   R11        2.87618   0.02632   0.00000   0.01328   0.01328   2.88946
   R12        2.05972   0.00279   0.00000   0.00572   0.00572   2.06544
   R13        2.05984   0.00233   0.00000   0.00298   0.00298   2.06282
   R14        2.05966   0.00306   0.00000   0.00224   0.00224   2.06190
   R15        2.32257  -0.00041   0.00000  -0.00336  -0.00336   2.31921
   R16        2.52279   0.03355   0.00000   0.01763   0.01763   2.54042
   R17        1.90861  -0.00502   0.00000  -0.00125  -0.00125   1.90737
   R18        2.73833   0.00558   0.00000   0.00214   0.00214   2.74047
   R19        2.05963  -0.00058   0.00000   0.00034   0.00034   2.05997
   R20        2.05980   0.00430   0.00000   0.00421   0.00421   2.06401
   R21        2.05985   0.00437   0.00000   0.00304   0.00304   2.06289
    A1        1.91101  -0.00010   0.00000  -0.00344  -0.00345   1.90756
    A2        1.91116  -0.00016   0.00000   0.00066   0.00070   1.91187
    A3        1.93901  -0.00802   0.00000  -0.01248  -0.01247   1.92655
    A4        1.91015  -0.00509   0.00000  -0.00753  -0.00760   1.90255
    A5        1.89612   0.00647   0.00000   0.00391   0.00387   1.89999
    A6        1.89610   0.00695   0.00000   0.01900   0.01899   1.91509
    A7        2.10322   0.00821   0.00000   0.01209   0.01209   2.11531
    A8        2.03502  -0.00995   0.00000  -0.01211  -0.01211   2.02290
    A9        2.14495   0.00174   0.00000   0.00002   0.00001   2.14497
   A10        2.09432  -0.00316   0.00000  -0.00492  -0.00496   2.08937
   A11        2.12756   0.00556   0.00000   0.00551   0.00547   2.13304
   A12        2.06130  -0.00241   0.00000  -0.00059  -0.00063   2.06067
   A13        1.91114   0.00225   0.00000  -0.01386  -0.01398   1.89716
   A14        1.93905  -0.00979   0.00000  -0.00147  -0.00144   1.93761
   A15        1.93900  -0.00847   0.00000  -0.00774  -0.00791   1.93109
   A16        1.89609  -0.00354   0.00000   0.00592   0.00594   1.90203
   A17        1.89608  -0.00999   0.00000  -0.01107  -0.01135   1.88473
   A18        1.88137   0.02980   0.00000   0.02881   0.02881   1.91019
   A19        1.91115   0.01212   0.00000   0.01388   0.01384   1.92498
   A20        1.91106   0.00262   0.00000   0.00675   0.00671   1.91777
   A21        1.91110   0.00231   0.00000   0.00276   0.00275   1.91384
   A22        1.91011  -0.00510   0.00000  -0.00702  -0.00709   1.90301
   A23        1.91023  -0.00871   0.00000  -0.01182  -0.01184   1.89839
   A24        1.91015  -0.00325   0.00000  -0.00457  -0.00458   1.90558
   A25        2.10310  -0.00702   0.00000   0.00456   0.00451   2.10761
   A26        2.03505   0.01800   0.00000  -0.00515  -0.00520   2.02985
   A27        2.14504  -0.01098   0.00000   0.00059   0.00054   2.14558
   A28        2.09441   0.00293   0.00000  -0.00384  -0.00407   2.09034
   A29        2.12752   0.00098   0.00000   0.00273   0.00250   2.13002
   A30        2.06126  -0.00391   0.00000   0.00111   0.00088   2.06214
   A31        1.91116  -0.00678   0.00000  -0.01141  -0.01139   1.89977
   A32        1.91113   0.00460   0.00000   0.01157   0.01156   1.92268
   A33        1.91113   0.00531   0.00000   0.00511   0.00509   1.91622
   A34        1.91015   0.00020   0.00000  -0.00339  -0.00336   1.90679
   A35        1.91019  -0.00008   0.00000   0.00163   0.00164   1.91183
   A36        1.91004  -0.00324   0.00000  -0.00351  -0.00356   1.90648
    D1        0.00007   0.00049   0.00000  -0.08856  -0.08859  -0.08853
    D2       -3.14150  -0.00039   0.00000  -0.08400  -0.08402   3.05766
    D3        2.10327  -0.00041   0.00000  -0.09801  -0.09804   2.00523
    D4       -1.03830  -0.00129   0.00000  -0.09345  -0.09347  -1.13177
    D5       -2.10331   0.00116   0.00000  -0.09394  -0.09390  -2.19720
    D6        1.03831   0.00027   0.00000  -0.08938  -0.08932   0.94899
    D7       -0.00001  -0.00050   0.00000  -0.00853  -0.00852  -0.00853
    D8       -3.14151  -0.00061   0.00000  -0.02541  -0.02540   3.11627
    D9       -3.14158  -0.00141   0.00000  -0.00385  -0.00386   3.13774
   D10        0.00011  -0.00152   0.00000  -0.02073  -0.02074  -0.02064
   D11        0.26173  -0.00332   0.00000  -0.02766  -0.02762   0.23411
   D12        2.35617  -0.01245   0.00000  -0.03023  -0.03016   2.32601
   D13       -1.83266   0.01299   0.00000   0.00000   0.00000  -1.83266
   D14       -2.87977  -0.00343   0.00000  -0.04423  -0.04423  -2.92400
   D15       -0.78533  -0.01256   0.00000  -0.04680  -0.04677  -0.83210
   D16        1.30902   0.01288   0.00000  -0.01657  -0.01661   1.29241
   D17        1.04724   0.00015   0.00000  -0.00165  -0.00161   1.04563
   D18        3.14157   0.00294   0.00000   0.00240   0.00247  -3.13915
   D19       -1.04726   0.00198   0.00000   0.00263   0.00269  -1.04457
   D20       -3.13259  -0.00541   0.00000  -0.01589  -0.01597   3.13462
   D21       -1.03826  -0.00263   0.00000  -0.01183  -0.01189  -1.05015
   D22        1.05609  -0.00359   0.00000  -0.01160  -0.01167   1.04442
   D23       -1.08102  -0.00282   0.00000  -0.01003  -0.01003  -1.09105
   D24        1.01331  -0.00004   0.00000  -0.00598  -0.00595   1.00736
   D25        3.10766  -0.00100   0.00000  -0.00574  -0.00573   3.10193
   D26        1.57082  -0.00361   0.00000  -0.01779  -0.01778   1.55304
   D27       -1.57081  -0.00162   0.00000   0.00000   0.00000  -1.57081
   D28       -0.53250   0.00531   0.00000   0.01130   0.01121  -0.52129
   D29        2.60906   0.00731   0.00000   0.02909   0.02899   2.63805
   D30       -2.58408  -0.00145   0.00000  -0.00554  -0.00550  -2.58958
   D31        0.55748   0.00054   0.00000   0.01225   0.01228   0.56976
   D32        0.00008  -0.00159   0.00000  -0.04789  -0.04783  -0.04774
   D33        3.14158  -0.00170   0.00000  -0.00700  -0.00701   3.13457
   D34       -3.14155   0.00046   0.00000  -0.02963  -0.02962   3.11202
   D35       -0.00005   0.00034   0.00000   0.01126   0.01119   0.01115
   D36        0.00005   0.00007   0.00000  -0.07786  -0.07787  -0.07782
   D37        2.09448  -0.00102   0.00000  -0.08192  -0.08197   2.01251
   D38       -2.09443   0.00108   0.00000  -0.07599  -0.07599  -2.17042
   D39        3.14155  -0.00004   0.00000  -0.03772  -0.03769   3.10386
   D40       -1.04720  -0.00113   0.00000  -0.04178  -0.04179  -1.08900
   D41        1.04707   0.00097   0.00000  -0.03585  -0.03581   1.01126
         Item               Value     Threshold  Converged?
 Maximum Force            0.034801     0.000450     NO 
 RMS     Force            0.008189     0.000300     NO 
 Maximum Displacement     0.216982     0.001800     NO 
 RMS     Displacement     0.055052     0.001200     NO 
 Predicted change in Energy=-4.828786D-03
 GradGradGradGradGradGradGradGradGradGradGradGradGradGradGradGradGradGrad

                          Input orientation:                          
 ---------------------------------------------------------------------
 Center     Atomic      Atomic             Coordinates (Angstroms)
 Number     Number       Type             X           Y           Z
 ---------------------------------------------------------------------
      1          1           0        1.387450    2.250876    1.871999
      2          6           0        1.670239    2.774873    0.958929
      3          1           0        0.955754    3.578239    0.767922
      4          1           0        1.655068    2.078151    0.118367
      5          6           0        3.066416    3.379279    1.102775
      6          8           0        3.675233    3.326361    2.166394
      7          7           0        3.568778    3.967777    0.001315
      8          1           0        3.026554    3.980690   -0.851020
      9          6           0        4.869176    4.612157   -0.006794
     10          1           0        5.408479    4.322308    0.895143
     11          6           0        5.682550    4.189692   -1.229559
     12          1           0        5.157041    4.464273   -2.147740
     13          1           0        6.656508    4.682445   -1.215843
     14          1           0        5.827677    3.108339   -1.218073
     15          6           0        4.716961    6.133568    0.002465
     16          8           0        4.645138    6.750714    1.060846
     17          7           0        4.647056    6.732549   -1.199020
     18          1           0        4.737292    6.181375   -2.039749
     19          6           0        4.493550    8.168145   -1.335229
     20          1           0        4.371478    8.604901   -0.343949
     21          1           0        5.377526    8.597747   -1.811665
     22          1           0        3.614075    8.389841   -1.942714
 ---------------------------------------------------------------------
                    Distance matrix (angstroms):
                    1          2          3          4          5
     1  H    0.000000
     2  C    1.090064   0.000000
     3  H    1.779674   1.091957   0.000000
     4  H    1.782324   1.091877   1.777983   0.000000
     5  C    2.164238   1.528171   2.146300   2.157289   0.000000
     6  O    2.545052   2.404601   3.068343   3.135842   1.226680
     7  N    3.347448   2.438134   2.750877   2.691965   1.346073
     8  H    3.618529   2.563103   2.659163   2.537782   2.044651
     9  C    4.607378   3.813323   4.121170   4.094794   2.449709
    10  H    4.627499   4.046363   4.516257   4.441589   2.533312
    11  C    5.641504   4.784332   5.167824   4.743008   3.597320
    12  H    5.938624   4.966211   5.190082   4.805480   4.014196
    13  H    6.573452   5.764663   6.136219   5.794555   4.467996
    14  H    5.477172   4.704767   5.282103   4.500892   3.617224
    15  C    5.445741   4.634454   4.611106   5.082816   3.394272
    16  O    5.614183   4.966662   4.874624   5.626867   3.722996
    17  N    6.335739   5.401979   5.238725   5.687786   4.363611
    18  H    6.478583   5.477512   5.381390   5.567227   4.529793
    19  C    7.412709   6.505508   6.164940   6.874442   5.560019
    20  H    7.361283   6.556174   6.178249   7.084566   5.577035
    21  H    8.353015   7.438146   7.169504   7.751570   6.408400
    22  H    7.562856   6.612557   6.129090   6.922658   5.889030
                    6          7          8          9         10
     6  O    0.000000
     7  N    2.260601   0.000000
     8  H    3.154951   1.010271   0.000000
     9  C    2.793120   1.451318   2.122904   0.000000
    10  H    2.368993   2.075842   2.973105   1.090116   0.000000
    11  C    4.038213   2.456080   2.690965   1.528139   2.146407
    12  H    4.701314   2.718000   2.540534   2.165268   3.056553
    13  H    4.708131   3.395040   3.715121   2.159003   2.478616
    14  H    4.016861   2.707058   2.956690   2.155781   2.472879
    15  C    3.694346   2.451321   2.867193   1.529034   2.134416
    16  O    3.726815   3.166370   3.734713   2.400724   2.550942
    17  N    4.885956   3.201164   3.212453   2.442703   3.282460
    18  H    5.193334   3.229765   3.030300   2.571525   3.538392
    19  C    6.031077   4.503848   4.463331   3.814562   4.538956
    20  H    5.886388   4.718734   4.842444   4.037744   4.577262
    21  H    6.819843   5.291038   5.269451   4.404645   5.060350
    22  H    6.521299   4.830730   4.580130   4.426507   5.274292
                   11         12         13         14         15
    11  C    0.000000
    12  H    1.092982   0.000000
    13  H    1.091599   1.778885   0.000000
    14  H    1.091108   1.775553   1.778981   0.000000
    15  C    2.495776   2.757463   2.711435   3.446072   0.000000
    16  O    3.589013   3.973020   3.675141   4.456318   1.227273
    17  N    2.745778   2.511022   2.870732   3.811708   1.344333
    18  H    2.348770   1.770958   2.570799   3.362684   2.042875
    19  C    4.153670   3.849554   4.103992   5.234048   2.445168
    20  H    4.690126   4.584274   4.622469   5.752981   2.519295
    21  H    4.456774   4.152971   4.161777   5.539727   3.130430
    22  H    4.735867   4.222898   4.850725   5.772296   3.176610
                   16         17         18         19         20
    16  O    0.000000
    17  N    2.259940   0.000000
    18  H    3.153780   1.009336   0.000000
    19  C    2.788058   1.450192   2.122031   0.000000
    20  H    2.342295   2.076726   2.980442   1.090089   0.000000
    21  H    3.492741   2.094727   2.510134   1.092227   1.779430
    22  H    3.573682   2.089678   2.479588   1.091634   1.782123
                   21         22
    21  H    0.000000
    22  H    1.780493   0.000000
 Stoichiometry    C6H12N2O2
 Framework group  C1[X(C6H12N2O2)]
 Deg. of freedom    60
 Full point group                 C1      NOp   1
 Largest Abelian subgroup         C1      NOp   1
 Largest concise Abelian subgroup C1      NOp   1
                         Standard orientation:                         
 ---------------------------------------------------------------------
 Center     Atomic      Atomic             Coordinates (Angstroms)
 Number     Number       Type             X           Y           Z
 ---------------------------------------------------------------------
      1          1           0       -4.094499   -0.973889    0.675500
      2          6           0       -3.171785   -0.596426    1.116363
      3          1           0       -2.729573   -1.371080    1.746227
      4          1           0       -3.391978    0.278832    1.730884
      5          6           0       -2.173877   -0.220349    0.021807
      6          8           0       -2.414766   -0.440635   -1.160644
      7          7           0       -1.030708    0.354005    0.440370
      8          1           0       -0.883704    0.516189    1.426642
      9          6           0        0.024368    0.737541   -0.479435
     10          1           0       -0.369524    0.706981   -1.495441
     11          6           0        0.523532    2.150950   -0.182250
     12          1           0        0.917425    2.207652    0.835710
     13          1           0        1.313696    2.421051   -0.885296
     14          1           0       -0.300626    2.859309   -0.279765
     15          6           0        1.194390   -0.243369   -0.396923
     16          8           0        1.223426   -1.246503   -1.103377
     17          7           0        2.155458    0.049581    0.496251
     18          1           0        2.096376    0.901225    1.034742
     19          6           0        3.316150   -0.799355    0.683753
     20          1           0        3.206342   -1.688311    0.062470
     21          1           0        4.223648   -0.266075    0.392172
     22          1           0        3.393226   -1.093830    1.732089
 ---------------------------------------------------------------------
 Rotational constants (GHZ):      2.2792322      0.7225124      0.6792272
 Standard basis: 6-31G(d) (6D, 7F)
 There are   174 symmetry adapted basis functions of A   symmetry.
 Integral buffers will be    131072 words long.
 Raffenetti 2 integral format.
 Two-electron integral symmetry is turned on.
   174 basis functions,   328 primitive gaussians,   174 cartesian basis functions
    39 alpha electrons       39 beta electrons
       nuclear repulsion energy       554.6684109078 Hartrees.
 NAtoms=   22 NActive=   22 NUniq=   22 SFac= 7.50D-01 NAtFMM=   80 NAOKFM=F Big=F
 One-electron integrals computed using PRISM.
 NBasis=   174 RedAO= T  NBF=   174
 NBsUse=   174 1.00D-06 NBFU=   174
 Initial guess read from the read-write file.
 B after Tr=     0.000000    0.000000    0.000000
         Rot=    1.000000    0.000000    0.000000    0.000000 Ang=   0.00 deg.
 Initial guess orbital symmetries:
       Occupied  (A) (A) (A) (A) (A) (A) (A) (A) (A) (A) (A) (A)
                 (A) (A) (A) (A) (A) (A) (A) (A) (A) (A) (A) (A)
                 (A) (A) (A) (A) (A) (A) (A) (A) (A) (A) (A) (A)
                 (A) (A) (A)
       Virtual   (A) (A) (A) (A) (A) (A) (A) (A) (A) (A) (A) (A)
                 (A) (A) (A) (A) (A) (A) (A) (A) (A) (A) (A) (A)
                 (A) (A) (A) (A) (A) (A) (A) (A) (A) (A) (A) (A)
                 (A) (A) (A) (A) (A) (A) (A) (A) (A) (A) (A) (A)
                 (A) (A) (A) (A) (A) (A) (A) (A) (A) (A) (A) (A)
                 (A) (A) (A) (A) (A) (A) (A) (A) (A) (A) (A) (A)
                 (A) (A) (A) (A) (A) (A) (A) (A) (A) (A) (A) (A)
                 (A) (A) (A) (A) (A) (A) (A) (A) (A) (A) (A) (A)
                 (A) (A) (A) (A) (A) (A) (A) (A) (A) (A) (A) (A)
                 (A) (A) (A) (A) (A) (A) (A) (A) (A) (A) (A) (A)
                 (A) (A) (A) (A) (A) (A) (A) (A) (A) (A) (A) (A)
                 (A) (A) (A)
 Harris functional with IExCor=  402 diagonalized for initial guess.
 ExpMin= 1.61D-01 ExpMax= 5.48D+03 ExpMxC= 8.25D+02 IAcc=1 IRadAn=         1 AccDes= 0.00D+00
 HarFok:  IExCor=  402 AccDes= 0.00D+00 IRadAn=         1 IDoV= 1
 ScaDFX=  1.000000  1.000000  1.000000  1.000000
 FoFCou: FMM=F IPFlag=           0 FMFlag=      100000 FMFlg1=           0
         NFxFlg=           0 DoJE=T BraDBF=F KetDBF=T FulRan=T
         Omega=  0.000000  0.000000  1.000000  0.000000  0.000000 ICntrl=     500 IOpCl=  0
         NMat0=    1 NMatS0=    1 NMatT0=    0 NMatD0=    1 NMtDS0=    0 NMtDT0=    0
         I1Cent=           4 NGrid=           0.
 Petite list used in FoFCou.
 Requested convergence on RMS density matrix=1.00D-08 within 128 cycles.
 Requested convergence on MAX density matrix=1.00D-06.
 Requested convergence on             energy=1.00D-06.
 No special actions if energy rises.
 Integral accuracy reduced to 1.0D-05 until final iterations.
 Initial convergence to 1.0D-05 achieved.  Increase integral accuracy.
 SCF Done:  E(RB3LYP) =  -495.833943241     A.U. after   12 cycles
             Convg  =    0.9794D-08             -V/T =  2.0089
 Calling FoFJK, ICntrl=      2127 FMM=F ISym2X=0 I1Cent= 0 IOpClX= 0 NMat=1 NMatS=1 NMatT=0.
 ***** Axes restored to original set *****
 -------------------------------------------------------------------
 Center     Atomic                   Forces (Hartrees/Bohr)
 Number     Number              X              Y              Z
 -------------------------------------------------------------------
      1        1           0.002543990    0.000953031    0.000538780
      2        6           0.005737151    0.003925024   -0.004281555
      3        1          -0.004366159    0.000175807   -0.001439463
      4        1          -0.003492408   -0.002053828   -0.002625335
      5        6          -0.009850249   -0.013470306    0.031611989
      6        8           0.000967194   -0.000324339   -0.003329144
      7        7           0.006924504    0.005430035   -0.014168119
      8        1          -0.001006301    0.000681024   -0.000102886
      9        6           0.008180652    0.002208894   -0.015361958
     10        1          -0.006176136    0.001330435    0.003348086
     11        6           0.000360587   -0.009245313    0.004972780
     12        1           0.002127365   -0.005914839   -0.005137074
     13        1           0.001853566    0.000036613   -0.002323547
     14        1           0.001284255   -0.002044286   -0.002769894
     15        6          -0.000650840    0.000295245    0.029801439
     16        8          -0.000249840    0.000891486   -0.000932504
     17        7          -0.003581400    0.009576753   -0.014342667
     18        1           0.000091761    0.004111580    0.001501727
     19        6          -0.000365561   -0.000421989   -0.002629499
     20        1           0.000118749   -0.002260663    0.000587330
     21        1           0.001501619    0.003122837   -0.001351765
     22        1          -0.001952499    0.002996799   -0.001566723
 -------------------------------------------------------------------
 Cartesian Forces:  Max     0.031611989 RMS     0.007289908

 GradGradGradGradGradGradGradGradGradGradGradGradGradGradGradGradGradGrad
 Berny optimization.
 Using GEDIIS/GDIIS optimizer.
 Internal  Forces:  Max     0.024639533 RMS     0.005999516
 Search for a local minimum.
 Step number   2 out of a maximum of  132
 All quantities printed in internal units (Hartrees-Bohrs-Radians)
 Mixed Optimization -- RFO/linear search
 Update second derivatives using D2CorX and points    1    2
 DE= -4.84D-03 DEPred=-4.83D-03 R= 1.00D+00
 SS=  1.41D+00  RLast= 3.00D-01 DXNew= 5.0454D-01 8.9999D-01
 Trust test= 1.00D+00 RLast= 3.00D-01 DXMaxT set to 5.05D-01
 Use linear search instead of GDIIS.
 Linear search step of   0.594 exceeds DXMaxT=   0.505 but not scaled.
 Quartic linear search produced a step of  2.00000.
 Iteration  1 RMS(Cart)=  0.10896574 RMS(Int)=  0.00920583
 Iteration  2 RMS(Cart)=  0.00996317 RMS(Int)=  0.00038175
 Iteration  3 RMS(Cart)=  0.00008165 RMS(Int)=  0.00037667
 Iteration  4 RMS(Cart)=  0.00000001 RMS(Int)=  0.00037667
 Iteration  1 RMS(Cart)=  0.00010874 RMS(Int)=  0.00003909
 Iteration  2 RMS(Cart)=  0.00005756 RMS(Int)=  0.00004369
 Iteration  3 RMS(Cart)=  0.00003046 RMS(Int)=  0.00004918
 Iteration  4 RMS(Cart)=  0.00001612 RMS(Int)=  0.00005269
 Iteration  5 RMS(Cart)=  0.00000853 RMS(Int)=  0.00005469
 Iteration  6 RMS(Cart)=  0.00000451 RMS(Int)=  0.00005577
 Iteration  7 RMS(Cart)=  0.00000239 RMS(Int)=  0.00005636
 Iteration  8 RMS(Cart)=  0.00000127 RMS(Int)=  0.00005668
 Iteration  9 RMS(Cart)=  0.00000067 RMS(Int)=  0.00005684
 Variable       Old X    -DE/DX   Delta X   Delta X   Delta X     New X
                                 (Linear)    (Quad)   (Total)
    R1        2.05992  -0.00066   0.00010   0.00000   0.00010   2.06002
    R2        2.06350   0.00324   0.00726   0.00000   0.00726   2.07076
    R3        2.06335   0.00338   0.00730   0.00000   0.00730   2.07065
    R4        2.88783  -0.00085  -0.00676   0.00000  -0.00676   2.88107
    R5        2.31809  -0.00239  -0.00866   0.00000  -0.00866   2.30943
    R6        2.54371   0.02464   0.04154   0.00000   0.04154   2.58525
    R7        1.90914   0.00064   0.00087   0.00000   0.00087   1.91001
    R8        2.74259   0.00438   0.00884   0.00000   0.00884   2.75144
    R9        2.06002  -0.00064   0.00055   0.00000   0.00055   2.06057
   R10        2.88776   0.01196   0.01176   0.00000   0.01176   2.89953
   R11        2.88946   0.01880   0.02655   0.00000   0.02655   2.91601
   R12        2.06544   0.00181   0.01144   0.00000   0.01144   2.07687
   R13        2.06282   0.00164   0.00596   0.00000   0.00596   2.06878
   R14        2.06190   0.00217   0.00447   0.00000   0.00447   2.06637
   R15        2.31921  -0.00034  -0.00672   0.00000  -0.00672   2.31249
   R16        2.54042   0.02375   0.03527   0.00000   0.03527   2.57569
   R17        1.90737  -0.00349  -0.00249   0.00000  -0.00249   1.90488
   R18        2.74047   0.00394   0.00427   0.00000   0.00427   2.74474
   R19        2.05997  -0.00038   0.00068   0.00000   0.00068   2.06065
   R20        2.06401   0.00303   0.00842   0.00000   0.00842   2.07243
   R21        2.06289   0.00305   0.00609   0.00000   0.00609   2.06898
    A1        1.90756  -0.00013  -0.00691   0.00000  -0.00700   1.90056
    A2        1.91187  -0.00011   0.00140   0.00000   0.00166   1.91352
    A3        1.92655  -0.00567  -0.02493   0.00000  -0.02484   1.90171
    A4        1.90255  -0.00370  -0.01520   0.00000  -0.01561   1.88694
    A5        1.89999   0.00466   0.00774   0.00000   0.00748   1.90748
    A6        1.91509   0.00496   0.03797   0.00000   0.03789   1.95298
    A7        2.11531   0.00577   0.02418   0.00000   0.02416   2.13946
    A8        2.02290  -0.00698  -0.02423   0.00000  -0.02424   1.99866
    A9        2.14497   0.00122   0.00003   0.00000   0.00001   2.14497
   A10        2.08937  -0.00229  -0.00992   0.00000  -0.01015   2.07921
   A11        2.13304   0.00396   0.01094   0.00000   0.01071   2.14374
   A12        2.06067  -0.00167  -0.00126   0.00000  -0.00150   2.05917
   A13        1.89716   0.00110  -0.02796   0.00000  -0.02870   1.86845
   A14        1.93761  -0.00668  -0.00288   0.00000  -0.00269   1.93492
   A15        1.93109  -0.00631  -0.01582   0.00000  -0.01685   1.91424
   A16        1.90203  -0.00249   0.01187   0.00000   0.01196   1.91400
   A17        1.88473  -0.00751  -0.02270   0.00000  -0.02440   1.86033
   A18        1.91019   0.02169   0.05763   0.00000   0.05765   1.96784
   A19        1.92498   0.00867   0.02767   0.00000   0.02742   1.95240
   A20        1.91777   0.00190   0.01341   0.00000   0.01316   1.93093
   A21        1.91384   0.00159   0.00549   0.00000   0.00543   1.91927
   A22        1.90301  -0.00373  -0.01418   0.00000  -0.01460   1.88841
   A23        1.89839  -0.00631  -0.02367   0.00000  -0.02374   1.87466
   A24        1.90558  -0.00234  -0.00915   0.00000  -0.00920   1.89638
   A25        2.10761  -0.00503   0.00903   0.00000   0.00873   2.11634
   A26        2.02985   0.01296  -0.01039   0.00000  -0.01068   2.01917
   A27        2.14558  -0.00795   0.00108   0.00000   0.00080   2.14638
   A28        2.09034   0.00213  -0.00814   0.00000  -0.00950   2.08084
   A29        2.13002   0.00061   0.00500   0.00000   0.00362   2.13363
   A30        2.06214  -0.00274   0.00176   0.00000   0.00035   2.06249
   A31        1.89977  -0.00475  -0.02278   0.00000  -0.02266   1.87711
   A32        1.92268   0.00330   0.02311   0.00000   0.02304   1.94572
   A33        1.91622   0.00377   0.01018   0.00000   0.01004   1.92625
   A34        1.90679   0.00011  -0.00672   0.00000  -0.00653   1.90026
   A35        1.91183  -0.00011   0.00327   0.00000   0.00333   1.91516
   A36        1.90648  -0.00233  -0.00712   0.00000  -0.00743   1.89905
    D1       -0.08853   0.00029  -0.17718   0.00000  -0.17736  -0.26589
    D2        3.05766  -0.00036  -0.16804   0.00000  -0.16814   2.88953
    D3        2.00523  -0.00040  -0.19608   0.00000  -0.19624   1.80898
    D4       -1.13177  -0.00106  -0.18693   0.00000  -0.18702  -1.31879
    D5       -2.19720   0.00085  -0.18779   0.00000  -0.18757  -2.38477
    D6        0.94899   0.00019  -0.17865   0.00000  -0.17834   0.77064
    D7       -0.00853  -0.00042  -0.01704   0.00000  -0.01698  -0.02552
    D8        3.11627  -0.00058  -0.05080   0.00000  -0.05073   3.06554
    D9        3.13774  -0.00111  -0.00773   0.00000  -0.00779   3.12995
   D10       -0.02064  -0.00127  -0.04148   0.00000  -0.04154  -0.06218
   D11        0.23411  -0.00282  -0.05524   0.00000  -0.05496   0.17916
   D12        2.32601  -0.00927  -0.06032   0.00000  -0.05985   2.26616
   D13       -1.83266   0.00939   0.00000   0.00000   0.00000  -1.83266
   D14       -2.92400  -0.00298  -0.08846   0.00000  -0.08842  -3.01243
   D15       -0.83210  -0.00943  -0.09354   0.00000  -0.09332  -0.92542
   D16        1.29241   0.00923  -0.03322   0.00000  -0.03347   1.25894
   D17        1.04563   0.00018  -0.00322   0.00000  -0.00295   1.04267
   D18       -3.13915   0.00226   0.00494   0.00000   0.00540  -3.13374
   D19       -1.04457   0.00156   0.00538   0.00000   0.00574  -1.03883
   D20        3.13462  -0.00416  -0.03194   0.00000  -0.03245   3.10218
   D21       -1.05015  -0.00207  -0.02377   0.00000  -0.02409  -1.07424
   D22        1.04442  -0.00278  -0.02334   0.00000  -0.02375   1.02067
   D23       -1.09105  -0.00219  -0.02006   0.00000  -0.02010  -1.11116
   D24        1.00736  -0.00010  -0.01190   0.00000  -0.01175   0.99561
   D25        3.10193  -0.00081  -0.01146   0.00000  -0.01141   3.09052
   D26        1.55304  -0.00296  -0.03556   0.00000  -0.03550   1.51754
   D27       -1.57081  -0.00163   0.00000   0.00000   0.00000  -1.57081
   D28       -0.52129   0.00392   0.02242   0.00000   0.02183  -0.49945
   D29        2.63805   0.00525   0.05799   0.00000   0.05733   2.69539
   D30       -2.58958  -0.00091  -0.01101   0.00000  -0.01080  -2.60038
   D31        0.56976   0.00041   0.02456   0.00000   0.02470   0.59446
   D32       -0.04774  -0.00124  -0.09565   0.00000  -0.09526  -0.14300
   D33        3.13457  -0.00117  -0.01403   0.00000  -0.01409   3.12048
   D34        3.11202   0.00008  -0.05924   0.00000  -0.05917   3.05285
   D35        0.01115   0.00016   0.02239   0.00000   0.02200   0.03314
   D36       -0.07782   0.00002  -0.15575   0.00000  -0.15580  -0.23362
   D37        2.01251  -0.00080  -0.16394   0.00000  -0.16425   1.84826
   D38       -2.17042   0.00079  -0.15198   0.00000  -0.15194  -2.32236
   D39        3.10386  -0.00002  -0.07539   0.00000  -0.07522   3.02864
   D40       -1.08900  -0.00083  -0.08358   0.00000  -0.08367  -1.17267
   D41        1.01126   0.00075  -0.07162   0.00000  -0.07137   0.93990
         Item               Value     Threshold  Converged?
 Maximum Force            0.024640     0.000450     NO 
 RMS     Force            0.005870     0.000300     NO 
 Maximum Displacement     0.448399     0.001800     NO 
 RMS     Displacement     0.110303     0.001200     NO 
 Predicted change in Energy=-5.414720D-03
 GradGradGradGradGradGradGradGradGradGradGradGradGradGradGradGradGradGrad

                          Input orientation:                          
 ---------------------------------------------------------------------
 Center     Atomic      Atomic             Coordinates (Angstroms)
 Number     Number       Type             X           Y           Z
 ---------------------------------------------------------------------
      1          1           0        1.446755    2.149650    1.782836
      2          6           0        1.665818    2.831672    0.961121
      3          1           0        0.966022    3.673880    1.002851
      4          1           0        1.520985    2.315434    0.005524
      5          6           0        3.090359    3.352355    1.115912
      6          8           0        3.721271    3.243760    2.156910
      7          7           0        3.595300    3.964308    0.001405
      8          1           0        3.027085    4.013374   -0.833045
      9          6           0        4.901046    4.608039   -0.022432
     10          1           0        5.408759    4.335791    0.903362
     11          6           0        5.725383    4.127376   -1.223973
     12          1           0        5.225971    4.348440   -2.177699
     13          1           0        6.709135    4.607597   -1.233812
     14          1           0        5.865452    3.044185   -1.171370
     15          6           0        4.725297    6.140823    0.005805
     16          8           0        4.624687    6.749045    1.062891
     17          7           0        4.626253    6.746713   -1.211095
     18          1           0        4.794621    6.206212   -2.045128
     19          6           0        4.431887    8.179383   -1.350011
     20          1           0        4.150871    8.569521   -0.371287
     21          1           0        5.350368    8.679071   -1.680793
     22          1           0        3.636677    8.387670   -2.073174
 ---------------------------------------------------------------------
                    Distance matrix (angstroms):
                    1          2          3          4          5
     1  H    0.000000
     2  C    1.090118   0.000000
     3  H    1.778414   1.095797   0.000000
     4  H    1.786570   1.095739   1.774266   0.000000
     5  C    2.143063   1.524594   2.151504   2.184285   0.000000
     6  O    2.551554   2.413424   3.017988   3.214266   1.222097
     7  N    3.329072   2.434506   2.828488   2.649827   1.368056
     8  H    3.579629   2.543325   2.780963   2.419615   2.058977
     9  C    4.608123   3.819628   4.172322   4.084316   2.480153
    10  H    4.609790   4.034268   4.492877   4.472443   2.527312
    11  C    5.590970   4.788898   5.274080   4.740438   3.608195
    12  H    5.899406   4.982717   5.358927   4.756732   4.049802
    13  H    6.544793   5.779852   6.233606   5.805762   4.493593
    14  H    5.390029   4.714828   5.397052   4.559666   3.609400
    15  C    5.462247   4.606899   4.605655   4.990112   3.417735
    16  O    5.636666   4.910303   4.779756   5.514335   3.727529
    17  N    6.340806   5.367518   5.266987   5.546088   4.392676
    18  H    6.505167   5.496768   5.510086   5.482702   4.587067
    19  C    7.421821   6.449069   6.152052   6.685561   5.583966
    20  H    7.291587   6.393256   5.999902   6.794991   5.527682
    21  H    8.358723   7.399169   7.174704   7.616017   6.426749
    22  H    7.653592   6.630260   6.230100   6.757899   5.985243
                    6          7          8          9         10
     6  O    0.000000
     7  N    2.276238   0.000000
     8  H    3.164496   1.010734   0.000000
     9  C    2.828897   1.455998   2.126605   0.000000
    10  H    2.368868   2.059165   2.965035   1.090406   0.000000
    11  C    4.028351   2.462802   2.728851   1.534363   2.160843
    12  H    4.719457   2.748661   2.599127   2.195027   3.086504
    13  H    4.720634   3.411093   3.751161   2.176380   2.516420
[...]
    13  H    6.486682   5.822715   6.395973   5.888478   4.496273
    14  H    5.280423   4.810719   5.611925   4.841044   3.587509
    15  C    5.454890   4.532194   4.640286   4.740258   3.410310
    16  O    5.647999   4.764774   4.636645   5.175213   3.695454
    17  N    6.311170   5.311386   5.424087   5.259292   4.396004
    18  H    6.503936   5.541887   5.822188   5.348150   4.635674
    19  C    7.421404   6.376521   6.291303   6.320392   5.594225
    20  H    7.292873   6.259196   6.009335   6.343203   5.517552
    21  H    8.341634   7.324088   7.289142   7.293979   6.416769
    22  H    7.689343   6.611457   6.498403   6.394709   6.040821
                    6          7          8          9         10
     6  O    0.000000
     7  N    2.284421   0.000000
     8  H    3.158937   1.011801   0.000000
     9  C    2.833467   1.462210   2.123041   0.000000
    10  H    2.321673   2.039697   2.938437   1.091871   0.000000
    11  C    3.940531   2.474564   2.890657   1.533337   2.161184
    12  H    4.628567   2.741872   2.768382   2.200627   3.088335
    13  H    4.668419   3.426277   3.861603   2.182751   2.555736
    14  H    3.790523   2.745258   3.293573   2.160325   2.446745
    15  C    3.804963   2.446493   2.692519   1.545768   2.114638
    16  O    3.866310   3.131425   3.467985   2.417519   2.515279
    17  N    5.000557   3.203754   3.051199   2.471347   3.307963
    18  H    5.303892   3.306566   3.078769   2.588882   3.551212
    19  C    6.180614   4.511410   4.260281   3.847030   4.557059
    20  H    6.011429   4.643529   4.477516   4.056973   4.590466
    21  H    6.894860   5.300432   5.145899   4.406326   5.028518
    22  H    6.785364   4.926774   4.456662   4.512402   5.347527
                   11         12         13         14         15
    11  C    0.000000
    12  H    1.098501   0.000000
    13  H    1.095864   1.779664   0.000000
    14  H    1.093942   1.761426   1.775093   0.000000
    15  C    2.609930   2.976489   2.834618   3.530207   0.000000
    16  O    3.683336   4.174796   3.810521   4.496972   1.222590
    17  N    2.929545   2.828862   3.048600   3.994182   1.371458
    18  H    2.503710   2.107702   2.632439   3.562109   2.055017
    19  C    4.340339   4.187969   4.290202   5.420604   2.470835
    20  H    4.868311   4.887418   4.859198   5.905458   2.532996
    21  H    4.665701   4.556329   4.356833   5.755801   3.091777
    22  H    4.919236   4.541432   4.992695   5.978018   3.275199
                   16         17         18         19         20
    16  O    0.000000
    17  N    2.279834   0.000000
    18  H    3.158367   1.009454   0.000000
    19  C    2.814569   1.453963   2.122560   0.000000
    20  H    2.376559   2.062729   2.967987   1.090554   0.000000
    21  H    3.403531   2.123302   2.546541   1.097694   1.777715
    22  H    3.699150   2.103744   2.488834   1.095158   1.785363
                   21         22
    21  H    0.000000
    22  H    1.783197   0.000000
 Stoichiometry    C6H12N2O2
 Framework group  C1[X(C6H12N2O2)]
 Deg. of freedom    60
 Full point group                 C1      NOp   1
 Largest Abelian subgroup         C1      NOp   1
 Largest concise Abelian subgroup C1      NOp   1
                         Standard orientation:                         
 ---------------------------------------------------------------------
 Center     Atomic      Atomic             Coordinates (Angstroms)
 Number     Number       Type             X           Y           Z
 ---------------------------------------------------------------------
      1          1           0        4.069157   -0.870323   -0.774056
      2          6           0        3.010947   -1.069850   -0.955658
      3          1           0        2.827300   -2.128255   -0.736721
      4          1           0        2.782788   -0.890043   -2.011600
      5          6           0        2.182238   -0.216391   -0.006735
      6          8           0        2.544128    0.035604    1.132021
      7          7           0        1.002142    0.258937   -0.538602
      8          1           0        0.715262   -0.099882   -1.440095
      9          6           0       -0.034948    0.861055    0.298033
     10          1           0        0.412776    0.942454    1.290555
     11          6           0       -0.422782    2.255088   -0.209294
     12          1           0       -0.746980    2.243816   -1.258804
     13          1           0       -1.227605    2.686504    0.396560
     14          1           0        0.444750    2.918966   -0.151296
     15          6           0       -1.195828   -0.147313    0.455992
     16          8           0       -1.173403   -1.009375    1.322637
     17          7           0       -2.184481   -0.068520   -0.491242
     18          1           0       -2.222414    0.749067   -1.082097
     19          6           0       -3.345493   -0.943406   -0.466070
     20          1           0       -3.102739   -1.790884    0.175927
     21          1           0       -4.230519   -0.437028   -0.059568
     22          1           0       -3.576001   -1.302253   -1.474765
 ---------------------------------------------------------------------
 Rotational constants (GHZ):      2.1647881      0.7279756      0.6707799

 **********************************************************************

            Population analysis using the SCF density.

 **********************************************************************

 Orbital symmetries:
       Occupied  (A) (A) (A) (A) (A) (A) (A) (A) (A) (A) (A) (A)
                 (A) (A) (A) (A) (A) (A) (A) (A) (A) (A) (A) (A)
                 (A) (A) (A) (A) (A) (A) (A) (A) (A) (A) (A) (A)
                 (A) (A) (A)
       Virtual   (A) (A) (A) (A) (A) (A) (A) (A) (A) (A) (A) (A)
                 (A) (A) (A) (A) (A) (A) (A) (A) (A) (A) (A) (A)
                 (A) (A) (A) (A) (A) (A) (A) (A) (A) (A) (A) (A)
                 (A) (A) (A) (A) (A) (A) (A) (A) (A) (A) (A) (A)
                 (A) (A) (A) (A) (A) (A) (A) (A) (A) (A) (A) (A)
                 (A) (A) (A) (A) (A) (A) (A) (A) (A) (A) (A) (A)
                 (A) (A) (A) (A) (A) (A) (A) (A) (A) (A) (A) (A)
                 (A) (A) (A) (A) (A) (A) (A) (A) (A) (A) (A) (A)
                 (A) (A) (A) (A) (A) (A) (A) (A) (A) (A) (A) (A)
                 (A) (A) (A) (A) (A) (A) (A) (A) (A) (A) (A) (A)
                 (A) (A) (A) (A) (A) (A) (A) (A) (A) (A) (A) (A)
                 (A) (A) (A)
 The electronic state is 1-A.
 Alpha  occ. eigenvalues --  -19.11157 -19.10679 -14.36766 -14.36152 -10.28604
 Alpha  occ. eigenvalues --  -10.28563 -10.23308 -10.22207 -10.19667 -10.19077
 Alpha  occ. eigenvalues --   -1.03398  -1.02530  -0.92688  -0.91805  -0.78242
 Alpha  occ. eigenvalues --   -0.72961  -0.70994  -0.65069  -0.58790  -0.58569
 Alpha  occ. eigenvalues --   -0.53637  -0.48312  -0.47364  -0.46367  -0.44813
 Alpha  occ. eigenvalues --   -0.43976  -0.42635  -0.41952  -0.40666  -0.39750
 Alpha  occ. eigenvalues --   -0.39301  -0.38494  -0.36998  -0.36055  -0.35156
 Alpha  occ. eigenvalues --   -0.27168  -0.25746  -0.24549  -0.23557
 Alpha virt. eigenvalues --    0.01269   0.04196   0.05895   0.08455   0.11285
 Alpha virt. eigenvalues --    0.12823   0.13760   0.14298   0.15503   0.15703
 Alpha virt. eigenvalues --    0.16321   0.16982   0.18157   0.18346   0.19563
 Alpha virt. eigenvalues --    0.20402   0.23580   0.25524   0.25990   0.32046
 Alpha virt. eigenvalues --    0.33022   0.38405   0.40188   0.49878   0.50923
 Alpha virt. eigenvalues --    0.51889   0.52101   0.53726   0.54931   0.56481
 Alpha virt. eigenvalues --    0.57090   0.60145   0.60596   0.62940   0.63413
 Alpha virt. eigenvalues --    0.68406   0.68597   0.71202   0.72041   0.73512
 Alpha virt. eigenvalues --    0.74787   0.76020   0.78724   0.80189   0.83444
 Alpha virt. eigenvalues --    0.84432   0.85571   0.86031   0.87692   0.88291
 Alpha virt. eigenvalues --    0.88607   0.89714   0.90730   0.92416   0.93139
 Alpha virt. eigenvalues --    0.94695   0.95059   0.95545   0.97608   0.99964
 Alpha virt. eigenvalues --    1.03096   1.06683   1.08892   1.11508   1.13200
 Alpha virt. eigenvalues --    1.17626   1.23489   1.26489   1.27791   1.31953
 Alpha virt. eigenvalues --    1.33416   1.40159   1.43754   1.44790   1.47870
 Alpha virt. eigenvalues --    1.53871   1.55577   1.59608   1.65971   1.69760
 Alpha virt. eigenvalues --    1.71214   1.74860   1.76008   1.79122   1.81822
 Alpha virt. eigenvalues --    1.83021   1.83729   1.86114   1.88033   1.91309
 Alpha virt. eigenvalues --    1.94070   1.96137   1.97392   1.98499   2.01494
 Alpha virt. eigenvalues --    2.05066   2.06169   2.08158   2.11022   2.14780
 Alpha virt. eigenvalues --    2.19192   2.22114   2.23441   2.25878   2.28235
 Alpha virt. eigenvalues --    2.30094   2.32343   2.35377   2.37993   2.39154
 Alpha virt. eigenvalues --    2.42971   2.47887   2.52374   2.54304   2.60465
 Alpha virt. eigenvalues --    2.65208   2.67934   2.71108   2.75098   2.88944
 Alpha virt. eigenvalues --    2.91592   2.98211   2.99002   3.12181   3.13170
 Alpha virt. eigenvalues --    3.93544   3.96091   4.06857   4.14556   4.17537
 Alpha virt. eigenvalues --    4.21262   4.28627   4.36969   4.48944   4.63344
          Condensed to atoms (all electrons):
              1          2          3          4          5          6
     1  H    0.512766   0.359048  -0.021605  -0.025231  -0.019206   0.002956
     2  C    0.359048   5.333040   0.362352   0.339189   0.340807  -0.080400
     3  H   -0.021605   0.362352   0.518411  -0.026582  -0.020513  -0.000223
     4  H   -0.025231   0.339189  -0.026582   0.581173  -0.024467   0.002894
     5  C   -0.019206   0.340807  -0.020513  -0.024467   4.299984   0.601243
     6  O    0.002956  -0.080400  -0.000223   0.002894   0.601243   8.038763
     7  N    0.003561  -0.120816   0.000338   0.006350   0.255201  -0.095592
     8  H   -0.000057   0.001403  -0.000012   0.001559  -0.016136   0.003303
     9  C   -0.000132   0.006428  -0.000252   0.000001  -0.021114  -0.003365
    10  H   -0.000010   0.001481  -0.000027  -0.000065   0.000285   0.022378
    11  C    0.000009  -0.000254  -0.000004   0.000003   0.001386   0.000044
    12  H    0.000000  -0.000008   0.000000   0.000003  -0.000131  -0.000012
    13  H    0.000000   0.000003   0.000000   0.000000  -0.000007  -0.000002
    14  H   -0.000001   0.000005   0.000001  -0.000004   0.000823   0.000207
    15  C   -0.000002  -0.000019   0.000063  -0.000034   0.001763  -0.000588
    16  O    0.000000  -0.000010   0.000009   0.000000   0.002224  -0.000160
    17  N    0.000000  -0.000005   0.000000   0.000000  -0.000074  -0.000011
    18  H    0.000000   0.000000   0.000000   0.000000  -0.000030   0.000000
    19  C    0.000000   0.000000   0.000000   0.000000   0.000004   0.000000
    20  H    0.000000   0.000000   0.000000   0.000000  -0.000002   0.000000
    21  H    0.000000   0.000000   0.000000   0.000000   0.000000   0.000000
    22  H    0.000000   0.000000   0.000000   0.000000   0.000000   0.000000
              7          8          9         10         11         12
     1  H    0.003561  -0.000057  -0.000132  -0.000010   0.000009   0.000000
     2  C   -0.120816   0.001403   0.006428   0.001481  -0.000254  -0.000008
     3  H    0.000338  -0.000012  -0.000252  -0.000027  -0.000004   0.000000
     4  H    0.006350   0.001559   0.000001  -0.000065   0.000003   0.000003
     5  C    0.255201  -0.016136  -0.021114   0.000285   0.001386  -0.000131
     6  O   -0.095592   0.003303  -0.003365   0.022378   0.000044  -0.000012
     7  N    7.146577   0.289148   0.249997  -0.046374  -0.054765  -0.003868
     8  H    0.289148   0.426998  -0.031510   0.005496  -0.001283   0.003048
     9  C    0.249997  -0.031510   5.094272   0.359097   0.312159  -0.024048
    10  H   -0.046374   0.005496   0.359097   0.504309  -0.036273   0.004212
    11  C   -0.054765  -0.001283   0.312159  -0.036273   5.181360   0.355627
    12  H   -0.003868   0.003048  -0.024048   0.004212   0.355627   0.597178
    13  H    0.004340  -0.000179  -0.033327  -0.001201   0.366079  -0.032720
    14  H    0.000089  -0.000275  -0.022560  -0.004607   0.368541  -0.029392
    15  C   -0.041124  -0.003996   0.340707  -0.027340  -0.035949  -0.008025
    16  O   -0.001027  -0.000365  -0.073664   0.003074   0.002997  -0.000055
    17  N   -0.002727   0.005576  -0.113725   0.004555   0.002917   0.000388
    18  H    0.000157   0.000213  -0.003595   0.000039   0.005536   0.007485
    19  C   -0.000120  -0.000112   0.006273  -0.000126  -0.000259   0.000015
    20  H   -0.000036  -0.000011   0.000883  -0.000020  -0.000043  -0.000002
    21  H   -0.000005   0.000007  -0.000023   0.000012  -0.000051   0.000021
    22  H    0.000020  -0.000020  -0.000196   0.000000   0.000014  -0.000008
             13         14         15         16         17         18
     1  H    0.000000  -0.000001  -0.000002   0.000000   0.000000   0.000000
     2  C    0.000003   0.000005  -0.000019  -0.000010  -0.000005   0.000000
     3  H    0.000000   0.000001   0.000063   0.000009   0.000000   0.000000
     4  H    0.000000  -0.000004  -0.000034   0.000000   0.000000   0.000000
     5  C   -0.000007   0.000823   0.001763   0.002224  -0.000074  -0.000030
     6  O   -0.000002   0.000207  -0.000588  -0.000160  -0.000011   0.000000
     7  N    0.004340   0.000089  -0.041124  -0.001027  -0.002727   0.000157
     8  H   -0.000179  -0.000275  -0.003996  -0.000365   0.005576   0.000213
     9  C   -0.033327  -0.022560   0.340707  -0.073664  -0.113725  -0.003595
    10  H   -0.001201  -0.004607  -0.027340   0.003074   0.004555   0.000039
    11  C    0.366079   0.368541  -0.035949   0.002997   0.002917   0.005536
    12  H   -0.032720  -0.029392  -0.008025  -0.000055   0.000388   0.007485
    13  H    0.558180  -0.023515   0.001996   0.000027   0.000047  -0.000019
    14  H   -0.023515   0.531115   0.003180  -0.000065   0.000035  -0.000171
    15  C    0.001996   0.003180   4.394151   0.599032   0.237437  -0.016903
    16  O    0.000027  -0.000065   0.599032   8.050570  -0.102212   0.003565
    17  N    0.000047   0.000035   0.237437  -0.102212   7.124663   0.295463
    18  H   -0.000019  -0.000171  -0.016903   0.003565   0.295463   0.412388
    19  C   -0.000064   0.000004  -0.023572  -0.006575   0.266681  -0.032578
    20  H   -0.000001   0.000001  -0.001199   0.020956  -0.040899   0.004179
    21  H    0.000001  -0.000001  -0.000933   0.000548  -0.043197  -0.000475
    22  H    0.000001   0.000000   0.003212   0.000502  -0.039473  -0.001054
             19         20         21         22
     1  H    0.000000   0.000000   0.000000   0.000000
     2  C    0.000000   0.000000   0.000000   0.000000
     3  H    0.000000   0.000000   0.000000   0.000000
     4  H    0.000000   0.000000   0.000000   0.000000
     5  C    0.000004  -0.000002   0.000000   0.000000
     6  O    0.000000   0.000000   0.000000   0.000000
     7  N   -0.000120  -0.000036  -0.000005   0.000020
     8  H   -0.000112  -0.000011   0.000007  -0.000020
     9  C    0.006273   0.000883  -0.000023  -0.000196
    10  H   -0.000126  -0.000020   0.000012   0.000000
    11  C   -0.000259  -0.000043  -0.000051   0.000014
    12  H    0.000015  -0.000002   0.000021  -0.000008
    13  H   -0.000064  -0.000001   0.000001   0.000001
    14  H    0.000004   0.000001  -0.000001   0.000000
    15  C   -0.023572  -0.001199  -0.000933   0.003212
    16  O   -0.006575   0.020956   0.000548   0.000502
    17  N    0.266681  -0.040899  -0.043197  -0.039473
    18  H   -0.032578   0.004179  -0.000475  -0.001054
    19  C    4.962135   0.376977   0.385258   0.376455
    20  H    0.376977   0.483289  -0.027629  -0.022350
    21  H    0.385258  -0.027629   0.566611  -0.040107
    22  H    0.376455  -0.022350  -0.040107   0.569176
 Mulliken atomic charges:
              1
     1  H    0.187903
     2  C   -0.542244
     3  H    0.188044
     4  H    0.145211
     5  C    0.597961
     6  O   -0.491436
     7  N   -0.589325
     8  H    0.317206
     9  C   -0.042306
    10  H    0.211104
    11  C   -0.467790
    12  H    0.130290
    13  H    0.160362
    14  H    0.176589
    15  C    0.578142
    16  O   -0.499372
    17  N   -0.595438
    18  H    0.325798
    19  C   -0.310396
    20  H    0.205906
    21  H    0.159962
    22  H    0.153827
 Sum of Mulliken atomic charges =   0.00000
 Mulliken charges with hydrogens summed into heavy atoms:
              1
     2  C   -0.021085
     5  C    0.597961
     6  O   -0.491436
     7  N   -0.272119
     9  C    0.168798
    11  C   -0.000548
    15  C    0.578142
    16  O   -0.499372
    17  N   -0.269640
    19  C    0.209299
 Sum of Mulliken charges with hydrogens summed into heavy atoms =   0.00000
 Electronic spatial extent (au):  <R**2>=           1861.1027
 Charge=              0.0000 electrons
 Dipole moment (field-independent basis, Debye):
    X=             -2.6982    Y=              1.4277    Z=             -5.3677  Tot=              6.1750
 Quadrupole moment (field-independent basis, Debye-Ang):
   XX=            -57.1265   YY=            -58.2965   ZZ=            -62.9940
   XY=             -4.0656   XZ=             -2.5929   YZ=              3.4053
 Traceless Quadrupole moment (field-independent basis, Debye-Ang):
   XX=              2.3458   YY=              1.1758   ZZ=             -3.5217
   XY=             -4.0656   XZ=             -2.5929   YZ=              3.4053
 Octapole moment (field-independent basis, Debye-Ang**2):
  XXX=            -29.5180  YYY=             -2.0865  ZZZ=             -7.3054  XYY=              1.4638
  XXY=             -9.1865  XXZ=            -23.7617  XZZ=             -5.0013  YZZ=              3.7871
  YYZ=             -0.2178  XYZ=             -0.7413
 Hexadecapole moment (field-independent basis, Debye-Ang**3):
 XXXX=          -1558.6913 YYYY=           -469.8142 ZZZZ=           -274.9034 XXXY=              0.0959
 XXXZ=            -25.8297 YYYX=              3.2946 YYYZ=              1.0794 ZZZX=              6.5870
 ZZZY=              2.4409 XXYY=           -337.4912 XXZZ=           -337.4298 YYZZ=           -129.9384
 XXYZ=              3.2927 YYXZ=              6.9415 ZZXY=             -5.2292
 N-N= 5.505903301520D+02 E-N=-2.257166788813D+03  KE= 4.912292358188D+02
 1\1\GINC-NODE003\FOpt\RB3LYP\6-31G(d)\C6H12N2O2\STEBOSS\10-Feb-2017\0\
 \# b3lyp/6-31G* Opt=(ModRedundant, maxcycles=1000, calcfc) geom=nocrow
 d\\Phi Psi fixed scan\\0,1\H,1.5088360266,1.962692027,1.5066811426\C,1
 .6518953471,2.911101008,0.9845186514\H,1.0520418905,3.6706970618,1.499
 3683808\H,1.2859126932,2.8192018151,-0.0435920045\C,3.1209319964,3.299
 0587816,1.0683399075\O,3.80514107,3.0624327083,2.0517514929\N,3.618439
 6821,3.9236243261,-0.0558708169\H,2.9581337964,4.1971102231,-0.7720706
 57\C,4.9151662593,4.5993137415,-0.054044865\H,5.3593810232,4.358474183
 6,0.9138666871\C,5.8174995305,4.0800197888,-1.1797676996\H,5.348216494
 5,4.1713579892,-2.1687744683\H,6.7730453622,4.6161689849,-1.1996458176
 \H,6.022936153,3.0171997822,-1.0219113246\C,4.6812125924,6.1270237989,
 -0.0263539188\O,4.5099671287,6.7232764994,1.0271564301\N,4.5820894347,
 6.7353635012,-1.2515042476\H,4.8786226529,6.2236859884,-2.0695816281\C
 ,4.3741913078,8.1682398381,-1.384366684\H,4.0077401374,8.5360325827,-0
 .4253305538\H,5.3049925506,8.6955503,-1.6303040345\H,3.6336068706,8.37
 667507,-2.1637639721\\Version=EM64L-G09RevA.02\State=1-A\HF=-495.84152
 12\RMSD=7.025e-09\RMSF=3.772e-04\Dipole=-0.3568253,0.2062921,-2.394227
 6\Quadrupole=4.4764413,-1.2466197,-3.2298216,1.760838,-2.0025693,-1.21
 25034\PG=C01 [X(C6H12N2O2)]\\@


 I LOVE MANKIND - IT'S PEOPLE I CAN'T STAND.
     -- LINUS OF PEANUTS
 Job cpu time:  0 days  2 hours 32 minutes 49.1 seconds.
 File lengths (MBytes):  RWF=    186 Int=      0 D2E=      0 Chk=      4 Scr=      2
 Normal termination of Gaussian 09 at Fri Feb 10 23:06:36 2017.
