 Entering Gaussian System, Link 0=g09
 Initial command:
 /home/steboss/Software/g09/l1.exe /home/steboss/projects/phi_psi_scan/alanine/255/4424/Gau-11827.inp -scrdir=/home/steboss/projects/phi_psi_scan/alanine/255/4424/
 Entering Link 1 = /home/steboss/Software/g09/l1.exe PID=     11829.
  
 Copyright (c) 1988,1990,1992,1993,1995,1998,2003,2009, Gaussian, Inc.
                  All Rights Reserved.
  
 This is part of the Gaussian(R) 09 program.  It is based on
 the Gaussian(R) 03 system (copyright 2003, Gaussian, Inc.),
 the Gaussian(R) 98 system (copyright 1998, Gaussian, Inc.),
 the Gaussian(R) 94 system (copyright 1995, Gaussian, Inc.),
 the Gaussian 92(TM) system (copyright 1992, Gaussian, Inc.),
 the Gaussian 90(TM) system (copyright 1990, Gaussian, Inc.),
 the Gaussian 88(TM) system (copyright 1988, Gaussian, Inc.),
 the Gaussian 86(TM) system (copyright 1986, Carnegie Mellon
 University), and the Gaussian 82(TM) system (copyright 1983,
 Carnegie Mellon University). Gaussian is a federally registered
 trademark of Gaussian, Inc.
  
 This software contains proprietary and confidential information,
 including trade secrets, belonging to Gaussian, Inc.
  
 This software is provided under written license and may be
 used, copied, transmitted, or stored only in accord with that
 written license.
  
 The following legend is applicable only to US Government
 contracts under FAR:
  
                    RESTRICTED RIGHTS LEGEND
  
 Use, reproduction and disclosure by the US Government is
 subject to restrictions as set forth in subparagraphs (a)
 and (c) of the Commercial Computer Software - Restricted
 Rights clause in FAR 52.227-19.
  
 Gaussian, Inc.
 340 Quinnipiac St., Bldg. 40, Wallingford CT 06492
  
  
 ---------------------------------------------------------------
 Warning -- This program may not be used in any manner that
 competes with the business of Gaussian, Inc. or will provide
 assistance to any competitor of Gaussian, Inc.  The licensee
 of this program is prohibited from giving any competitor of
 Gaussian, Inc. access to this program.  By using this program,
 the user acknowledges that Gaussian, Inc. is engaged in the
 business of creating and licensing software in the field of
 computational chemistry and represents and warrants to the
 licensee that it is not a competitor of Gaussian, Inc. and that
 it will not use this program in any manner prohibited above.
 ---------------------------------------------------------------
  

 Cite this work as:
 Gaussian 09, Revision A.02,
 M. J. Frisch, G. W. Trucks, H. B. Schlegel, G. E. Scuseria, 
 M. A. Robb, J. R. Cheeseman, G. Scalmani, V. Barone, B. Mennucci, 
 G. A. Petersson, H. Nakatsuji, M. Caricato, X. Li, H. P. Hratchian, 
 A. F. Izmaylov, J. Bloino, G. Zheng, J. L. Sonnenberg, M. Hada, 
 M. Ehara, K. Toyota, R. Fukuda, J. Hasegawa, M. Ishida, T. Nakajima, 
 Y. Honda, O. Kitao, H. Nakai, T. Vreven, J. A. Montgomery, Jr., 
 J. E. Peralta, F. Ogliaro, M. Bearpark, J. J. Heyd, E. Brothers, 
 K. N. Kudin, V. N. Staroverov, R. Kobayashi, J. Normand, 
 K. Raghavachari, A. Rendell, J. C. Burant, S. S. Iyengar, J. Tomasi, 
 M. Cossi, N. Rega, J. M. Millam, M. Klene, J. E. Knox, J. B. Cross, 
 V. Bakken, C. Adamo, J. Jaramillo, R. Gomperts, R. E. Stratmann, 
 O. Yazyev, A. J. Austin, R. Cammi, C. Pomelli, J. W. Ochterski, 
 R. L. Martin, K. Morokuma, V. G. Zakrzewski, G. A. Voth, 
 P. Salvador, J. J. Dannenberg, S. Dapprich, A. D. Daniels, 
 O. Farkas, J. B. Foresman, J. V. Ortiz, J. Cioslowski, 
 and D. J. Fox, Gaussian, Inc., Wallingford CT, 2009.
 
 ******************************************
 Gaussian 09:  EM64L-G09RevA.02 11-Jun-2009
                10-Feb-2017 
 ******************************************
 %chk=structure_210.chk
 %NProcShared=8
 Will use up to    8 processors via shared memory.
 ----------------------------------------------------------------------
 # b3lyp/6-31G* Opt=(ModRedundant, maxcycles=1000, calcfc) geom=nocrowd
 ----------------------------------------------------------------------
 1/6=1000,10=4,14=-1,18=120,19=15,26=3,38=1/1,3;
 2/9=110,12=1,17=6,18=5,40=1/2;
 3/5=1,6=6,7=1,11=2,16=1,25=1,30=1,71=2,74=-5/1,2,3;
 4//1;
 5/5=2,38=5/2;
 8/6=4,10=90,11=11/1;
 11/6=1,8=1,9=11,15=111,16=1/1,2,10;
 10/6=1,7=6,13=1/2;
 6/7=2,8=2,9=2,10=2,28=1/1;
 7/10=1,18=20,25=1/1,2,3,16;
 1/6=1000,10=4,14=-1,18=20,19=15/3(2);
 2/9=110,12=1/2;
 99//99;
 2/9=110,12=1/2;
 3/5=1,6=6,7=1,11=2,16=1,25=1,30=1,71=1,74=-5/1,2,3;
 4/5=5,16=3/1;
 5/5=2,38=5/2;
 7//1,2,3,16;
 1/6=1000,14=-1,18=20,19=15/3(-5);
 2/9=110,12=1/2;
 6/7=2,8=2,9=2,10=2,19=2,28=1/1;
 99/9=1/99;
 ------------------
 Phi Psi fixed scan
 ------------------
 Symbolic Z-matrix:
 Charge =  0 Multiplicity = 1
 H                     1.3513    2.3068    1.9013 
 C                     1.6731    2.7486    0.9582 
 H                     0.9598    3.5143    0.6531 
 H                     1.7242    1.9746    0.1925 
 C                     3.0539    3.3932    1.0948 
 O                     3.6506    3.3681    2.1689 
 N                     3.5554    3.9697    0. 
 H                     3.0267    3.9647   -0.8606 
 C                     4.8533    4.6139    0. 
 H                     5.4076    4.3155    0.8898 
 C                     5.6613    4.2208   -1.2322 
 H                     5.1233    4.5214   -2.1312 
 H                     6.6305    4.7189   -1.2058 
 H                     5.8085    3.1409   -1.2414 
 C                     4.7127    6.1294    0. 
 O                     3.7419    6.6658    0.5295 
 N                     5.6868    6.8201   -0.5968 
 H                     6.4653    6.334    -1.0185 
 C                     5.669     8.2675   -0.6638 
 H                     4.7735    8.6435   -0.169 
 H                     6.553     8.6657   -0.1657 
 H                     5.667     8.5835   -1.7069 
 
 The following ModRedundant input section has been read:
 D    5    7    9   15 F                                                       
 D    7    9   15   17 F                                                       

 GradGradGradGradGradGradGradGradGradGradGradGradGradGradGradGradGradGrad
 Berny optimization.
 Initialization pass.
                           ----------------------------
                           !    Initial Parameters    !
                           ! (Angstroms and Degrees)  !
 --------------------------                            --------------------------
 ! Name  Definition              Value          Derivative Info.                !
 --------------------------------------------------------------------------------
 ! R1    R(1,2)                  1.09           calculate D2E/DX2 analytically  !
 ! R2    R(2,3)                  1.09           calculate D2E/DX2 analytically  !
 ! R3    R(2,4)                  1.0899         calculate D2E/DX2 analytically  !
 ! R4    R(2,5)                  1.53           calculate D2E/DX2 analytically  !
 ! R5    R(5,6)                  1.229          calculate D2E/DX2 analytically  !
 ! R6    R(5,7)                  1.3351         calculate D2E/DX2 analytically  !
 ! R7    R(7,8)                  1.01           calculate D2E/DX2 analytically  !
 ! R8    R(7,9)                  1.449          calculate D2E/DX2 analytically  !
 ! R9    R(9,10)                 1.09           calculate D2E/DX2 analytically  !
 ! R10   R(9,11)                 1.525          calculate D2E/DX2 analytically  !
 ! R11   R(9,15)                 1.522          calculate D2E/DX2 analytically  !
 ! R12   R(11,12)                1.09           calculate D2E/DX2 analytically  !
 ! R13   R(11,13)                1.09           calculate D2E/DX2 analytically  !
 ! R14   R(11,14)                1.0899         calculate D2E/DX2 analytically  !
 ! R15   R(15,16)                1.229          calculate D2E/DX2 analytically  !
 ! R16   R(15,17)                1.335          calculate D2E/DX2 analytically  !
 ! R17   R(17,18)                1.01           calculate D2E/DX2 analytically  !
 ! R18   R(17,19)                1.4491         calculate D2E/DX2 analytically  !
 ! R19   R(19,20)                1.09           calculate D2E/DX2 analytically  !
 ! R20   R(19,21)                1.09           calculate D2E/DX2 analytically  !
 ! R21   R(19,22)                1.0899         calculate D2E/DX2 analytically  !
 ! A1    A(1,2,3)              109.493          calculate D2E/DX2 analytically  !
 ! A2    A(1,2,4)              109.5017         calculate D2E/DX2 analytically  !
 ! A3    A(1,2,5)              111.0973         calculate D2E/DX2 analytically  !
 ! A4    A(3,2,4)              109.4436         calculate D2E/DX2 analytically  !
 ! A5    A(3,2,5)              108.6398         calculate D2E/DX2 analytically  !
 ! A6    A(4,2,5)              108.6387         calculate D2E/DX2 analytically  !
 ! A7    A(2,5,6)              120.5054         calculate D2E/DX2 analytically  !
 ! A8    A(2,5,7)              116.5979         calculate D2E/DX2 analytically  !
 ! A9    A(6,5,7)              122.8967         calculate D2E/DX2 analytically  !
 ! A10   A(5,7,8)              119.9959         calculate D2E/DX2 analytically  !
 ! A11   A(5,7,9)              121.9004         calculate D2E/DX2 analytically  !
 ! A12   A(8,7,9)              118.1037         calculate D2E/DX2 analytically  !
 ! A13   A(7,9,10)             109.5            calculate D2E/DX2 analytically  !
 ! A14   A(7,9,11)             111.0992         calculate D2E/DX2 analytically  !
 ! A15   A(7,9,15)             111.0966         calculate D2E/DX2 analytically  !
 ! A16   A(10,9,11)            108.6382         calculate D2E/DX2 analytically  !
 ! A17   A(10,9,15)            108.6373         calculate D2E/DX2 analytically  !
 ! A18   A(11,9,15)            107.7947         calculate D2E/DX2 analytically  !
 ! A19   A(9,11,12)            109.5007         calculate D2E/DX2 analytically  !
 ! A20   A(9,11,13)            109.4959         calculate D2E/DX2 analytically  !
 ! A21   A(9,11,14)            109.4978         calculate D2E/DX2 analytically  !
 ! A22   A(12,11,13)           109.441          calculate D2E/DX2 analytically  !
 ! A23   A(12,11,14)           109.4482         calculate D2E/DX2 analytically  !
 ! A24   A(13,11,14)           109.4436         calculate D2E/DX2 analytically  !
 ! A25   A(9,15,16)            120.5            calculate D2E/DX2 analytically  !
 ! A26   A(9,15,17)            116.6011         calculate D2E/DX2 analytically  !
 ! A27   A(16,15,17)           122.8989         calculate D2E/DX2 analytically  !
 ! A28   A(15,17,18)           120.0038         calculate D2E/DX2 analytically  !
 ! A29   A(15,17,19)           121.9048         calculate D2E/DX2 analytically  !
 ! A30   A(18,17,19)           118.0914         calculate D2E/DX2 analytically  !
 ! A31   A(17,19,20)           109.491          calculate D2E/DX2 analytically  !
 ! A32   A(17,19,21)           109.5001         calculate D2E/DX2 analytically  !
 ! A33   A(17,19,22)           109.504          calculate D2E/DX2 analytically  !
 ! A34   A(20,19,21)           109.4404         calculate D2E/DX2 analytically  !
 ! A35   A(20,19,22)           109.4463         calculate D2E/DX2 analytically  !
 ! A36   A(21,19,22)           109.4456         calculate D2E/DX2 analytically  !
 ! D1    D(1,2,5,6)              0.0038         calculate D2E/DX2 analytically  !
 ! D2    D(1,2,5,7)           -179.9948         calculate D2E/DX2 analytically  !
 ! D3    D(3,2,5,6)            120.5082         calculate D2E/DX2 analytically  !
 ! D4    D(3,2,5,7)            -59.4904         calculate D2E/DX2 analytically  !
 ! D5    D(4,2,5,6)           -120.5106         calculate D2E/DX2 analytically  !
 ! D6    D(4,2,5,7)             59.4908         calculate D2E/DX2 analytically  !
 ! D7    D(2,5,7,8)             -0.0007         calculate D2E/DX2 analytically  !
 ! D8    D(2,5,7,9)           -179.9954         calculate D2E/DX2 analytically  !
 ! D9    D(6,5,7,8)           -179.9993         calculate D2E/DX2 analytically  !
 ! D10   D(6,5,7,9)              0.006          calculate D2E/DX2 analytically  !
 ! D11   D(5,7,9,10)            14.996          calculate D2E/DX2 analytically  !
 ! D12   D(5,7,9,11)           134.9986         calculate D2E/DX2 analytically  !
 ! D13   D(5,7,9,15)          -105.0038         frozen, calculate D2E/DX2 analyt!
 ! D14   D(8,7,9,10)          -164.9988         calculate D2E/DX2 analytically  !
 ! D15   D(8,7,9,11)           -44.9962         calculate D2E/DX2 analytically  !
 ! D16   D(8,7,9,15)            75.0013         calculate D2E/DX2 analytically  !
 ! D17   D(7,9,11,12)           60.0024         calculate D2E/DX2 analytically  !
 ! D18   D(7,9,11,13)          179.9986         calculate D2E/DX2 analytically  !
 ! D19   D(7,9,11,14)          -60.0038         calculate D2E/DX2 analytically  !
 ! D20   D(10,9,11,12)        -179.4843         calculate D2E/DX2 analytically  !
 ! D21   D(10,9,11,13)         -59.4881         calculate D2E/DX2 analytically  !
 ! D22   D(10,9,11,14)          60.5095         calculate D2E/DX2 analytically  !
 ! D23   D(15,9,11,12)         -61.938          calculate D2E/DX2 analytically  !
 ! D24   D(15,9,11,13)          58.0582         calculate D2E/DX2 analytically  !
 ! D25   D(15,9,11,14)         178.0558         calculate D2E/DX2 analytically  !
 ! D26   D(7,9,15,16)           30.0006         calculate D2E/DX2 analytically  !
 ! D27   D(7,9,15,17)         -150.0013         frozen, calculate D2E/DX2 analyt!
 ! D28   D(10,9,15,16)         -90.5105         calculate D2E/DX2 analytically  !
 ! D29   D(10,9,15,17)          89.4877         calculate D2E/DX2 analytically  !
 ! D30   D(11,9,15,16)         151.9427         calculate D2E/DX2 analytically  !
 ! D31   D(11,9,15,17)         -28.0592         calculate D2E/DX2 analytically  !
 ! D32   D(9,15,17,18)           0.0058         calculate D2E/DX2 analytically  !
 ! D33   D(9,15,17,19)         179.9984         calculate D2E/DX2 analytically  !
 ! D34   D(16,15,17,18)       -179.9962         calculate D2E/DX2 analytically  !
 ! D35   D(16,15,17,19)         -0.0036         calculate D2E/DX2 analytically  !
 ! D36   D(15,17,19,20)          0.0048         calculate D2E/DX2 analytically  !
 ! D37   D(15,17,19,21)        119.9969         calculate D2E/DX2 analytically  !
 ! D38   D(15,17,19,22)       -119.9968         calculate D2E/DX2 analytically  !
 ! D39   D(18,17,19,20)        179.9976         calculate D2E/DX2 analytically  !
 ! D40   D(18,17,19,21)        -60.0103         calculate D2E/DX2 analytically  !
 ! D41   D(18,17,19,22)         59.996          calculate D2E/DX2 analytically  !
 --------------------------------------------------------------------------------
 Trust Radius=3.00D-01 FncErr=1.00D-07 GrdErr=1.00D-06
 Number of steps in this run= 132 maximum allowed number of steps= 132.
 GradGradGradGradGradGradGradGradGradGradGradGradGradGradGradGradGradGrad

                          Input orientation:                          
 ---------------------------------------------------------------------
 Center     Atomic      Atomic             Coordinates (Angstroms)
 Number     Number       Type             X           Y           Z
 ---------------------------------------------------------------------
      1          1           0        1.351300    2.306800    1.901300
      2          6           0        1.673100    2.748600    0.958200
      3          1           0        0.959800    3.514300    0.653100
      4          1           0        1.724200    1.974600    0.192500
      5          6           0        3.053900    3.393200    1.094800
      6          8           0        3.650600    3.368100    2.168900
      7          7           0        3.555400    3.969700    0.000000
      8          1           0        3.026700    3.964700   -0.860600
      9          6           0        4.853300    4.613900    0.000000
     10          1           0        5.407600    4.315500    0.889800
     11          6           0        5.661300    4.220800   -1.232200
     12          1           0        5.123300    4.521400   -2.131200
     13          1           0        6.630500    4.718900   -1.205800
     14          1           0        5.808500    3.140900   -1.241400
     15          6           0        4.712700    6.129400    0.000000
     16          8           0        3.741900    6.665800    0.529500
     17          7           0        5.686800    6.820100   -0.596800
     18          1           0        6.465300    6.334000   -1.018500
     19          6           0        5.669000    8.267500   -0.663800
     20          1           0        4.773500    8.643500   -0.169000
     21          1           0        6.553000    8.665700   -0.165700
     22          1           0        5.667000    8.583500   -1.706900
 ---------------------------------------------------------------------
                    Distance matrix (angstroms):
                    1          2          3          4          5
     1  H    0.000000
     2  C    1.090037   0.000000
     3  H    1.780262   1.090036   0.000000
     4  H    1.780283   1.089947   1.779645   0.000000
     5  C    2.174754   1.529960   2.143600   2.143519   0.000000
     6  O    2.546517   2.400017   3.091833   3.091766   1.228972
     7  N    3.352348   2.439731   2.714971   2.714917   1.335081
     8  H    3.630935   2.572774   2.601197   2.601158   2.037386
     9  C    4.604526   3.809352   4.098171   4.098076   2.434448
    10  H    4.638058   4.050475   4.525580   4.419669   2.536250
    11  C    5.662007   4.782360   5.114450   4.751415   3.591432
    12  H    5.949243   4.958941   5.108944   4.841452   3.995288
    13  H    6.583483   5.756804   6.087972   5.792944   4.454471
    14  H    5.517148   4.700391   5.219047   4.483060   3.620678
    15  C    5.433804   4.646195   4.620557   5.121577   3.381863
    16  O    5.157294   4.450637   4.205628   5.117816   3.391581
    17  N    6.738467   5.924941   5.902126   6.309046   4.640831
    18  H    7.134183   6.302985   6.407455   6.553542   4.975137
    19  C    7.794371   7.004024   6.819362   7.476315   5.804328
    20  H    7.493421   6.755213   6.444288   7.341876   5.667439
    21  H    8.471469   7.751687   7.647957   8.259324   6.452272
    22  H    8.428602   7.556458   7.309181   7.926598   6.451126
                    6          7          8          9         10
     6  O    0.000000
     7  N    2.252801   0.000000
     8  H    3.150088   1.010040   0.000000
     9  C    2.775362   1.448978   2.120981   0.000000
    10  H    2.370804   2.083739   2.975844   1.089970   0.000000
    11  C    4.041966   2.452791   2.672974   1.525027   2.139209
    12  H    4.689329   2.702720   2.513975   2.150225   3.041326
    13  H    4.700326   3.386959   3.698020   2.150214   2.459625
    14  H    4.042066   2.702673   2.926101   2.150165   2.466256
    15  C    3.668373   2.450234   2.875614   1.522008   2.136554
    16  O    3.683856   2.753926   3.120870   2.392880   2.903150
    17  N    4.869447   3.608852   3.911398   2.432737   2.925911
    18  H    5.184459   3.885199   4.178814   2.568001   2.972319
    19  C    6.008515   4.835186   5.053174   3.801946   4.254446
    20  H    5.878480   4.832881   5.041903   4.033932   4.500525
    21  H    6.476021   5.573641   5.917523   4.396990   4.620634
    22  H    6.803535   5.353458   5.387088   4.396969   5.002596
                   11         12         13         14         15
    11  C    0.000000
    12  H    1.089957   0.000000
    13  H    1.090023   1.779613   0.000000
    14  H    1.089925   1.779613   1.779617   0.000000
    15  C    2.461892   2.701161   2.668599   3.416575   0.000000
    16  O    3.572913   3.685925   3.891747   4.453296   1.229043
    17  N    2.675957   2.820627   2.382539   3.737223   1.334956
    18  H    2.271057   2.514873   1.634295   3.267562   2.037354
    19  C    4.086431   4.060088   3.716290   5.160921   2.434463
    20  H    4.634529   4.578679   4.463842   5.700866   2.520507
    21  H    4.657219   4.804420   4.082284   5.677572   3.137990
    22  H    4.388453   4.120230   4.014295   5.464303   3.137962
                   16         17         18         19         20
    16  O    0.000000
    17  N    2.252775   0.000000
    18  H    3.150127   1.010043   0.000000
    19  C    2.775450   1.449059   2.120926   0.000000
    20  H    2.337391   2.083727   2.986240   1.090011   0.000000
    21  H    3.519259   2.083840   2.484308   1.090010   1.779642
    22  H    3.519243   2.083817   2.484236   1.089916   1.779629
                   21         22
    21  H    0.000000
    22  H    1.779621   0.000000
 Stoichiometry    C6H12N2O2
 Framework group  C1[X(C6H12N2O2)]
 Deg. of freedom    60
 Full point group                 C1      NOp   1
 Largest Abelian subgroup         C1      NOp   1
 Largest concise Abelian subgroup C1      NOp   1
                         Standard orientation:                         
 ---------------------------------------------------------------------
 Center     Atomic      Atomic             Coordinates (Angstroms)
 Number     Number       Type             X           Y           Z
 ---------------------------------------------------------------------
      1          1           0        4.238436   -0.901400   -0.152485
      2          6           0        3.417377   -0.485040   -0.736168
      3          1           0        3.106484   -1.205937   -1.492363
      4          1           0        3.746134    0.432852   -1.223381
      5          6           0        2.216312   -0.162466    0.154992
      6          8           0        2.260770   -0.378247    1.364056
      7          7           0        1.144776    0.355107   -0.450293
      8          1           0        1.155944    0.514416   -1.447628
      9          6           0       -0.055371    0.703310    0.283151
     10          1           0        0.165418    0.730815    1.350171
     11          6           0       -0.580836    2.070604   -0.141233
     12          1           0       -0.815073    2.056038   -1.205623
     13          1           0       -1.481814    2.305952    0.425334
     14          1           0        0.178160    2.828326    0.052980
     15          6           0       -1.160182   -0.315188    0.041154
     16          8           0       -0.885084   -1.488874   -0.198283
     17          7           0       -2.414555    0.137224    0.104240
     18          1           0       -2.590639    1.111478    0.304262
     19          6           0       -3.553977   -0.732645   -0.107461
     20          1           0       -3.205633   -1.745208   -0.311170
     21          1           0       -4.179360   -0.736863    0.785289
     22          1           0       -4.135031   -0.371257   -0.955808
 ---------------------------------------------------------------------
 Rotational constants (GHZ):      2.7157877      0.7060064      0.6339628
 Standard basis: 6-31G(d) (6D, 7F)
 There are   174 symmetry adapted basis functions of A   symmetry.
 Integral buffers will be    131072 words long.
 Raffenetti 2 integral format.
 Two-electron integral symmetry is turned on.
   174 basis functions,   328 primitive gaussians,   174 cartesian basis functions
    39 alpha electrons       39 beta electrons
       nuclear repulsion energy       556.0723746938 Hartrees.
 NAtoms=   22 NActive=   22 NUniq=   22 SFac= 7.50D-01 NAtFMM=   80 NAOKFM=F Big=F
 One-electron integrals computed using PRISM.
 NBasis=   174 RedAO= T  NBF=   174
 NBsUse=   174 1.00D-06 NBFU=   174
 Harris functional with IExCor=  402 diagonalized for initial guess.
 ExpMin= 1.61D-01 ExpMax= 5.48D+03 ExpMxC= 8.25D+02 IAcc=1 IRadAn=         1 AccDes= 0.00D+00
 HarFok:  IExCor=  402 AccDes= 0.00D+00 IRadAn=         1 IDoV= 1
 ScaDFX=  1.000000  1.000000  1.000000  1.000000
 FoFCou: FMM=F IPFlag=           0 FMFlag=      100000 FMFlg1=           0
         NFxFlg=           0 DoJE=T BraDBF=F KetDBF=T FulRan=T
         Omega=  0.000000  0.000000  1.000000  0.000000  0.000000 ICntrl=     500 IOpCl=  0
         NMat0=    1 NMatS0=    1 NMatT0=    0 NMatD0=    1 NMtDS0=    0 NMtDT0=    0
         I1Cent=           4 NGrid=           0.
 Petite list used in FoFCou.
 Initial guess orbital symmetries:
       Occupied  (A) (A) (A) (A) (A) (A) (A) (A) (A) (A) (A) (A)
                 (A) (A) (A) (A) (A) (A) (A) (A) (A) (A) (A) (A)
                 (A) (A) (A) (A) (A) (A) (A) (A) (A) (A) (A) (A)
                 (A) (A) (A)
       Virtual   (A) (A) (A) (A) (A) (A) (A) (A) (A) (A) (A) (A)
                 (A) (A) (A) (A) (A) (A) (A) (A) (A) (A) (A) (A)
                 (A) (A) (A) (A) (A) (A) (A) (A) (A) (A) (A) (A)
                 (A) (A) (A) (A) (A) (A) (A) (A) (A) (A) (A) (A)
                 (A) (A) (A) (A) (A) (A) (A) (A) (A) (A) (A) (A)
                 (A) (A) (A) (A) (A) (A) (A) (A) (A) (A) (A) (A)
                 (A) (A) (A) (A) (A) (A) (A) (A) (A) (A) (A) (A)
                 (A) (A) (A) (A) (A) (A) (A) (A) (A) (A) (A) (A)
                 (A) (A) (A) (A) (A) (A) (A) (A) (A) (A) (A) (A)
                 (A) (A) (A) (A) (A) (A) (A) (A) (A) (A) (A) (A)
                 (A) (A) (A) (A) (A) (A) (A) (A) (A) (A) (A) (A)
                 (A) (A) (A)
 The electronic state of the initial guess is 1-A.
 Requested convergence on RMS density matrix=1.00D-08 within 128 cycles.
 Requested convergence on MAX density matrix=1.00D-06.
 Requested convergence on             energy=1.00D-06.
 No special actions if energy rises.
 Integral accuracy reduced to 1.0D-05 until final iterations.
 Initial convergence to 1.0D-05 achieved.  Increase integral accuracy.
 SCF Done:  E(RB3LYP) =  -495.831493086     A.U. after   15 cycles
             Convg  =    0.3875D-08             -V/T =  2.0087
 Range of M.O.s used for correlation:     1   174
 NBasis=   174 NAE=    39 NBE=    39 NFC=     0 NFV=     0
 NROrb=    174 NOA=    39 NOB=    39 NVA=   135 NVB=   135
 Symmetrizing basis deriv contribution to polar:
 IMax=3 JMax=2 DiffMx= 0.00D+00
 G2DrvN: will do    23 centers at a time, making    1 passes doing MaxLOS=2.
 Calling FoFCou, ICntrl=  3107 FMM=F I1Cent=   0 AccDes= 0.00D+00.
 FoFDir/FoFCou used for L=0 through L=2.
 End of G2Drv Frequency-dependent properties file   721 does not exist.
 End of G2Drv Frequency-dependent properties file   722 does not exist.
          IDoAtm=1111111111111111111111
          Differentiating once with respect to nuclear coordinates.
          There are    69 degrees of freedom in the 1st order CPHF.  IDoFFX=5.
     63 vectors produced by pass  0 Test12= 7.63D-11 1.45D-07 XBig12= 2.00D-01 9.80D-02.
 AX will form    63 AO Fock derivatives at one time.
     63 vectors produced by pass  1 Test12= 7.63D-11 1.45D-07 XBig12= 4.30D-02 5.25D-02.
     63 vectors produced by pass  2 Test12= 7.63D-11 1.45D-07 XBig12= 3.65D-05 1.19D-03.
     63 vectors produced by pass  3 Test12= 7.63D-11 1.45D-07 XBig12= 7.65D-08 5.58D-05.
     28 vectors produced by pass  4 Test12= 7.63D-11 1.45D-07 XBig12= 8.87D-11 1.46D-06.
 Inverted reduced A of dimension   280 with in-core refinement.
 End of Minotr Frequency-dependent properties file   721 does not exist.
 End of Minotr Frequency-dependent properties file   722 does not exist.

 **********************************************************************

            Population analysis using the SCF density.

 **********************************************************************

 Orbital symmetries:
       Occupied  (A) (A) (A) (A) (A) (A) (A) (A) (A) (A) (A) (A)
                 (A) (A) (A) (A) (A) (A) (A) (A) (A) (A) (A) (A)
                 (A) (A) (A) (A) (A) (A) (A) (A) (A) (A) (A) (A)
                 (A) (A) (A)
       Virtual   (A) (A) (A) (A) (A) (A) (A) (A) (A) (A) (A) (A)
                 (A) (A) (A) (A) (A) (A) (A) (A) (A) (A) (A) (A)
                 (A) (A) (A) (A) (A) (A) (A) (A) (A) (A) (A) (A)
                 (A) (A) (A) (A) (A) (A) (A) (A) (A) (A) (A) (A)
                 (A) (A) (A) (A) (A) (A) (A) (A) (A) (A) (A) (A)
                 (A) (A) (A) (A) (A) (A) (A) (A) (A) (A) (A) (A)
                 (A) (A) (A) (A) (A) (A) (A) (A) (A) (A) (A) (A)
                 (A) (A) (A) (A) (A) (A) (A) (A) (A) (A) (A) (A)
                 (A) (A) (A) (A) (A) (A) (A) (A) (A) (A) (A) (A)
                 (A) (A) (A) (A) (A) (A) (A) (A) (A) (A) (A) (A)
                 (A) (A) (A) (A) (A) (A) (A) (A) (A) (A) (A) (A)
                 (A) (A) (A)
 The electronic state is 1-A.
 Alpha  occ. eigenvalues --  -19.09955 -19.09314 -14.36424 -14.35824 -10.27589
 Alpha  occ. eigenvalues --  -10.27455 -10.23390 -10.21816 -10.20075 -10.18210
 Alpha  occ. eigenvalues --   -1.02954  -1.01593  -0.92684  -0.92285  -0.79402
 Alpha  occ. eigenvalues --   -0.72783  -0.70918  -0.65557  -0.59331  -0.59238
 Alpha  occ. eigenvalues --   -0.54130  -0.48983  -0.47055  -0.45956  -0.45219
 Alpha  occ. eigenvalues --   -0.43883  -0.42922  -0.42448  -0.39925  -0.39679
 Alpha  occ. eigenvalues --   -0.38637  -0.38170  -0.37836  -0.35386  -0.34700
 Alpha  occ. eigenvalues --   -0.25569  -0.24840  -0.23748  -0.23148
 Alpha virt. eigenvalues --    0.03092   0.04487   0.06116   0.08258   0.11565
 Alpha virt. eigenvalues --    0.12263   0.13223   0.15114   0.15959   0.16250
 Alpha virt. eigenvalues --    0.16612   0.16938   0.18093   0.18348   0.21466
 Alpha virt. eigenvalues --    0.21960   0.23710   0.25275   0.29388   0.33077
 Alpha virt. eigenvalues --    0.34373   0.39447   0.42788   0.50482   0.50965
 Alpha virt. eigenvalues --    0.52035   0.52957   0.54480   0.55306   0.56015
 Alpha virt. eigenvalues --    0.56728   0.59675   0.61032   0.62139   0.65898
 Alpha virt. eigenvalues --    0.68172   0.69124   0.71264   0.72084   0.74515
 Alpha virt. eigenvalues --    0.75153   0.77316   0.79308   0.80072   0.83657
 Alpha virt. eigenvalues --    0.85244   0.85718   0.87035   0.87971   0.89349
 Alpha virt. eigenvalues --    0.89728   0.90099   0.91690   0.93239   0.93468
 Alpha virt. eigenvalues --    0.94676   0.95437   0.96026   0.98177   1.04339
 Alpha virt. eigenvalues --    1.05263   1.07153   1.09077   1.10155   1.15847
 Alpha virt. eigenvalues --    1.20120   1.28339   1.29531   1.32486   1.34448
 Alpha virt. eigenvalues --    1.38395   1.40163   1.42789   1.46856   1.48136
 Alpha virt. eigenvalues --    1.50189   1.54151   1.62928   1.66015   1.69774
 Alpha virt. eigenvalues --    1.72219   1.77422   1.79964   1.80936   1.83402
 Alpha virt. eigenvalues --    1.84732   1.84884   1.86566   1.90757   1.92304
 Alpha virt. eigenvalues --    1.95608   1.96406   1.98617   1.99716   2.02645
 Alpha virt. eigenvalues --    2.05431   2.08651   2.10126   2.14256   2.15576
 Alpha virt. eigenvalues --    2.20434   2.21035   2.25804   2.26220   2.28595
 Alpha virt. eigenvalues --    2.30207   2.32282   2.35271   2.40422   2.41118
 Alpha virt. eigenvalues --    2.42946   2.48897   2.54767   2.58622   2.63880
 Alpha virt. eigenvalues --    2.66716   2.70361   2.72357   2.76774   2.89075
 Alpha virt. eigenvalues --    2.94735   2.97264   3.04194   3.17408   3.18608
 Alpha virt. eigenvalues --    3.93643   4.03521   4.06253   4.14380   4.22466
 Alpha virt. eigenvalues --    4.23407   4.25454   4.38758   4.48030   4.67365
          Condensed to atoms (all electrons):
              1          2          3          4          5          6
     1  H    0.500195   0.361363  -0.020596  -0.021843  -0.017547   0.005167
     2  C    0.361363   5.347639   0.351713   0.346742   0.346640  -0.082949
     3  H   -0.020596   0.351713   0.543928  -0.027362  -0.025566   0.001271
     4  H   -0.021843   0.346742  -0.027362   0.564492  -0.025183   0.001564
     5  C   -0.017547   0.346640  -0.025566  -0.025183   4.317901   0.612989
     6  O    0.005167  -0.082949   0.001271   0.001564   0.612989   8.055702
     7  N    0.004394  -0.134788   0.004417   0.004581   0.219287  -0.106423
     8  H   -0.000156  -0.000239   0.000907   0.001019  -0.016083   0.003540
     9  C   -0.000135   0.007351  -0.000311  -0.000310  -0.018409   0.001454
    10  H   -0.000010   0.001182  -0.000030  -0.000059   0.001018   0.022037
    11  C    0.000002  -0.000175  -0.000011   0.000019   0.004631   0.000684
    12  H    0.000000  -0.000010   0.000001   0.000002  -0.000222  -0.000013
    13  H    0.000000   0.000004   0.000000   0.000000  -0.000014   0.000002
    14  H    0.000000  -0.000019   0.000000  -0.000001   0.000333   0.000027
    15  C    0.000001  -0.000149   0.000055  -0.000001   0.001117  -0.001260
    16  O    0.000000  -0.000052   0.000078   0.000000   0.006811  -0.000413
    17  N    0.000000   0.000002   0.000000   0.000000   0.000184  -0.000011
    18  H    0.000000   0.000000   0.000000   0.000000  -0.000029   0.000000
    19  C    0.000000   0.000000   0.000000   0.000000  -0.000001   0.000000
    20  H    0.000000   0.000000   0.000000   0.000000  -0.000003   0.000000
    21  H    0.000000   0.000000   0.000000   0.000000   0.000000   0.000000
    22  H    0.000000   0.000000   0.000000   0.000000   0.000000   0.000000
              7          8          9         10         11         12
     1  H    0.004394  -0.000156  -0.000135  -0.000010   0.000002   0.000000
     2  C   -0.134788  -0.000239   0.007351   0.001182  -0.000175  -0.000010
     3  H    0.004417   0.000907  -0.000311  -0.000030  -0.000011   0.000001
     4  H    0.004581   0.001019  -0.000310  -0.000059   0.000019   0.000002
     5  C    0.219287  -0.016083  -0.018409   0.001018   0.004631  -0.000222
     6  O   -0.106423   0.003540   0.001454   0.022037   0.000684  -0.000013
     7  N    7.150380   0.301064   0.260582  -0.042515  -0.056555  -0.004594
     8  H    0.301064   0.415330  -0.035800   0.004504  -0.002240   0.004648
     9  C    0.260582  -0.035800   5.159151   0.366524   0.310805  -0.034667
    10  H   -0.042515   0.004504   0.366524   0.501871  -0.034788   0.004609
    11  C   -0.056555  -0.002240   0.310805  -0.034788   5.206898   0.374267
    12  H   -0.004594   0.004648  -0.034667   0.004609   0.374267   0.565744
    13  H    0.005019  -0.000068  -0.028988  -0.003071   0.356700  -0.033286
    14  H    0.000160  -0.000011  -0.026235  -0.003743   0.364031  -0.028253
    15  C   -0.051174   0.000319   0.312887  -0.028653  -0.053659  -0.003907
    16  O   -0.001488   0.001009  -0.093182  -0.000765   0.002873   0.000110
    17  N    0.001884  -0.000008  -0.129625   0.000531   0.001471   0.000838
    18  H    0.000204  -0.000011  -0.002011   0.000392   0.002652  -0.000221
    19  C   -0.000111   0.000000   0.006741  -0.000209   0.000076  -0.000268
    20  H   -0.000011  -0.000001   0.001245  -0.000018  -0.000098  -0.000012
    21  H   -0.000001   0.000000  -0.000271   0.000027   0.000062   0.000006
    22  H    0.000008   0.000000   0.000007  -0.000003  -0.000116   0.000008
             13         14         15         16         17         18
     1  H    0.000000   0.000000   0.000001   0.000000   0.000000   0.000000
     2  C    0.000004  -0.000019  -0.000149  -0.000052   0.000002   0.000000
     3  H    0.000000   0.000000   0.000055   0.000078   0.000000   0.000000
     4  H    0.000000  -0.000001  -0.000001   0.000000   0.000000   0.000000
     5  C   -0.000014   0.000333   0.001117   0.006811   0.000184  -0.000029
     6  O    0.000002   0.000027  -0.001260  -0.000413  -0.000011   0.000000
     7  N    0.005019   0.000160  -0.051174  -0.001488   0.001884   0.000204
     8  H   -0.000068  -0.000011   0.000319   0.001009  -0.000008  -0.000011
     9  C   -0.028988  -0.026235   0.312887  -0.093182  -0.129625  -0.002011
    10  H   -0.003071  -0.003743  -0.028653  -0.000765   0.000531   0.000392
    11  C    0.356700   0.364031  -0.053659   0.002873   0.001471   0.002652
    12  H   -0.033286  -0.028253  -0.003907   0.000110   0.000838  -0.000221
    13  H    0.584755  -0.021585  -0.007648  -0.000047  -0.006918   0.013491
    14  H   -0.021585   0.542367   0.003830  -0.000081   0.000631  -0.000288
    15  C   -0.007648   0.003830   4.376738   0.619037   0.259477  -0.019191
    16  O   -0.000047  -0.000081   0.619037   8.073494  -0.103113   0.003885
    17  N   -0.006918   0.000631   0.259477  -0.103113   7.138648   0.292038
    18  H    0.013491  -0.000288  -0.019191   0.003885   0.292038   0.411064
    19  C    0.000728   0.000000  -0.026628  -0.009764   0.263364  -0.030149
    20  H   -0.000012   0.000002   0.000398   0.022777  -0.038361   0.003662
    21  H   -0.000093   0.000001   0.001920   0.000582  -0.043245  -0.000978
    22  H    0.000061  -0.000003   0.001170   0.000625  -0.045129  -0.000315
             19         20         21         22
     1  H    0.000000   0.000000   0.000000   0.000000
     2  C    0.000000   0.000000   0.000000   0.000000
     3  H    0.000000   0.000000   0.000000   0.000000
     4  H    0.000000   0.000000   0.000000   0.000000
     5  C   -0.000001  -0.000003   0.000000   0.000000
     6  O    0.000000   0.000000   0.000000   0.000000
     7  N   -0.000111  -0.000011  -0.000001   0.000008
     8  H    0.000000  -0.000001   0.000000   0.000000
     9  C    0.006741   0.001245  -0.000271   0.000007
    10  H   -0.000209  -0.000018   0.000027  -0.000003
    11  C    0.000076  -0.000098   0.000062  -0.000116
    12  H   -0.000268  -0.000012   0.000006   0.000008
    13  H    0.000728  -0.000012  -0.000093   0.000061
    14  H    0.000000   0.000002   0.000001  -0.000003
    15  C   -0.026628   0.000398   0.001920   0.001170
    16  O   -0.009764   0.022777   0.000582   0.000625
    17  N    0.263364  -0.038361  -0.043245  -0.045129
    18  H   -0.030149   0.003662  -0.000978  -0.000315
    19  C    4.969207   0.375111   0.381929   0.383389
    20  H    0.375111   0.471690  -0.023188  -0.024561
    21  H    0.381929  -0.023188   0.563125  -0.038973
    22  H    0.383389  -0.024561  -0.038973   0.568348
 Mulliken atomic charges:
              1
     1  H    0.189165
     2  C   -0.544255
     3  H    0.171507
     4  H    0.156338
     5  C    0.592147
     6  O   -0.513368
     7  N   -0.554318
     8  H    0.322277
     9  C   -0.056805
    10  H    0.211171
    11  C   -0.477529
    12  H    0.155221
    13  H    0.140972
    14  H    0.168836
    15  C    0.615322
    16  O   -0.522376
    17  N   -0.592658
    18  H    0.325804
    19  C   -0.313415
    20  H    0.211381
    21  H    0.159096
    22  H    0.155486
 Sum of Mulliken atomic charges =   0.00000
 Mulliken charges with hydrogens summed into heavy atoms:
              1
     2  C   -0.027244
     5  C    0.592147
     6  O   -0.513368
     7  N   -0.232041
     9  C    0.154366
    11  C   -0.012500
    15  C    0.615322
    16  O   -0.522376
    17  N   -0.266853
    19  C    0.212547
 Sum of Mulliken charges with hydrogens summed into heavy atoms =   0.00000
 APT atomic charges:
              1
     1  H    0.704707
     2  C   -1.234828
     3  H    0.302233
     4  H    0.436271
     5  C   -0.012969
     6  O   -0.171398
     7  N   -0.662190
     8  H    0.551319
     9  C   -0.383619
    10  H    0.415097
    11  C   -1.207533
    12  H    0.350175
    13  H    0.406610
    14  H    0.459638
    15  C    0.037256
    16  O   -0.293786
    17  N   -0.416091
    18  H    0.571751
    19  C   -1.373473
    20  H    0.360087
    21  H    0.595817
    22  H    0.564927
 Sum of APT charges=   0.00000
 APT Atomic charges with hydrogens summed into heavy atoms:
              1
     1  H    0.000000
     2  C    0.208382
     3  H    0.000000
     4  H    0.000000
     5  C   -0.012969
     6  O   -0.171398
     7  N   -0.110871
     8  H    0.000000
     9  C    0.031478
    10  H    0.000000
    11  C    0.008891
    12  H    0.000000
    13  H    0.000000
    14  H    0.000000
    15  C    0.037256
    16  O   -0.293786
    17  N    0.155660
    18  H    0.000000
    19  C    0.147358
    20  H    0.000000
    21  H    0.000000
    22  H    0.000000
 Sum of APT charges=   0.00000
 Electronic spatial extent (au):  <R**2>=           1884.8581
 Charge=              0.0000 electrons
 Dipole moment (field-independent basis, Debye):
    X=             -2.8376    Y=              4.0817    Z=             -2.8149  Tot=              5.7128
 Quadrupole moment (field-independent basis, Debye-Ang):
   XX=            -51.1073   YY=            -61.8693   ZZ=            -61.1245
   XY=             -1.6721   XZ=             -8.5898   YZ=              0.9247
 Traceless Quadrupole moment (field-independent basis, Debye-Ang):
   XX=              6.9264   YY=             -3.8356   ZZ=             -3.0909
   XY=             -1.6721   XZ=             -8.5898   YZ=              0.9247
 Octapole moment (field-independent basis, Debye-Ang**2):
  XXX=            -27.1746  YYY=              2.3135  ZZZ=             -6.9184  XYY=             -0.3947
  XXY=             -0.7504  XXZ=            -14.2738  XZZ=             -7.6018  YZZ=              2.0080
  YYZ=              2.0802  XYZ=              1.2252
 Hexadecapole moment (field-independent basis, Debye-Ang**3):
 XXXX=          -1677.8176 YYYY=           -432.5731 ZZZZ=           -190.9040 XXXY=              0.2595
 XXXZ=            -27.5211 YYYX=             -1.7415 YYYZ=              2.5401 ZZZX=             -9.6590
 ZZZY=             -0.2475 XXYY=           -355.8437 XXZZ=           -355.2565 YYZZ=           -101.6377
 XXYZ=              7.3228 YYXZ=             -1.9798 ZZXY=              5.4157
 N-N= 5.560723746938D+02 E-N=-2.268560168707D+03  KE= 4.915509359901D+02
  Exact polarizability:   0.000   0.000   0.000   0.000   0.000   0.000
 Approx polarizability: 121.003 -14.350 107.371   2.915  -1.170 107.744
 Calling FoFJK, ICntrl=    100147 FMM=F ISym2X=0 I1Cent= 0 IOpClX= 0 NMat=1 NMatS=1 NMatT=0.
 ***** Axes restored to original set *****
 -------------------------------------------------------------------
 Center     Atomic                   Forces (Hartrees/Bohr)
 Number     Number              X              Y              Z
 -------------------------------------------------------------------
      1        1           0.003553330    0.001461211    0.000821638
      2        6           0.007832893    0.005538731   -0.005723477
      3        1          -0.005528402    0.000136452   -0.002387465
      4        1          -0.004499633   -0.003478641   -0.003732413
      5        6          -0.014325599   -0.015058676    0.040685963
      6        8           0.003100518    0.000202012   -0.002835097
      7        7           0.015819422    0.006608367   -0.019170978
      8        1          -0.000909677    0.002388218    0.000092434
      9        6           0.007444847    0.002179009   -0.014973184
     10        1          -0.006013491   -0.002367980    0.005497068
     11        6          -0.003426461   -0.014906874    0.002480030
     12        1           0.001804564   -0.000062480   -0.006068170
     13        1           0.004232440   -0.009850464   -0.004200716
     14        1           0.003173420   -0.002383431   -0.003147832
     15        6          -0.031442970   -0.000671121    0.023358469
     16        8          -0.000233940    0.001348462   -0.001852577
     17        7           0.017110123    0.015829833   -0.008579252
     18        1          -0.003417287    0.007492110    0.001982452
     19        6           0.003131840    0.000016034   -0.000333599
     20        1          -0.000302906   -0.003119692    0.000461314
     21        1           0.002587796    0.004601079    0.001025495
     22        1           0.000309173    0.004097841   -0.003400103
 -------------------------------------------------------------------
 Cartesian Forces:  Max     0.040685963 RMS     0.009611106

 GradGradGradGradGradGradGradGradGradGradGradGradGradGradGradGradGradGrad
 Berny optimization.
 Internal  Forces:  Max     0.036257533 RMS     0.009146469
 Search for a local minimum.
 Step number   1 out of a maximum of  132
 All quantities printed in internal units (Hartrees-Bohrs-Radians)
 Mixed Optimization -- RFO/linear search
 Second derivative matrix not updated -- analytic derivatives used.
     Eigenvalues ---   -0.00065  -0.00044   0.00072   0.00100   0.00394
     Eigenvalues ---    0.01330   0.01793   0.01941   0.03914   0.04441
     Eigenvalues ---    0.04596   0.04977   0.05043   0.05465   0.05830
     Eigenvalues ---    0.05989   0.06403   0.06614   0.10927   0.12274
     Eigenvalues ---    0.12340   0.12476   0.13272   0.13363   0.13674
     Eigenvalues ---    0.14294   0.15435   0.17663   0.18018   0.18553
     Eigenvalues ---    0.19450   0.19949   0.21534   0.22368   0.24172
     Eigenvalues ---    0.24600   0.30005   0.30555   0.33498   0.34570
     Eigenvalues ---    0.34669   0.34822   0.34904   0.35076   0.35134
     Eigenvalues ---    0.35515   0.35698   0.35882   0.35912   0.37432
     Eigenvalues ---    0.39419   0.45756   0.46827   0.53640   0.53935
     Eigenvalues ---    0.72461   0.82694   0.830651000.000001000.00000
     Eigenvalues --- 1000.000001000.000001000.000001000.000001000.00000
     Eigenvalues --- 1000.000001000.000001000.000001000.000001000.00000
     Eigenvalues --- 1000.000001000.000001000.000001000.000001000.00000
     Eigenvalues --- 1000.000001000.000001000.000001000.000001000.00000
     Eigenvalues --- 1000.000001000.000001000.000001000.000001000.00000
     Eigenvalues --- 1000.000001000.000001000.000001000.000001000.00000
     Eigenvalues --- 1000.000001000.000001000.000001000.000001000.00000
     Eigenvalues --- 1000.000001000.000001000.00000
 RFO step:  Lambda=-1.76372033D-02 EMin=-6.49045086D-04
 Linear search not attempted -- first point.
 Maximum step size (   0.300) exceeded in Quadratic search.
    -- Step size scaled by   0.311
 Iteration  1 RMS(Cart)=  0.05493452 RMS(Int)=  0.00213302
 Iteration  2 RMS(Cart)=  0.00226489 RMS(Int)=  0.00006353
 Iteration  3 RMS(Cart)=  0.00000389 RMS(Int)=  0.00006346
 Iteration  4 RMS(Cart)=  0.00000000 RMS(Int)=  0.00006346
 Iteration  1 RMS(Cart)=  0.00002346 RMS(Int)=  0.00000674
 Iteration  2 RMS(Cart)=  0.00001267 RMS(Int)=  0.00000751
 Iteration  3 RMS(Cart)=  0.00000694 RMS(Int)=  0.00000849
 Iteration  4 RMS(Cart)=  0.00000387 RMS(Int)=  0.00000916
 Iteration  5 RMS(Cart)=  0.00000221 RMS(Int)=  0.00000958
 Iteration  6 RMS(Cart)=  0.00000129 RMS(Int)=  0.00000983
 Iteration  7 RMS(Cart)=  0.00000078 RMS(Int)=  0.00000999
 Variable       Old X    -DE/DX   Delta X   Delta X   Delta X     New X
                                 (Linear)    (Quad)   (Total)
    R1        2.05987  -0.00093   0.00000   0.00008   0.00008   2.05995
    R2        2.05987   0.00438   0.00000   0.00349   0.00349   2.06336
    R3        2.05970   0.00488   0.00000   0.00366   0.00366   2.06336
    R4        2.89121  -0.00178   0.00000  -0.00443  -0.00443   2.88677
    R5        2.32242  -0.00098   0.00000  -0.00308  -0.00308   2.31934
    R6        2.52294   0.03053   0.00000   0.01882   0.01882   2.54176
    R7        1.90870   0.00039   0.00000   0.00015   0.00015   1.90885
    R8        2.73817  -0.00353   0.00000  -0.00225  -0.00225   2.73592
    R9        2.05975   0.00208   0.00000   0.00261   0.00261   2.06236
   R10        2.88188   0.01891   0.00000   0.00667   0.00667   2.88856
   R11        2.87618   0.03060   0.00000   0.01571   0.01571   2.89189
   R12        2.05972   0.00410   0.00000   0.00389   0.00389   2.06361
   R13        2.05984  -0.00084   0.00000   0.00461   0.00461   2.06445
   R14        2.05966   0.00282   0.00000   0.00203   0.00203   2.06169
   R15        2.32256  -0.00002   0.00000  -0.00300  -0.00300   2.31956
   R16        2.52270   0.03308   0.00000   0.01652   0.01652   2.53922
   R17        1.90870  -0.00707   0.00000  -0.00186  -0.00186   1.90684
   R18        2.73833   0.00562   0.00000   0.00224   0.00224   2.74056
   R19        2.05982  -0.00062   0.00000   0.00021   0.00021   2.06003
   R20        2.05982   0.00425   0.00000   0.00301   0.00301   2.06283
   R21        2.05964   0.00444   0.00000   0.00429   0.00429   2.06394
    A1        1.91101   0.00011   0.00000  -0.00297  -0.00299   1.90802
    A2        1.91116  -0.00015   0.00000   0.00084   0.00088   1.91204
    A3        1.93901  -0.00788   0.00000  -0.01164  -0.01164   1.92738
    A4        1.91015  -0.00486   0.00000  -0.00749  -0.00754   1.90261
    A5        1.89612   0.00588   0.00000   0.00208   0.00204   1.89816
    A6        1.89610   0.00695   0.00000   0.01928   0.01928   1.91538
    A7        2.10322   0.00887   0.00000   0.01204   0.01203   2.11524
    A8        2.03502  -0.00931   0.00000  -0.01106  -0.01106   2.02395
    A9        2.14495   0.00044   0.00000  -0.00098  -0.00099   2.14396
   A10        2.09432  -0.00066   0.00000  -0.00324  -0.00326   2.09106
   A11        2.12756   0.00224   0.00000   0.00245   0.00243   2.12999
   A12        2.06130  -0.00159   0.00000   0.00079   0.00076   2.06206
   A13        1.91114   0.00220   0.00000  -0.01701  -0.01710   1.89403
   A14        1.93905  -0.01250   0.00000   0.00149   0.00148   1.94052
   A15        1.93900  -0.01582   0.00000  -0.00820  -0.00844   1.93057
   A16        1.89609  -0.00352   0.00000   0.00103   0.00101   1.89710
   A17        1.89608  -0.00600   0.00000  -0.00674  -0.00700   1.88908
   A18        1.88137   0.03626   0.00000   0.03004   0.03005   1.91143
   A19        1.91115   0.00512   0.00000   0.01079   0.01074   1.92188
   A20        1.91106   0.01132   0.00000   0.00887   0.00883   1.91989
   A21        1.91110   0.00197   0.00000   0.00247   0.00246   1.91355
   A22        1.91011  -0.00533   0.00000  -0.00452  -0.00460   1.90550
   A23        1.91023  -0.00413   0.00000  -0.00564  -0.00566   1.90458
   A24        1.91015  -0.00897   0.00000  -0.01199  -0.01198   1.89817
   A25        2.10312  -0.01060   0.00000   0.00242   0.00241   2.10553
   A26        2.03507   0.02491   0.00000  -0.00256  -0.00256   2.03251
   A27        2.14499  -0.01431   0.00000   0.00015   0.00014   2.14513
   A28        2.09446   0.00458   0.00000  -0.00275  -0.00300   2.09146
   A29        2.12764  -0.00027   0.00000   0.00186   0.00161   2.12925
   A30        2.06108  -0.00431   0.00000   0.00089   0.00063   2.06171
   A31        1.91098  -0.00641   0.00000  -0.01054  -0.01052   1.90046
   A32        1.91114   0.00510   0.00000   0.00501   0.00499   1.91613
   A33        1.91120   0.00451   0.00000   0.01099   0.01097   1.92218
   A34        1.91010  -0.00015   0.00000   0.00131   0.00132   1.91141
   A35        1.91020   0.00013   0.00000  -0.00320  -0.00318   1.90702
   A36        1.91019  -0.00318   0.00000  -0.00357  -0.00361   1.90657
    D1        0.00007   0.00042   0.00000  -0.09272  -0.09275  -0.09269
    D2       -3.14150  -0.00031   0.00000  -0.08564  -0.08565   3.05603
    D3        2.10327  -0.00052   0.00000  -0.10225  -0.10228   2.00099
    D4       -1.03830  -0.00125   0.00000  -0.09517  -0.09517  -1.13348
    D5       -2.10331   0.00099   0.00000  -0.09902  -0.09899  -2.20230
    D6        1.03831   0.00026   0.00000  -0.09194  -0.09189   0.94642
    D7       -0.00001   0.00007   0.00000  -0.01337  -0.01334  -0.01336
    D8       -3.14151  -0.00137   0.00000  -0.02664  -0.02664   3.11504
    D9       -3.14158  -0.00068   0.00000  -0.00611  -0.00611   3.13549
   D10        0.00011  -0.00212   0.00000  -0.01938  -0.01940  -0.01930
   D11        0.26173  -0.00192   0.00000  -0.02462  -0.02454   0.23719
   D12        2.35617  -0.01276   0.00000  -0.03346  -0.03336   2.32281
   D13       -1.83266   0.01411   0.00000   0.00000   0.00000  -1.83267
   D14       -2.87977  -0.00333   0.00000  -0.03765  -0.03762  -2.91739
   D15       -0.78533  -0.01417   0.00000  -0.04649  -0.04644  -0.83178
   D16        1.30902   0.01270   0.00000  -0.01303  -0.01308   1.29594
   D17        1.04724   0.00134   0.00000   0.01754   0.01760   1.06484
   D18        3.14157   0.00489   0.00000   0.02406   0.02415  -3.11747
   D19       -1.04726   0.00205   0.00000   0.01632   0.01638  -1.03088
   D20       -3.13259  -0.00595   0.00000  -0.00192  -0.00198  -3.13457
   D21       -1.03826  -0.00240   0.00000   0.00459   0.00458  -1.03369
   D22        1.05609  -0.00524   0.00000  -0.00315  -0.00319   1.05290
   D23       -1.08102   0.00491   0.00000   0.00710   0.00705  -1.07397
   D24        1.01331   0.00846   0.00000   0.01362   0.01361   1.02691
   D25        3.10766   0.00562   0.00000   0.00588   0.00584   3.11350
   D26        0.52361  -0.00443   0.00000   0.00461   0.00462   0.52823
   D27       -2.61802  -0.00577   0.00000   0.00000   0.00000  -2.61802
   D28       -1.57971   0.00652   0.00000   0.03509   0.03507  -1.54464
   D29        1.56185   0.00518   0.00000   0.03048   0.03045   1.59230
   D30        2.65190  -0.00595   0.00000   0.02104   0.02105   2.67295
   D31       -0.48973  -0.00728   0.00000   0.01643   0.01643  -0.47329
   D32        0.00010   0.00082   0.00000   0.04426   0.04423   0.04433
   D33        3.14156   0.00141   0.00000   0.00144   0.00147  -3.14015
   D34       -3.14153  -0.00056   0.00000   0.03953   0.03950  -3.10203
   D35       -0.00006   0.00003   0.00000  -0.00329  -0.00327  -0.00333
   D36        0.00008  -0.00030   0.00000   0.07041   0.07042   0.07051
   D37        2.09434  -0.00128   0.00000   0.06863   0.06862   2.16296
   D38       -2.09434   0.00071   0.00000   0.07407   0.07412  -2.02022
   D39        3.14155   0.00028   0.00000   0.02838   0.02836  -3.11328
   D40       -1.04738  -0.00070   0.00000   0.02659   0.02656  -1.02082
   D41        1.04713   0.00129   0.00000   0.03204   0.03205   1.07918
         Item               Value     Threshold  Converged?
 Maximum Force            0.033084     0.000450     NO 
 RMS     Force            0.008944     0.000300     NO 
 Maximum Displacement     0.184796     0.001800     NO 
 RMS     Displacement     0.055104     0.001200     NO 
 Predicted change in Energy=-4.877809D-03
 GradGradGradGradGradGradGradGradGradGradGradGradGradGradGradGradGradGrad

                          Input orientation:                          
 ---------------------------------------------------------------------
 Center     Atomic      Atomic             Coordinates (Angstroms)
 Number     Number       Type             X           Y           Z
 ---------------------------------------------------------------------
      1          1           0        1.380454    2.248406    1.861335
      2          6           0        1.666527    2.770179    0.947995
      3          1           0        0.951816    3.571769    0.750890
      4          1           0        1.656965    2.070950    0.109425
      5          6           0        3.059526    3.379496    1.095959
      6          8           0        3.662079    3.336275    2.164339
      7          7           0        3.566622    3.963727   -0.004344
      8          1           0        3.032748    3.968209   -0.861841
      9          6           0        4.861918    4.610488   -0.002864
     10          1           0        5.392843    4.321095    0.905662
     11          6           0        5.693263    4.184757   -1.212868
     12          1           0        5.185547    4.470215   -2.136574
     13          1           0        6.674278    4.664316   -1.179631
     14          1           0        5.831186    3.102580   -1.200553
     15          6           0        4.704070    6.132648   -0.001027
     16          8           0        3.731979    6.660084    0.531421
     17          7           0        5.678919    6.836267   -0.601117
     18          1           0        6.440251    6.353456   -1.054399
     19          6           0        5.651610    8.284718   -0.667807
     20          1           0        4.788862    8.647518   -0.108873
     21          1           0        6.565898    8.691987   -0.232145
     22          1           0        5.571337    8.611759   -1.706785
 ---------------------------------------------------------------------
                    Distance matrix (angstroms):
                    1          2          3          4          5
     1  H    0.000000
     2  C    1.090080   0.000000
     3  H    1.779918   1.091883   0.000000
     4  H    1.782453   1.091884   1.777968   0.000000
     5  C    2.164359   1.527615   2.144408   2.157016   0.000000
     6  O    2.545797   2.404618   3.065750   3.137547   1.227344
     7  N    3.347001   2.437595   2.749768   2.691159   1.345042
     8  H    3.619874   2.564633   2.662395   2.536874   2.044574
     9  C    4.601659   3.808070   4.115335   4.090670   2.443639
    10  H    4.616126   4.036405   4.506458   4.433275   2.523329
    11  C    5.639193   4.783823   5.168503   4.744295   3.593841
    12  H    5.949659   4.978774   5.202801   4.822020   4.019814
    13  H    6.565719   5.761261   6.137357   5.793155   4.460438
    14  H    5.469350   4.697993   5.276033   4.494933   3.610090
    15  C    5.440786   4.629634   4.604659   5.078822   3.389358
    16  O    5.173128   4.423911   4.161150   5.054099   3.396050
    17  N    6.751958   5.918793   5.901727   6.276084   4.657312
    18  H    7.138242   6.295864   6.412471   6.524889   4.989768
    19  C    7.815139   6.992986   6.805340   7.427799   5.821595
    20  H    7.513161   6.738624   6.420696   7.287501   5.674000
    21  H    8.531777   7.775885   7.661652   8.249389   6.502389
    22  H    8.413516   7.511289   7.265097   7.836014   6.445242
                    6          7          8          9         10
     6  O    0.000000
     7  N    2.259644   0.000000
     8  H    3.154863   1.010121   0.000000
     9  C    2.785678   1.447789   2.120430   0.000000
    10  H    2.355776   2.071449   2.969620   1.091352   0.000000
    11  C    4.031272   2.456010   2.692294   1.528558   2.144064
    12  H    4.701555   2.724675   2.551763   2.162667   3.052934
    13  H    4.692459   3.395534   3.721061   2.161556   2.471502
    14  H    4.010254   2.701988   2.948778   2.155858   2.472461
    15  C    3.687039   2.449085   2.866899   1.530324   2.139677
    16  O    3.703919   2.754039   3.110674   2.400640   2.892991
    17  N    4.895440   3.615166   3.911004   2.445300   2.945898
    18  H    5.213626   3.882160   4.163840   2.575811   3.011544
    19  C    6.038739   4.843379   5.052557   3.816508   4.272362
    20  H    5.886122   4.841765   5.054387   4.039082   4.484641
    21  H    6.546675   5.603927   5.932431   4.428855   4.666408
    22  H    6.816275   5.340542   5.359190   4.406449   5.026584
                   11         12         13         14         15
    11  C    0.000000
    12  H    1.092013   0.000000
    13  H    1.092462   1.780375   0.000000
    14  H    1.091000   1.778598   1.774898   0.000000
    15  C    2.498267   2.748829   2.725220   3.448270   0.000000
    16  O    3.607828   3.745208   3.945619   4.479089   1.227457
    17  N    2.721204   2.863432   2.458208   3.784564   1.343696
    18  H    2.299209   2.508382   1.709867   3.310667   2.042713
    19  C    4.136243   4.113991   3.796725   5.212544   2.444143
    20  H    4.685400   4.660342   4.535108   5.746698   2.518609
    21  H    4.694511   4.832761   4.139035   5.720060   3.173332
    22  H    4.456138   4.181619   4.132394   5.538488   3.131734
                   16         17         18         19         20
    16  O    0.000000
    17  N    2.259261   0.000000
    18  H    3.153345   1.009058   0.000000
    19  C    2.786138   1.450243   2.121598   0.000000
    20  H    2.340271   2.077290   2.980574   1.090122   0.000000
    21  H    3.569700   2.089634   2.482058   1.091601   1.781862
    22  H    3.493113   2.094385   2.506103   1.092188   1.779570
                   21         22
    21  H    0.000000
    22  H    1.780492   0.000000
 Stoichiometry    C6H12N2O2
 Framework group  C1[X(C6H12N2O2)]
 Deg. of freedom    60
 Full point group                 C1      NOp   1
 Largest Abelian subgroup         C1      NOp   1
 Largest concise Abelian subgroup C1      NOp   1
                         Standard orientation:                         
 ---------------------------------------------------------------------
 Center     Atomic      Atomic             Coordinates (Angstroms)
 Number     Number       Type             X           Y           Z
 ---------------------------------------------------------------------
      1          1           0        4.249747   -0.852880   -0.146397
      2          6           0        3.395431   -0.534549   -0.743962
      3          1           0        3.087273   -1.352597   -1.398214
      4          1           0        3.677692    0.323964   -1.356740
      5          6           0        2.222323   -0.159962    0.159980
      6          8           0        2.277532   -0.326105    1.374773
      7          7           0        1.140994    0.347412   -0.458434
      8          1           0        1.147152    0.469577   -1.461121
      9          6           0       -0.056262    0.716348    0.267209
     10          1           0        0.178301    0.742138    1.332744
     11          6           0       -0.556505    2.096748   -0.157927
     12          1           0       -0.805271    2.094997   -1.221226
     13          1           0       -1.444912    2.365963    0.418033
     14          1           0        0.219811    2.840841    0.026305
     15          6           0       -1.161365   -0.318679    0.045039
     16          8           0       -0.883195   -1.496257   -0.161317
     17          7           0       -2.425194    0.134899    0.095250
     18          1           0       -2.600199    1.118939    0.233946
     19          6           0       -3.564443   -0.741746   -0.096604
     20          1           0       -3.207469   -1.766333   -0.202230
     21          1           0       -4.231344   -0.674927    0.765006
     22          1           0       -4.111153   -0.455923   -0.997874
 ---------------------------------------------------------------------
 Rotational constants (GHZ):      2.6693148      0.7050206      0.6313446
 Standard basis: 6-31G(d) (6D, 7F)
 There are   174 symmetry adapted basis functions of A   symmetry.
 Integral buffers will be    131072 words long.
 Raffenetti 2 integral format.
 Two-electron integral symmetry is turned on.
   174 basis functions,   328 primitive gaussians,   174 cartesian basis functions
    39 alpha electrons       39 beta electrons
       nuclear repulsion energy       554.5836265940 Hartrees.
 NAtoms=   22 NActive=   22 NUniq=   22 SFac= 7.50D-01 NAtFMM=   80 NAOKFM=F Big=F
 One-electron integrals computed using PRISM.
 NBasis=   174 RedAO= T  NBF=   174
 NBsUse=   174 1.00D-06 NBFU=   174
 Initial guess read from the read-write file.
 B after Tr=     0.000000    0.000000    0.000000
         Rot=    1.000000    0.000000    0.000000    0.000000 Ang=   0.00 deg.
 Initial guess orbital symmetries:
       Occupied  (A) (A) (A) (A) (A) (A) (A) (A) (A) (A) (A) (A)
                 (A) (A) (A) (A) (A) (A) (A) (A) (A) (A) (A) (A)
                 (A) (A) (A) (A) (A) (A) (A) (A) (A) (A) (A) (A)
                 (A) (A) (A)
       Virtual   (A) (A) (A) (A) (A) (A) (A) (A) (A) (A) (A) (A)
                 (A) (A) (A) (A) (A) (A) (A) (A) (A) (A) (A) (A)
                 (A) (A) (A) (A) (A) (A) (A) (A) (A) (A) (A) (A)
                 (A) (A) (A) (A) (A) (A) (A) (A) (A) (A) (A) (A)
                 (A) (A) (A) (A) (A) (A) (A) (A) (A) (A) (A) (A)
                 (A) (A) (A) (A) (A) (A) (A) (A) (A) (A) (A) (A)
                 (A) (A) (A) (A) (A) (A) (A) (A) (A) (A) (A) (A)
                 (A) (A) (A) (A) (A) (A) (A) (A) (A) (A) (A) (A)
                 (A) (A) (A) (A) (A) (A) (A) (A) (A) (A) (A) (A)
                 (A) (A) (A) (A) (A) (A) (A) (A) (A) (A) (A) (A)
                 (A) (A) (A) (A) (A) (A) (A) (A) (A) (A) (A) (A)
                 (A) (A) (A)
 Harris functional with IExCor=  402 diagonalized for initial guess.
 ExpMin= 1.61D-01 ExpMax= 5.48D+03 ExpMxC= 8.25D+02 IAcc=1 IRadAn=         1 AccDes= 0.00D+00
 HarFok:  IExCor=  402 AccDes= 0.00D+00 IRadAn=         1 IDoV= 1
 ScaDFX=  1.000000  1.000000  1.000000  1.000000
 FoFCou: FMM=F IPFlag=           0 FMFlag=      100000 FMFlg1=           0
         NFxFlg=           0 DoJE=T BraDBF=F KetDBF=T FulRan=T
         Omega=  0.000000  0.000000  1.000000  0.000000  0.000000 ICntrl=     500 IOpCl=  0
         NMat0=    1 NMatS0=    1 NMatT0=    0 NMatD0=    1 NMtDS0=    0 NMtDT0=    0
         I1Cent=           4 NGrid=           0.
 Petite list used in FoFCou.
 Requested convergence on RMS density matrix=1.00D-08 within 128 cycles.
 Requested convergence on MAX density matrix=1.00D-06.
 Requested convergence on             energy=1.00D-06.
 No special actions if energy rises.
 Integral accuracy reduced to 1.0D-05 until final iterations.
 Initial convergence to 1.0D-05 achieved.  Increase integral accuracy.
 SCF Done:  E(RB3LYP) =  -495.836376034     A.U. after   12 cycles
             Convg  =    0.6546D-08             -V/T =  2.0089
 Calling FoFJK, ICntrl=      2127 FMM=F ISym2X=0 I1Cent= 0 IOpClX= 0 NMat=1 NMatS=1 NMatT=0.
 ***** Axes restored to original set *****
 -------------------------------------------------------------------
 Center     Atomic                   Forces (Hartrees/Bohr)
 Number     Number              X              Y              Z
 -------------------------------------------------------------------
      1        1           0.002552790    0.000878668    0.000569965
      2        6           0.005846801    0.004006551   -0.004178618
      3        1          -0.004075082    0.000248093   -0.001405827
      4        1          -0.003428146   -0.002075807   -0.002668573
      5        6          -0.010276103   -0.010884491    0.028768789
      6        8           0.002205223    0.000045927   -0.002065174
      7        7           0.012110663    0.003018554   -0.013180836
      8        1          -0.001074903    0.002428344    0.000377043
      9        6           0.006388037    0.002841039   -0.012474251
     10        1          -0.005082554   -0.001549364    0.004282393
     11        6          -0.002391883   -0.010645825    0.002335605
     12        1           0.001514262   -0.000175959   -0.004314492
     13        1           0.002894058   -0.007348401   -0.002822825
     14        1           0.002246328   -0.001752380   -0.002204850
     15        6          -0.023002636   -0.000594976    0.016297317
     16        8          -0.000043932    0.000971230   -0.001181088
     17        7           0.011973620    0.011424858   -0.005936548
     18        1          -0.002290991    0.005221787    0.001575020
     19        6           0.002342903   -0.000130748   -0.000377117
     20        1          -0.000168768   -0.002199688    0.000346195
     21        1           0.001794863    0.003308819    0.000619624
     22        1          -0.000034549    0.002963770   -0.002361752
 -------------------------------------------------------------------
 Cartesian Forces:  Max     0.028768789 RMS     0.006936533

 GradGradGradGradGradGradGradGradGradGradGradGradGradGradGradGradGradGrad
 Berny optimization.
 Using GEDIIS/GDIIS optimizer.
 Internal  Forces:  Max     0.026350200 RMS     0.006561353
 Search for a local minimum.
 Step number   2 out of a maximum of  132
 All quantities printed in internal units (Hartrees-Bohrs-Radians)
 Mixed Optimization -- RFO/linear search
 Update second derivatives using D2CorX and points    1    2
 DE= -4.88D-03 DEPred=-4.88D-03 R= 1.00D+00
 SS=  1.41D+00  RLast= 3.00D-01 DXNew= 5.0454D-01 8.9999D-01
 Trust test= 1.00D+00 RLast= 3.00D-01 DXMaxT set to 5.05D-01
 Use linear search instead of GDIIS.
 Linear search step of   0.594 exceeds DXMaxT=   0.505 but not scaled.
 Quartic linear search produced a step of  2.00000.
 Iteration  1 RMS(Cart)=  0.10918765 RMS(Int)=  0.00841057
 Iteration  2 RMS(Cart)=  0.00903500 RMS(Int)=  0.00038594
 Iteration  3 RMS(Cart)=  0.00006978 RMS(Int)=  0.00038222
 Iteration  4 RMS(Cart)=  0.00000001 RMS(Int)=  0.00038222
 Iteration  1 RMS(Cart)=  0.00015350 RMS(Int)=  0.00004420
 Iteration  2 RMS(Cart)=  0.00008358 RMS(Int)=  0.00004929
 Iteration  3 RMS(Cart)=  0.00004600 RMS(Int)=  0.00005572
 Iteration  4 RMS(Cart)=  0.00002569 RMS(Int)=  0.00006012
 Iteration  5 RMS(Cart)=  0.00001461 RMS(Int)=  0.00006283
 Iteration  6 RMS(Cart)=  0.00000850 RMS(Int)=  0.00006447
 Iteration  7 RMS(Cart)=  0.00000506 RMS(Int)=  0.00006545
 Iteration  8 RMS(Cart)=  0.00000309 RMS(Int)=  0.00006605
 Iteration  9 RMS(Cart)=  0.00000193 RMS(Int)=  0.00006642
 Iteration 10 RMS(Cart)=  0.00000123 RMS(Int)=  0.00006664
 Iteration 11 RMS(Cart)=  0.00000080 RMS(Int)=  0.00006679
 Variable       Old X    -DE/DX   Delta X   Delta X   Delta X     New X
                                 (Linear)    (Quad)   (Total)
    R1        2.05995  -0.00061   0.00016   0.00000   0.00016   2.06012
    R2        2.06336   0.00311   0.00698   0.00000   0.00698   2.07034
    R3        2.06336   0.00341   0.00732   0.00000   0.00732   2.07069
    R4        2.88677  -0.00129  -0.00886   0.00000  -0.00886   2.87791
    R5        2.31934  -0.00072  -0.00615   0.00000  -0.00615   2.31319
    R6        2.54176   0.02164   0.03765   0.00000   0.03765   2.57941
    R7        1.90885   0.00026   0.00030   0.00000   0.00030   1.90915
    R8        2.73592  -0.00241  -0.00449   0.00000  -0.00449   2.73143
    R9        2.06236   0.00150   0.00522   0.00000   0.00522   2.06758
   R10        2.88856   0.01342   0.01334   0.00000   0.01334   2.90190
   R11        2.89189   0.02183   0.03143   0.00000   0.03143   2.92332
   R12        2.06361   0.00290   0.00777   0.00000   0.00777   2.07138
   R13        2.06445  -0.00071   0.00922   0.00000   0.00922   2.07367
   R14        2.06169   0.00200   0.00406   0.00000   0.00406   2.06576
   R15        2.31956  -0.00006  -0.00600   0.00000  -0.00600   2.31356
   R16        2.53922   0.02340   0.03303   0.00000   0.03303   2.57225
   R17        1.90684  -0.00493  -0.00372   0.00000  -0.00372   1.90312
   R18        2.74056   0.00394   0.00447   0.00000   0.00447   2.74503
   R19        2.06003  -0.00042   0.00042   0.00000   0.00042   2.06045
   R20        2.06283   0.00299   0.00601   0.00000   0.00601   2.06884
   R21        2.06394   0.00313   0.00859   0.00000   0.00859   2.07252
    A1        1.90802   0.00002  -0.00599   0.00000  -0.00613   1.90188
    A2        1.91204  -0.00010   0.00175   0.00000   0.00196   1.91400
    A3        1.92738  -0.00558  -0.02327   0.00000  -0.02323   1.90415
    A4        1.90261  -0.00353  -0.01508   0.00000  -0.01538   1.88723
    A5        1.89816   0.00427   0.00407   0.00000   0.00384   1.90200
    A6        1.91538   0.00495   0.03855   0.00000   0.03851   1.95389
    A7        2.11524   0.00624   0.02406   0.00000   0.02401   2.13925
    A8        2.02395  -0.00653  -0.02213   0.00000  -0.02217   2.00178
    A9        2.14396   0.00030  -0.00198   0.00000  -0.00202   2.14195
   A10        2.09106  -0.00052  -0.00653   0.00000  -0.00668   2.08438
   A11        2.12999   0.00156   0.00485   0.00000   0.00470   2.13470
   A12        2.06206  -0.00106   0.00153   0.00000   0.00138   2.06344
   A13        1.89403   0.00103  -0.03421   0.00000  -0.03482   1.85922
   A14        1.94052  -0.00871   0.00295   0.00000   0.00287   1.94339
   A15        1.93057  -0.01148  -0.01687   0.00000  -0.01826   1.91231
   A16        1.89710  -0.00254   0.00202   0.00000   0.00193   1.89903
   A17        1.88908  -0.00476  -0.01400   0.00000  -0.01560   1.87348
   A18        1.91143   0.02635   0.06011   0.00000   0.06018   1.97161
   A19        1.92188   0.00369   0.02147   0.00000   0.02116   1.94304
   A20        1.91989   0.00814   0.01765   0.00000   0.01741   1.93730
   A21        1.91355   0.00132   0.00491   0.00000   0.00487   1.91842
   A22        1.90550  -0.00395  -0.00921   0.00000  -0.00968   1.89582
   A23        1.90458  -0.00299  -0.01131   0.00000  -0.01143   1.89315
   A24        1.89817  -0.00645  -0.02397   0.00000  -0.02394   1.87423
   A25        2.10553  -0.00751   0.00482   0.00000   0.00480   2.11034
   A26        2.03251   0.01772  -0.00513   0.00000  -0.00515   2.02736
   A27        2.14513  -0.01021   0.00028   0.00000   0.00026   2.14540
   A28        2.09146   0.00320  -0.00601   0.00000  -0.00751   2.08395
   A29        2.12925  -0.00022   0.00321   0.00000   0.00170   2.13094
   A30        2.06171  -0.00297   0.00126   0.00000  -0.00028   2.06143
   A31        1.90046  -0.00455  -0.02105   0.00000  -0.02094   1.87952
   A32        1.91613   0.00364   0.00998   0.00000   0.00986   1.92598
   A33        1.92218   0.00324   0.02195   0.00000   0.02188   1.94406
   A34        1.91141  -0.00013   0.00264   0.00000   0.00269   1.91410
   A35        1.90702   0.00007  -0.00636   0.00000  -0.00619   1.90083
   A36        1.90657  -0.00229  -0.00723   0.00000  -0.00750   1.89907
    D1       -0.09269   0.00024  -0.18551   0.00000  -0.18572  -0.27841
    D2        3.05603  -0.00033  -0.17130   0.00000  -0.17138   2.88466
    D3        2.00099  -0.00046  -0.20456   0.00000  -0.20469   1.79630
    D4       -1.13348  -0.00102  -0.19035   0.00000  -0.19034  -1.32382
    D5       -2.20230   0.00073  -0.19798   0.00000  -0.19785  -2.40015
    D6        0.94642   0.00016  -0.18378   0.00000  -0.18350   0.76292
    D7       -0.01336   0.00019  -0.02669   0.00000  -0.02651  -0.03986
    D8        3.11504  -0.00124  -0.05327   0.00000  -0.05324   3.06180
    D9        3.13549  -0.00041  -0.01222   0.00000  -0.01225   3.12324
   D10       -0.01930  -0.00185  -0.03881   0.00000  -0.03899  -0.05829
   D11        0.23719  -0.00154  -0.04908   0.00000  -0.04854   0.18865
   D12        2.32281  -0.00927  -0.06673   0.00000  -0.06612   2.25668
   D13       -1.83267   0.01035   0.00000   0.00000   0.00000  -1.83267
   D14       -2.91739  -0.00295  -0.07523   0.00000  -0.07503  -2.99242
   D15       -0.83178  -0.01068  -0.09289   0.00000  -0.09261  -0.92439
   D16        1.29594   0.00895  -0.02616   0.00000  -0.02649   1.26945
   D17        1.06484   0.00119   0.03519   0.00000   0.03554   1.10038
   D18       -3.11747   0.00384   0.04830   0.00000   0.04887  -3.06859
   D19       -1.03088   0.00174   0.03276   0.00000   0.03316  -0.99772
   D20       -3.13457  -0.00443  -0.00395   0.00000  -0.00426  -3.13883
   D21       -1.03369  -0.00178   0.00916   0.00000   0.00907  -1.02461
   D22        1.05290  -0.00388  -0.00638   0.00000  -0.00664   1.04626
   D23       -1.07397   0.00344   0.01411   0.00000   0.01379  -1.06018
   D24        1.02691   0.00609   0.02721   0.00000   0.02712   1.05404
   D25        3.11350   0.00399   0.01168   0.00000   0.01141   3.12491
   D26        0.52823  -0.00336   0.00924   0.00000   0.00932   0.53754
   D27       -2.61802  -0.00449   0.00000   0.00000   0.00000  -2.61802
   D28       -1.54464   0.00497   0.07013   0.00000   0.06995  -1.47469
   D29        1.59230   0.00383   0.06090   0.00000   0.06063   1.65293
   D30        2.67295  -0.00412   0.04210   0.00000   0.04216   2.71511
   D31       -0.47329  -0.00526   0.03286   0.00000   0.03285  -0.44045
   D32        0.04433   0.00073   0.08846   0.00000   0.08830   0.13263
   D33       -3.14015   0.00111   0.00294   0.00000   0.00315  -3.13701
   D34       -3.10203  -0.00043   0.07900   0.00000   0.07879  -3.02324
   D35       -0.00333  -0.00005  -0.00653   0.00000  -0.00637  -0.00969
   D36        0.07051  -0.00025   0.14084   0.00000   0.14087   0.21138
   D37        2.16296  -0.00101   0.13724   0.00000   0.13718   2.30015
   D38       -2.02022   0.00052   0.14823   0.00000   0.14848  -1.87174
   D39       -3.11328   0.00026   0.05672   0.00000   0.05660  -3.05668
   D40       -1.02082  -0.00049   0.05311   0.00000   0.05291  -0.96791
   D41        1.07918   0.00103   0.06410   0.00000   0.06421   1.14338
         Item               Value     Threshold  Converged?
 Maximum Force            0.023400     0.000450     NO 
 RMS     Force            0.006402     0.000300     NO 
 Maximum Displacement     0.418012     0.001800     NO 
 RMS     Displacement     0.110378     0.001200     NO 
 Predicted change in Energy=-5.462467D-03
 GradGradGradGradGradGradGradGradGradGradGradGradGradGradGradGradGradGrad

                          Input orientation:                          
 ---------------------------------------------------------------------
 Center     Atomic      Atomic             Coordinates (Angstroms)
 Number     Number       Type             X           Y           Z
 ---------------------------------------------------------------------
      1          1           0        1.428736    2.141397    1.752346
      2          6           0        1.654879    2.817382    0.927501
      3          1           0        0.951253    3.656791    0.951813
      4          1           0        1.526276    2.292152   -0.025539
      5          6           0        3.070587    3.352852    1.095861
      6          8           0        3.684318    3.272353    2.151914
      7          7           0        3.589468    3.952164   -0.015316
      8          1           0        3.045152    3.976514   -0.866078
      9          6           0        4.880357    4.602391   -0.010815
     10          1           0        5.362345    4.330764    0.933110
     11          6           0        5.756803    4.113102   -1.172953
     12          1           0        5.312091    4.367114   -2.142077
     13          1           0        6.760275    4.554181   -1.121484
     14          1           0        5.874034    3.027566   -1.119582
     15          6           0        4.687332    6.137247   -0.005063
     16          8           0        3.712863    6.646604    0.533299
     17          7           0        5.663187    6.867072   -0.611581
     18          1           0        6.387368    6.393011   -1.126414
     19          6           0        5.614877    8.317441   -0.676156
     20          1           0        4.831485    8.653422    0.003745
     21          1           0        6.575702    8.744345   -0.371010
     22          1           0        5.379313    8.665034   -1.689324
 ---------------------------------------------------------------------
                    Distance matrix (angstroms):
                    1          2          3          4          5
     1  H    0.000000
     2  C    1.090167   0.000000
     3  H    1.779118   1.095577   0.000000
     4  H    1.786929   1.095760   1.774291   0.000000
     5  C    2.143425   1.522926   2.145858   2.183465   0.000000
     6  O    2.554676   2.413464   3.009598   3.218577   1.224089
     7  N    3.327502   2.432955   2.825378   2.648113   1.364964
     8  H    3.582819   2.548209   2.791301   2.418794   2.058836
     9  C    4.591178   3.803999   4.154356   4.072749   2.461981
    10  H    4.575780   4.004456   4.462323   4.448637   2.496990
    11  C    5.583651   4.787127   5.274103   4.746554   3.597395
    12  H    5.933025   5.019878   5.393850   4.808076   4.066609
    13  H    6.519642   5.768872   6.232866   5.806257   4.469184
    14  H    5.365998   4.694252   5.377767   4.543211   3.587939
    15  C    5.447362   4.592053   4.585473   4.977695   3.402757
    16  O    5.196172   4.365047   4.091531   4.904560   3.402617
    17  N    6.771317   5.902144   5.912058   6.195754   4.688995
    18  H    7.138033   6.276954   6.430963   6.454393   5.018178
    19  C    7.846332   6.964478   6.791269   7.310545   5.853256
    20  H    7.552667   6.708467   6.396981   7.168753   5.691180
    21  H    8.637061   7.812140   7.698538   8.200417   6.595888
    22  H    8.367197   7.410413   7.187894   7.630708   6.427033
                    6          7          8          9         10
     6  O    0.000000
     7  N    2.273329   0.000000
     8  H    3.164277   1.010281   0.000000
     9  C    2.806583   1.445410   2.119239   0.000000
    10  H    2.328410   2.045958   2.954988   1.094115   0.000000
    11  C    4.007093   2.462390   2.732377   1.535619   2.153711
[...]
    13  H    6.496905   5.796922   6.273731   5.928146   4.426972
    14  H    5.331042   4.747307   5.464802   4.742066   3.509675
    15  C    5.375044   4.455453   4.419974   4.760177   3.379456
    16  O    5.066257   4.120447   3.794330   4.500436   3.365187
    17  N    6.714540   5.793190   5.770485   6.024470   4.673955
    18  H    7.115926   6.244787   6.376617   6.436005   5.004381
    19  C    7.761900   6.811001   6.592739   7.060508   5.832669
    20  H    7.426702   6.457128   6.079717   6.722917   5.670105
    21  H    8.331364   7.450583   7.219618   7.818349   6.380236
    22  H    8.525752   7.530723   7.346270   7.649835   6.599910
                    6          7          8          9         10
     6  O    0.000000
     7  N    2.285981   0.000000
     8  H    3.131695   1.013009   0.000000
     9  C    2.796282   1.456696   2.097163   0.000000
    10  H    2.259860   2.037396   2.897649   1.097028   0.000000
    11  C    3.879344   2.469086   2.974058   1.536435   2.157147
    12  H    4.661664   2.817929   2.962901   2.194792   3.083563
    13  H    4.512929   3.423873   3.965463   2.198351   2.490575
    14  H    3.710288   2.649187   3.294063   2.156493   2.497323
    15  C    3.802007   2.437257   2.554891   1.548100   2.141994
    16  O    3.896852   2.718902   2.588229   2.416014   2.864243
    17  N    5.006130   3.628141   3.705338   2.477231   3.007086
    18  H    5.239092   3.910086   4.125250   2.591217   3.056591
    19  C    6.176619   4.865404   4.783854   3.851951   4.303850
    20  H    6.107478   4.811344   4.589733   4.062501   4.538010
    21  H    6.536114   5.545218   5.605193   4.406659   4.618568
    22  H    7.037765   5.499616   5.311930   4.519474   5.108706
                   11         12         13         14         15
    11  C    0.000000
    12  H    1.096072   0.000000
    13  H    1.097314   1.780075   0.000000
    14  H    1.093272   1.772628   1.761435   0.000000
    15  C    2.615301   2.878492   2.950462   3.533096   0.000000
    16  O    3.707514   3.894937   4.155522   4.519798   1.226161
    17  N    2.884116   2.975336   2.789355   3.954729   1.364301
    18  H    2.472674   2.608603   2.062316   3.527975   2.051471
    19  C    4.321812   4.287862   4.147196   5.401142   2.468723
    20  H    4.816560   4.759535   4.848435   5.861710   2.526894
    21  H    4.891026   5.031146   4.525078   5.934582   3.116239
    22  H    4.701416   4.442205   4.489661   5.793552   3.252174
                   16         17         18         19         20
    16  O    0.000000
    17  N    2.276363   0.000000
    18  H    3.161315   1.008331   0.000000
    19  C    2.816639   1.453451   2.125251   0.000000
    20  H    2.365209   2.062972   2.968655   1.090491   0.000000
    21  H    3.457402   2.120127   2.558717   1.097305   1.779407
    22  H    3.663729   2.103894   2.482043   1.095343   1.784373
                   21         22
    21  H    0.000000
    22  H    1.783270   0.000000
 Stoichiometry    C6H12N2O2
 Framework group  C1[X(C6H12N2O2)]
 Deg. of freedom    60
 Full point group                 C1      NOp   1
 Largest Abelian subgroup         C1      NOp   1
 Largest concise Abelian subgroup C1      NOp   1
                         Standard orientation:                         
 ---------------------------------------------------------------------
 Center     Atomic      Atomic             Coordinates (Angstroms)
 Number     Number       Type             X           Y           Z
 ---------------------------------------------------------------------
      1          1           0        4.191923   -0.889372   -0.142874
      2          6           0        3.207443   -0.970227   -0.606615
      3          1           0        2.882926   -2.016500   -0.552391
      4          1           0        3.273008   -0.687561   -1.662684
      5          6           0        2.223796   -0.105418    0.163487
      6          8           0        2.397416    0.214410    1.330530
      7          7           0        1.124971    0.306558   -0.566336
      8          1           0        0.941604   -0.228762   -1.406572
      9          6           0       -0.060711    0.789980    0.128231
     10          1           0        0.241904    0.876095    1.179173
     11          6           0       -0.475613    2.177747   -0.384207
     12          1           0       -0.838409    2.139826   -1.417801
     13          1           0       -1.253732    2.632977    0.241409
     14          1           0        0.391290    2.843103   -0.352226
     15          6           0       -1.147910   -0.310083    0.061346
     16          8           0       -0.836539   -1.493610   -0.014704
     17          7           0       -2.443720    0.116754    0.059623
     18          1           0       -2.632863    1.101517    0.165443
     19          6           0       -3.566113   -0.806272    0.087490
     20          1           0       -3.178604   -1.801057   -0.134795
     21          1           0       -4.050138   -0.826278    1.072070
     22          1           0       -4.310039   -0.527924   -0.666747
 ---------------------------------------------------------------------
 Rotational constants (GHZ):      2.4797519      0.7208278      0.6276205

 **********************************************************************

            Population analysis using the SCF density.

 **********************************************************************

 Orbital symmetries:
       Occupied  (A) (A) (A) (A) (A) (A) (A) (A) (A) (A) (A) (A)
                 (A) (A) (A) (A) (A) (A) (A) (A) (A) (A) (A) (A)
                 (A) (A) (A) (A) (A) (A) (A) (A) (A) (A) (A) (A)
                 (A) (A) (A)
       Virtual   (A) (A) (A) (A) (A) (A) (A) (A) (A) (A) (A) (A)
                 (A) (A) (A) (A) (A) (A) (A) (A) (A) (A) (A) (A)
                 (A) (A) (A) (A) (A) (A) (A) (A) (A) (A) (A) (A)
                 (A) (A) (A) (A) (A) (A) (A) (A) (A) (A) (A) (A)
                 (A) (A) (A) (A) (A) (A) (A) (A) (A) (A) (A) (A)
                 (A) (A) (A) (A) (A) (A) (A) (A) (A) (A) (A) (A)
                 (A) (A) (A) (A) (A) (A) (A) (A) (A) (A) (A) (A)
                 (A) (A) (A) (A) (A) (A) (A) (A) (A) (A) (A) (A)
                 (A) (A) (A) (A) (A) (A) (A) (A) (A) (A) (A) (A)
                 (A) (A) (A) (A) (A) (A) (A) (A) (A) (A) (A) (A)
                 (A) (A) (A) (A) (A) (A) (A) (A) (A) (A) (A) (A)
                 (A) (A) (A)
 The electronic state is 1-A.
 Alpha  occ. eigenvalues --  -19.11366 -19.10673 -14.36822 -14.35106 -10.28840
 Alpha  occ. eigenvalues --  -10.28143 -10.23303 -10.22224 -10.19429 -10.18500
 Alpha  occ. eigenvalues --   -1.03618  -1.02354  -0.92475  -0.91605  -0.77980
 Alpha  occ. eigenvalues --   -0.72683  -0.70855  -0.64748  -0.58858  -0.57637
 Alpha  occ. eigenvalues --   -0.53673  -0.47496  -0.47102  -0.46126  -0.45192
 Alpha  occ. eigenvalues --   -0.43972  -0.42702  -0.41883  -0.39970  -0.39476
 Alpha  occ. eigenvalues --   -0.39246  -0.38330  -0.37790  -0.35926  -0.34308
 Alpha  occ. eigenvalues --   -0.25994  -0.25474  -0.25145  -0.24229
 Alpha virt. eigenvalues --    0.02095   0.03496   0.06743   0.09240   0.11539
 Alpha virt. eigenvalues --    0.13143   0.13964   0.14375   0.15602   0.15870
 Alpha virt. eigenvalues --    0.16332   0.16497   0.18051   0.18735   0.20093
 Alpha virt. eigenvalues --    0.22033   0.22604   0.25201   0.28014   0.32968
 Alpha virt. eigenvalues --    0.33338   0.38150   0.40627   0.50049   0.50673
 Alpha virt. eigenvalues --    0.52098   0.53038   0.54828   0.55297   0.56541
 Alpha virt. eigenvalues --    0.58180   0.59887   0.61370   0.62787   0.65714
 Alpha virt. eigenvalues --    0.68494   0.69225   0.70599   0.72568   0.73584
 Alpha virt. eigenvalues --    0.74488   0.77156   0.78619   0.80300   0.83796
 Alpha virt. eigenvalues --    0.84540   0.86266   0.86564   0.87216   0.88068
 Alpha virt. eigenvalues --    0.89398   0.90046   0.90618   0.92030   0.93589
 Alpha virt. eigenvalues --    0.94514   0.94937   0.95998   0.97923   1.01258
 Alpha virt. eigenvalues --    1.04615   1.05111   1.05935   1.12469   1.14838
 Alpha virt. eigenvalues --    1.17511   1.20618   1.28131   1.28747   1.32310
 Alpha virt. eigenvalues --    1.37743   1.40264   1.41708   1.43490   1.47233
 Alpha virt. eigenvalues --    1.52283   1.53248   1.61071   1.65670   1.68698
 Alpha virt. eigenvalues --    1.74390   1.75067   1.77746   1.78935   1.81174
 Alpha virt. eigenvalues --    1.82431   1.83956   1.87109   1.89123   1.91889
 Alpha virt. eigenvalues --    1.93464   1.95876   1.99474   1.99759   2.01561
 Alpha virt. eigenvalues --    2.05019   2.05991   2.08106   2.13744   2.16483
 Alpha virt. eigenvalues --    2.19478   2.22109   2.24031   2.26036   2.28438
 Alpha virt. eigenvalues --    2.30209   2.31825   2.35865   2.39180   2.41698
 Alpha virt. eigenvalues --    2.44420   2.45867   2.52454   2.57507   2.59482
 Alpha virt. eigenvalues --    2.65122   2.68090   2.71253   2.72257   2.86795
 Alpha virt. eigenvalues --    2.93194   2.97311   3.01645   3.11233   3.14036
 Alpha virt. eigenvalues --    3.91269   3.98476   4.05655   4.12876   4.20517
 Alpha virt. eigenvalues --    4.22396   4.24275   4.38194   4.46986   4.64491
          Condensed to atoms (all electrons):
              1          2          3          4          5          6
     1  H    0.514924   0.356773  -0.020677  -0.024212  -0.019522   0.004165
     2  C    0.356773   5.339517   0.358738   0.343989   0.342917  -0.079152
     3  H   -0.020677   0.358738   0.518299  -0.026407  -0.020256  -0.000013
     4  H   -0.024212   0.343989  -0.026407   0.565849  -0.023576   0.002420
     5  C   -0.019522   0.342917  -0.020256  -0.023576   4.300896   0.600739
     6  O    0.004165  -0.079152  -0.000013   0.002420   0.600739   8.042043
     7  N    0.004421  -0.122817   0.000133   0.005867   0.258530  -0.097713
     8  H   -0.000035   0.000447   0.000554   0.000681  -0.017483   0.003217
     9  C   -0.000143   0.006215  -0.000410   0.000088  -0.021227  -0.006624
    10  H   -0.000021   0.001736  -0.000041  -0.000057  -0.000484   0.028557
    11  C    0.000006  -0.000279  -0.000003   0.000011   0.000458  -0.000068
    12  H    0.000000  -0.000001   0.000000   0.000002  -0.000093  -0.000012
    13  H    0.000000   0.000004   0.000000   0.000000   0.000033   0.000003
    14  H    0.000000  -0.000001   0.000000  -0.000005   0.000929   0.000271
    15  C   -0.000002   0.000046   0.000105  -0.000044   0.001866  -0.000256
    16  O    0.000001  -0.000447   0.000407   0.000006   0.005437  -0.000156
    17  N    0.000000   0.000002   0.000000   0.000000   0.000057  -0.000008
    18  H    0.000000   0.000000   0.000000   0.000000  -0.000017   0.000000
    19  C    0.000000   0.000000   0.000000   0.000000   0.000001   0.000000
    20  H    0.000000   0.000000   0.000000   0.000000  -0.000002   0.000000
    21  H    0.000000   0.000000   0.000000   0.000000   0.000000   0.000000
    22  H    0.000000   0.000000   0.000000   0.000000   0.000000   0.000000
              7          8          9         10         11         12
     1  H    0.004421  -0.000035  -0.000143  -0.000021   0.000006   0.000000
     2  C   -0.122817   0.000447   0.006215   0.001736  -0.000279  -0.000001
     3  H    0.000133   0.000554  -0.000410  -0.000041  -0.000003   0.000000
     4  H    0.005867   0.000681   0.000088  -0.000057   0.000011   0.000002
     5  C    0.258530  -0.017483  -0.021227  -0.000484   0.000458  -0.000093
     6  O   -0.097713   0.003217  -0.006624   0.028557  -0.000068  -0.000012
     7  N    7.113845   0.297550   0.261967  -0.050817  -0.058647  -0.001729
     8  H    0.297550   0.418342  -0.046783   0.005421   0.001133   0.001586
     9  C    0.261967  -0.046783   5.136956   0.359944   0.331549  -0.033479
    10  H   -0.050817   0.005421   0.359944   0.508228  -0.038984   0.004162
    11  C   -0.058647   0.001133   0.331549  -0.038984   5.166768   0.373154
    12  H   -0.001729   0.001586  -0.033479   0.004162   0.373154   0.566123
    13  H    0.004701  -0.000149  -0.027367  -0.001782   0.350545  -0.033159
    14  H   -0.001933  -0.000163  -0.022630  -0.002090   0.368738  -0.027049
    15  C   -0.039189   0.001693   0.318856  -0.023210  -0.039477  -0.003304
    16  O   -0.009164   0.009069  -0.087809  -0.000401   0.002589   0.000043
    17  N    0.002525   0.000446  -0.115026   0.000047   0.002376   0.001641
    18  H    0.000248  -0.000032  -0.002272   0.000086   0.005542  -0.000185
    19  C   -0.000090  -0.000016   0.005846  -0.000159  -0.000138  -0.000120
    20  H    0.000001  -0.000010   0.001030  -0.000017  -0.000059  -0.000008
    21  H   -0.000002   0.000000  -0.000226   0.000031   0.000024   0.000006
    22  H    0.000004   0.000001  -0.000043  -0.000003  -0.000027  -0.000009
             13         14         15         16         17         18
     1  H    0.000000   0.000000  -0.000002   0.000001   0.000000   0.000000
     2  C    0.000004  -0.000001   0.000046  -0.000447   0.000002   0.000000
     3  H    0.000000   0.000000   0.000105   0.000407   0.000000   0.000000
     4  H    0.000000  -0.000005  -0.000044   0.000006   0.000000   0.000000
     5  C    0.000033   0.000929   0.001866   0.005437   0.000057  -0.000017
     6  O    0.000003   0.000271  -0.000256  -0.000156  -0.000008   0.000000
     7  N    0.004701  -0.001933  -0.039189  -0.009164   0.002525   0.000248
     8  H   -0.000149  -0.000163   0.001693   0.009069   0.000446  -0.000032
     9  C   -0.027367  -0.022630   0.318856  -0.087809  -0.115026  -0.002272
    10  H   -0.001782  -0.002090  -0.023210  -0.000401   0.000047   0.000086
    11  C    0.350545   0.368738  -0.039477   0.002589   0.002376   0.005542
    12  H   -0.033159  -0.027049  -0.003304   0.000043   0.001641  -0.000185
    13  H    0.590482  -0.025345  -0.001199  -0.000018  -0.002093   0.007734
    14  H   -0.025345   0.528846   0.002709  -0.000060   0.000194  -0.000213
    15  C   -0.001199   0.002709   4.372679   0.596524   0.267208  -0.016685
    16  O   -0.000018  -0.000060   0.596524   8.083303  -0.099185   0.003500
    17  N   -0.002093   0.000194   0.267208  -0.099185   7.095213   0.296894
    18  H    0.007734  -0.000213  -0.016685   0.003500   0.296894   0.405667
    19  C    0.000111   0.000003  -0.024246  -0.007927   0.267137  -0.032222
    20  H   -0.000001   0.000001  -0.000937   0.020918  -0.040356   0.004080
    21  H   -0.000021   0.000000   0.000441   0.000550  -0.042944  -0.000848
    22  H    0.000009  -0.000001   0.001995   0.000467  -0.039698  -0.000719
             19         20         21         22
     1  H    0.000000   0.000000   0.000000   0.000000
     2  C    0.000000   0.000000   0.000000   0.000000
     3  H    0.000000   0.000000   0.000000   0.000000
     4  H    0.000000   0.000000   0.000000   0.000000
     5  C    0.000001  -0.000002   0.000000   0.000000
     6  O    0.000000   0.000000   0.000000   0.000000
     7  N   -0.000090   0.000001  -0.000002   0.000004
     8  H   -0.000016  -0.000010   0.000000   0.000001
     9  C    0.005846   0.001030  -0.000226  -0.000043
    10  H   -0.000159  -0.000017   0.000031  -0.000003
    11  C   -0.000138  -0.000059   0.000024  -0.000027
    12  H   -0.000120  -0.000008   0.000006  -0.000009
    13  H    0.000111  -0.000001  -0.000021   0.000009
    14  H    0.000003   0.000001   0.000000  -0.000001
    15  C   -0.024246  -0.000937   0.000441   0.001995
    16  O   -0.007927   0.020918   0.000550   0.000467
    17  N    0.267137  -0.040356  -0.042944  -0.039698
    18  H   -0.032222   0.004080  -0.000848  -0.000719
    19  C    4.963666   0.376728   0.383653   0.378746
    20  H    0.376728   0.482421  -0.026663  -0.022737
    21  H    0.383653  -0.026663   0.564521  -0.039882
    22  H    0.378746  -0.022737  -0.039882   0.565477
 Mulliken atomic charges:
              1
     1  H    0.184320
     2  C   -0.547687
     3  H    0.189571
     4  H    0.155389
     5  C    0.590796
     6  O   -0.497414
     7  N   -0.567690
     8  H    0.324532
     9  C   -0.058412
    10  H    0.209856
    11  C   -0.465212
    12  H    0.152432
    13  H    0.137511
    14  H    0.177798
    15  C    0.584426
    16  O   -0.517647
    17  N   -0.594430
    18  H    0.329442
    19  C   -0.310973
    20  H    0.205610
    21  H    0.161360
    22  H    0.156421
 Sum of Mulliken atomic charges =   0.00000
 Mulliken charges with hydrogens summed into heavy atoms:
              1
     2  C   -0.018407
     5  C    0.590796
     6  O   -0.497414
     7  N   -0.243158
     9  C    0.151444
    11  C    0.002530
    15  C    0.584426
    16  O   -0.517647
    17  N   -0.264988
    19  C    0.212419
 Sum of Mulliken charges with hydrogens summed into heavy atoms =   0.00000
 Electronic spatial extent (au):  <R**2>=           1893.8384
 Charge=              0.0000 electrons
 Dipole moment (field-independent basis, Debye):
    X=             -3.2097    Y=              1.8120    Z=             -2.5735  Tot=              4.4954
 Quadrupole moment (field-independent basis, Debye-Ang):
   XX=            -52.3510   YY=            -60.9323   ZZ=            -61.7837
   XY=             -5.6263   XZ=             -7.6039   YZ=              0.8450
 Traceless Quadrupole moment (field-independent basis, Debye-Ang):
   XX=              6.0046   YY=             -2.5766   ZZ=             -3.4280
   XY=             -5.6263   XZ=             -7.6039   YZ=              0.8450
 Octapole moment (field-independent basis, Debye-Ang**2):
  XXX=            -32.8282  YYY=              3.8008  ZZZ=             -5.1513  XYY=              0.0447
  XXY=             -9.6585  XXZ=            -12.8849  XZZ=             -8.0530  YZZ=             -3.1980
  YYZ=              2.1206  XYZ=             -0.6298
 Hexadecapole moment (field-independent basis, Debye-Ang**3):
 XXXX=          -1633.6732 YYYY=           -485.5652 ZZZZ=           -183.3169 XXXY=            -10.4063
 XXXZ=            -32.7387 YYYX=             -2.7466 YYYZ=              4.5901 ZZZX=            -10.1506
 ZZZY=              1.5273 XXYY=           -358.0841 XXZZ=           -348.6933 YYZZ=           -113.5167
 XXYZ=             -0.9161 YYXZ=              1.9211 ZZXY=             -1.2672
 N-N= 5.517156001683D+02 E-N=-2.259558410118D+03  KE= 4.912348084558D+02
 1\1\GINC-NODE004\FOpt\RB3LYP\6-31G(d)\C6H12N2O2\STEBOSS\10-Feb-2017\0\
 \# b3lyp/6-31G* Opt=(ModRedundant, maxcycles=1000, calcfc) geom=nocrow
 d\\Phi Psi fixed scan\\0,1\H,1.4575990188,2.1388403426,1.7011960232\C,
 1.6642586432,2.9518056561,1.003219052\H,1.1061854516,3.8384512586,1.32
 78006277\H,1.3150503423,2.6762389072,0.0024209805\C,3.1509742686,3.263
 8915413,1.0313433022\O,3.8651855673,2.9943153158,1.9861491316\N,3.6359
 905976,3.8608661977,-0.1167697941\H,2.9331948842,4.2836079339,-0.71137
 46107\C,4.9143588631,4.5583217147,-0.0808079801\H,5.3403154987,4.31877
 25107,0.9013571299\C,5.8608255394,4.0367666198,-1.1729685774\H,5.50785
 49599,4.296686076,-2.1775722312\H,6.8815810812,4.4209681957,-1.0523620
 543\H,5.9182743918,2.9471878431,-1.1039706943\C,4.6395648793,6.0817887
 973,-0.0930582026\O,3.6018468638,6.5341331419,0.3781079538\N,5.5909003
 918,6.8652804254,-0.6782227197\H,6.4402712677,6.4350722053,-1.01021783
 44\C,5.5065583712,8.3162681939,-0.6846816894\H,4.4937628744,8.58752802
 15,-0.3849579555\H,6.2172753728,8.76676252,0.0196010811\H,5.7068708713
 ,8.7073465817,-1.6880309386\\Version=EM64L-G09RevA.02\State=1-A\HF=-49
 5.8455322\RMSD=6.150e-09\RMSF=6.808e-04\Dipole=0.6430437,0.5342971,-1.
 5585435\Quadrupole=5.7214293,-1.3903777,-4.3310516,5.8910514,-1.251770
 6,1.3840382\PG=C01 [X(C6H12N2O2)]\\@


 THERE ARE PEOPLE SO ADDICTED TO EXAGERATING THEY
 CAN'T TELL THE TRUTH WITHOUT LYING. -- FORTUNE COOKIE
 Job cpu time:  0 days  1 hours 48 minutes  2.2 seconds.
 File lengths (MBytes):  RWF=    186 Int=      0 D2E=      0 Chk=      4 Scr=      2
 Normal termination of Gaussian 09 at Fri Feb 10 22:56:00 2017.
