 Entering Gaussian System, Link 0=g09
 Initial command:
 /home/steboss/Software/g09/l1.exe /home/steboss/projects/phi_psi_scan/alanine/255/4438/Gau-14977.inp -scrdir=/home/steboss/projects/phi_psi_scan/alanine/255/4438/
 Entering Link 1 = /home/steboss/Software/g09/l1.exe PID=     14979.
  
 Copyright (c) 1988,1990,1992,1993,1995,1998,2003,2009, Gaussian, Inc.
                  All Rights Reserved.
  
 This is part of the Gaussian(R) 09 program.  It is based on
 the Gaussian(R) 03 system (copyright 2003, Gaussian, Inc.),
 the Gaussian(R) 98 system (copyright 1998, Gaussian, Inc.),
 the Gaussian(R) 94 system (copyright 1995, Gaussian, Inc.),
 the Gaussian 92(TM) system (copyright 1992, Gaussian, Inc.),
 the Gaussian 90(TM) system (copyright 1990, Gaussian, Inc.),
 the Gaussian 88(TM) system (copyright 1988, Gaussian, Inc.),
 the Gaussian 86(TM) system (copyright 1986, Carnegie Mellon
 University), and the Gaussian 82(TM) system (copyright 1983,
 Carnegie Mellon University). Gaussian is a federally registered
 trademark of Gaussian, Inc.
  
 This software contains proprietary and confidential information,
 including trade secrets, belonging to Gaussian, Inc.
  
 This software is provided under written license and may be
 used, copied, transmitted, or stored only in accord with that
 written license.
  
 The following legend is applicable only to US Government
 contracts under FAR:
  
                    RESTRICTED RIGHTS LEGEND
  
 Use, reproduction and disclosure by the US Government is
 subject to restrictions as set forth in subparagraphs (a)
 and (c) of the Commercial Computer Software - Restricted
 Rights clause in FAR 52.227-19.
  
 Gaussian, Inc.
 340 Quinnipiac St., Bldg. 40, Wallingford CT 06492
  
  
 ---------------------------------------------------------------
 Warning -- This program may not be used in any manner that
 competes with the business of Gaussian, Inc. or will provide
 assistance to any competitor of Gaussian, Inc.  The licensee
 of this program is prohibited from giving any competitor of
 Gaussian, Inc. access to this program.  By using this program,
 the user acknowledges that Gaussian, Inc. is engaged in the
 business of creating and licensing software in the field of
 computational chemistry and represents and warrants to the
 licensee that it is not a competitor of Gaussian, Inc. and that
 it will not use this program in any manner prohibited above.
 ---------------------------------------------------------------
  

 Cite this work as:
 Gaussian 09, Revision A.02,
 M. J. Frisch, G. W. Trucks, H. B. Schlegel, G. E. Scuseria, 
 M. A. Robb, J. R. Cheeseman, G. Scalmani, V. Barone, B. Mennucci, 
 G. A. Petersson, H. Nakatsuji, M. Caricato, X. Li, H. P. Hratchian, 
 A. F. Izmaylov, J. Bloino, G. Zheng, J. L. Sonnenberg, M. Hada, 
 M. Ehara, K. Toyota, R. Fukuda, J. Hasegawa, M. Ishida, T. Nakajima, 
 Y. Honda, O. Kitao, H. Nakai, T. Vreven, J. A. Montgomery, Jr., 
 J. E. Peralta, F. Ogliaro, M. Bearpark, J. J. Heyd, E. Brothers, 
 K. N. Kudin, V. N. Staroverov, R. Kobayashi, J. Normand, 
 K. Raghavachari, A. Rendell, J. C. Burant, S. S. Iyengar, J. Tomasi, 
 M. Cossi, N. Rega, J. M. Millam, M. Klene, J. E. Knox, J. B. Cross, 
 V. Bakken, C. Adamo, J. Jaramillo, R. Gomperts, R. E. Stratmann, 
 O. Yazyev, A. J. Austin, R. Cammi, C. Pomelli, J. W. Ochterski, 
 R. L. Martin, K. Morokuma, V. G. Zakrzewski, G. A. Voth, 
 P. Salvador, J. J. Dannenberg, S. Dapprich, A. D. Daniels, 
 O. Farkas, J. B. Foresman, J. V. Ortiz, J. Cioslowski, 
 and D. J. Fox, Gaussian, Inc., Wallingford CT, 2009.
 
 ******************************************
 Gaussian 09:  EM64L-G09RevA.02 11-Jun-2009
                10-Feb-2017 
 ******************************************
 %chk=structure_90.chk
 %NProcShared=8
 Will use up to    8 processors via shared memory.
 ----------------------------------------------------------------------
 # b3lyp/6-31G* Opt=(ModRedundant, maxcycles=1000, calcfc) geom=nocrowd
 ----------------------------------------------------------------------
 1/6=1000,10=4,14=-1,18=120,19=15,26=3,38=1/1,3;
 2/9=110,12=1,17=6,18=5,40=1/2;
 3/5=1,6=6,7=1,11=2,16=1,25=1,30=1,71=2,74=-5/1,2,3;
 4//1;
 5/5=2,38=5/2;
 8/6=4,10=90,11=11/1;
 11/6=1,8=1,9=11,15=111,16=1/1,2,10;
 10/6=1,7=6,13=1/2;
 6/7=2,8=2,9=2,10=2,28=1/1;
 7/10=1,18=20,25=1/1,2,3,16;
 1/6=1000,10=4,14=-1,18=20,19=15/3(2);
 2/9=110,12=1/2;
 99//99;
 2/9=110,12=1/2;
 3/5=1,6=6,7=1,11=2,16=1,25=1,30=1,71=1,74=-5/1,2,3;
 4/5=5,16=3/1;
 5/5=2,38=5/2;
 7//1,2,3,16;
 1/6=1000,14=-1,18=20,19=15/3(-5);
 2/9=110,12=1/2;
 6/7=2,8=2,9=2,10=2,19=2,28=1/1;
 99/9=1/99;
 ------------------
 Phi Psi fixed scan
 ------------------
 Symbolic Z-matrix:
 Charge =  0 Multiplicity = 1
 H                     1.3513    2.3068    1.9013 
 C                     1.6731    2.7486    0.9582 
 H                     0.9598    3.5143    0.6531 
 H                     1.7242    1.9746    0.1925 
 C                     3.0539    3.3932    1.0948 
 O                     3.6506    3.3681    2.1689 
 N                     3.5554    3.9697    0. 
 H                     3.0267    3.9647   -0.8606 
 C                     4.8533    4.6139    0. 
 H                     5.4076    4.3155    0.8898 
 C                     5.6613    4.2208   -1.2322 
 H                     5.1233    4.5214   -2.1312 
 H                     6.6305    4.7189   -1.2058 
 H                     5.8085    3.1409   -1.2414 
 C                     4.7127    6.1294    0. 
 O                     4.6551    6.7505   -1.0589 
 N                     4.6575    6.7246    1.1937 
 H                     4.7088    6.171     2.0369 
 C                     4.5242    8.1613    1.3276 
 H                     4.482     8.6165    0.3381 
 H                     3.6091    8.3926    1.8727 
 H                     5.3811    8.5569    1.8727 
 
 The following ModRedundant input section has been read:
 D    5    7    9   15 F                                                       
 D    7    9   15   17 F                                                       

 GradGradGradGradGradGradGradGradGradGradGradGradGradGradGradGradGradGrad
 Berny optimization.
 Initialization pass.
                           ----------------------------
                           !    Initial Parameters    !
                           ! (Angstroms and Degrees)  !
 --------------------------                            --------------------------
 ! Name  Definition              Value          Derivative Info.                !
 --------------------------------------------------------------------------------
 ! R1    R(1,2)                  1.09           calculate D2E/DX2 analytically  !
 ! R2    R(2,3)                  1.09           calculate D2E/DX2 analytically  !
 ! R3    R(2,4)                  1.0899         calculate D2E/DX2 analytically  !
 ! R4    R(2,5)                  1.53           calculate D2E/DX2 analytically  !
 ! R5    R(5,6)                  1.229          calculate D2E/DX2 analytically  !
 ! R6    R(5,7)                  1.3351         calculate D2E/DX2 analytically  !
 ! R7    R(7,8)                  1.01           calculate D2E/DX2 analytically  !
 ! R8    R(7,9)                  1.449          calculate D2E/DX2 analytically  !
 ! R9    R(9,10)                 1.09           calculate D2E/DX2 analytically  !
 ! R10   R(9,11)                 1.525          calculate D2E/DX2 analytically  !
 ! R11   R(9,15)                 1.522          calculate D2E/DX2 analytically  !
 ! R12   R(11,12)                1.09           calculate D2E/DX2 analytically  !
 ! R13   R(11,13)                1.09           calculate D2E/DX2 analytically  !
 ! R14   R(11,14)                1.0899         calculate D2E/DX2 analytically  !
 ! R15   R(15,16)                1.229          calculate D2E/DX2 analytically  !
 ! R16   R(15,17)                1.335          calculate D2E/DX2 analytically  !
 ! R17   R(17,18)                1.01           calculate D2E/DX2 analytically  !
 ! R18   R(17,19)                1.4491         calculate D2E/DX2 analytically  !
 ! R19   R(19,20)                1.09           calculate D2E/DX2 analytically  !
 ! R20   R(19,21)                1.09           calculate D2E/DX2 analytically  !
 ! R21   R(19,22)                1.0899         calculate D2E/DX2 analytically  !
 ! A1    A(1,2,3)              109.493          calculate D2E/DX2 analytically  !
 ! A2    A(1,2,4)              109.5017         calculate D2E/DX2 analytically  !
 ! A3    A(1,2,5)              111.0973         calculate D2E/DX2 analytically  !
 ! A4    A(3,2,4)              109.4436         calculate D2E/DX2 analytically  !
 ! A5    A(3,2,5)              108.6398         calculate D2E/DX2 analytically  !
 ! A6    A(4,2,5)              108.6387         calculate D2E/DX2 analytically  !
 ! A7    A(2,5,6)              120.5054         calculate D2E/DX2 analytically  !
 ! A8    A(2,5,7)              116.5979         calculate D2E/DX2 analytically  !
 ! A9    A(6,5,7)              122.8967         calculate D2E/DX2 analytically  !
 ! A10   A(5,7,8)              119.9959         calculate D2E/DX2 analytically  !
 ! A11   A(5,7,9)              121.9004         calculate D2E/DX2 analytically  !
 ! A12   A(8,7,9)              118.1037         calculate D2E/DX2 analytically  !
 ! A13   A(7,9,10)             109.5            calculate D2E/DX2 analytically  !
 ! A14   A(7,9,11)             111.0992         calculate D2E/DX2 analytically  !
 ! A15   A(7,9,15)             111.0966         calculate D2E/DX2 analytically  !
 ! A16   A(10,9,11)            108.6382         calculate D2E/DX2 analytically  !
 ! A17   A(10,9,15)            108.6373         calculate D2E/DX2 analytically  !
 ! A18   A(11,9,15)            107.7947         calculate D2E/DX2 analytically  !
 ! A19   A(9,11,12)            109.5007         calculate D2E/DX2 analytically  !
 ! A20   A(9,11,13)            109.4959         calculate D2E/DX2 analytically  !
 ! A21   A(9,11,14)            109.4978         calculate D2E/DX2 analytically  !
 ! A22   A(12,11,13)           109.441          calculate D2E/DX2 analytically  !
 ! A23   A(12,11,14)           109.4482         calculate D2E/DX2 analytically  !
 ! A24   A(13,11,14)           109.4436         calculate D2E/DX2 analytically  !
 ! A25   A(9,15,16)            120.501          calculate D2E/DX2 analytically  !
 ! A26   A(9,15,17)            116.5998         calculate D2E/DX2 analytically  !
 ! A27   A(16,15,17)           122.8992         calculate D2E/DX2 analytically  !
 ! A28   A(15,17,18)           120.001          calculate D2E/DX2 analytically  !
 ! A29   A(15,17,19)           121.9017         calculate D2E/DX2 analytically  !
 ! A30   A(18,17,19)           118.0973         calculate D2E/DX2 analytically  !
 ! A31   A(17,19,20)           109.4951         calculate D2E/DX2 analytically  !
 ! A32   A(17,19,21)           109.5019         calculate D2E/DX2 analytically  !
 ! A33   A(17,19,22)           109.497          calculate D2E/DX2 analytically  !
 ! A34   A(20,19,21)           109.443          calculate D2E/DX2 analytically  !
 ! A35   A(20,19,22)           109.4435         calculate D2E/DX2 analytically  !
 ! A36   A(21,19,22)           109.4467         calculate D2E/DX2 analytically  !
 ! D1    D(1,2,5,6)              0.0038         calculate D2E/DX2 analytically  !
 ! D2    D(1,2,5,7)           -179.9948         calculate D2E/DX2 analytically  !
 ! D3    D(3,2,5,6)            120.5082         calculate D2E/DX2 analytically  !
 ! D4    D(3,2,5,7)            -59.4904         calculate D2E/DX2 analytically  !
 ! D5    D(4,2,5,6)           -120.5106         calculate D2E/DX2 analytically  !
 ! D6    D(4,2,5,7)             59.4908         calculate D2E/DX2 analytically  !
 ! D7    D(2,5,7,8)             -0.0007         calculate D2E/DX2 analytically  !
 ! D8    D(2,5,7,9)           -179.9954         calculate D2E/DX2 analytically  !
 ! D9    D(6,5,7,8)           -179.9993         calculate D2E/DX2 analytically  !
 ! D10   D(6,5,7,9)              0.006          calculate D2E/DX2 analytically  !
 ! D11   D(5,7,9,10)            14.996          calculate D2E/DX2 analytically  !
 ! D12   D(5,7,9,11)           134.9986         calculate D2E/DX2 analytically  !
 ! D13   D(5,7,9,15)          -105.0038         frozen, calculate D2E/DX2 analyt!
 ! D14   D(8,7,9,10)          -164.9988         calculate D2E/DX2 analytically  !
 ! D15   D(8,7,9,11)           -44.9962         calculate D2E/DX2 analytically  !
 ! D16   D(8,7,9,15)            75.0013         calculate D2E/DX2 analytically  !
 ! D17   D(7,9,11,12)           60.0024         calculate D2E/DX2 analytically  !
 ! D18   D(7,9,11,13)          179.9986         calculate D2E/DX2 analytically  !
 ! D19   D(7,9,11,14)          -60.0038         calculate D2E/DX2 analytically  !
 ! D20   D(10,9,11,12)        -179.4843         calculate D2E/DX2 analytically  !
 ! D21   D(10,9,11,13)         -59.4881         calculate D2E/DX2 analytically  !
 ! D22   D(10,9,11,14)          60.5095         calculate D2E/DX2 analytically  !
 ! D23   D(15,9,11,12)         -61.938          calculate D2E/DX2 analytically  !
 ! D24   D(15,9,11,13)          58.0582         calculate D2E/DX2 analytically  !
 ! D25   D(15,9,11,14)         178.0558         calculate D2E/DX2 analytically  !
 ! D26   D(7,9,15,16)          -90.0012         calculate D2E/DX2 analytically  !
 ! D27   D(7,9,15,17)           90.0009         frozen, calculate D2E/DX2 analyt!
 ! D28   D(10,9,15,16)         149.4877         calculate D2E/DX2 analytically  !
 ! D29   D(10,9,15,17)         -30.5102         calculate D2E/DX2 analytically  !
 ! D30   D(11,9,15,16)          31.9408         calculate D2E/DX2 analytically  !
 ! D31   D(11,9,15,17)        -148.0571         calculate D2E/DX2 analytically  !
 ! D32   D(9,15,17,18)          -0.0048         calculate D2E/DX2 analytically  !
 ! D33   D(9,15,17,19)        -179.9994         calculate D2E/DX2 analytically  !
 ! D34   D(16,15,17,18)        179.9974         calculate D2E/DX2 analytically  !
 ! D35   D(16,15,17,19)          0.0028         calculate D2E/DX2 analytically  !
 ! D36   D(15,17,19,20)         -0.0031         calculate D2E/DX2 analytically  !
 ! D37   D(15,17,19,21)        119.9958         calculate D2E/DX2 analytically  !
 ! D38   D(15,17,19,22)       -119.9997         calculate D2E/DX2 analytically  !
 ! D39   D(18,17,19,20)       -179.9978         calculate D2E/DX2 analytically  !
 ! D40   D(18,17,19,21)        -59.9989         calculate D2E/DX2 analytically  !
 ! D41   D(18,17,19,22)         60.0057         calculate D2E/DX2 analytically  !
 --------------------------------------------------------------------------------
 Trust Radius=3.00D-01 FncErr=1.00D-07 GrdErr=1.00D-06
 Number of steps in this run= 132 maximum allowed number of steps= 132.
 GradGradGradGradGradGradGradGradGradGradGradGradGradGradGradGradGradGrad

                          Input orientation:                          
 ---------------------------------------------------------------------
 Center     Atomic      Atomic             Coordinates (Angstroms)
 Number     Number       Type             X           Y           Z
 ---------------------------------------------------------------------
      1          1           0        1.351300    2.306800    1.901300
      2          6           0        1.673100    2.748600    0.958200
      3          1           0        0.959800    3.514300    0.653100
      4          1           0        1.724200    1.974600    0.192500
      5          6           0        3.053900    3.393200    1.094800
      6          8           0        3.650600    3.368100    2.168900
      7          7           0        3.555400    3.969700    0.000000
      8          1           0        3.026700    3.964700   -0.860600
      9          6           0        4.853300    4.613900    0.000000
     10          1           0        5.407600    4.315500    0.889800
     11          6           0        5.661300    4.220800   -1.232200
     12          1           0        5.123300    4.521400   -2.131200
     13          1           0        6.630500    4.718900   -1.205800
     14          1           0        5.808500    3.140900   -1.241400
     15          6           0        4.712700    6.129400    0.000000
     16          8           0        4.655100    6.750500   -1.058900
     17          7           0        4.657500    6.724600    1.193700
     18          1           0        4.708800    6.171000    2.036900
     19          6           0        4.524200    8.161300    1.327600
     20          1           0        4.482000    8.616500    0.338100
     21          1           0        3.609100    8.392600    1.872700
     22          1           0        5.381100    8.556900    1.872700
 ---------------------------------------------------------------------
                    Distance matrix (angstroms):
                    1          2          3          4          5
     1  H    0.000000
     2  C    1.090037   0.000000
     3  H    1.780262   1.090036   0.000000
     4  H    1.780283   1.089947   1.779645   0.000000
     5  C    2.174754   1.529960   2.143600   2.143519   0.000000
     6  O    2.546517   2.400017   3.091833   3.091766   1.228972
     7  N    3.352348   2.439731   2.714971   2.714917   1.335081
     8  H    3.630935   2.572774   2.601197   2.601158   2.037386
     9  C    4.604526   3.809352   4.098171   4.098076   2.434448
    10  H    4.638058   4.050475   4.525580   4.419669   2.536250
    11  C    5.662007   4.782360   5.114450   4.751415   3.591432
    12  H    5.949243   4.958941   5.108944   4.841452   3.995288
    13  H    6.583483   5.756804   6.087972   5.792944   4.454471
    14  H    5.517148   4.700391   5.219047   4.483060   3.620678
    15  C    5.433804   4.646195   4.620557   5.121577   3.381863
    16  O    6.278881   5.382956   5.201844   5.741550   4.298108
    17  N    5.563148   4.977015   4.926587   5.671785   3.698586
    18  H    5.120863   4.700201   4.798745   5.469865   3.367851
    19  C    6.683681   6.128829   5.895295   6.885035   4.995073
    20  H    7.215067   6.535036   6.207863   7.193156   5.467625
    21  H    6.491182   6.036484   5.683663   6.896858   5.089929
    22  H    7.436656   6.951397   6.816387   7.715093   5.717061
                    6          7          8          9         10
     6  O    0.000000
     7  N    2.252801   0.000000
     8  H    3.150088   1.010040   0.000000
     9  C    2.775362   1.448978   2.120981   0.000000
    10  H    2.370804   2.083739   2.975844   1.089970   0.000000
    11  C    4.041966   2.452791   2.672974   1.525027   2.139209
    12  H    4.689329   2.702720   2.513975   2.150225   3.041326
    13  H    4.700326   3.386959   3.698020   2.150214   2.459625
    14  H    4.042066   2.702673   2.926101   2.150165   2.466256
    15  C    3.668373   2.450234   2.875614   1.522008   2.136554
    16  O    4.782086   3.172295   3.232908   2.392825   3.208257
    17  N    3.637438   3.198284   3.807454   2.432758   2.541411
    18  H    2.998910   3.213256   4.011574   2.567957   2.290642
    19  C    4.944262   4.502289   4.964089   3.801957   3.970169
    20  H    5.620388   4.750332   5.019365   4.033978   4.433927
    21  H    5.033394   4.803325   5.236069   4.397000   4.563271
    22  H    5.477774   5.280397   5.839729   4.396911   4.353880
                   11         12         13         14         15
    11  C    0.000000
    12  H    1.089957   0.000000
    13  H    1.090023   1.779613   0.000000
    14  H    1.089925   1.779613   1.779617   0.000000
    15  C    2.461892   2.701161   2.668599   3.416575   0.000000
    16  O    2.727976   2.517524   2.837461   3.793791   1.228964
    17  N    3.627895   4.015722   3.697724   4.483014   1.335002
    18  H    3.923971   4.501783   4.039385   4.597619   2.037328
    19  C    4.834575   5.056787   4.764948   5.783909   2.434476
    20  H    4.814433   4.824785   4.710729   5.851207   2.520556
    21  H    5.590693   5.771499   5.665871   6.489633   3.137995
    22  H    5.340476   5.690601   5.076259   6.262056   3.137917
                   16         17         18         19         20
    16  O    0.000000
    17  N    2.252750   0.000000
    18  H    3.150029   1.009995   0.000000
    19  C    2.775405   1.449070   2.120962   0.000000
    20  H    2.337419   2.083780   2.986274   1.089999   0.000000
    21  H    3.519217   2.083844   2.484312   1.089973   1.779630
    22  H    3.519153   2.083737   2.484244   1.089913   1.779587
                   21         22
    21  H    0.000000
    22  H    1.779601   0.000000
 Stoichiometry    C6H12N2O2
 Framework group  C1[X(C6H12N2O2)]
 Deg. of freedom    60
 Full point group                 C1      NOp   1
 Largest Abelian subgroup         C1      NOp   1
 Largest concise Abelian subgroup C1      NOp   1
                         Standard orientation:                         
 ---------------------------------------------------------------------
 Center     Atomic      Atomic             Coordinates (Angstroms)
 Number     Number       Type             X           Y           Z
 ---------------------------------------------------------------------
      1          1           0       -3.827948   -1.464294    0.445568
      2          6           0       -3.163207   -0.712015    0.870275
      3          1           0       -2.766272   -1.071679    1.819624
      4          1           0       -3.717540    0.211790    1.035450
      5          6           0       -1.992194   -0.418226   -0.069509
      6          8           0       -1.894185   -1.003200   -1.145878
      7          7           0       -1.106831    0.491112    0.344833
      8          1           0       -1.230279    0.945526    1.238393
      9          6           0        0.045394    0.857356   -0.453780
     10          1           0       -0.091398    0.500973   -1.474718
     11          6           0        0.231991    2.370567   -0.486663
     12          1           0        0.379325    2.741131    0.527724
     13          1           0        1.103808    2.616510   -1.092960
     14          1           0       -0.653446    2.836997   -0.918380
     15          6           0        1.319447    0.243709    0.109010
     16          8           0        1.987737    0.849590    0.943666
     17          7           0        1.655096   -0.963793   -0.350890
     18          1           0        1.073303   -1.422377   -1.037409
     19          6           0        2.844421   -1.653953    0.106266
     20          1           0        3.363667   -1.037084    0.839719
     21          1           0        2.561699   -2.601724    0.564348
     22          1           0        3.503697   -1.842746   -0.740860
 ---------------------------------------------------------------------
 Rotational constants (GHZ):      1.8813383      0.8415417      0.6859996
 Standard basis: 6-31G(d) (6D, 7F)
 There are   174 symmetry adapted basis functions of A   symmetry.
 Integral buffers will be    131072 words long.
 Raffenetti 2 integral format.
 Two-electron integral symmetry is turned on.
   174 basis functions,   328 primitive gaussians,   174 cartesian basis functions
    39 alpha electrons       39 beta electrons
       nuclear repulsion energy       557.1430175799 Hartrees.
 NAtoms=   22 NActive=   22 NUniq=   22 SFac= 7.50D-01 NAtFMM=   80 NAOKFM=F Big=F
 One-electron integrals computed using PRISM.
 NBasis=   174 RedAO= T  NBF=   174
 NBsUse=   174 1.00D-06 NBFU=   174
 Harris functional with IExCor=  402 diagonalized for initial guess.
 ExpMin= 1.61D-01 ExpMax= 5.48D+03 ExpMxC= 8.25D+02 IAcc=1 IRadAn=         1 AccDes= 0.00D+00
 HarFok:  IExCor=  402 AccDes= 0.00D+00 IRadAn=         1 IDoV= 1
 ScaDFX=  1.000000  1.000000  1.000000  1.000000
 FoFCou: FMM=F IPFlag=           0 FMFlag=      100000 FMFlg1=           0
         NFxFlg=           0 DoJE=T BraDBF=F KetDBF=T FulRan=T
         Omega=  0.000000  0.000000  1.000000  0.000000  0.000000 ICntrl=     500 IOpCl=  0
         NMat0=    1 NMatS0=    1 NMatT0=    0 NMatD0=    1 NMtDS0=    0 NMtDT0=    0
         I1Cent=           4 NGrid=           0.
 Petite list used in FoFCou.
 Initial guess orbital symmetries:
       Occupied  (A) (A) (A) (A) (A) (A) (A) (A) (A) (A) (A) (A)
                 (A) (A) (A) (A) (A) (A) (A) (A) (A) (A) (A) (A)
                 (A) (A) (A) (A) (A) (A) (A) (A) (A) (A) (A) (A)
                 (A) (A) (A)
       Virtual   (A) (A) (A) (A) (A) (A) (A) (A) (A) (A) (A) (A)
                 (A) (A) (A) (A) (A) (A) (A) (A) (A) (A) (A) (A)
                 (A) (A) (A) (A) (A) (A) (A) (A) (A) (A) (A) (A)
                 (A) (A) (A) (A) (A) (A) (A) (A) (A) (A) (A) (A)
                 (A) (A) (A) (A) (A) (A) (A) (A) (A) (A) (A) (A)
                 (A) (A) (A) (A) (A) (A) (A) (A) (A) (A) (A) (A)
                 (A) (A) (A) (A) (A) (A) (A) (A) (A) (A) (A) (A)
                 (A) (A) (A) (A) (A) (A) (A) (A) (A) (A) (A) (A)
                 (A) (A) (A) (A) (A) (A) (A) (A) (A) (A) (A) (A)
                 (A) (A) (A) (A) (A) (A) (A) (A) (A) (A) (A) (A)
                 (A) (A) (A) (A) (A) (A) (A) (A) (A) (A) (A) (A)
                 (A) (A) (A)
 The electronic state of the initial guess is 1-A.
 Requested convergence on RMS density matrix=1.00D-08 within 128 cycles.
 Requested convergence on MAX density matrix=1.00D-06.
 Requested convergence on             energy=1.00D-06.
 No special actions if energy rises.
 Integral accuracy reduced to 1.0D-05 until final iterations.
 Initial convergence to 1.0D-05 achieved.  Increase integral accuracy.
 SCF Done:  E(RB3LYP) =  -495.845720399     A.U. after   15 cycles
             Convg  =    0.5886D-08             -V/T =  2.0088
 Range of M.O.s used for correlation:     1   174
 NBasis=   174 NAE=    39 NBE=    39 NFC=     0 NFV=     0
 NROrb=    174 NOA=    39 NOB=    39 NVA=   135 NVB=   135
 Symmetrizing basis deriv contribution to polar:
 IMax=3 JMax=2 DiffMx= 0.00D+00
 G2DrvN: will do    23 centers at a time, making    1 passes doing MaxLOS=2.
 Calling FoFCou, ICntrl=  3107 FMM=F I1Cent=   0 AccDes= 0.00D+00.
 FoFDir/FoFCou used for L=0 through L=2.
 End of G2Drv Frequency-dependent properties file   721 does not exist.
 End of G2Drv Frequency-dependent properties file   722 does not exist.
          IDoAtm=1111111111111111111111
          Differentiating once with respect to nuclear coordinates.
          There are    69 degrees of freedom in the 1st order CPHF.  IDoFFX=5.
     63 vectors produced by pass  0 Test12= 7.63D-11 1.45D-07 XBig12= 1.75D-01 8.00D-02.
 AX will form    63 AO Fock derivatives at one time.
     63 vectors produced by pass  1 Test12= 7.63D-11 1.45D-07 XBig12= 2.65D-02 4.42D-02.
     63 vectors produced by pass  2 Test12= 7.63D-11 1.45D-07 XBig12= 3.50D-05 1.37D-03.
     63 vectors produced by pass  3 Test12= 7.63D-11 1.45D-07 XBig12= 6.77D-08 4.51D-05.
     29 vectors produced by pass  4 Test12= 7.63D-11 1.45D-07 XBig12= 8.10D-11 1.17D-06.
 Inverted reduced A of dimension   281 with in-core refinement.
 End of Minotr Frequency-dependent properties file   721 does not exist.
 End of Minotr Frequency-dependent properties file   722 does not exist.

 **********************************************************************

            Population analysis using the SCF density.

 **********************************************************************

 Orbital symmetries:
       Occupied  (A) (A) (A) (A) (A) (A) (A) (A) (A) (A) (A) (A)
                 (A) (A) (A) (A) (A) (A) (A) (A) (A) (A) (A) (A)
                 (A) (A) (A) (A) (A) (A) (A) (A) (A) (A) (A) (A)
                 (A) (A) (A)
       Virtual   (A) (A) (A) (A) (A) (A) (A) (A) (A) (A) (A) (A)
                 (A) (A) (A) (A) (A) (A) (A) (A) (A) (A) (A) (A)
                 (A) (A) (A) (A) (A) (A) (A) (A) (A) (A) (A) (A)
                 (A) (A) (A) (A) (A) (A) (A) (A) (A) (A) (A) (A)
                 (A) (A) (A) (A) (A) (A) (A) (A) (A) (A) (A) (A)
                 (A) (A) (A) (A) (A) (A) (A) (A) (A) (A) (A) (A)
                 (A) (A) (A) (A) (A) (A) (A) (A) (A) (A) (A) (A)
                 (A) (A) (A) (A) (A) (A) (A) (A) (A) (A) (A) (A)
                 (A) (A) (A) (A) (A) (A) (A) (A) (A) (A) (A) (A)
                 (A) (A) (A) (A) (A) (A) (A) (A) (A) (A) (A) (A)
                 (A) (A) (A) (A) (A) (A) (A) (A) (A) (A) (A) (A)
                 (A) (A) (A)
 The electronic state is 1-A.
 Alpha  occ. eigenvalues --  -19.10694 -19.10328 -14.36733 -14.36219 -10.28637
 Alpha  occ. eigenvalues --  -10.27630 -10.23005 -10.21543 -10.19205 -10.17810
 Alpha  occ. eigenvalues --   -1.03509  -1.02630  -0.93237  -0.92220  -0.78479
 Alpha  occ. eigenvalues --   -0.72980  -0.71479  -0.63992  -0.59987  -0.58592
 Alpha  occ. eigenvalues --   -0.53890  -0.48654  -0.47829  -0.46260  -0.45116
 Alpha  occ. eigenvalues --   -0.44954  -0.41856  -0.41709  -0.40059  -0.39400
 Alpha  occ. eigenvalues --   -0.39060  -0.37835  -0.36489  -0.35934  -0.35389
 Alpha  occ. eigenvalues --   -0.26988  -0.25138  -0.24591  -0.23592
 Alpha virt. eigenvalues --    0.02127   0.04272   0.07723   0.08688   0.12075
 Alpha virt. eigenvalues --    0.12555   0.13206   0.14966   0.16027   0.16638
 Alpha virt. eigenvalues --    0.17035   0.17589   0.17836   0.18557   0.19830
 Alpha virt. eigenvalues --    0.21798   0.23436   0.26208   0.27062   0.31496
 Alpha virt. eigenvalues --    0.34842   0.38339   0.42017   0.49910   0.51193
 Alpha virt. eigenvalues --    0.51952   0.53710   0.54348   0.55441   0.56364
 Alpha virt. eigenvalues --    0.57052   0.60221   0.61198   0.62159   0.64755
 Alpha virt. eigenvalues --    0.67321   0.67876   0.70035   0.73624   0.75565
 Alpha virt. eigenvalues --    0.76202   0.77539   0.78061   0.81145   0.82883
 Alpha virt. eigenvalues --    0.83887   0.85076   0.86829   0.87656   0.88332
 Alpha virt. eigenvalues --    0.89239   0.90212   0.90719   0.91962   0.92554
 Alpha virt. eigenvalues --    0.94218   0.95004   0.95500   0.97783   1.00947
 Alpha virt. eigenvalues --    1.04117   1.06579   1.10154   1.11028   1.18109
 Alpha virt. eigenvalues --    1.20002   1.23708   1.27592   1.32256   1.36003
 Alpha virt. eigenvalues --    1.37503   1.39410   1.42919   1.46503   1.50679
 Alpha virt. eigenvalues --    1.51822   1.53651   1.58376   1.63707   1.68799
 Alpha virt. eigenvalues --    1.71607   1.74561   1.79302   1.81435   1.82450
 Alpha virt. eigenvalues --    1.85275   1.85750   1.86867   1.89578   1.94206
 Alpha virt. eigenvalues --    1.95075   1.96528   1.97176   2.01452   2.03488
 Alpha virt. eigenvalues --    2.05323   2.07617   2.10374   2.15242   2.16287
 Alpha virt. eigenvalues --    2.19847   2.21135   2.24301   2.29151   2.29971
 Alpha virt. eigenvalues --    2.30206   2.33739   2.36387   2.37783   2.39885
 Alpha virt. eigenvalues --    2.42799   2.48174   2.52923   2.61424   2.63463
 Alpha virt. eigenvalues --    2.64622   2.68909   2.75929   2.79375   2.90950
 Alpha virt. eigenvalues --    2.91879   2.97221   3.00678   3.16743   3.17900
 Alpha virt. eigenvalues --    3.96467   4.00878   4.04543   4.16187   4.19945
 Alpha virt. eigenvalues --    4.24022   4.28606   4.41570   4.47091   4.63465
          Condensed to atoms (all electrons):
              1          2          3          4          5          6
     1  H    0.499989   0.361432  -0.021327  -0.021147  -0.018064   0.004953
     2  C    0.361432   5.334283   0.351844   0.350574   0.349506  -0.082348
     3  H   -0.021327   0.351844   0.548576  -0.026603  -0.025875   0.001414
     4  H   -0.021147   0.350574  -0.026603   0.550006  -0.025265   0.001514
     5  C   -0.018064   0.349506  -0.025875  -0.025265   4.335441   0.605296
     6  O    0.004953  -0.082348   0.001414   0.001514   0.605296   8.076426
     7  N    0.004416  -0.132694   0.004278   0.004225   0.230517  -0.106949
     8  H   -0.000132  -0.000257   0.000940   0.001017  -0.019390   0.003356
     9  C   -0.000139   0.007145  -0.000232  -0.000224  -0.016968   0.000374
    10  H   -0.000009   0.001084  -0.000023  -0.000051  -0.001399   0.016761
    11  C    0.000002  -0.000200  -0.000011   0.000017   0.004641   0.000722
    12  H    0.000000  -0.000005   0.000000   0.000002  -0.000218  -0.000016
    13  H    0.000000   0.000004   0.000000   0.000000  -0.000058  -0.000002
    14  H    0.000000  -0.000020   0.000000   0.000001   0.000312   0.000010
    15  C    0.000002  -0.000149   0.000047  -0.000007  -0.001901  -0.000808
    16  O    0.000000   0.000000   0.000000   0.000000  -0.000045  -0.000003
    17  N    0.000001  -0.000029   0.000007   0.000000   0.002030  -0.001198
    18  H   -0.000001   0.000116  -0.000017   0.000000   0.001445   0.005974
    19  C    0.000000   0.000000   0.000000   0.000000  -0.000056   0.000018
    20  H    0.000000   0.000000   0.000000   0.000000  -0.000002   0.000000
    21  H    0.000000   0.000000   0.000000   0.000000  -0.000002   0.000000
    22  H    0.000000   0.000000   0.000000   0.000000   0.000001   0.000000
              7          8          9         10         11         12
     1  H    0.004416  -0.000132  -0.000139  -0.000009   0.000002   0.000000
     2  C   -0.132694  -0.000257   0.007145   0.001084  -0.000200  -0.000005
     3  H    0.004278   0.000940  -0.000232  -0.000023  -0.000011   0.000000
     4  H    0.004225   0.001017  -0.000224  -0.000051   0.000017   0.000002
     5  C    0.230517  -0.019390  -0.016968  -0.001399   0.004641  -0.000218
     6  O   -0.106949   0.003356   0.000374   0.016761   0.000722  -0.000016
     7  N    7.155930   0.301256   0.256895  -0.044773  -0.053506  -0.004728
     8  H    0.301256   0.402833  -0.030268   0.004879  -0.002530   0.004761
     9  C    0.256895  -0.030268   5.109563   0.357374   0.350390  -0.029839
    10  H   -0.044773   0.004879   0.357374   0.556485  -0.036835   0.004985
    11  C   -0.053506  -0.002530   0.350390  -0.036835   5.116681   0.369311
    12  H   -0.004728   0.004761  -0.029839   0.004985   0.369311   0.539030
    13  H    0.004179  -0.000098  -0.028125  -0.002254   0.372663  -0.022755
    14  H   -0.000345   0.000039  -0.033873  -0.003789   0.361595  -0.030843
    15  C   -0.050270  -0.000695   0.312755  -0.039997  -0.040049  -0.008768
    16  O   -0.001165   0.001552  -0.093275   0.003065  -0.001846   0.012043
    17  N    0.000365  -0.000029  -0.113978   0.004391   0.004229   0.000495
    18  H   -0.002091  -0.000002   0.001647   0.002725   0.000054  -0.000022
    19  C   -0.000224   0.000011   0.007131  -0.000189  -0.000217   0.000001
    20  H   -0.000026  -0.000003   0.001280  -0.000059  -0.000015  -0.000013
    21  H    0.000044  -0.000001  -0.000163   0.000003  -0.000002   0.000000
    22  H   -0.000006   0.000000  -0.000172  -0.000029   0.000015   0.000000
             13         14         15         16         17         18
     1  H    0.000000   0.000000   0.000002   0.000000   0.000001  -0.000001
     2  C    0.000004  -0.000020  -0.000149   0.000000  -0.000029   0.000116
     3  H    0.000000   0.000000   0.000047   0.000000   0.000007  -0.000017
     4  H    0.000000   0.000001  -0.000007   0.000000   0.000000   0.000000
     5  C   -0.000058   0.000312  -0.001901  -0.000045   0.002030   0.001445
     6  O   -0.000002   0.000010  -0.000808  -0.000003  -0.001198   0.005974
     7  N    0.004179  -0.000345  -0.050270  -0.001165   0.000365  -0.002091
     8  H   -0.000098   0.000039  -0.000695   0.001552  -0.000029  -0.000002
     9  C   -0.028125  -0.033873   0.312755  -0.093275  -0.113978   0.001647
    10  H   -0.002254  -0.003789  -0.039997   0.003065   0.004391   0.002725
    11  C    0.372663   0.361595  -0.040049  -0.001846   0.004229   0.000054
    12  H   -0.022755  -0.030843  -0.008768   0.012043   0.000495  -0.000022
    13  H    0.544070  -0.026652  -0.001013  -0.000364   0.000073   0.000020
    14  H   -0.026652   0.580982   0.006019   0.000705  -0.000085  -0.000018
    15  C   -0.001013   0.006019   4.373189   0.584491   0.294741  -0.017214
    16  O   -0.000364   0.000705   0.584491   8.112611  -0.100627   0.003372
    17  N    0.000073  -0.000085   0.294741  -0.100627   7.059893   0.297979
    18  H    0.000020  -0.000018  -0.017214   0.003372   0.297979   0.392050
    19  C   -0.000005   0.000003  -0.028038  -0.009228   0.262871  -0.030062
    20  H    0.000000   0.000000  -0.000944   0.022072  -0.037504   0.003720
    21  H    0.000000   0.000000   0.001548   0.000547  -0.043636  -0.000812
    22  H   -0.000001   0.000000   0.001410   0.000627  -0.043114  -0.000839
             19         20         21         22
     1  H    0.000000   0.000000   0.000000   0.000000
     2  C    0.000000   0.000000   0.000000   0.000000
     3  H    0.000000   0.000000   0.000000   0.000000
     4  H    0.000000   0.000000   0.000000   0.000000
     5  C   -0.000056  -0.000002  -0.000002   0.000001
     6  O    0.000018   0.000000   0.000000   0.000000
     7  N   -0.000224  -0.000026   0.000044  -0.000006
     8  H    0.000011  -0.000003  -0.000001   0.000000
     9  C    0.007131   0.001280  -0.000163  -0.000172
    10  H   -0.000189  -0.000059   0.000003  -0.000029
    11  C   -0.000217  -0.000015  -0.000002   0.000015
    12  H    0.000001  -0.000013   0.000000   0.000000
    13  H   -0.000005   0.000000   0.000000  -0.000001
    14  H    0.000003   0.000000   0.000000   0.000000
    15  C   -0.028038  -0.000944   0.001548   0.001410
    16  O   -0.009228   0.022072   0.000547   0.000627
    17  N    0.262871  -0.037504  -0.043636  -0.043114
    18  H   -0.030062   0.003720  -0.000812  -0.000839
    19  C    4.972288   0.375949   0.382608   0.382185
    20  H    0.375949   0.477156  -0.024487  -0.024312
    21  H    0.382608  -0.024487   0.562751  -0.038267
    22  H    0.382185  -0.024312  -0.038267   0.563497
 Mulliken atomic charges:
              1
     1  H    0.190027
     2  C   -0.540286
     3  H    0.166984
     4  H    0.165941
     5  C    0.580055
     6  O   -0.525492
     7  N   -0.565327
     8  H    0.332763
     9  C   -0.057298
    10  H    0.177656
    11  C   -0.445109
    12  H    0.166578
    13  H    0.160317
    14  H    0.145956
    15  C    0.615651
    16  O   -0.534534
    17  N   -0.586876
    18  H    0.341977
    19  C   -0.315044
    20  H    0.207188
    21  H    0.159869
    22  H    0.159005
 Sum of Mulliken atomic charges =   0.00000
 Mulliken charges with hydrogens summed into heavy atoms:
              1
     2  C   -0.017334
     5  C    0.580055
     6  O   -0.525492
     7  N   -0.232565
     9  C    0.120358
    11  C    0.027742
    15  C    0.615651
    16  O   -0.534534
    17  N   -0.244898
    19  C    0.211018
 Sum of Mulliken charges with hydrogens summed into heavy atoms =   0.00000
 APT atomic charges:
              1
     1  H    0.663713
     2  C   -1.246087
     3  H    0.301606
     4  H    0.472520
     5  C    0.049719
     6  O   -0.249409
     7  N   -0.669143
     8  H    0.584451
     9  C   -0.359445
    10  H    0.369510
    11  C   -1.241150
    12  H    0.382702
    13  H    0.467125
    14  H    0.450718
    15  C   -0.164563
    16  O   -0.066854
    17  N   -0.350593
    18  H    0.452147
    19  C   -1.364511
    20  H    0.487281
    21  H    0.436422
    22  H    0.593840
 Sum of APT charges=   0.00000
 APT Atomic charges with hydrogens summed into heavy atoms:
              1
     1  H    0.000000
     2  C    0.191752
     3  H    0.000000
     4  H    0.000000
     5  C    0.049719
     6  O   -0.249409
     7  N   -0.084692
     8  H    0.000000
     9  C    0.010065
    10  H    0.000000
    11  C    0.059396
    12  H    0.000000
    13  H    0.000000
    14  H    0.000000
    15  C   -0.164563
    16  O   -0.066854
    17  N    0.101554
    18  H    0.000000
    19  C    0.153031
    20  H    0.000000
    21  H    0.000000
    22  H    0.000000
 Sum of APT charges=   0.00000
 Electronic spatial extent (au):  <R**2>=           1787.0254
 Charge=              0.0000 electrons
 Dipole moment (field-independent basis, Debye):
    X=             -0.6419    Y=             -0.4588    Z=              0.6890  Tot=              1.0475
 Quadrupole moment (field-independent basis, Debye-Ang):
   XX=            -59.8504   YY=            -58.3043   ZZ=            -61.1671
   XY=             -8.8939   XZ=            -10.5935   YZ=             -2.8326
 Traceless Quadrupole moment (field-independent basis, Debye-Ang):
   XX=             -0.0765   YY=              1.4696   ZZ=             -1.3932
   XY=             -8.8939   XZ=            -10.5935   YZ=             -2.8326
 Octapole moment (field-independent basis, Debye-Ang**2):
  XXX=             -6.1015  YYY=             -6.2508  ZZZ=              2.1353  XYY=              4.8142
  XXY=            -12.3982  XXZ=              4.8890  XZZ=              1.9465  YZZ=              1.1848
  YYZ=              0.5260  XYZ=              0.6212
 Hexadecapole moment (field-independent basis, Debye-Ang**3):
 XXXX=          -1390.8867 YYYY=           -618.6245 ZZZZ=           -227.2918 XXXY=            -30.2132
 XXXZ=            -22.4382 YYYX=             -8.4348 YYYZ=              7.1287 ZZZX=             -5.8080
 ZZZY=              6.5127 XXYY=           -336.6719 XXZZ=           -294.6329 YYZZ=           -139.1218
 XXYZ=            -14.6617 YYXZ=            -10.7291 ZZXY=            -12.7269
 N-N= 5.571430175799D+02 E-N=-2.270616865080D+03  KE= 4.915270662527D+02
  Exact polarizability:   0.000   0.000   0.000   0.000   0.000   0.000
 Approx polarizability: 107.201   7.342 116.629   6.251  24.109 112.838
 Calling FoFJK, ICntrl=    100147 FMM=F ISym2X=0 I1Cent= 0 IOpClX= 0 NMat=1 NMatS=1 NMatT=0.
 ***** Axes restored to original set *****
 -------------------------------------------------------------------
 Center     Atomic                   Forces (Hartrees/Bohr)
 Number     Number              X              Y              Z
 -------------------------------------------------------------------
      1        1           0.003379060    0.001340634    0.000823705
      2        6           0.008095230    0.004827893   -0.005175636
      3        1          -0.005674988   -0.000027650   -0.002624567
      4        1          -0.004516227   -0.003196008   -0.003535762
      5        6          -0.016100932   -0.017274644    0.033046475
      6        8           0.004407929    0.003828703    0.002853692
      7        7           0.006161500    0.006417177   -0.015230356
      8        1           0.000160027    0.001665164   -0.001404856
      9        6           0.014059951    0.001245154   -0.007663114
     10        1          -0.006290320   -0.005411201    0.003893113
     11        6          -0.003439920   -0.005717822    0.002177361
     12        1           0.002395183    0.001924712   -0.003292585
     13        1           0.002032947    0.000626697   -0.003106560
     14        1           0.001857026   -0.003361296   -0.000957452
     15        6          -0.002470303    0.000991023   -0.018912456
     16        8          -0.002281895    0.002743613   -0.004394666
     17        7           0.000483737    0.007730584    0.016173212
     18        1          -0.001126916   -0.003236249   -0.000160958
     19        6          -0.000680517   -0.000358088    0.003579689
     20        1           0.000304164   -0.003026228   -0.000610094
     21        1          -0.002788158    0.004004022    0.002265637
     22        1           0.002033421    0.004263811    0.002256176
 -------------------------------------------------------------------
 Cartesian Forces:  Max     0.033046475 RMS     0.007251373

 GradGradGradGradGradGradGradGradGradGradGradGradGradGradGradGradGradGrad
 Berny optimization.
 Internal  Forces:  Max     0.029264002 RMS     0.005527882
 Search for a local minimum.
 Step number   1 out of a maximum of  132
 All quantities printed in internal units (Hartrees-Bohrs-Radians)
 Mixed Optimization -- RFO/linear search
 Second derivative matrix not updated -- analytic derivatives used.
     Eigenvalues ---   -0.00067  -0.00023   0.00194   0.00307   0.00484
     Eigenvalues ---    0.01677   0.02070   0.02258   0.03771   0.03964
     Eigenvalues ---    0.04588   0.04815   0.05114   0.05204   0.05828
     Eigenvalues ---    0.05979   0.06407   0.06600   0.11845   0.12123
     Eigenvalues ---    0.12455   0.12741   0.13334   0.13375   0.13418
     Eigenvalues ---    0.14331   0.14527   0.16743   0.17860   0.18195
     Eigenvalues ---    0.18485   0.20062   0.21378   0.22412   0.23778
     Eigenvalues ---    0.24495   0.25402   0.30643   0.33781   0.34440
     Eigenvalues ---    0.34602   0.34933   0.35087   0.35147   0.35246
     Eigenvalues ---    0.35531   0.35736   0.35891   0.35942   0.36344
     Eigenvalues ---    0.38037   0.39517   0.46886   0.46968   0.53717
     Eigenvalues ---    0.54853   0.83059   0.831731000.000001000.00000
     Eigenvalues --- 1000.000001000.000001000.000001000.000001000.00000
     Eigenvalues --- 1000.000001000.000001000.000001000.000001000.00000
     Eigenvalues --- 1000.000001000.000001000.000001000.000001000.00000
     Eigenvalues --- 1000.000001000.000001000.000001000.000001000.00000
     Eigenvalues --- 1000.000001000.000001000.000001000.000001000.00000
     Eigenvalues --- 1000.000001000.000001000.000001000.000001000.00000
     Eigenvalues --- 1000.000001000.000001000.000001000.000001000.00000
     Eigenvalues --- 1000.000001000.000001000.00000
 RFO step:  Lambda=-9.77528036D-03 EMin=-6.67023062D-04
 Linear search not attempted -- first point.
 Maximum step size (   0.300) exceeded in Quadratic search.
    -- Step size scaled by   0.317
 Iteration  1 RMS(Cart)=  0.04757488 RMS(Int)=  0.00202501
 Iteration  2 RMS(Cart)=  0.00215619 RMS(Int)=  0.00005677
 Iteration  3 RMS(Cart)=  0.00000354 RMS(Int)=  0.00005670
 Iteration  4 RMS(Cart)=  0.00000000 RMS(Int)=  0.00005670
 Iteration  1 RMS(Cart)=  0.00001408 RMS(Int)=  0.00000459
 Iteration  2 RMS(Cart)=  0.00000782 RMS(Int)=  0.00000509
 Iteration  3 RMS(Cart)=  0.00000447 RMS(Int)=  0.00000580
 Iteration  4 RMS(Cart)=  0.00000264 RMS(Int)=  0.00000635
 Iteration  5 RMS(Cart)=  0.00000161 RMS(Int)=  0.00000674
 Iteration  6 RMS(Cart)=  0.00000102 RMS(Int)=  0.00000700
 Iteration  7 RMS(Cart)=  0.00000066 RMS(Int)=  0.00000717
 Variable       Old X    -DE/DX   Delta X   Delta X   Delta X     New X
                                 (Linear)    (Quad)   (Total)
    R1        2.05987  -0.00083   0.00000   0.00009   0.00009   2.05997
    R2        2.05987   0.00443   0.00000   0.00344   0.00344   2.06331
    R3        2.05970   0.00454   0.00000   0.00381   0.00381   2.06351
    R4        2.89121  -0.00146   0.00000  -0.00469  -0.00469   2.88651
    R5        2.32242   0.00456   0.00000  -0.00024  -0.00024   2.32218
    R6        2.52294   0.02926   0.00000   0.01735   0.01735   2.54029
    R7        1.90870   0.00111   0.00000   0.00059   0.00059   1.90929
    R8        2.73817   0.00474   0.00000   0.00643   0.00643   2.74460
    R9        2.05975   0.00146   0.00000   0.00118   0.00118   2.06093
   R10        2.88188   0.00738   0.00000   0.00208   0.00208   2.88396
   R11        2.87618   0.01366   0.00000   0.01129   0.01129   2.88747
   R12        2.05972   0.00207   0.00000   0.00247   0.00247   2.06219
   R13        2.05984   0.00202   0.00000   0.00261   0.00261   2.06245
   R14        2.05966   0.00359   0.00000   0.00266   0.00266   2.06232
   R15        2.32241   0.00528   0.00000  -0.00134  -0.00134   2.32107
   R16        2.52279   0.02527   0.00000   0.01451   0.01451   2.53730
   R17        1.90861   0.00158   0.00000   0.00119   0.00119   1.90981
   R18        2.73835   0.00564   0.00000   0.00135   0.00135   2.73969
   R19        2.05980  -0.00072   0.00000   0.00054   0.00054   2.06034
   R20        2.05975   0.00432   0.00000   0.00440   0.00440   2.06415
   R21        2.05964   0.00428   0.00000   0.00307   0.00307   2.06271
    A1        1.91101   0.00000   0.00000   0.00090   0.00094   1.91196
    A2        1.91116  -0.00023   0.00000  -0.00383  -0.00384   1.90732
    A3        1.93901  -0.00760   0.00000  -0.01273  -0.01271   1.92631
    A4        1.91015  -0.00507   0.00000  -0.00845  -0.00853   1.90162
    A5        1.89612   0.00617   0.00000   0.01865   0.01864   1.91476
    A6        1.89610   0.00678   0.00000   0.00558   0.00553   1.90164
    A7        2.10322   0.00867   0.00000   0.01184   0.01183   2.11505
    A8        2.03502  -0.00780   0.00000  -0.00830  -0.00831   2.02671
    A9        2.14495  -0.00086   0.00000  -0.00354  -0.00354   2.14141
   A10        2.09432   0.00016   0.00000   0.00080   0.00078   2.09510
   A11        2.12756   0.00272   0.00000   0.00089   0.00087   2.12844
   A12        2.06130  -0.00288   0.00000  -0.00169  -0.00171   2.05958
   A13        1.91114  -0.00364   0.00000  -0.01760  -0.01758   1.89355
   A14        1.93905   0.00098   0.00000   0.00089   0.00096   1.94000
   A15        1.93900  -0.00566   0.00000  -0.01185  -0.01188   1.92713
   A16        1.89609   0.00017   0.00000   0.00926   0.00915   1.90524
   A17        1.89608   0.00028   0.00000   0.00786   0.00760   1.90368
   A18        1.88137   0.00811   0.00000   0.01253   0.01250   1.89387
   A19        1.91115   0.00327   0.00000   0.00516   0.00515   1.91630
   A20        1.91106   0.00289   0.00000   0.00413   0.00413   1.91519
   A21        1.91110   0.00140   0.00000   0.00488   0.00486   1.91596
   A22        1.91011  -0.00413   0.00000  -0.01104  -0.01104   1.89907
   A23        1.91023  -0.00132   0.00000   0.00043   0.00040   1.91063
   A24        1.91015  -0.00212   0.00000  -0.00359  -0.00360   1.90655
   A25        2.10314   0.00627   0.00000   0.00852   0.00852   2.11166
   A26        2.03505  -0.01182   0.00000  -0.01603  -0.01603   2.01902
   A27        2.14500   0.00556   0.00000   0.00750   0.00750   2.15250
   A28        2.09441  -0.00580   0.00000  -0.01185  -0.01202   2.08239
   A29        2.12759   0.00645   0.00000   0.00552   0.00535   2.13293
   A30        2.06119  -0.00066   0.00000   0.00633   0.00615   2.06733
   A31        1.91105  -0.00622   0.00000  -0.01158  -0.01156   1.89949
   A32        1.91117   0.00490   0.00000   0.01250   0.01249   1.92366
   A33        1.91108   0.00456   0.00000   0.00523   0.00521   1.91629
   A34        1.91014  -0.00004   0.00000  -0.00336  -0.00332   1.90682
   A35        1.91015   0.00003   0.00000   0.00107   0.00107   1.91122
   A36        1.91021  -0.00324   0.00000  -0.00387  -0.00393   1.90628
    D1        0.00007  -0.00026   0.00000   0.09370   0.09373   0.09380
    D2       -3.14150   0.00029   0.00000   0.08727   0.08728  -3.05423
    D3        2.10327  -0.00098   0.00000   0.09899   0.09896   2.20222
    D4       -1.03830  -0.00042   0.00000   0.09257   0.09250  -0.94580
    D5       -2.10331   0.00035   0.00000   0.10271   0.10276  -2.00055
    D6        1.03831   0.00091   0.00000   0.09628   0.09630   1.13461
    D7       -0.00001   0.00158   0.00000   0.01973   0.01972   0.01971
    D8       -3.14151   0.00062   0.00000   0.03182   0.03179  -3.10972
    D9       -3.14158   0.00215   0.00000   0.01313   0.01316  -3.12842
   D10        0.00011   0.00119   0.00000   0.02522   0.02523   0.02534
   D11        0.26173   0.00030   0.00000  -0.00914  -0.00905   0.25268
   D12        2.35617  -0.00123   0.00000  -0.00850  -0.00847   2.34770
   D13       -1.83266   0.00588   0.00000   0.00000   0.00000  -1.83267
   D14       -2.87977  -0.00065   0.00000   0.00273   0.00279  -2.87699
   D15       -0.78533  -0.00218   0.00000   0.00337   0.00337  -0.78196
   D16        1.30902   0.00493   0.00000   0.01187   0.01183   1.32085
   D17        1.04724   0.00191   0.00000   0.01192   0.01194   1.05918
   D18        3.14157   0.00063   0.00000   0.00409   0.00410  -3.13752
   D19       -1.04726   0.00066   0.00000   0.00522   0.00523  -1.04203
   D20       -3.13259  -0.00187   0.00000  -0.00332  -0.00334  -3.13593
   D21       -1.03826  -0.00315   0.00000  -0.01115  -0.01118  -1.04945
   D22        1.05609  -0.00312   0.00000  -0.01002  -0.01005   1.04604
   D23       -1.08102   0.00300   0.00000   0.01783   0.01786  -1.06317
   D24        1.01331   0.00172   0.00000   0.01000   0.01001   1.02332
   D25        3.10766   0.00175   0.00000   0.01114   0.01115   3.11881
   D26       -1.57082  -0.00296   0.00000   0.00211   0.00210  -1.56871
   D27        1.57081  -0.00441   0.00000   0.00000   0.00000   1.57081
   D28        2.60905   0.00486   0.00000   0.02614   0.02621   2.63526
   D29       -0.53250   0.00341   0.00000   0.02403   0.02410  -0.50840
   D30        0.55747   0.00006   0.00000   0.00409   0.00403   0.56151
   D31       -2.58408  -0.00139   0.00000   0.00197   0.00193  -2.58216
   D32       -0.00008   0.00010   0.00000  -0.02231  -0.02221  -0.02229
   D33       -3.14158   0.00084   0.00000   0.01328   0.01317  -3.12842
   D34        3.14155  -0.00139   0.00000  -0.02448  -0.02437   3.11718
   D35        0.00005  -0.00064   0.00000   0.01111   0.01101   0.01105
   D36       -0.00005  -0.00042   0.00000  -0.08017  -0.08023  -0.08029
   D37        2.09432  -0.00127   0.00000  -0.08372  -0.08383   2.01049
   D38       -2.09439   0.00057   0.00000  -0.07759  -0.07763  -2.17202
   D39       -3.14155   0.00032   0.00000  -0.04523  -0.04515   3.09648
   D40       -1.04718  -0.00054   0.00000  -0.04878  -0.04874  -1.09592
   D41        1.04730   0.00130   0.00000  -0.04265  -0.04255   1.00475
         Item               Value     Threshold  Converged?
 Maximum Force            0.029264     0.000450     NO 
 RMS     Force            0.005478     0.000300     NO 
 Maximum Displacement     0.190223     0.001800     NO 
 RMS     Displacement     0.047674     0.001200     NO 
 Predicted change in Energy=-2.725338D-03
 GradGradGradGradGradGradGradGradGradGradGradGradGradGradGradGradGradGrad

                          Input orientation:                          
 ---------------------------------------------------------------------
 Center     Atomic      Atomic             Coordinates (Angstroms)
 Number     Number       Type             X           Y           Z
 ---------------------------------------------------------------------
      1          1           0        1.329847    2.395483    1.930994
      2          6           0        1.683648    2.750255    0.962876
      3          1           0        0.968467    3.465939    0.552438
      4          1           0        1.770837    1.903808    0.278547
      5          6           0        3.051590    3.414337    1.107501
      6          8           0        3.650853    3.409785    2.180310
      7          7           0        3.551268    3.987779   -0.000891
      8          1           0        3.018795    3.977891   -0.859484
      9          6           0        4.858459    4.620568   -0.016345
     10          1           0        5.401307    4.314985    0.878828
     11          6           0        5.655441    4.208118   -1.250754
     12          1           0        5.123819    4.514350   -2.153227
     13          1           0        6.633291    4.692653   -1.236881
     14          1           0        5.790793    3.125235   -1.258059
     15          6           0        4.714288    6.141734   -0.017935
     16          8           0        4.641042    6.768927   -1.071442
     17          7           0        4.672495    6.723521    1.191433
     18          1           0        4.716591    6.146404    2.019901
     19          6           0        4.522294    8.156202    1.354934
     20          1           0        4.538822    8.626340    0.371358
     21          1           0        3.573476    8.382623    1.846460
     22          1           0        5.342577    8.547263    1.959637
 ---------------------------------------------------------------------
                    Distance matrix (angstroms):
                    1          2          3          4          5
     1  H    0.000000
     2  C    1.090087   0.000000
     3  H    1.782382   1.091855   0.000000
     4  H    1.779549   1.091962   1.777377   0.000000
     5  C    2.163470   1.527477   2.156423   2.146902   0.000000
     6  O    2.545200   2.405623   3.138203   3.069060   1.228844
     7  N    3.346984   2.438918   2.692463   2.755169   1.344265
     8  H    3.625373   2.571129   2.541548   2.674759   2.046387
     9  C    4.603720   3.812659   4.097404   4.123246   2.445976
    10  H    4.622589   4.034407   4.525206   4.399366   2.526783
    11  C    5.667445   4.775005   5.076423   4.768517   3.601597
    12  H    5.963613   4.965572   5.068209   4.896013   4.017027
    13  H    6.590823   5.754200   6.066031   5.806689   4.467528
    14  H    5.531965   4.684208   5.162249   4.473599   3.630797
    15  C    5.411762   4.652838   4.638576   5.168348   3.386719
    16  O    6.253451   5.388354   5.199474   5.807747   4.304350
    17  N    5.518348   4.977177   4.973930   5.699352   3.685794
    18  H    5.054439   4.674385   4.835988   5.450633   3.326995
    19  C    6.611312   6.118487   5.939045   6.915313   4.970863
    20  H    7.180082   6.559748   6.277736   7.270681   5.469803
    21  H    6.394285   6.006309   5.712649   6.905281   5.049980
    22  H    7.344878   6.927236   6.850760   7.727799   5.685217
                    6          7          8          9         10
     6  O    0.000000
     7  N    2.258679   0.000000
     8  H    3.156358   1.010351   0.000000
     9  C    2.783810   1.452380   2.123272   0.000000
    10  H    2.361637   2.074515   2.968456   1.090596   0.000000
    11  C    4.053136   2.457286   2.675445   1.526127   2.147354
    12  H    4.708422   2.717120   2.528376   2.155914   3.051247
    13  H    4.713585   3.394611   3.703768   2.155211   2.477225
    14  H    4.059888   2.709230   2.927433   2.155719   2.476589
    15  C    3.664249   2.447943   2.874912   1.527984   2.147834
    16  O    4.778932   3.173085   3.235196   2.403319   3.225428
    17  N    3.605894   3.187956   3.805190   2.432225   2.535731
    18  H    2.941192   3.178244   3.984447   2.548450   2.263841
    19  C    4.895827   4.489643   4.962100   3.807114   3.969167
    20  H    5.592248   4.757108   5.043167   4.037164   4.425968
    21  H    4.984633   4.767374   5.199180   4.390248   4.563218
    22  H    5.413345   5.276490   5.850348   4.422421   4.368498
                   11         12         13         14         15
    11  C    0.000000
    12  H    1.091265   0.000000
    13  H    1.091401   1.774821   0.000000
    14  H    1.091334   1.782084   1.779621   0.000000
    15  C    2.478808   2.715800   2.695968   3.434537   0.000000
    16  O    2.760236   2.546851   2.882245   3.825342   1.228256
    17  N    3.641114   4.033718   3.723688   4.494248   1.342681
    18  H    3.916067   4.499381   4.048921   4.585454   2.037842
    19  C    4.864258   5.092358   4.813521   5.809256   2.445345
    20  H    4.837228   4.860475   4.737840   5.872358   2.521032
    21  H    5.599447   5.776210   5.699591   6.495742   3.130336
    22  H    5.406725   5.764364   5.171237   6.320827   3.176808
                   16         17         18         19         20
    16  O    0.000000
    17  N    2.263549   0.000000
    18  H    3.154305   1.010627   0.000000
    19  C    2.797487   1.449782   2.125845   0.000000
    20  H    2.354168   2.076322   2.983182   1.090287   0.000000
    21  H    3.501123   2.095119   2.517433   1.092300   1.779667
    22  H    3.583583   2.089302   2.481857   1.091540   1.781826
                   21         22
    21  H    0.000000
    22  H    1.780346   0.000000
 Stoichiometry    C6H12N2O2
 Framework group  C1[X(C6H12N2O2)]
 Deg. of freedom    60
 Full point group                 C1      NOp   1
 Largest Abelian subgroup         C1      NOp   1
 Largest concise Abelian subgroup C1      NOp   1
                         Standard orientation:                         
 ---------------------------------------------------------------------
 Center     Atomic      Atomic             Coordinates (Angstroms)
 Number     Number       Type             X           Y           Z
 ---------------------------------------------------------------------
      1          1           0       -3.770591   -1.523983    0.484056
      2          6           0       -3.164991   -0.701112    0.864084
      3          1           0       -2.798524   -0.947988    1.862534
      4          1           0       -3.778433    0.200249    0.924238
      5          6           0       -1.983661   -0.436078   -0.067261
      6          8           0       -1.865990   -1.037153   -1.132587
      7          7           0       -1.100155    0.488975    0.345947
      8          1           0       -1.230048    0.950873    1.235096
      9          6           0        0.048295    0.868188   -0.458209
     10          1           0       -0.100577    0.494363   -1.471862
     11          6           0        0.212868    2.384763   -0.502705
     12          1           0        0.368368    2.769407    0.506615
     13          1           0        1.078328    2.643686   -1.115155
     14          1           0       -0.680852    2.840726   -0.932091
     15          6           0        1.326042    0.258219    0.116278
     16          8           0        1.991744    0.859039    0.955604
     17          7           0        1.653999   -0.955727   -0.354438
     18          1           0        1.050387   -1.404235   -1.029611
     19          6           0        2.828200   -1.671316    0.104968
     20          1           0        3.386047   -1.030402    0.788167
     21          1           0        2.533545   -2.584288    0.627250
     22          1           0        3.458891   -1.932226   -0.746861
 ---------------------------------------------------------------------
 Rotational constants (GHZ):      1.8579091      0.8458799      0.6857933
 Standard basis: 6-31G(d) (6D, 7F)
 There are   174 symmetry adapted basis functions of A   symmetry.
 Integral buffers will be    131072 words long.
 Raffenetti 2 integral format.
 Two-electron integral symmetry is turned on.
   174 basis functions,   328 primitive gaussians,   174 cartesian basis functions
    39 alpha electrons       39 beta electrons
       nuclear repulsion energy       556.2711753362 Hartrees.
 NAtoms=   22 NActive=   22 NUniq=   22 SFac= 7.50D-01 NAtFMM=   80 NAOKFM=F Big=F
 One-electron integrals computed using PRISM.
 NBasis=   174 RedAO= T  NBF=   174
 NBsUse=   174 1.00D-06 NBFU=   174
 Initial guess read from the read-write file.
 B after Tr=     0.000000    0.000000    0.000000
         Rot=    1.000000    0.000000    0.000000    0.000000 Ang=   0.00 deg.
 Initial guess orbital symmetries:
       Occupied  (A) (A) (A) (A) (A) (A) (A) (A) (A) (A) (A) (A)
                 (A) (A) (A) (A) (A) (A) (A) (A) (A) (A) (A) (A)
                 (A) (A) (A) (A) (A) (A) (A) (A) (A) (A) (A) (A)
                 (A) (A) (A)
       Virtual   (A) (A) (A) (A) (A) (A) (A) (A) (A) (A) (A) (A)
                 (A) (A) (A) (A) (A) (A) (A) (A) (A) (A) (A) (A)
                 (A) (A) (A) (A) (A) (A) (A) (A) (A) (A) (A) (A)
                 (A) (A) (A) (A) (A) (A) (A) (A) (A) (A) (A) (A)
                 (A) (A) (A) (A) (A) (A) (A) (A) (A) (A) (A) (A)
                 (A) (A) (A) (A) (A) (A) (A) (A) (A) (A) (A) (A)
                 (A) (A) (A) (A) (A) (A) (A) (A) (A) (A) (A) (A)
                 (A) (A) (A) (A) (A) (A) (A) (A) (A) (A) (A) (A)
                 (A) (A) (A) (A) (A) (A) (A) (A) (A) (A) (A) (A)
                 (A) (A) (A) (A) (A) (A) (A) (A) (A) (A) (A) (A)
                 (A) (A) (A) (A) (A) (A) (A) (A) (A) (A) (A) (A)
                 (A) (A) (A)
 Harris functional with IExCor=  402 diagonalized for initial guess.
 ExpMin= 1.61D-01 ExpMax= 5.48D+03 ExpMxC= 8.25D+02 IAcc=1 IRadAn=         1 AccDes= 0.00D+00
 HarFok:  IExCor=  402 AccDes= 0.00D+00 IRadAn=         1 IDoV= 1
 ScaDFX=  1.000000  1.000000  1.000000  1.000000
 FoFCou: FMM=F IPFlag=           0 FMFlag=      100000 FMFlg1=           0
         NFxFlg=           0 DoJE=T BraDBF=F KetDBF=T FulRan=T
         Omega=  0.000000  0.000000  1.000000  0.000000  0.000000 ICntrl=     500 IOpCl=  0
         NMat0=    1 NMatS0=    1 NMatT0=    0 NMatD0=    1 NMtDS0=    0 NMtDT0=    0
         I1Cent=           4 NGrid=           0.
 Petite list used in FoFCou.
 Requested convergence on RMS density matrix=1.00D-08 within 128 cycles.
 Requested convergence on MAX density matrix=1.00D-06.
 Requested convergence on             energy=1.00D-06.
 No special actions if energy rises.
 Integral accuracy reduced to 1.0D-05 until final iterations.
 Initial convergence to 1.0D-05 achieved.  Increase integral accuracy.
 SCF Done:  E(RB3LYP) =  -495.848446914     A.U. after   11 cycles
             Convg  =    0.7058D-08             -V/T =  2.0090
 Calling FoFJK, ICntrl=      2127 FMM=F ISym2X=0 I1Cent= 0 IOpClX= 0 NMat=1 NMatS=1 NMatT=0.
 ***** Axes restored to original set *****
 -------------------------------------------------------------------
 Center     Atomic                   Forces (Hartrees/Bohr)
 Number     Number              X              Y              Z
 -------------------------------------------------------------------
      1        1           0.002249738    0.001037651    0.000601880
      2        6           0.005843259    0.003495097   -0.003717777
      3        1          -0.003852731   -0.000344727   -0.001975364
      4        1          -0.003083529   -0.002550844   -0.002269309
      5        6          -0.011639764   -0.010950412    0.023429192
      6        8           0.002951994    0.002801287    0.001929747
      7        7           0.004805806    0.003302605   -0.010117303
      8        1           0.000069246    0.001212348   -0.000943449
      9        6           0.010149227    0.001399688   -0.007366900
     10        1          -0.004810434   -0.003859612    0.002836225
     11        6          -0.002610070   -0.004182801    0.001664381
     12        1           0.001781223    0.001404700   -0.002305653
     13        1           0.001408575    0.000372527   -0.002193949
     14        1           0.001252132   -0.002345649   -0.000698832
     15        6          -0.001295320    0.000977297   -0.012406063
     16        8          -0.001847116    0.001925967   -0.002927373
     17        7           0.000996445    0.005362876    0.011433933
     18        1          -0.001159195   -0.002303058   -0.000198360
     19        6          -0.000701816   -0.000461523    0.002537435
     20        1           0.000253902   -0.002042797   -0.000440275
     21        1          -0.002038046    0.002791190    0.001452806
     22        1           0.001276474    0.002958189    0.001675009
 -------------------------------------------------------------------
 Cartesian Forces:  Max     0.023429192 RMS     0.005083582

 GradGradGradGradGradGradGradGradGradGradGradGradGradGradGradGradGradGrad
 Berny optimization.
 Using GEDIIS/GDIIS optimizer.
 Internal  Forces:  Max     0.020417522 RMS     0.003902283
 Search for a local minimum.
 Step number   2 out of a maximum of  132
 All quantities printed in internal units (Hartrees-Bohrs-Radians)
 Mixed Optimization -- RFO/linear search
 Update second derivatives using D2CorX and points    1    2
 DE= -2.73D-03 DEPred=-2.73D-03 R= 1.00D+00
 SS=  1.41D+00  RLast= 3.00D-01 DXNew= 5.0454D-01 9.0000D-01
 Trust test= 1.00D+00 RLast= 3.00D-01 DXMaxT set to 5.05D-01
 Use linear search instead of GDIIS.
 Linear search step of   0.594 exceeds DXMaxT=   0.505 but not scaled.
 Quartic linear search produced a step of  2.00000.
 Iteration  1 RMS(Cart)=  0.09439897 RMS(Int)=  0.00795782
 Iteration  2 RMS(Cart)=  0.00855765 RMS(Int)=  0.00033902
 Iteration  3 RMS(Cart)=  0.00006410 RMS(Int)=  0.00033538
 Iteration  4 RMS(Cart)=  0.00000002 RMS(Int)=  0.00033538
 Iteration  1 RMS(Cart)=  0.00008875 RMS(Int)=  0.00002840
 Iteration  2 RMS(Cart)=  0.00004938 RMS(Int)=  0.00003153
 Iteration  3 RMS(Cart)=  0.00002815 RMS(Int)=  0.00003594
 Iteration  4 RMS(Cart)=  0.00001652 RMS(Int)=  0.00003933
 Iteration  5 RMS(Cart)=  0.00001001 RMS(Int)=  0.00004167
 Iteration  6 RMS(Cart)=  0.00000624 RMS(Int)=  0.00004323
 Iteration  7 RMS(Cart)=  0.00000399 RMS(Int)=  0.00004426
 Iteration  8 RMS(Cart)=  0.00000259 RMS(Int)=  0.00004495
 Iteration  9 RMS(Cart)=  0.00000171 RMS(Int)=  0.00004540
 Iteration 10 RMS(Cart)=  0.00000114 RMS(Int)=  0.00004570
 Iteration 11 RMS(Cart)=  0.00000076 RMS(Int)=  0.00004590
 Variable       Old X    -DE/DX   Delta X   Delta X   Delta X     New X
                                 (Linear)    (Quad)   (Total)
    R1        2.05997  -0.00053   0.00019   0.00000   0.00019   2.06016
    R2        2.06331   0.00304   0.00687   0.00000   0.00687   2.07018
    R3        2.06351   0.00315   0.00762   0.00000   0.00762   2.07112
    R4        2.88651  -0.00105  -0.00938   0.00000  -0.00938   2.87713
    R5        2.32218   0.00311  -0.00048   0.00000  -0.00048   2.32169
    R6        2.54029   0.02042   0.03471   0.00000   0.03471   2.57500
    R7        1.90929   0.00075   0.00117   0.00000   0.00117   1.91046
    R8        2.74460   0.00334   0.01286   0.00000   0.01286   2.75746
    R9        2.06093   0.00101   0.00237   0.00000   0.00237   2.06330
   R10        2.88396   0.00510   0.00416   0.00000   0.00416   2.88812
   R11        2.88747   0.00959   0.02258   0.00000   0.02258   2.91006
   R12        2.06219   0.00143   0.00494   0.00000   0.00494   2.06713
   R13        2.06245   0.00140   0.00521   0.00000   0.00521   2.06766
   R14        2.06232   0.00249   0.00532   0.00000   0.00532   2.06765
   R15        2.32107   0.00360  -0.00268   0.00000  -0.00268   2.31839
   R16        2.53730   0.01760   0.02902   0.00000   0.02902   2.56632
   R17        1.90981   0.00110   0.00239   0.00000   0.00239   1.91219
   R18        2.73969   0.00392   0.00269   0.00000   0.00269   2.74238
   R19        2.06034  -0.00048   0.00109   0.00000   0.00109   2.06143
   R20        2.06415   0.00300   0.00879   0.00000   0.00879   2.07294
   R21        2.06271   0.00295   0.00615   0.00000   0.00615   2.06886
    A1        1.91196  -0.00001   0.00189   0.00000   0.00215   1.91411
    A2        1.90732  -0.00021  -0.00768   0.00000  -0.00771   1.89961
    A3        1.92631  -0.00525  -0.02541   0.00000  -0.02529   1.90102
    A4        1.90162  -0.00360  -0.01707   0.00000  -0.01754   1.88408
    A5        1.91476   0.00429   0.03728   0.00000   0.03717   1.95193
    A6        1.90164   0.00479   0.01107   0.00000   0.01080   1.91244
    A7        2.11505   0.00595   0.02367   0.00000   0.02363   2.13868
    A8        2.02671  -0.00532  -0.01662   0.00000  -0.01666   2.01005
    A9        2.14141  -0.00063  -0.00709   0.00000  -0.00713   2.13428
   A10        2.09510   0.00013   0.00156   0.00000   0.00144   2.09655
   A11        2.12844   0.00185   0.00174   0.00000   0.00162   2.13006
   A12        2.05958  -0.00197  -0.00343   0.00000  -0.00355   2.05604
   A13        1.89355  -0.00291  -0.03517   0.00000  -0.03509   1.85847
   A14        1.94000   0.00100   0.00192   0.00000   0.00229   1.94229
   A15        1.92713  -0.00426  -0.02375   0.00000  -0.02388   1.90325
   A16        1.90524   0.00015   0.01830   0.00000   0.01765   1.92290
   A17        1.90368  -0.00019   0.01520   0.00000   0.01360   1.91728
   A18        1.89387   0.00620   0.02500   0.00000   0.02484   1.91871
   A19        1.91630   0.00229   0.01030   0.00000   0.01021   1.92651
   A20        1.91519   0.00201   0.00825   0.00000   0.00822   1.92341
   A21        1.91596   0.00099   0.00972   0.00000   0.00959   1.92555
   A22        1.89907  -0.00293  -0.02208   0.00000  -0.02207   1.87700
   A23        1.91063  -0.00092   0.00080   0.00000   0.00062   1.91125
   A24        1.90655  -0.00150  -0.00720   0.00000  -0.00727   1.89928
   A25        2.11166   0.00443   0.01704   0.00000   0.01704   2.12870
   A26        2.01902  -0.00821  -0.03205   0.00000  -0.03206   1.98697
   A27        2.15250   0.00378   0.01501   0.00000   0.01500   2.16750
   A28        2.08239  -0.00405  -0.02404   0.00000  -0.02500   2.05739
   A29        2.13293   0.00444   0.01069   0.00000   0.00966   2.14259
   A30        2.06733  -0.00041   0.01229   0.00000   0.01119   2.07852
   A31        1.89949  -0.00425  -0.02311   0.00000  -0.02298   1.87651
   A32        1.92366   0.00342   0.02498   0.00000   0.02490   1.94856
   A33        1.91629   0.00316   0.01041   0.00000   0.01025   1.92654
   A34        1.90682  -0.00005  -0.00665   0.00000  -0.00644   1.90038
   A35        1.91122  -0.00001   0.00215   0.00000   0.00220   1.91342
   A36        1.90628  -0.00228  -0.00786   0.00000  -0.00820   1.89808
    D1        0.09380  -0.00012   0.18746   0.00000   0.18765   0.28145
    D2       -3.05423   0.00030   0.17455   0.00000   0.17459  -2.87963
    D3        2.20222  -0.00071   0.19791   0.00000   0.19770   2.39992
    D4       -0.94580  -0.00029   0.18500   0.00000   0.18464  -0.76116
    D5       -2.00055   0.00034   0.20551   0.00000   0.20576  -1.79479
    D6        1.13461   0.00076   0.19260   0.00000   0.19270   1.32732
    D7        0.01971   0.00138   0.03944   0.00000   0.03940   0.05911
    D8       -3.10972   0.00033   0.06359   0.00000   0.06341  -3.04631
    D9       -3.12842   0.00183   0.02632   0.00000   0.02650  -3.10192
   D10        0.02534   0.00078   0.05047   0.00000   0.05051   0.07585
   D11        0.25268   0.00052  -0.01810   0.00000  -0.01752   0.23516
   D12        2.34770  -0.00054  -0.01693   0.00000  -0.01671   2.33099
   D13       -1.83267   0.00508   0.00000   0.00000   0.00000  -1.83267
   D14       -2.87699  -0.00052   0.00557   0.00000   0.00593  -2.87106
   D15       -0.78196  -0.00158   0.00674   0.00000   0.00674  -0.77522
   D16        1.32085   0.00404   0.02367   0.00000   0.02345   1.34430
   D17        1.05918   0.00155   0.02387   0.00000   0.02399   1.08317
   D18       -3.13752   0.00060   0.00819   0.00000   0.00824  -3.12929
   D19       -1.04203   0.00063   0.01046   0.00000   0.01050  -1.03154
   D20       -3.13593  -0.00133  -0.00669   0.00000  -0.00679   3.14046
   D21       -1.04945  -0.00228  -0.02237   0.00000  -0.02255  -1.07200
   D22        1.04604  -0.00225  -0.02010   0.00000  -0.02029   1.02575
   D23       -1.06317   0.00212   0.03571   0.00000   0.03585  -1.02731
   D24        1.02332   0.00117   0.02003   0.00000   0.02010   1.04342
   D25        3.11881   0.00120   0.02230   0.00000   0.02236   3.14117
   D26       -1.56871  -0.00249   0.00421   0.00000   0.00418  -1.56453
   D27        1.57081  -0.00384   0.00000   0.00000   0.00000   1.57081
   D28        2.63526   0.00376   0.05242   0.00000   0.05279   2.68805
   D29       -0.50840   0.00241   0.04821   0.00000   0.04861  -0.45979
   D30        0.56151   0.00010   0.00807   0.00000   0.00777   0.56927
   D31       -2.58216  -0.00125   0.00385   0.00000   0.00358  -2.57857
   D32       -0.02229   0.00013  -0.04442   0.00000  -0.04379  -0.06608
   D33       -3.12842   0.00083   0.02633   0.00000   0.02567  -3.10275
   D34        3.11718  -0.00125  -0.04874   0.00000  -0.04807   3.06910
   D35        0.01105  -0.00056   0.02201   0.00000   0.02138   0.03243
   D36       -0.08029  -0.00042  -0.16047   0.00000  -0.16080  -0.24109
   D37        2.01049  -0.00106  -0.16765   0.00000  -0.16827   1.84222
   D38       -2.17202   0.00029  -0.15526   0.00000  -0.15551  -2.32753
   D39        3.09648   0.00034  -0.09030   0.00000  -0.08984   3.00664
   D40       -1.09592  -0.00030  -0.09749   0.00000  -0.09731  -1.19323
   D41        1.00475   0.00105  -0.08510   0.00000  -0.08454   0.92020
         Item               Value     Threshold  Converged?
 Maximum Force            0.020418     0.000450     NO 
 RMS     Force            0.003828     0.000300     NO 
 Maximum Displacement     0.366177     0.001800     NO 
 RMS     Displacement     0.095280     0.001200     NO 
 Predicted change in Energy=-2.871150D-03
 GradGradGradGradGradGradGradGradGradGradGradGradGradGradGradGradGradGrad

                          Input orientation:                          
 ---------------------------------------------------------------------
 Center     Atomic      Atomic             Coordinates (Angstroms)
 Number     Number       Type             X           Y           Z
 ---------------------------------------------------------------------
      1          1           0        1.280585    2.575552    1.959478
      2          6           0        1.706797    2.752927    0.971860
      3          1           0        1.006903    3.341250    0.368431
      4          1           0        1.855767    1.788838    0.472320
      5          6           0        3.047199    3.457042    1.131823
      6          8           0        3.650611    3.494199    2.201375
      7          7           0        3.542970    4.024229   -0.003639
      8          1           0        3.003198    4.004157   -0.858219
      9          6           0        4.867633    4.634459   -0.049513
     10          1           0        5.386893    4.316134    0.856672
     11          6           0        5.643245    4.184396   -1.287112
     12          1           0        5.125253    4.500649   -2.197191
     13          1           0        6.637070    4.641989   -1.297323
     14          1           0        5.755707    3.096045   -1.290184
     15          6           0        4.715178    6.166823   -0.053959
     16          8           0        4.611277    6.806172   -1.095867
     17          7           0        4.700367    6.720660    1.185927
     18          1           0        4.728766    6.097684    1.982805
     19          6           0        4.518556    8.143122    1.408513
     20          1           0        4.654925    8.645517    0.449877
     21          1           0        3.514087    8.368199    1.787575
     22          1           0        5.257014    8.514159    2.126553
 ---------------------------------------------------------------------
                    Distance matrix (angstroms):
                    1          2          3          4          5
     1  H    0.000000
     2  C    1.090187   0.000000
     3  H    1.786792   1.095492   0.000000
     4  H    1.778030   1.095992   1.772384   0.000000
     5  C    2.140785   1.522512   2.181509   2.153452   0.000000
     6  O    2.553321   2.416527   3.220601   3.019826   1.228588
     7  N    3.327293   2.437076   2.652647   2.840804   1.362632
     8  H    3.598295   2.568156   2.435018   2.827467   2.064350
     9  C    4.598049   3.817624   4.092958   4.176267   2.468977
    10  H    4.594298   3.999999   4.513656   4.359335   2.507572
    11  C    5.671113   4.758958   4.994736   4.814488   3.622120
    12  H    5.980415   4.978278   4.988730   5.016946   4.060759
    13  H    6.600670   5.746767   6.013771   5.842342   4.493554
    14  H    5.554992   4.650618   5.036097   4.474902   3.651364
    15  C    5.361677   4.664477   4.681194   5.255469   3.395754
    16  O    6.190863   5.398175   5.209737   5.935123   4.315740
    17  N    5.429108   4.974956   5.072513   5.737931   3.658838
    18  H    4.929088   4.619708   4.904732   5.394612   3.244199
    19  C    6.464197   6.095150   6.039159   6.952972   4.919430
    20  H    7.107006   6.609579   6.438163   7.406067   5.474496
    21  H    6.210703   5.955079   5.793976   6.911433   4.976691
    22  H    7.148913   6.865068   6.921952   7.715887   5.607781
                    6          7          8          9         10
     6  O    0.000000
     7  N    2.270375   0.000000
     8  H    3.168646   1.010972   0.000000
     9  C    2.801399   1.459183   2.127769   0.000000
    10  H    2.344884   2.055576   2.952995   1.091849   0.000000
    11  C    4.076335   2.466599   2.680724   1.528326   2.163072
[...]
    13  H    6.556623   5.738247   5.810187   6.119107   4.481446
    14  H    5.589546   4.615354   4.633761   4.791187   3.631775
    15  C    5.108149   4.669777   4.793561   5.459297   3.388821
    16  O    5.866647   5.406961   5.303504   6.252043   4.308538
    17  N    5.161282   4.966815   5.311130   5.768981   3.639746
    18  H    4.663692   4.531365   5.068194   5.239902   3.160638
    19  C    6.033913   6.023447   6.305354   6.918400   4.850690
    20  H    6.670751   6.569776   6.693682   7.498774   5.431543
    21  H    5.650495   5.818610   6.084289   6.778352   4.851741
    22  H    6.764560   6.793221   7.187790   7.619402   5.549677
                    6          7          8          9         10
     6  O    0.000000
     7  N    2.272943   0.000000
     8  H    3.171132   1.010534   0.000000
     9  C    2.802303   1.463459   2.132311   0.000000
    10  H    2.329654   2.046913   2.943202   1.092217   0.000000
    11  C    4.081944   2.467740   2.670577   1.527256   2.169931
    12  H    4.771925   2.774847   2.588924   2.167909   3.076440
    13  H    4.727415   3.412143   3.718040   2.165209   2.506290
    14  H    4.111094   2.701774   2.870816   2.167970   2.521051
    15  C    3.629887   2.436766   2.888191   1.543216   2.174362
    16  O    4.745236   3.167921   3.256921   2.430234   3.268064
    17  N    3.489339   3.155933   3.816565   2.430759   2.514955
    18  H    2.722235   3.044313   3.883701   2.495030   2.203761
    19  C    4.698099   4.413631   4.933728   3.813112   3.965036
    20  H    5.460010   4.749337   5.100191   4.060449   4.425673
    21  H    4.750467   4.592559   5.044852   4.331372   4.524572
    22  H    5.181488   5.230392   5.855051   4.494269   4.424558
                   11         12         13         14         15
    11  C    0.000000
    12  H    1.094330   0.000000
    13  H    1.094733   1.762996   0.000000
    14  H    1.094519   1.789038   1.778166   0.000000
    15  C    2.529602   2.738088   2.800751   3.484142   0.000000
    16  O    2.855604   2.604310   3.056198   3.907990   1.225727
    17  N    3.679314   4.064170   3.812537   4.530143   1.364015
    18  H    3.906427   4.480549   4.108093   4.569240   2.034594
    19  C    4.950988   5.160010   4.996230   5.882962   2.467744
    20  H    4.940336   4.955709   4.914404   5.966817   2.540660
    21  H    5.593716   5.735793   5.806359   6.469722   3.083004
    22  H    5.601634   5.935818   5.486538   6.505531   3.273937
                   16         17         18         19         20
    16  O    0.000000
    17  N    2.291402   0.000000
    18  H    3.156452   1.013294   0.000000
    19  C    2.843700   1.452657   2.132353   0.000000
    20  H    2.418896   2.063970   2.977572   1.090907   0.000000
    21  H    3.427870   2.122514   2.550204   1.097911   1.778694
    22  H    3.730331   2.101340   2.504871   1.094872   1.784233
                   21         22
    21  H    0.000000
    22  H    1.782755   0.000000
 Stoichiometry    C6H12N2O2
 Framework group  C1[X(C6H12N2O2)]
 Deg. of freedom    60
 Full point group                 C1      NOp   1
 Largest Abelian subgroup         C1      NOp   1
 Largest concise Abelian subgroup C1      NOp   1
                         Standard orientation:                         
 ---------------------------------------------------------------------
 Center     Atomic      Atomic             Coordinates (Angstroms)
 Number     Number       Type             X           Y           Z
 ---------------------------------------------------------------------
      1          1           0       -3.231897   -1.752192    1.068488
      2          6           0       -3.159179   -0.686879    0.831805
      3          1           0       -3.134568   -0.112889    1.763372
      4          1           0       -4.060673   -0.414249    0.273311
      5          6           0       -1.947909   -0.462081   -0.057931
      6          8           0       -1.771039   -1.106469   -1.089955
      7          7           0       -1.066867    0.492607    0.363789
      8          1           0       -1.225829    0.981146    1.233984
      9          6           0        0.062942    0.917661   -0.463601
     10          1           0       -0.131920    0.507783   -1.457063
     11          6           0        0.166120    2.440504   -0.516656
     12          1           0        0.404165    2.842918    0.472766
     13          1           0        0.972145    2.742263   -1.193195
     14          1           0       -0.772183    2.875624   -0.874747
     15          6           0        1.349849    0.297615    0.120289
     16          8           0        2.018845    0.862961    0.977748
     17          7           0        1.645470   -0.926421   -0.404001
     18          1           0        0.937275   -1.360374   -0.984440
     19          6           0        2.725343   -1.751206    0.109631
     20          1           0        3.395557   -1.102889    0.675827
     21          1           0        2.355379   -2.542317    0.774972
     22          1           0        3.276876   -2.213743   -0.715363
 ---------------------------------------------------------------------
 Rotational constants (GHZ):      1.7860109      0.8696561      0.6892385

 **********************************************************************

            Population analysis using the SCF density.

 **********************************************************************

 Orbital symmetries:
       Occupied  (A) (A) (A) (A) (A) (A) (A) (A) (A) (A) (A) (A)
                 (A) (A) (A) (A) (A) (A) (A) (A) (A) (A) (A) (A)
                 (A) (A) (A) (A) (A) (A) (A) (A) (A) (A) (A) (A)
                 (A) (A) (A)
       Virtual   (A) (A) (A) (A) (A) (A) (A) (A) (A) (A) (A) (A)
                 (A) (A) (A) (A) (A) (A) (A) (A) (A) (A) (A) (A)
                 (A) (A) (A) (A) (A) (A) (A) (A) (A) (A) (A) (A)
                 (A) (A) (A) (A) (A) (A) (A) (A) (A) (A) (A) (A)
                 (A) (A) (A) (A) (A) (A) (A) (A) (A) (A) (A) (A)
                 (A) (A) (A) (A) (A) (A) (A) (A) (A) (A) (A) (A)
                 (A) (A) (A) (A) (A) (A) (A) (A) (A) (A) (A) (A)
                 (A) (A) (A) (A) (A) (A) (A) (A) (A) (A) (A) (A)
                 (A) (A) (A) (A) (A) (A) (A) (A) (A) (A) (A) (A)
                 (A) (A) (A) (A) (A) (A) (A) (A) (A) (A) (A) (A)
                 (A) (A) (A) (A) (A) (A) (A) (A) (A) (A) (A) (A)
                 (A) (A) (A)
 The electronic state is 1-A.
 Alpha  occ. eigenvalues --  -19.11469 -19.10976 -14.36823 -14.35785 -10.29395
 Alpha  occ. eigenvalues --  -10.28055 -10.23302 -10.21466 -10.19791 -10.18337
 Alpha  occ. eigenvalues --   -1.03591  -1.02633  -0.92835  -0.91490  -0.78122
 Alpha  occ. eigenvalues --   -0.73206  -0.71016  -0.63915  -0.59542  -0.57659
 Alpha  occ. eigenvalues --   -0.53130  -0.48518  -0.48283  -0.46261  -0.44814
 Alpha  occ. eigenvalues --   -0.44246  -0.42033  -0.41755  -0.40359  -0.39893
 Alpha  occ. eigenvalues --   -0.38794  -0.37751  -0.36542  -0.36126  -0.35727
 Alpha  occ. eigenvalues --   -0.27286  -0.25554  -0.25052  -0.23779
 Alpha virt. eigenvalues --    0.01564   0.03570   0.07366   0.09552   0.11852
 Alpha virt. eigenvalues --    0.12462   0.13061   0.15143   0.16083   0.16470
 Alpha virt. eigenvalues --    0.16840   0.17488   0.17763   0.18675   0.20073
 Alpha virt. eigenvalues --    0.21681   0.23509   0.24832   0.25484   0.30668
 Alpha virt. eigenvalues --    0.34889   0.38963   0.41094   0.50348   0.51006
 Alpha virt. eigenvalues --    0.52021   0.52966   0.53562   0.54888   0.56351
 Alpha virt. eigenvalues --    0.56463   0.60598   0.60736   0.61713   0.65178
 Alpha virt. eigenvalues --    0.66301   0.68714   0.69704   0.73132   0.76124
 Alpha virt. eigenvalues --    0.76671   0.77966   0.78239   0.81006   0.82595
 Alpha virt. eigenvalues --    0.83040   0.85086   0.86723   0.87742   0.88309
 Alpha virt. eigenvalues --    0.88592   0.89196   0.90849   0.92027   0.93198
 Alpha virt. eigenvalues --    0.94277   0.95004   0.95321   0.97093   0.99857
 Alpha virt. eigenvalues --    1.03924   1.07174   1.09054   1.13523   1.16345
 Alpha virt. eigenvalues --    1.19307   1.23446   1.26276   1.28464   1.31851
 Alpha virt. eigenvalues --    1.36881   1.37666   1.43129   1.46029   1.49370
 Alpha virt. eigenvalues --    1.50895   1.51762   1.58401   1.66845   1.68308
 Alpha virt. eigenvalues --    1.71345   1.74861   1.77556   1.81099   1.82000
 Alpha virt. eigenvalues --    1.83159   1.84129   1.87058   1.88854   1.92253
 Alpha virt. eigenvalues --    1.93971   1.95655   1.96509   1.99605   2.02208
 Alpha virt. eigenvalues --    2.04155   2.06464   2.08203   2.14543   2.18781
 Alpha virt. eigenvalues --    2.20598   2.21662   2.22347   2.26435   2.29375
 Alpha virt. eigenvalues --    2.30744   2.33316   2.35543   2.37334   2.38421
 Alpha virt. eigenvalues --    2.41951   2.48762   2.50888   2.58546   2.61701
 Alpha virt. eigenvalues --    2.63552   2.67653   2.74373   2.78342   2.88478
 Alpha virt. eigenvalues --    2.90092   2.97778   3.00164   3.12990   3.14001
 Alpha virt. eigenvalues --    3.93741   3.99171   4.04740   4.16426   4.18656
 Alpha virt. eigenvalues --    4.23566   4.27712   4.43203   4.48911   4.62290
          Condensed to atoms (all electrons):
              1          2          3          4          5          6
     1  H    0.517119   0.362139  -0.025827  -0.023191  -0.020564   0.001014
     2  C    0.362139   5.302827   0.339817   0.362614   0.348381  -0.079940
     3  H   -0.025827   0.339817   0.578032  -0.025441  -0.025144   0.003191
     4  H   -0.023191   0.362614  -0.025441   0.516288  -0.019578   0.000421
     5  C   -0.020564   0.348381  -0.025144  -0.019578   4.308804   0.570246
     6  O    0.001014  -0.079940   0.003191   0.000421   0.570246   8.098133
     7  N    0.001988  -0.111272   0.005829   0.000845   0.276738  -0.095672
     8  H   -0.000096   0.000810   0.002578  -0.000043  -0.014607   0.003218
     9  C   -0.000128   0.006647   0.000018  -0.000166  -0.024702  -0.004190
    10  H   -0.000026   0.001164  -0.000049   0.000007  -0.002128   0.018267
    11  C   -0.000001  -0.000219  -0.000032   0.000020   0.004275   0.000634
    12  H    0.000000  -0.000004   0.000003   0.000000  -0.000179  -0.000013
    13  H    0.000000   0.000005   0.000000   0.000000  -0.000059   0.000000
    14  H    0.000001  -0.000015  -0.000001  -0.000004   0.000324   0.000001
    15  C    0.000019  -0.000192  -0.000003  -0.000004  -0.001369  -0.000606
    16  O    0.000000  -0.000001   0.000000   0.000000  -0.000018  -0.000001
    17  N    0.000003  -0.000032   0.000002   0.000000   0.001908  -0.002908
    18  H   -0.000006   0.000199  -0.000011   0.000000   0.002105   0.012823
    19  C    0.000001  -0.000002   0.000000   0.000000  -0.000087   0.000030
    20  H    0.000000   0.000000   0.000000   0.000000  -0.000003   0.000000
    21  H   -0.000001   0.000001   0.000000   0.000000  -0.000003   0.000001
    22  H    0.000000   0.000000   0.000000   0.000000   0.000002  -0.000001
              7          8          9         10         11         12
     1  H    0.001988  -0.000096  -0.000128  -0.000026  -0.000001   0.000000
     2  C   -0.111272   0.000810   0.006647   0.001164  -0.000219  -0.000004
     3  H    0.005829   0.002578   0.000018  -0.000049  -0.000032   0.000003
     4  H    0.000845  -0.000043  -0.000166   0.000007   0.000020   0.000000
     5  C    0.276738  -0.014607  -0.024702  -0.002128   0.004275  -0.000179
     6  O   -0.095672   0.003218  -0.004190   0.018267   0.000634  -0.000013
     7  N    7.112684   0.296213   0.259322  -0.049808  -0.052632  -0.004080
     8  H    0.296213   0.402511  -0.029781   0.005180  -0.002033   0.004001
     9  C    0.259322  -0.029781   5.105862   0.359990   0.349668  -0.031053
    10  H   -0.049808   0.005180   0.359990   0.552631  -0.033513   0.004537
    11  C   -0.052632  -0.002033   0.349668  -0.033513   5.117349   0.369076
    12  H   -0.004080   0.004001  -0.031053   0.004537   0.369076   0.539234
    13  H    0.004047  -0.000094  -0.027471  -0.002487   0.370700  -0.025315
    14  H   -0.000085   0.000208  -0.031823  -0.003283   0.364512  -0.030211
    15  C   -0.055461  -0.000330   0.312500  -0.039146  -0.036007  -0.006998
    16  O   -0.001181   0.001357  -0.084204   0.002591  -0.000204   0.011136
    17  N    0.000612  -0.000020  -0.108724   0.004577   0.003956   0.000488
    18  H   -0.003462   0.000000   0.001712   0.002076   0.000184  -0.000029
    19  C   -0.000306   0.000015   0.006929  -0.000061  -0.000189   0.000000
    20  H   -0.000029  -0.000003   0.001070  -0.000065   0.000001  -0.000010
    21  H    0.000088  -0.000001  -0.000205   0.000017  -0.000003   0.000000
    22  H   -0.000006   0.000000  -0.000129  -0.000031   0.000006   0.000000
             13         14         15         16         17         18
     1  H    0.000000   0.000001   0.000019   0.000000   0.000003  -0.000006
     2  C    0.000005  -0.000015  -0.000192  -0.000001  -0.000032   0.000199
     3  H    0.000000  -0.000001  -0.000003   0.000000   0.000002  -0.000011
     4  H    0.000000  -0.000004  -0.000004   0.000000   0.000000   0.000000
     5  C   -0.000059   0.000324  -0.001369  -0.000018   0.001908   0.002105
     6  O    0.000000   0.000001  -0.000606  -0.000001  -0.002908   0.012823
     7  N    0.004047  -0.000085  -0.055461  -0.001181   0.000612  -0.003462
     8  H   -0.000094   0.000208  -0.000330   0.001357  -0.000020   0.000000
     9  C   -0.027471  -0.031823   0.312500  -0.084204  -0.108724   0.001712
    10  H   -0.002487  -0.003283  -0.039146   0.002591   0.004577   0.002076
    11  C    0.370700   0.364512  -0.036007  -0.000204   0.003956   0.000184
    12  H   -0.025315  -0.030211  -0.006998   0.011136   0.000488  -0.000029
    13  H    0.544817  -0.026395  -0.000549  -0.000011   0.000089   0.000017
    14  H   -0.026395   0.572531   0.004858   0.000331  -0.000083  -0.000011
    15  C   -0.000549   0.004858   4.377684   0.586300   0.288162  -0.017152
    16  O   -0.000011   0.000331   0.586300   8.086985  -0.094424   0.003104
    17  N    0.000089  -0.000083   0.288162  -0.094424   7.059302   0.290409
    18  H    0.000017  -0.000011  -0.017152   0.003104   0.290409   0.390601
    19  C   -0.000004   0.000002  -0.027376  -0.005627   0.267860  -0.029848
    20  H   -0.000002   0.000000  -0.000984   0.018367  -0.040166   0.003878
    21  H    0.000000   0.000000  -0.000075   0.000557  -0.043368  -0.000688
    22  H    0.000000   0.000000   0.002538   0.000401  -0.038430  -0.001142
             19         20         21         22
     1  H    0.000001   0.000000  -0.000001   0.000000
     2  C   -0.000002   0.000000   0.000001   0.000000
     3  H    0.000000   0.000000   0.000000   0.000000
     4  H    0.000000   0.000000   0.000000   0.000000
     5  C   -0.000087  -0.000003  -0.000003   0.000002
     6  O    0.000030   0.000000   0.000001  -0.000001
     7  N   -0.000306  -0.000029   0.000088  -0.000006
     8  H    0.000015  -0.000003  -0.000001   0.000000
     9  C    0.006929   0.001070  -0.000205  -0.000129
    10  H   -0.000061  -0.000065   0.000017  -0.000031
    11  C   -0.000189   0.000001  -0.000003   0.000006
    12  H    0.000000  -0.000010   0.000000   0.000000
    13  H   -0.000004  -0.000002   0.000000   0.000000
    14  H    0.000002   0.000000   0.000000   0.000000
    15  C   -0.027376  -0.000984  -0.000075   0.002538
    16  O   -0.005627   0.018367   0.000557   0.000401
    17  N    0.267860  -0.040166  -0.043368  -0.038430
    18  H   -0.029848   0.003878  -0.000688  -0.001142
    19  C    4.961036   0.377612   0.382853   0.378235
    20  H    0.377612   0.492943  -0.028463  -0.023117
    21  H    0.382853  -0.028463   0.571035  -0.039949
    22  H    0.378235  -0.023117  -0.039949   0.564064
 Mulliken atomic charges:
              1
     1  H    0.187555
     2  C   -0.532927
     3  H    0.147038
     4  H    0.188231
     5  C    0.595657
     6  O   -0.524650
     7  N   -0.584374
     8  H    0.330917
     9  C   -0.061142
    10  H    0.179558
    11  C   -0.455550
    12  H    0.169418
    13  H    0.162712
    14  H    0.149143
    15  C    0.614190
    16  O   -0.525459
    17  N   -0.589213
    18  H    0.345239
    19  C   -0.311075
    20  H    0.198970
    21  H    0.158202
    22  H    0.157557
 Sum of Mulliken atomic charges =   0.00000
 Mulliken charges with hydrogens summed into heavy atoms:
              1
     2  C   -0.010103
     5  C    0.595657
     6  O   -0.524650
     7  N   -0.253457
     9  C    0.118416
    11  C    0.025724
    15  C    0.614190
    16  O   -0.525459
    17  N   -0.243974
    19  C    0.203654
 Sum of Mulliken charges with hydrogens summed into heavy atoms =   0.00000
 Electronic spatial extent (au):  <R**2>=           1779.5436
 Charge=              0.0000 electrons
 Dipole moment (field-independent basis, Debye):
    X=             -1.4444    Y=             -0.1695    Z=              0.6652  Tot=              1.5992
 Quadrupole moment (field-independent basis, Debye-Ang):
   XX=            -59.2700   YY=            -58.0364   ZZ=            -61.6473
   XY=             -8.3373   XZ=             -9.4749   YZ=             -3.3727
 Traceless Quadrupole moment (field-independent basis, Debye-Ang):
   XX=              0.3813   YY=              1.6149   ZZ=             -1.9961
   XY=             -8.3373   XZ=             -9.4749   YZ=             -3.3727
 Octapole moment (field-independent basis, Debye-Ang**2):
  XXX=            -14.6763  YYY=             -4.9998  ZZZ=              2.1012  XYY=              6.0317
  XXY=            -12.6488  XXZ=              3.5911  XZZ=             -1.0304  YZZ=              1.9072
  YYZ=              1.5266  XYZ=              0.7127
 Hexadecapole moment (field-independent basis, Debye-Ang**3):
 XXXX=          -1333.2788 YYYY=           -654.7809 ZZZZ=           -226.3774 XXXY=            -27.9784
 XXXZ=            -16.8123 YYYX=             -6.3865 YYYZ=              3.4956 ZZZX=             -5.2433
 ZZZY=              8.0322 XXYY=           -338.2354 XXZZ=           -285.3813 YYZZ=           -145.6470
 XXYZ=            -17.1349 YYXZ=            -13.6571 ZZXY=            -11.8169
 N-N= 5.548414785528D+02 E-N=-2.265744652949D+03  KE= 4.912398652202D+02
 1\1\GINC-NODE005\FOpt\RB3LYP\6-31G(d)\C6H12N2O2\MANAGER\10-Feb-2017\0\
 \# b3lyp/6-31G* Opt=(ModRedundant, maxcycles=1000, calcfc) geom=nocrow
 d\\Phi Psi fixed scan\\0,1\H,1.0617456583,3.1492757112,1.7686654938\C,
 1.7319972433,2.7711549222,0.9915006463\H,1.2547916226,2.8948919662,0.0
 143356431\H,1.8794613105,1.7025237262,1.1791610919\C,3.0725167151,3.47
 67484186,1.1118603616\O,3.6896751245,3.5227115862,2.1742133315\N,3.543
 476128,4.061459961,-0.0291129329\H,2.99542864,4.0328737951,-0.87764419
 85\C,4.8831633688,4.6463654845,-0.0986465617\H,5.4017325486,4.29609884
 06,0.7965277504\C,5.6168821756,4.1968394751,-1.3604285365\H,5.11780521
 42,4.5864772326,-2.2529879021\H,6.6397592355,4.5869115676,-1.363149741
 4\H,5.6592290912,3.1042660872,-1.4100370622\C,4.7423734082,6.182664606
 3,-0.0601901406\O,4.6104234516,6.8541395547,-1.0771054784\N,4.76865493
 28,6.6958314727,1.2033389225\H,4.7210555212,6.0336143333,1.9688245056\
 C,4.5028522775,8.0972586505,1.4782249878\H,4.6353668989,8.6476922908,0
 .5457332062\H,3.4780753754,8.2565802174,1.8385827609\H,5.2035340581,8.
 4778201,2.2285338527\\Version=EM64L-G09RevA.02\State=1-A\HF=-495.85203
 69\RMSD=6.919e-09\RMSF=1.100e-03\Dipole=-0.4901686,-0.3943937,-0.00656
 09\Quadrupole=3.6486386,0.5292345,-4.177873,1.7971428,1.4882954,8.6733
 493\PG=C01 [X(C6H12N2O2)]\\@


 I LOVE MANKIND - IT'S PEOPLE I CAN'T STAND.
     -- LINUS OF PEANUTS
 Job cpu time:  0 days  1 hours 47 minutes 41.7 seconds.
 File lengths (MBytes):  RWF=    186 Int=      0 D2E=      0 Chk=      4 Scr=      2
 Normal termination of Gaussian 09 at Fri Feb 10 23:06:36 2017.
