 Entering Gaussian System, Link 0=g09
 Initial command:
 /home/steboss/Software/g09/l1.exe /tmp/Gau-24402.inp -scrdir=/tmp/
 Entering Link 1 = /home/steboss/Software/g09/l1.exe PID=     24404.
  
 Copyright (c) 1988,1990,1992,1993,1995,1998,2003,2009, Gaussian, Inc.
                  All Rights Reserved.
  
 This is part of the Gaussian(R) 09 program.  It is based on
 the Gaussian(R) 03 system (copyright 2003, Gaussian, Inc.),
 the Gaussian(R) 98 system (copyright 1998, Gaussian, Inc.),
 the Gaussian(R) 94 system (copyright 1995, Gaussian, Inc.),
 the Gaussian 92(TM) system (copyright 1992, Gaussian, Inc.),
 the Gaussian 90(TM) system (copyright 1990, Gaussian, Inc.),
 the Gaussian 88(TM) system (copyright 1988, Gaussian, Inc.),
 the Gaussian 86(TM) system (copyright 1986, Carnegie Mellon
 University), and the Gaussian 82(TM) system (copyright 1983,
 Carnegie Mellon University). Gaussian is a federally registered
 trademark of Gaussian, Inc.
  
 This software contains proprietary and confidential information,
 including trade secrets, belonging to Gaussian, Inc.
  
 This software is provided under written license and may be
 used, copied, transmitted, or stored only in accord with that
 written license.
  
 The following legend is applicable only to US Government
 contracts under FAR:
  
                    RESTRICTED RIGHTS LEGEND
  
 Use, reproduction and disclosure by the US Government is
 subject to restrictions as set forth in subparagraphs (a)
 and (c) of the Commercial Computer Software - Restricted
 Rights clause in FAR 52.227-19.
  
 Gaussian, Inc.
 340 Quinnipiac St., Bldg. 40, Wallingford CT 06492
  
  
 ---------------------------------------------------------------
 Warning -- This program may not be used in any manner that
 competes with the business of Gaussian, Inc. or will provide
 assistance to any competitor of Gaussian, Inc.  The licensee
 of this program is prohibited from giving any competitor of
 Gaussian, Inc. access to this program.  By using this program,
 the user acknowledges that Gaussian, Inc. is engaged in the
 business of creating and licensing software in the field of
 computational chemistry and represents and warrants to the
 licensee that it is not a competitor of Gaussian, Inc. and that
 it will not use this program in any manner prohibited above.
 ---------------------------------------------------------------
  

 Cite this work as:
 Gaussian 09, Revision A.02,
 M. J. Frisch, G. W. Trucks, H. B. Schlegel, G. E. Scuseria, 
 M. A. Robb, J. R. Cheeseman, G. Scalmani, V. Barone, B. Mennucci, 
 G. A. Petersson, H. Nakatsuji, M. Caricato, X. Li, H. P. Hratchian, 
 A. F. Izmaylov, J. Bloino, G. Zheng, J. L. Sonnenberg, M. Hada, 
 M. Ehara, K. Toyota, R. Fukuda, J. Hasegawa, M. Ishida, T. Nakajima, 
 Y. Honda, O. Kitao, H. Nakai, T. Vreven, J. A. Montgomery, Jr., 
 J. E. Peralta, F. Ogliaro, M. Bearpark, J. J. Heyd, E. Brothers, 
 K. N. Kudin, V. N. Staroverov, R. Kobayashi, J. Normand, 
 K. Raghavachari, A. Rendell, J. C. Burant, S. S. Iyengar, J. Tomasi, 
 M. Cossi, N. Rega, J. M. Millam, M. Klene, J. E. Knox, J. B. Cross, 
 V. Bakken, C. Adamo, J. Jaramillo, R. Gomperts, R. E. Stratmann, 
 O. Yazyev, A. J. Austin, R. Cammi, C. Pomelli, J. W. Ochterski, 
 R. L. Martin, K. Morokuma, V. G. Zakrzewski, G. A. Voth, 
 P. Salvador, J. J. Dannenberg, S. Dapprich, A. D. Daniels, 
 O. Farkas, J. B. Foresman, J. V. Ortiz, J. Cioslowski, 
 and D. J. Fox, Gaussian, Inc., Wallingford CT, 2009.
 
 ******************************************
 Gaussian 09:  EM64L-G09RevA.02 11-Jun-2009
                26-Dec-2016 
 ******************************************
 %chk=structure_240.chk
 -------------------------------------------------------------------
 # HF/6-31G* Opt=(ModRedundant, maxcycles=1000, calcfc) geom=nocrowd
 -------------------------------------------------------------------
 1/6=1000,10=4,18=120,19=15,38=1/1,3;
 2/9=110,12=1,17=6,18=5,40=1/2;
 3/5=1,6=6,7=1,11=9,16=1,25=1,30=1,71=2/1,2,3;
 4//1;
 5/5=2,38=5/2;
 8/6=4,10=90,11=11/1;
 11/6=1,8=1,9=11,15=111,16=1/1,2,10;
 10/6=1,7=6,13=1/2;
 6/7=2,8=2,9=2,10=2,28=1/1;
 7/10=1,18=20,25=1/1,2,3,16;
 1/6=1000,10=4,18=20,19=15/3(2);
 2/9=110,12=1/2;
 99//99;
 2/9=110,12=1/2;
 3/5=1,6=6,7=1,11=9,16=1,25=1,30=1,71=1/1,2,3;
 4/5=5,16=3/1;
 5/5=2,38=5/2;
 7//1,2,3,16;
 1/6=1000,18=20,19=15/3(-5);
 2/9=110,12=1/2;
 6/7=2,8=2,9=2,10=2,19=2,28=1/1;
 99/9=1/99;
 ------------------
 Phi Psi fixed scan
 ------------------
 Symbolic Z-matrix:
 Charge =  0 Multiplicity = 1
 H                     2.5153    1.        1.923 
 C                     2.5153    2.09      1.923 
 H                     2.5153    2.4538    2.9505 
 H                     1.6255    2.4539    1.4093 
 C                     3.7515    2.6408    1.2093 
 O                     4.5856    1.8774    0.7277 
 N                     3.8623    3.9697    1.1453 
 H                     3.1502    4.5562    1.5565 
 C                     4.9863    4.6139    0.4964 
 H                     5.9112    4.3155    0.9898 
 C                     5.07      4.2208   -0.9747 
 H                     4.1545    4.5214   -1.4843 
 H                     5.9225    4.7189   -1.4365 
 H                     5.1929    3.1409   -1.0563 
 C                     4.8645    6.1294    0.5667 
 O                     3.9015    6.6527    1.1227 
 N                     5.846     6.8349    0. 
 H                     6.6176    6.3592   -0.4455 
 C                     5.8461    8.2839    0. 
 H                     5.3323    8.6477   -0.8898 
 C                     5.1347    8.8329    1.2322 
 H                     5.6431    8.4846    2.1312 
 H                     5.1499    9.9224    1.2058 
 H                     4.1019    8.4846    1.2414 
 C                     7.266     8.8318    0. 
 O                     8.0386    8.5624   -0.9171 
 N                     7.6088    9.6038    1.0338 
 H                     6.9383    9.797     1.764 
 C                     8.9308    10.1857   1.1497 
 H                     9.6765    9.3913    1.1807 
 C                     9.2363    11.0949  -0.0359 
 H                     8.5033    11.9006  -0.0749 
 H                     10.2346   11.5176   0.0776 
 H                     9.1898    10.5171  -0.959 
 C                     9.0538    11.018    2.418 
 O                     8.1017    11.1268   3.1875 
 N                     10.2322   11.6068   2.6346 
 H                     10.9856   11.4877   1.9725 
 C                     10.4756   12.4252   3.8053 
 H                     9.5758    12.4581   4.4197 
 H                     11.2946   11.998    4.3841 
 H                     10.7397   13.4359   3.4943 
 
 The following ModRedundant input section has been read:
 D   15   17   19   25 F                                                       
 D   17   19   25   27 F                                                       

 GradGradGradGradGradGradGradGradGradGradGradGradGradGradGradGradGradGrad
 Berny optimization.
 Initialization pass.
                           ----------------------------
                           !    Initial Parameters    !
                           ! (Angstroms and Degrees)  !
 --------------------------                            --------------------------
 ! Name  Definition              Value          Derivative Info.                !
 --------------------------------------------------------------------------------
 ! R1    R(1,2)                  1.09           calculate D2E/DX2 analytically  !
 ! R2    R(2,3)                  1.09           calculate D2E/DX2 analytically  !
 ! R3    R(2,4)                  1.09           calculate D2E/DX2 analytically  !
 ! R4    R(2,5)                  1.53           calculate D2E/DX2 analytically  !
 ! R5    R(5,6)                  1.229          calculate D2E/DX2 analytically  !
 ! R6    R(5,7)                  1.335          calculate D2E/DX2 analytically  !
 ! R7    R(7,8)                  1.01           calculate D2E/DX2 analytically  !
 ! R8    R(7,9)                  1.4489         calculate D2E/DX2 analytically  !
 ! R9    R(9,10)                 1.0899         calculate D2E/DX2 analytically  !
 ! R10   R(9,11)                 1.525          calculate D2E/DX2 analytically  !
 ! R11   R(9,15)                 1.522          calculate D2E/DX2 analytically  !
 ! R12   R(11,12)                1.09           calculate D2E/DX2 analytically  !
 ! R13   R(11,13)                1.09           calculate D2E/DX2 analytically  !
 ! R14   R(11,14)                1.0899         calculate D2E/DX2 analytically  !
 ! R15   R(15,16)                1.229          calculate D2E/DX2 analytically  !
 ! R16   R(15,17)                1.335          calculate D2E/DX2 analytically  !
 ! R17   R(17,18)                1.01           calculate D2E/DX2 analytically  !
 ! R18   R(17,19)                1.449          calculate D2E/DX2 analytically  !
 ! R19   R(19,20)                1.09           calculate D2E/DX2 analytically  !
 ! R20   R(19,21)                1.5251         calculate D2E/DX2 analytically  !
 ! R21   R(19,25)                1.5219         calculate D2E/DX2 analytically  !
 ! R22   R(21,22)                1.0899         calculate D2E/DX2 analytically  !
 ! R23   R(21,23)                1.0899         calculate D2E/DX2 analytically  !
 ! R24   R(21,24)                1.09           calculate D2E/DX2 analytically  !
 ! R25   R(25,26)                1.229          calculate D2E/DX2 analytically  !
 ! R26   R(25,27)                1.335          calculate D2E/DX2 analytically  !
 ! R27   R(27,28)                1.01           calculate D2E/DX2 analytically  !
 ! R28   R(27,29)                1.449          calculate D2E/DX2 analytically  !
 ! R29   R(29,30)                1.09           calculate D2E/DX2 analytically  !
 ! R30   R(29,31)                1.525          calculate D2E/DX2 analytically  !
 ! R31   R(29,35)                1.522          calculate D2E/DX2 analytically  !
 ! R32   R(31,32)                1.0899         calculate D2E/DX2 analytically  !
 ! R33   R(31,33)                1.09           calculate D2E/DX2 analytically  !
 ! R34   R(31,34)                1.09           calculate D2E/DX2 analytically  !
 ! R35   R(35,36)                1.229          calculate D2E/DX2 analytically  !
 ! R36   R(35,37)                1.335          calculate D2E/DX2 analytically  !
 ! R37   R(37,38)                1.01           calculate D2E/DX2 analytically  !
 ! R38   R(37,39)                1.449          calculate D2E/DX2 analytically  !
 ! R39   R(39,40)                1.0901         calculate D2E/DX2 analytically  !
 ! R40   R(39,41)                1.0901         calculate D2E/DX2 analytically  !
 ! R41   R(39,42)                1.0899         calculate D2E/DX2 analytically  !
 ! A1    A(1,2,3)              109.4972         calculate D2E/DX2 analytically  !
 ! A2    A(1,2,4)              109.5032         calculate D2E/DX2 analytically  !
 ! A3    A(1,2,5)              111.1            calculate D2E/DX2 analytically  !
 ! A4    A(3,2,4)              109.4412         calculate D2E/DX2 analytically  !
 ! A5    A(3,2,5)              108.6367         calculate D2E/DX2 analytically  !
 ! A6    A(4,2,5)              108.6357         calculate D2E/DX2 analytically  !
 ! A7    A(2,5,6)              120.4994         calculate D2E/DX2 analytically  !
 ! A8    A(2,5,7)              116.5999         calculate D2E/DX2 analytically  !
 ! A9    A(6,5,7)              122.9007         calculate D2E/DX2 analytically  !
 ! A10   A(5,7,8)              119.9983         calculate D2E/DX2 analytically  !
 ! A11   A(5,7,9)              121.8976         calculate D2E/DX2 analytically  !
 ! A12   A(8,7,9)              118.1041         calculate D2E/DX2 analytically  !
 ! A13   A(7,9,10)             109.5012         calculate D2E/DX2 analytically  !
 ! A14   A(7,9,11)             111.0992         calculate D2E/DX2 analytically  !
 ! A15   A(7,9,15)             111.0961         calculate D2E/DX2 analytically  !
 ! A16   A(10,9,11)            108.6353         calculate D2E/DX2 analytically  !
 ! A17   A(10,9,15)            108.6394         calculate D2E/DX2 analytically  !
 ! A18   A(11,9,15)            107.7951         calculate D2E/DX2 analytically  !
 ! A19   A(9,11,12)            109.4993         calculate D2E/DX2 analytically  !
 ! A20   A(9,11,13)            109.5009         calculate D2E/DX2 analytically  !
 ! A21   A(9,11,14)            109.4999         calculate D2E/DX2 analytically  !
 ! A22   A(12,11,13)           109.438          calculate D2E/DX2 analytically  !
 ! A23   A(12,11,14)           109.447          calculate D2E/DX2 analytically  !
 ! A24   A(13,11,14)           109.4422         calculate D2E/DX2 analytically  !
 ! A25   A(9,15,16)            120.5033         calculate D2E/DX2 analytically  !
 ! A26   A(9,15,17)            116.6002         calculate D2E/DX2 analytically  !
 ! A27   A(16,15,17)           122.8965         calculate D2E/DX2 analytically  !
 ! A28   A(15,17,18)           120.0            calculate D2E/DX2 analytically  !
 ! A29   A(15,17,19)           121.9052         calculate D2E/DX2 analytically  !
 ! A30   A(18,17,19)           118.0948         calculate D2E/DX2 analytically  !
 ! A31   A(17,19,20)           109.4954         calculate D2E/DX2 analytically  !
 ! A32   A(17,19,21)           111.0974         calculate D2E/DX2 analytically  !
 ! A33   A(17,19,25)           111.1042         calculate D2E/DX2 analytically  !
 ! A34   A(20,19,21)           108.6349         calculate D2E/DX2 analytically  !
 ! A35   A(20,19,25)           108.6399         calculate D2E/DX2 analytically  !
 ! A36   A(21,19,25)           107.7944         calculate D2E/DX2 analytically  !
 ! A37   A(19,21,22)           109.4996         calculate D2E/DX2 analytically  !
 ! A38   A(19,21,23)           109.4977         calculate D2E/DX2 analytically  !
 ! A39   A(19,21,24)           109.4988         calculate D2E/DX2 analytically  !
 ! A40   A(22,21,23)           109.4452         calculate D2E/DX2 analytically  !
 ! A41   A(22,21,24)           109.4447         calculate D2E/DX2 analytically  !
 ! A42   A(23,21,24)           109.4412         calculate D2E/DX2 analytically  !
 ! A43   A(19,25,26)           120.5014         calculate D2E/DX2 analytically  !
 ! A44   A(19,25,27)           116.5988         calculate D2E/DX2 analytically  !
 ! A45   A(26,25,27)           122.8998         calculate D2E/DX2 analytically  !
 ! A46   A(25,27,28)           120.0005         calculate D2E/DX2 analytically  !
 ! A47   A(25,27,29)           121.8991         calculate D2E/DX2 analytically  !
 ! A48   A(28,27,29)           118.1005         calculate D2E/DX2 analytically  !
 ! A49   A(27,29,30)           109.4967         calculate D2E/DX2 analytically  !
 ! A50   A(27,29,31)           111.1002         calculate D2E/DX2 analytically  !
 ! A51   A(27,29,35)           111.0992         calculate D2E/DX2 analytically  !
 ! A52   A(30,29,31)           108.6371         calculate D2E/DX2 analytically  !
 ! A53   A(30,29,35)           108.6364         calculate D2E/DX2 analytically  !
 ! A54   A(31,29,35)           107.7965         calculate D2E/DX2 analytically  !
 ! A55   A(29,31,32)           109.5004         calculate D2E/DX2 analytically  !
 ! A56   A(29,31,33)           109.4945         calculate D2E/DX2 analytically  !
 ! A57   A(29,31,34)           109.5003         calculate D2E/DX2 analytically  !
 ! A58   A(32,31,33)           109.4503         calculate D2E/DX2 analytically  !
 ! A59   A(32,31,34)           109.4422         calculate D2E/DX2 analytically  !
 ! A60   A(33,31,34)           109.4395         calculate D2E/DX2 analytically  !
 ! A61   A(29,35,36)           120.5013         calculate D2E/DX2 analytically  !
 ! A62   A(29,35,37)           116.598          calculate D2E/DX2 analytically  !
 ! A63   A(36,35,37)           122.9008         calculate D2E/DX2 analytically  !
 ! A64   A(35,37,38)           120.0034         calculate D2E/DX2 analytically  !
 ! A65   A(35,37,39)           121.9021         calculate D2E/DX2 analytically  !
 ! A66   A(38,37,39)           118.0945         calculate D2E/DX2 analytically  !
 ! A67   A(37,39,40)           109.4983         calculate D2E/DX2 analytically  !
 ! A68   A(37,39,41)           109.5029         calculate D2E/DX2 analytically  !
 ! A69   A(37,39,42)           109.5063         calculate D2E/DX2 analytically  !
 ! A70   A(40,39,41)           109.4352         calculate D2E/DX2 analytically  !
 ! A71   A(40,39,42)           109.4421         calculate D2E/DX2 analytically  !
 ! A72   A(41,39,42)           109.4425         calculate D2E/DX2 analytically  !
 ! D1    D(1,2,5,6)              0.0022         calculate D2E/DX2 analytically  !
 ! D2    D(1,2,5,7)            179.9987         calculate D2E/DX2 analytically  !
 ! D3    D(3,2,5,6)            120.5114         calculate D2E/DX2 analytically  !
 ! D4    D(3,2,5,7)            -59.4921         calculate D2E/DX2 analytically  !
 ! D5    D(4,2,5,6)           -120.5139         calculate D2E/DX2 analytically  !
 ! D6    D(4,2,5,7)             59.4827         calculate D2E/DX2 analytically  !
 ! D7    D(2,5,7,8)              0.0058         calculate D2E/DX2 analytically  !
 ! D8    D(2,5,7,9)            179.9989         calculate D2E/DX2 analytically  !
 ! D9    D(6,5,7,8)           -179.9977         calculate D2E/DX2 analytically  !
 ! D10   D(6,5,7,9)             -0.0046         calculate D2E/DX2 analytically  !
 ! D11   D(5,7,9,10)           -59.9963         calculate D2E/DX2 analytically  !
 ! D12   D(5,7,9,11)            60.0033         calculate D2E/DX2 analytically  !
 ! D13   D(5,7,9,15)          -179.9991         calculate D2E/DX2 analytically  !
 ! D14   D(8,7,9,10)           119.9969         calculate D2E/DX2 analytically  !
 ! D15   D(8,7,9,11)          -120.0035         calculate D2E/DX2 analytically  !
 ! D16   D(8,7,9,15)            -0.0059         calculate D2E/DX2 analytically  !
 ! D17   D(7,9,11,12)           60.0013         calculate D2E/DX2 analytically  !
 ! D18   D(7,9,11,13)          179.996          calculate D2E/DX2 analytically  !
 ! D19   D(7,9,11,14)          -60.0039         calculate D2E/DX2 analytically  !
 ! D20   D(10,9,11,12)        -179.486          calculate D2E/DX2 analytically  !
 ! D21   D(10,9,11,13)         -59.4913         calculate D2E/DX2 analytically  !
 ! D22   D(10,9,11,14)          60.5089         calculate D2E/DX2 analytically  !
 ! D23   D(15,9,11,12)         -61.9387         calculate D2E/DX2 analytically  !
 ! D24   D(15,9,11,13)          58.056          calculate D2E/DX2 analytically  !
 ! D25   D(15,9,11,14)         178.0562         calculate D2E/DX2 analytically  !
 ! D26   D(7,9,15,16)            0.0028         calculate D2E/DX2 analytically  !
 ! D27   D(7,9,15,17)         -179.9973         calculate D2E/DX2 analytically  !
 ! D28   D(10,9,15,16)        -120.5108         calculate D2E/DX2 analytically  !
 ! D29   D(10,9,15,17)          59.4892         calculate D2E/DX2 analytically  !
 ! D30   D(11,9,15,16)         121.9446         calculate D2E/DX2 analytically  !
 ! D31   D(11,9,15,17)         -58.0555         calculate D2E/DX2 analytically  !
 ! D32   D(9,15,17,18)           0.0005         calculate D2E/DX2 analytically  !
 ! D33   D(9,15,17,19)        -179.9968         calculate D2E/DX2 analytically  !
 ! D34   D(16,15,17,18)       -179.9995         calculate D2E/DX2 analytically  !
 ! D35   D(16,15,17,19)          0.0032         calculate D2E/DX2 analytically  !
 ! D36   D(15,17,19,20)        -89.9978         calculate D2E/DX2 analytically  !
 ! D37   D(15,17,19,21)         29.9965         calculate D2E/DX2 analytically  !
 ! D38   D(15,17,19,25)        149.9974         frozen, calculate D2E/DX2 analyt!
 ! D39   D(18,17,19,20)         90.0049         calculate D2E/DX2 analytically  !
 ! D40   D(18,17,19,21)       -150.0008         calculate D2E/DX2 analytically  !
 ! D41   D(18,17,19,25)        -29.9999         calculate D2E/DX2 analytically  !
 ! D42   D(17,19,21,22)         60.0039         calculate D2E/DX2 analytically  !
 ! D43   D(17,19,21,23)       -179.9943         calculate D2E/DX2 analytically  !
 ! D44   D(17,19,21,24)        -59.998          calculate D2E/DX2 analytically  !
 ! D45   D(20,19,21,22)       -179.4919         calculate D2E/DX2 analytically  !
 ! D46   D(20,19,21,23)        -59.4901         calculate D2E/DX2 analytically  !
 ! D47   D(20,19,21,24)         60.5062         calculate D2E/DX2 analytically  !
 ! D48   D(25,19,21,22)        -61.9445         calculate D2E/DX2 analytically  !
 ! D49   D(25,19,21,23)         58.0573         calculate D2E/DX2 analytically  !
 ! D50   D(25,19,21,24)        178.0536         calculate D2E/DX2 analytically  !
 ! D51   D(17,19,25,26)         60.0007         calculate D2E/DX2 analytically  !
 ! D52   D(17,19,25,27)       -119.9986         frozen, calculate D2E/DX2 analyt!
 ! D53   D(20,19,25,26)        -60.511          calculate D2E/DX2 analytically  !
 ! D54   D(20,19,25,27)        119.4897         calculate D2E/DX2 analytically  !
 ! D55   D(21,19,25,26)       -178.0552         calculate D2E/DX2 analytically  !
 ! D56   D(21,19,25,27)          1.9456         calculate D2E/DX2 analytically  !
 ! D57   D(19,25,27,28)         -0.0039         calculate D2E/DX2 analytically  !
 ! D58   D(19,25,27,29)       -179.9979         calculate D2E/DX2 analytically  !
 ! D59   D(26,25,27,28)        179.9968         calculate D2E/DX2 analytically  !
 ! D60   D(26,25,27,29)          0.0029         calculate D2E/DX2 analytically  !
 ! D61   D(25,27,29,30)        -60.0024         calculate D2E/DX2 analytically  !
 ! D62   D(25,27,29,31)         59.9972         calculate D2E/DX2 analytically  !
 ! D63   D(25,27,29,35)        179.9994         calculate D2E/DX2 analytically  !
 ! D64   D(28,27,29,30)        120.0035         calculate D2E/DX2 analytically  !
 ! D65   D(28,27,29,31)       -119.9968         calculate D2E/DX2 analytically  !
 ! D66   D(28,27,29,35)          0.0054         calculate D2E/DX2 analytically  !
 ! D67   D(27,29,31,32)         59.9986         calculate D2E/DX2 analytically  !
 ! D68   D(27,29,31,33)       -179.9949         calculate D2E/DX2 analytically  !
 ! D69   D(27,29,31,34)        -60.0016         calculate D2E/DX2 analytically  !
 ! D70   D(30,29,31,32)       -179.4924         calculate D2E/DX2 analytically  !
 ! D71   D(30,29,31,33)        -59.4859         calculate D2E/DX2 analytically  !
 ! D72   D(30,29,31,34)         60.5074         calculate D2E/DX2 analytically  !
 ! D73   D(35,29,31,32)        -61.9468         calculate D2E/DX2 analytically  !
 ! D74   D(35,29,31,33)         58.0597         calculate D2E/DX2 analytically  !
 ! D75   D(35,29,31,34)        178.053          calculate D2E/DX2 analytically  !
 ! D76   D(27,29,35,36)         -0.0026         calculate D2E/DX2 analytically  !
 ! D77   D(27,29,35,37)       -179.9999         calculate D2E/DX2 analytically  !
 ! D78   D(30,29,35,36)       -120.5105         calculate D2E/DX2 analytically  !
 ! D79   D(30,29,35,37)         59.4922         calculate D2E/DX2 analytically  !
 ! D80   D(31,29,35,36)        121.9434         calculate D2E/DX2 analytically  !
 ! D81   D(31,29,35,37)        -58.0539         calculate D2E/DX2 analytically  !
 ! D82   D(29,35,37,38)         -0.0074         calculate D2E/DX2 analytically  !
 ! D83   D(29,35,37,39)        179.9988         calculate D2E/DX2 analytically  !
 ! D84   D(36,35,37,38)        179.9954         calculate D2E/DX2 analytically  !
 ! D85   D(36,35,37,39)          0.0016         calculate D2E/DX2 analytically  !
 ! D86   D(35,37,39,40)          0.003          calculate D2E/DX2 analytically  !
 ! D87   D(35,37,39,41)        119.9949         calculate D2E/DX2 analytically  !
 ! D88   D(35,37,39,42)       -119.9995         calculate D2E/DX2 analytically  !
 ! D89   D(38,37,39,40)       -179.9909         calculate D2E/DX2 analytically  !
 ! D90   D(38,37,39,41)        -59.999          calculate D2E/DX2 analytically  !
 ! D91   D(38,37,39,42)         60.0067         calculate D2E/DX2 analytically  !
 --------------------------------------------------------------------------------
 Trust Radius=3.00D-01 FncErr=1.00D-07 GrdErr=1.00D-07
 Number of steps in this run= 252 maximum allowed number of steps= 252.
 GradGradGradGradGradGradGradGradGradGradGradGradGradGradGradGradGradGrad

                          Input orientation:                          
 ---------------------------------------------------------------------
 Center     Atomic      Atomic             Coordinates (Angstroms)
 Number     Number       Type             X           Y           Z
 ---------------------------------------------------------------------
      1          1           0        2.515300    1.000000    1.923000
      2          6           0        2.515300    2.090000    1.923000
      3          1           0        2.515300    2.453800    2.950500
      4          1           0        1.625500    2.453900    1.409300
      5          6           0        3.751500    2.640800    1.209300
      6          8           0        4.585600    1.877400    0.727700
      7          7           0        3.862300    3.969700    1.145300
      8          1           0        3.150200    4.556200    1.556500
      9          6           0        4.986300    4.613900    0.496400
     10          1           0        5.911200    4.315500    0.989800
     11          6           0        5.070000    4.220800   -0.974700
     12          1           0        4.154500    4.521400   -1.484300
     13          1           0        5.922500    4.718900   -1.436500
     14          1           0        5.192900    3.140900   -1.056300
     15          6           0        4.864500    6.129400    0.566700
     16          8           0        3.901500    6.652700    1.122700
     17          7           0        5.846000    6.834900    0.000000
     18          1           0        6.617600    6.359200   -0.445500
     19          6           0        5.846100    8.283900    0.000000
     20          1           0        5.332300    8.647700   -0.889800
     21          6           0        5.134700    8.832900    1.232200
     22          1           0        5.643100    8.484600    2.131200
     23          1           0        5.149900    9.922400    1.205800
     24          1           0        4.101900    8.484600    1.241400
     25          6           0        7.266000    8.831800    0.000000
     26          8           0        8.038600    8.562400   -0.917100
     27          7           0        7.608800    9.603800    1.033800
     28          1           0        6.938300    9.797000    1.764000
     29          6           0        8.930800   10.185700    1.149700
     30          1           0        9.676500    9.391300    1.180700
     31          6           0        9.236300   11.094900   -0.035900
     32          1           0        8.503300   11.900600   -0.074900
     33          1           0       10.234600   11.517600    0.077600
     34          1           0        9.189800   10.517100   -0.959000
     35          6           0        9.053800   11.018000    2.418000
     36          8           0        8.101700   11.126800    3.187500
     37          7           0       10.232200   11.606800    2.634600
     38          1           0       10.985600   11.487700    1.972500
     39          6           0       10.475600   12.425200    3.805300
     40          1           0        9.575800   12.458100    4.419700
     41          1           0       11.294600   11.998000    4.384100
     42          1           0       10.739700   13.435900    3.494300
 ---------------------------------------------------------------------
                    Distance matrix (angstroms):
                    1          2          3          4          5
     1  H    0.000000
     2  C    1.090000   0.000000
     3  H    1.780250   1.090003   0.000000
     4  H    1.780297   1.089979   1.779618   0.000000
     5  C    2.174806   1.530013   2.143580   2.143550   0.000000
     6  O    2.546510   2.400017   3.091799   3.091783   1.229000
     7  N    3.352364   2.439774   2.714979   2.714889   1.335046
     8  H    3.630975   2.572851   2.601234   2.601162   2.037368
     9  C    4.604487   3.809344   4.098107   4.098044   2.434354
    10  H    4.836894   4.166035   4.340784   4.691349   2.741734
    11  C    5.029583   4.411742   5.005594   4.546424   3.000783
    12  H    5.166907   4.495373   5.160368   4.363865   3.309765
    13  H    6.060154   5.459521   5.998788   5.629655   4.003998
    14  H    4.541940   4.141275   4.867863   4.390614   2.731424
    15  C    5.802502   4.865701   4.971044   4.970955   3.717800
    16  O    5.874951   4.835314   4.784680   4.784583   4.015637
    17  N    6.988387   6.107828   6.244442   6.244350   4.841468
    18  H    7.152600   6.376890   6.604077   6.603992   4.977890
    19  C    8.236951   7.290854   7.334149   7.334064   6.139571
    20  H    8.621754   7.671425   7.813309   7.575578   6.556523
    21  C    8.288111   7.266716   7.106809   7.282684   6.344751
    22  H    8.114537   7.121614   6.842875   7.282279   6.211123
    23  H    9.330847   8.294696   8.109567   8.260829   7.414663
    24  H    7.681218   6.623654   6.465978   6.521510   5.854384
    25  C    9.359710   8.468704   8.482540   8.630120   7.220983
    26  O    9.785852   8.970227   9.098361   9.157170   7.613550
    27  N   10.037918   9.120943   8.985543   9.330699   7.961968
    28  H    9.847610   8.887410   8.654091   9.070434   7.853317
    29  C   11.230927  10.358426  10.207047  10.640279   9.151733
    30  H   11.056569  10.253915  10.126395  10.630070   8.981965
    31  C   12.284793  11.406023  11.347204  11.605161  10.154081
    32  H   12.596461  11.666003  11.586683  11.779097  10.486785
    33  H   13.176229  12.323666  12.247188  12.571423  11.050290
    34  H   11.976229  11.129730  11.173627  11.306753   9.813905
    35  C   11.973192  11.077283  10.788005  11.381605   9.987633
    36  O   11.634385  10.699092  10.319155  10.969155   9.739082
    37  N   13.136252  12.272995  11.976132  12.623479  11.154376
    38  H   13.481108  12.651688  12.422311  13.020684  11.453485
    39  C   14.051499  13.180508  12.787724  13.545919  12.152663
    40  H   13.688398  12.789905  12.332689  13.128358  11.857846
    41  H   14.285977  13.464828  13.046956  13.907939  12.431207
    42  H   14.992043  14.101035  13.731096  14.422905  13.061024
                    6          7          8          9         10
     6  O    0.000000
     7  N    2.252836   0.000000
     8  H    3.150119   1.010027   0.000000
     9  C    2.775336   1.448945   2.120944   0.000000
    10  H    2.787516   2.083686   2.828817   1.089920   0.000000
    11  C    2.936721   2.452752   3.194542   1.525014   2.139123
    12  H    3.474123   2.702693   3.202545   2.150260   3.041309
    13  H    3.813815   3.386948   4.082912   2.150255   2.459632
    14  H    2.268899   2.702674   3.605887   2.150184   2.466205
    15  C    4.264178   2.450201   2.528535   1.522011   2.136546
    16  O    4.840197   2.683382   2.268909   2.392854   3.085297
    17  N    5.166717   3.668262   3.857785   2.432763   2.707643
    18  H    5.058849   3.978949   4.391090   2.567954   2.595341
    19  C    6.569753   4.884618   4.856575   3.801916   4.090494
    20  H    7.000773   5.309069   5.242739   4.279347   4.757728
    21  C    6.995356   5.027650   4.725841   4.285252   4.590056
    22  H    6.836901   4.952532   4.687980   4.252796   4.330827
    23  H    8.078926   6.090666   5.737412   5.358189   5.662470
    24  H    6.644768   4.522274   4.054300   4.039741   4.551732
    25  C    7.488509   6.044576   6.135410   4.820179   4.817899
    26  O    7.701805   6.541244   6.787105   5.187019   5.118423
    27  N    8.302451   6.766962   6.755042   5.662633   5.554269
    28  H    8.326415   6.618307   6.469833   5.681693   5.630379
    29  C    9.385451   8.020497   8.079115   6.857903   6.603242
    30  H    9.087418   7.949838   8.130929   6.729769   6.322790
    31  C   10.352507   9.002421   9.073640   7.768475   7.620277
    32  H   10.791528   9.269679   9.233491   8.111206   8.086180
    33  H   11.192287   9.935642  10.041761   8.682230   8.449505
    34  H    9.934185   8.699355   8.850810   7.391574   7.280583
    35  C   10.313704   8.845901   8.794858   7.826212   7.539177
    36  O   10.196322   8.565464   8.387508   7.704908   7.484783
    37  N   11.409714  10.055791  10.051268   8.999556   8.633624
    38  H   11.613242  10.389706  10.469586   9.242272   8.840571
    39  C   12.466748  11.059241  10.983613  10.104338   9.722552
    40  H   12.267199  10.743310  10.579521   9.898852   9.565325
    41  H   12.680950  11.409755  11.388896  10.461061   9.976125
    42  H   13.383794  11.934210  11.840804  10.950648  10.619257
                   11         12         13         14         15
    11  C    0.000000
    12  H    1.090043   0.000000
    13  H    1.090009   1.779639   0.000000
    14  H    1.089930   1.779674   1.779593   0.000000
    15  C    2.461889   2.701178   2.668648   3.416593   0.000000
    16  O    3.417399   3.376818   3.791244   4.329953   1.228962
    17  N    2.895813   3.227476   2.558679   3.897171   1.334999
    18  H    2.692187   3.243991   2.038585   3.572156   2.037331
    19  C    4.249842   4.384183   3.844294   5.290831   2.434452
    20  H    4.435477   4.332089   4.010322   5.511080   2.946534
    21  C    5.113322   5.189335   4.966647   6.135103   2.797286
    22  H    5.306133   5.567291   5.194906   6.238427   2.932720
    23  H    6.104851   6.115412   5.886856   7.148964   3.857039
    24  H    4.901868   4.810318   4.966511   5.918178   2.565881
    25  C    5.199402   5.519432   4.558999   6.148159   3.659415
    26  O    5.259790   5.633616   4.418161   6.124545   4.265684
    27  N    6.281422   6.641070   5.727848   7.209311   4.452058
    28  H    6.487298   6.792124   6.087869   7.436678   4.380121
    29  C    7.416123   7.863542   6.754569   8.274511   5.773063
    30  H    7.252562   7.830111   6.540151   8.010889   5.845711
    31  C    8.092753   8.434065   7.320951   8.980892   6.643188
    32  H    8.460291   8.680499   7.751858   9.415638   6.852683
    33  H    9.001318   9.399679   8.192010   9.842437   7.622984
    34  H    7.524387   7.847204   6.672509   8.390054   6.347274
    35  C    8.578054   9.024239   8.021276   9.435360   6.698952
    36  O    8.614404   9.002078   8.197040   9.499766   6.505541
    37  N    9.707129  10.203267   9.087934  10.520872   7.942942
    38  H    9.822838  10.350977   9.114434  10.601796   8.255636
    39  C   10.926165  11.419555  10.372765  11.736281   9.033829
    40  H   10.828430  11.280023  10.370000  11.662187   8.780342
    41  H   11.311376  11.887754  10.757515  12.053087   9.505745
    42  H   11.706217  12.149882  11.113249  12.548385   9.822106
                   16         17         18         19         20
    16  O    0.000000
    17  N    2.252717   0.000000
    18  H    3.150015   1.010014   0.000000
    19  C    2.775381   1.449000   2.120885   0.000000
    20  H    3.174487   2.083717   2.662073   1.089993   0.000000
    21  C    2.507199   2.452808   3.336594   1.525060   2.139212
    22  H    2.721415   2.702719   3.479419   2.150233   3.041322
    23  H    3.500906   3.386911   4.192533   2.150193   2.459608
    24  H    1.846648   2.702678   3.700230   2.150253   2.466272
    25  C    4.162787   2.450308   2.594734   1.521943   2.136547
    26  O    4.992328   2.938167   2.663783   2.392842   2.707782
    27  N    4.739300   3.441368   3.701113   2.432692   3.129987
    28  H    4.418149   3.616470   4.099172   2.567892   3.307987
    29  C    6.146273   4.697410   4.747384   3.801845   4.412959
    30  H    6.391707   4.754152   4.603806   4.158407   4.869495
    31  C    7.038152   5.444541   5.426990   4.404142   4.686059
    32  H    7.081756   5.720854   5.865179   4.488523   4.615264
    33  H    8.054045   6.418217   6.321820   5.451768   5.762355
    34  H    6.872640   5.065499   4.916099   4.133666   4.287161
    35  C    6.876034   5.799572   5.986578   4.859153   5.514474
    36  O    6.474770   5.802477   6.175051   4.830111   5.517236
    37  N    8.179652   6.996492   7.077405   6.100873   6.722104
    38  H    8.618808   7.207967   7.157350   6.369423   6.943930
    39  C    9.150786   8.195423   8.351636   7.284432   7.922563
    40  H    8.761881   8.066321   8.343722   7.132206   7.792126
    41  H    9.688493   8.692823   8.774704   7.918398   8.636409
    42  H    9.919540   8.929257   9.088092   7.918368   8.449093
                   21         22         23         24         25
    21  C    0.000000
    22  H    1.089947   0.000000
    23  H    1.089926   1.779573   0.000000
    24  H    1.089988   1.779618   1.779562   0.000000
    25  C    2.461861   2.701179   2.668565   3.416599   0.000000
    26  O    3.622885   3.877706   3.834174   4.490299   1.229048
    27  N    2.599004   2.514134   2.485413   3.687012   1.335005
    28  H    2.113119   1.880099   1.877681   3.168702   2.037325
    29  C    4.030788   3.829629   3.790472   5.120588   2.434423
    30  H    4.576288   4.241918   4.557719   5.648182   2.741825
    31  C    4.852612   4.941768   4.428910   5.899765   3.000832
    32  H    4.739911   4.971587   4.098629   5.724860   3.309691
    33  H    5.877899   5.873520   5.447171   6.939995   4.004014
    34  H    4.907313   5.124400   4.621777   5.904197   2.731469
    35  C    4.641134   4.258315   4.232045   5.685404   3.717852
    36  O    4.229452   3.760546   3.753776   5.173676   4.015666
    37  N    5.970406   5.573274   5.541520   7.019239   4.841496
    38  H    6.467537   6.130750   6.090434   7.545757   4.977950
    39  C    6.931859   6.456314   6.433078   7.919972   6.139574
    40  H    6.559390   6.040866   6.028890   7.473545   6.165953
    41  H    7.608988   7.025595   7.222676   8.599737   6.743499
    42  H    7.597416   7.235243   6.987688   8.582035   6.743475
                   26         27         28         29         30
    26  O    0.000000
    27  N    2.252832   0.000000
    28  H    3.150110   1.009994   0.000000
    29  C    2.775389   1.449043   2.120969   0.000000
    30  H    2.787572   2.083775   2.828882   1.090000   0.000000
    31  C    2.936759   2.452834   3.194525   1.524999   2.139193
    32  H    3.474022   2.702709   3.202485   2.150182   3.041302
    33  H    3.813797   3.387001   4.082892   2.150175   2.459564
    34  H    2.268892   2.702763   3.605901   2.150238   2.466297
    35  C    4.264211   2.450305   2.528616   1.521985   2.136544
    36  O    4.840235   2.683450   2.268969   2.392845   3.085320
    37  N    5.166704   3.668351   3.857862   2.432714   2.707594
    38  H    5.058851   3.979072   4.391193   2.567958   2.595300
    39  C    6.569723   4.884675   4.856628   3.801839   4.090432
    40  H    6.783870   4.845662   4.592451   4.033947   4.461673
    41  H    7.106870   5.526466   5.539555   4.396968   4.435640
    42  H    7.106855   5.526444   5.539510   4.396939   4.779323
                   31         32         33         34         35
    31  C    0.000000
    32  H    1.089937   0.000000
    33  H    1.090028   1.779704   0.000000
    34  H    1.090013   1.779603   1.779648   0.000000
    35  C    2.461878   2.701219   2.668588   3.416654   0.000000
    36  O    3.417403   3.376878   3.791235   4.330030   1.229009
    37  N    2.895760   3.227507   2.558557   3.897179   1.335001
    38  H    2.692213   3.244094   2.038514   3.572206   2.037385
    39  C    4.249751   4.384190   3.844160   5.290811   2.434405
    40  H    4.671825   4.654298   4.491368   5.731221   2.520551
    41  H    4.958688   5.261513   4.460978   5.930596   3.138014
    42  H    4.494753   4.483059   3.950802   5.545581   3.137980
                   36         37         38         39         40
    36  O    0.000000
    37  N    2.252805   0.000000
    38  H    3.150135   1.010036   0.000000
    39  C    2.775414   1.448986   2.120887   0.000000
    40  H    2.337445   2.083784   2.986302   1.090050   0.000000
    41  H    3.519297   2.083862   2.484291   1.090078   1.779672
    42  H    3.519249   2.083806   2.484316   1.089947   1.779641
                   41         42
    41  H    0.000000
    42  H    1.779667   0.000000
 Stoichiometry    C12H22N4O4
 Framework group  C1[X(C12H22N4O4)]
 Deg. of freedom   120
 Full point group                 C1      NOp   1
 Largest Abelian subgroup         C1      NOp   1
 Largest concise Abelian subgroup C1      NOp   1
                         Standard orientation:                         
 ---------------------------------------------------------------------
 Center     Atomic      Atomic             Coordinates (Angstroms)
 Number     Number       Type             X           Y           Z
 ---------------------------------------------------------------------
      1          1           0       -7.475110   -1.742294   -0.730366
      2          6           0       -6.583882   -1.727472   -0.102996
      3          1           0       -6.156045   -2.728853   -0.055042
      4          1           0       -6.851213   -1.398702    0.901245
      5          6           0       -5.529871   -0.771895   -0.665911
      6          8           0       -5.746760   -0.142530   -1.699013
      7          7           0       -4.389207   -0.668817    0.020099
      8          1           0       -4.257380   -1.207056    0.864536
      9          6           0       -3.313615    0.201957   -0.409196
     10          1           0       -2.975593   -0.098968   -1.400716
     11          6           0       -3.774693    1.654264   -0.471488
     12          1           0       -4.107692    1.972979    0.516300
     13          1           0       -2.947283    2.285099   -0.796387
     14          1           0       -4.598999    1.744262   -1.178854
     15          6           0       -2.133960    0.129171    0.549779
     16          8           0       -2.176332   -0.602299    1.536442
     17          7           0       -1.077840    0.891559    0.257210
     18          1           0       -1.090012    1.476887   -0.565815
     19          6           0        0.106977    0.911283    1.091129
     20          1           0        0.002993    1.684165    1.852657
     21          6           0        0.312712   -0.431407    1.784428
     22          1           0        0.427505   -1.214177    1.034709
     23          1           0        1.208717   -0.387673    2.403459
     24          1           0       -0.550896   -0.653262    2.411352
     25          6           0        1.352339    1.204842    0.266988
     26          8           0        1.449567    2.255059   -0.364003
     27          7           0        2.307242    0.271916    0.273796
     28          1           0        2.181331   -0.575716    0.808358
     29          6           0        3.540132    0.432698   -0.470419
     30          1           0        3.313297    0.541792   -1.530959
     31          6           0        4.304651    1.667790   -0.006003
     32          1           0        4.546843    1.569244    1.052106
     33          1           0        5.225287    1.763533   -0.581696
     34          1           0        3.688974    2.554642   -0.156214
     35          6           0        4.450661   -0.773365   -0.289354
     36          8           0        4.102589   -1.717377    0.416443
     37          7           0        5.621329   -0.740049   -0.930178
     38          1           0        5.863023    0.058598   -1.499318
     39          6           0        6.575722   -1.826452   -0.838402
     40          1           0        6.175280   -2.609053   -0.193893
     41          1           0        6.759797   -2.234107   -1.832486
     42          1           0        7.510960   -1.454901   -0.419756
 ---------------------------------------------------------------------
 Rotational constants (GHZ):      0.8082707      0.1053873      0.1012777
 Standard basis: 6-31G(d) (6D, 7F)
 There are   344 symmetry adapted basis functions of A   symmetry.
 Integral buffers will be    131072 words long.
 Raffenetti 1 integral format.
 Two-electron integral symmetry is turned on.
   344 basis functions,   648 primitive gaussians,   344 cartesian basis functions
    77 alpha electrons       77 beta electrons
       nuclear repulsion energy      1593.9928678358 Hartrees.
 NAtoms=   42 NActive=   42 NUniq=   42 SFac= 7.50D-01 NAtFMM=   80 NAOKFM=F Big=F
 One-electron integrals computed using PRISM.
 NBasis=   344 RedAO= T  NBF=   344
 NBsUse=   344 1.00D-06 NBFU=   344
 Harris functional with IExCor=  205 diagonalized for initial guess.
 ExpMin= 1.61D-01 ExpMax= 5.48D+03 ExpMxC= 8.25D+02 IAcc=1 IRadAn=         1 AccDes= 0.00D+00
 HarFok:  IExCor=  205 AccDes= 0.00D+00 IRadAn=         1 IDoV= 1
 ScaDFX=  1.000000  1.000000  1.000000  1.000000
 FoFCou: FMM=F IPFlag=           0 FMFlag=      100000 FMFlg1=           0
         NFxFlg=           0 DoJE=T BraDBF=F KetDBF=T FulRan=T
         Omega=  0.000000  0.000000  1.000000  0.000000  0.000000 ICntrl=     500 IOpCl=  0
         NMat0=    1 NMatS0=    1 NMatT0=    0 NMatD0=    1 NMtDS0=    0 NMtDT0=    0
         I1Cent=           4 NGrid=           0.
 Petite list used in FoFCou.
 Initial guess orbital symmetries:
       Occupied  (A) (A) (A) (A) (A) (A) (A) (A) (A) (A) (A) (A)
                 (A) (A) (A) (A) (A) (A) (A) (A) (A) (A) (A) (A)
                 (A) (A) (A) (A) (A) (A) (A) (A) (A) (A) (A) (A)
                 (A) (A) (A) (A) (A) (A) (A) (A) (A) (A) (A) (A)
                 (A) (A) (A) (A) (A) (A) (A) (A) (A) (A) (A) (A)
                 (A) (A) (A) (A) (A) (A) (A) (A) (A) (A) (A) (A)
                 (A) (A) (A) (A) (A)
       Virtual   (A) (A) (A) (A) (A) (A) (A) (A) (A) (A) (A) (A)
                 (A) (A) (A) (A) (A) (A) (A) (A) (A) (A) (A) (A)
                 (A) (A) (A) (A) (A) (A) (A) (A) (A) (A) (A) (A)
                 (A) (A) (A) (A) (A) (A) (A) (A) (A) (A) (A) (A)
                 (A) (A) (A) (A) (A) (A) (A) (A) (A) (A) (A) (A)
                 (A) (A) (A) (A) (A) (A) (A) (A) (A) (A) (A) (A)
                 (A) (A) (A) (A) (A) (A) (A) (A) (A) (A) (A) (A)
                 (A) (A) (A) (A) (A) (A) (A) (A) (A) (A) (A) (A)
                 (A) (A) (A) (A) (A) (A) (A) (A) (A) (A) (A) (A)
                 (A) (A) (A) (A) (A) (A) (A) (A) (A) (A) (A) (A)
                 (A) (A) (A) (A) (A) (A) (A) (A) (A) (A) (A) (A)
                 (A) (A) (A) (A) (A) (A) (A) (A) (A) (A) (A) (A)
                 (A) (A) (A) (A) (A) (A) (A) (A) (A) (A) (A) (A)
                 (A) (A) (A) (A) (A) (A) (A) (A) (A) (A) (A) (A)
                 (A) (A) (A) (A) (A) (A) (A) (A) (A) (A) (A) (A)
                 (A) (A) (A) (A) (A) (A) (A) (A) (A) (A) (A) (A)
                 (A) (A) (A) (A) (A) (A) (A) (A) (A) (A) (A) (A)
                 (A) (A) (A) (A) (A) (A) (A) (A) (A) (A) (A) (A)
                 (A) (A) (A) (A) (A) (A) (A) (A) (A) (A) (A) (A)
                 (A) (A) (A) (A) (A) (A) (A) (A) (A) (A) (A) (A)
                 (A) (A) (A) (A) (A) (A) (A) (A) (A) (A) (A) (A)
                 (A) (A) (A) (A) (A) (A) (A) (A) (A) (A) (A) (A)
                 (A) (A) (A)
 The electronic state of the initial guess is 1-A.
 Requested convergence on RMS density matrix=1.00D-08 within 128 cycles.
 Requested convergence on MAX density matrix=1.00D-06.
 Requested convergence on             energy=1.00D-06.
 No special actions if energy rises.
 Integral accuracy reduced to 1.0D-05 until final iterations.
 Initial convergence to 1.0D-05 achieved.  Increase integral accuracy.
 SCF Done:  E(RHF) =  -984.516065098     A.U. after   15 cycles
             Convg  =    0.3450D-08             -V/T =  2.0018
 Range of M.O.s used for correlation:     1   344
 NBasis=   344 NAE=    77 NBE=    77 NFC=     0 NFV=     0
 NROrb=    344 NOA=    77 NOB=    77 NVA=   267 NVB=   267
 Symmetrizing basis deriv contribution to polar:
 IMax=3 JMax=2 DiffMx= 0.00D+00
 G2DrvN: will do    43 centers at a time, making    1 passes doing MaxLOS=2.
 Calling FoFCou, ICntrl=  3107 FMM=F I1Cent=   0 AccDes= 0.00D+00.
 FoFDir/FoFCou used for L=0 through L=2.
 End of G2Drv Frequency-dependent properties file   721 does not exist.
 End of G2Drv Frequency-dependent properties file   722 does not exist.
          IDoAtm=111111111111111111111111111111111111111111
          Differentiating once with respect to nuclear coordinates.
          There are   129 degrees of freedom in the 1st order CPHF.  IDoFFX=5.
    123 vectors produced by pass  0 Test12= 2.06D-10 1.00D-07 XBig12= 8.95D-02 5.00D-02.
 AX will form   123 AO Fock derivatives at one time.
    123 vectors produced by pass  1 Test12= 2.06D-10 1.00D-07 XBig12= 6.09D-03 2.24D-02.
    123 vectors produced by pass  2 Test12= 2.06D-10 1.00D-07 XBig12= 8.85D-05 1.44D-03.
    123 vectors produced by pass  3 Test12= 2.06D-10 1.00D-07 XBig12= 9.07D-07 8.84D-05.
    123 vectors produced by pass  4 Test12= 2.06D-10 1.00D-07 XBig12= 4.75D-09 6.38D-06.
     30 vectors produced by pass  5 Test12= 2.06D-10 1.00D-07 XBig12= 2.62D-11 3.75D-07.
 Inverted reduced A of dimension   645 with in-core refinement.
 End of Minotr Frequency-dependent properties file   721 does not exist.
 End of Minotr Frequency-dependent properties file   722 does not exist.

 **********************************************************************

            Population analysis using the SCF density.

 **********************************************************************

 Orbital symmetries:
       Occupied  (A) (A) (A) (A) (A) (A) (A) (A) (A) (A) (A) (A)
                 (A) (A) (A) (A) (A) (A) (A) (A) (A) (A) (A) (A)
                 (A) (A) (A) (A) (A) (A) (A) (A) (A) (A) (A) (A)
                 (A) (A) (A) (A) (A) (A) (A) (A) (A) (A) (A) (A)
                 (A) (A) (A) (A) (A) (A) (A) (A) (A) (A) (A) (A)
                 (A) (A) (A) (A) (A) (A) (A) (A) (A) (A) (A) (A)
                 (A) (A) (A) (A) (A)
       Virtual   (A) (A) (A) (A) (A) (A) (A) (A) (A) (A) (A) (A)
                 (A) (A) (A) (A) (A) (A) (A) (A) (A) (A) (A) (A)
                 (A) (A) (A) (A) (A) (A) (A) (A) (A) (A) (A) (A)
                 (A) (A) (A) (A) (A) (A) (A) (A) (A) (A) (A) (A)
                 (A) (A) (A) (A) (A) (A) (A) (A) (A) (A) (A) (A)
                 (A) (A) (A) (A) (A) (A) (A) (A) (A) (A) (A) (A)
                 (A) (A) (A) (A) (A) (A) (A) (A) (A) (A) (A) (A)
                 (A) (A) (A) (A) (A) (A) (A) (A) (A) (A) (A) (A)
                 (A) (A) (A) (A) (A) (A) (A) (A) (A) (A) (A) (A)
                 (A) (A) (A) (A) (A) (A) (A) (A) (A) (A) (A) (A)
                 (A) (A) (A) (A) (A) (A) (A) (A) (A) (A) (A) (A)
                 (A) (A) (A) (A) (A) (A) (A) (A) (A) (A) (A) (A)
                 (A) (A) (A) (A) (A) (A) (A) (A) (A) (A) (A) (A)
                 (A) (A) (A) (A) (A) (A) (A) (A) (A) (A) (A) (A)
                 (A) (A) (A) (A) (A) (A) (A) (A) (A) (A) (A) (A)
                 (A) (A) (A) (A) (A) (A) (A) (A) (A) (A) (A) (A)
                 (A) (A) (A) (A) (A) (A) (A) (A) (A) (A) (A) (A)
                 (A) (A) (A) (A) (A) (A) (A) (A) (A) (A) (A) (A)
                 (A) (A) (A) (A) (A) (A) (A) (A) (A) (A) (A) (A)
                 (A) (A) (A) (A) (A) (A) (A) (A) (A) (A) (A) (A)
                 (A) (A) (A) (A) (A) (A) (A) (A) (A) (A) (A) (A)
                 (A) (A) (A) (A) (A) (A) (A) (A) (A) (A) (A) (A)
                 (A) (A) (A)
 The electronic state is 1-A.
 Alpha  occ. eigenvalues --  -20.53643 -20.53429 -20.52958 -20.51296 -15.60781
 Alpha  occ. eigenvalues --  -15.60773 -15.59667 -15.58691 -11.36671 -11.36515
 Alpha  occ. eigenvalues --  -11.35827 -11.34632 -11.29307 -11.28975 -11.28695
 Alpha  occ. eigenvalues --  -11.27157 -11.23266 -11.22906 -11.22040 -11.21118
 Alpha  occ. eigenvalues --   -1.40170  -1.39616  -1.38571  -1.36971  -1.25724
 Alpha  occ. eigenvalues --   -1.25091  -1.24827  -1.23608  -1.08843  -1.06014
 Alpha  occ. eigenvalues --   -1.02526  -0.98325  -0.96622  -0.91321  -0.90280
 Alpha  occ. eigenvalues --   -0.88081  -0.81709  -0.80142  -0.78459  -0.78030
 Alpha  occ. eigenvalues --   -0.77014  -0.73028  -0.69392  -0.67776  -0.67614
 Alpha  occ. eigenvalues --   -0.67256  -0.64979  -0.64860  -0.63686  -0.62840
 Alpha  occ. eigenvalues --   -0.62239  -0.60657  -0.60429  -0.58880  -0.57847
 Alpha  occ. eigenvalues --   -0.57450  -0.56993  -0.56146  -0.56003  -0.55673
 Alpha  occ. eigenvalues --   -0.55033  -0.54277  -0.53665  -0.53342  -0.53070
 Alpha  occ. eigenvalues --   -0.52303  -0.51739  -0.50471  -0.49191  -0.43319
 Alpha  occ. eigenvalues --   -0.43111  -0.41140  -0.40774  -0.40583  -0.40102
 Alpha  occ. eigenvalues --   -0.39249  -0.38480
 Alpha virt. eigenvalues --    0.16739   0.18336   0.19470   0.20291   0.20724
 Alpha virt. eigenvalues --    0.22387   0.23962   0.25562   0.25860   0.27870
 Alpha virt. eigenvalues --    0.28118   0.28516   0.29134   0.29255   0.30281
 Alpha virt. eigenvalues --    0.30660   0.31119   0.31236   0.31878   0.32607
 Alpha virt. eigenvalues --    0.33216   0.33489   0.34313   0.35117   0.35609
 Alpha virt. eigenvalues --    0.36070   0.36882   0.37515   0.38685   0.39828
 Alpha virt. eigenvalues --    0.40849   0.41796   0.42644   0.44080   0.45366
 Alpha virt. eigenvalues --    0.46990   0.48924   0.52205   0.53246   0.53841
 Alpha virt. eigenvalues --    0.55562   0.59329   0.60235   0.61862   0.62889
 Alpha virt. eigenvalues --    0.70723   0.72124   0.72317   0.72513   0.73751
 Alpha virt. eigenvalues --    0.74190   0.75117   0.75690   0.76235   0.76868
 Alpha virt. eigenvalues --    0.77237   0.77365   0.79560   0.80884   0.82258
 Alpha virt. eigenvalues --    0.83008   0.83479   0.85480   0.87085   0.88098
 Alpha virt. eigenvalues --    0.89202   0.90309   0.90571   0.92077   0.92590
 Alpha virt. eigenvalues --    0.93323   0.93735   0.95184   0.96824   0.98208
 Alpha virt. eigenvalues --    0.98764   0.99171   0.99971   1.00186   1.01370
 Alpha virt. eigenvalues --    1.02645   1.03925   1.04759   1.06240   1.07916
 Alpha virt. eigenvalues --    1.08814   1.09154   1.10436   1.10629   1.12021
 Alpha virt. eigenvalues --    1.12336   1.13590   1.13812   1.14452   1.14901
 Alpha virt. eigenvalues --    1.15469   1.15741   1.15961   1.16392   1.17433
 Alpha virt. eigenvalues --    1.17759   1.18209   1.19282   1.19506   1.19975
 Alpha virt. eigenvalues --    1.20710   1.21151   1.21508   1.22313   1.23027
 Alpha virt. eigenvalues --    1.25043   1.25591   1.26917   1.27219   1.28540
 Alpha virt. eigenvalues --    1.30561   1.31350   1.33676   1.35403   1.36352
 Alpha virt. eigenvalues --    1.37359   1.38697   1.38830   1.41659   1.43410
 Alpha virt. eigenvalues --    1.47156   1.47677   1.51789   1.52732   1.54346
 Alpha virt. eigenvalues --    1.55805   1.56450   1.57642   1.59876   1.60310
 Alpha virt. eigenvalues --    1.61750   1.64368   1.64811   1.67130   1.69760
 Alpha virt. eigenvalues --    1.70308   1.71792   1.73822   1.73880   1.74240
 Alpha virt. eigenvalues --    1.75644   1.77660   1.79472   1.81506   1.83701
 Alpha virt. eigenvalues --    1.90477   1.92461   1.94012   1.97503   1.98954
 Alpha virt. eigenvalues --    1.99624   2.00763   2.03044   2.04031   2.05896
 Alpha virt. eigenvalues --    2.07683   2.08451   2.09503   2.10941   2.11769
 Alpha virt. eigenvalues --    2.13227   2.13634   2.13917   2.14666   2.14946
 Alpha virt. eigenvalues --    2.15682   2.17078   2.17696   2.18394   2.20053
 Alpha virt. eigenvalues --    2.20576   2.21970   2.22524   2.24338   2.25438
 Alpha virt. eigenvalues --    2.27802   2.27854   2.30184   2.31291   2.32821
 Alpha virt. eigenvalues --    2.34386   2.36178   2.36338   2.37025   2.38187
 Alpha virt. eigenvalues --    2.40646   2.41642   2.43068   2.45779   2.46982
 Alpha virt. eigenvalues --    2.49510   2.51567   2.53058   2.56547   2.57750
 Alpha virt. eigenvalues --    2.58496   2.61116   2.61555   2.62490   2.62805
 Alpha virt. eigenvalues --    2.63230   2.64390   2.65426   2.66073   2.67200
 Alpha virt. eigenvalues --    2.68718   2.70829   2.71890   2.73321   2.77044
 Alpha virt. eigenvalues --    2.77836   2.79295   2.80182   2.81161   2.85530
 Alpha virt. eigenvalues --    2.87134   2.89160   2.91904   2.94534   2.94791
 Alpha virt. eigenvalues --    2.98094   2.98686   3.01217   3.02584   3.06201
 Alpha virt. eigenvalues --    3.07237   3.08108   3.09930   3.14385   3.17730
 Alpha virt. eigenvalues --    3.23631   3.26690   3.29972   3.32741   3.34934
 Alpha virt. eigenvalues --    3.35996   3.38648   3.41586   3.52419   3.54854
 Alpha virt. eigenvalues --    3.60845   3.63022   4.39009   4.41929   4.43796
 Alpha virt. eigenvalues --    4.46810   4.49330   4.50784   4.53125   4.59184
 Alpha virt. eigenvalues --    4.62997   4.65391   4.70663   4.71240   4.72302
 Alpha virt. eigenvalues --    4.77801   4.85263   4.87167   4.88446   5.02771
 Alpha virt. eigenvalues --    5.05250   5.16375
          Condensed to atoms (all electrons):
              1          2          3          4          5          6
     1  H    0.458286   0.385689  -0.018773  -0.018754  -0.030768   0.003529
     2  C    0.385689   5.245037   0.374657   0.374819   0.377959  -0.067225
     3  H   -0.018773   0.374657   0.510955  -0.023678  -0.034558   0.001264
     4  H   -0.018754   0.374819  -0.023678   0.512295  -0.035437   0.001180
     5  C   -0.030768   0.377959  -0.034558  -0.035437   4.186687   0.587260
     6  O    0.003529  -0.067225   0.001264   0.001180   0.587260   8.210221
     7  N    0.003857  -0.120051   0.003495   0.003718   0.246816  -0.107515
     8  H   -0.000018  -0.001174   0.000644   0.000484  -0.017453   0.002015
     9  C   -0.000076   0.004530  -0.000240  -0.000091  -0.029925   0.014370
    10  H    0.000002  -0.000010  -0.000004  -0.000002  -0.001674   0.002888
    11  C    0.000006  -0.000505   0.000008   0.000030  -0.003955  -0.015773
    12  H    0.000000  -0.000042   0.000000   0.000002   0.000020  -0.000023
    13  H    0.000000   0.000007   0.000000  -0.000001   0.000285   0.000267
    14  H    0.000001   0.000299  -0.000005  -0.000025   0.000424   0.011027
    15  C    0.000000   0.000013  -0.000011  -0.000006   0.004060   0.000559
    16  O    0.000000  -0.000039  -0.000001  -0.000001   0.000284  -0.000003
    17  N    0.000000   0.000000   0.000000   0.000000  -0.000081  -0.000002
    18  H    0.000000   0.000000   0.000000   0.000000   0.000001   0.000001
    19  C    0.000000   0.000000   0.000000   0.000000   0.000001   0.000000
    20  H    0.000000   0.000000   0.000000   0.000000   0.000000   0.000000
    21  C    0.000000   0.000000   0.000000   0.000000   0.000000   0.000000
    22  H    0.000000   0.000000   0.000000   0.000000   0.000000   0.000000
    23  H    0.000000   0.000000   0.000000   0.000000   0.000000   0.000000
    24  H    0.000000   0.000000   0.000000   0.000000   0.000000   0.000000
    25  C    0.000000   0.000000   0.000000   0.000000   0.000000   0.000000
    26  O    0.000000   0.000000   0.000000   0.000000   0.000000   0.000000
    27  N    0.000000   0.000000   0.000000   0.000000   0.000000   0.000000
    28  H    0.000000   0.000000   0.000000   0.000000   0.000000   0.000000
    29  C    0.000000   0.000000   0.000000   0.000000   0.000000   0.000000
    30  H    0.000000   0.000000   0.000000   0.000000   0.000000   0.000000
    31  C    0.000000   0.000000   0.000000   0.000000   0.000000   0.000000
    32  H    0.000000   0.000000   0.000000   0.000000   0.000000   0.000000
    33  H    0.000000   0.000000   0.000000   0.000000   0.000000   0.000000
    34  H    0.000000   0.000000   0.000000   0.000000   0.000000   0.000000
    35  C    0.000000   0.000000   0.000000   0.000000   0.000000   0.000000
    36  O    0.000000   0.000000   0.000000   0.000000   0.000000   0.000000
    37  N    0.000000   0.000000   0.000000   0.000000   0.000000   0.000000
    38  H    0.000000   0.000000   0.000000   0.000000   0.000000   0.000000
    39  C    0.000000   0.000000   0.000000   0.000000   0.000000   0.000000
    40  H    0.000000   0.000000   0.000000   0.000000   0.000000   0.000000
    41  H    0.000000   0.000000   0.000000   0.000000   0.000000   0.000000
    42  H    0.000000   0.000000   0.000000   0.000000   0.000000   0.000000
              7          8          9         10         11         12
     1  H    0.003857  -0.000018  -0.000076   0.000002   0.000006   0.000000
     2  C   -0.120051  -0.001174   0.004530  -0.000010  -0.000505  -0.000042
     3  H    0.003495   0.000644  -0.000240  -0.000004   0.000008   0.000000
     4  H    0.003718   0.000484  -0.000091  -0.000002   0.000030   0.000002
     5  C    0.246816  -0.017453  -0.029925  -0.001674  -0.003955   0.000020
     6  O   -0.107515   0.002015   0.014370   0.002888  -0.015773  -0.000023
     7  N    7.420426   0.311438   0.197458  -0.041601  -0.063463   0.001595
     8  H    0.311438   0.288536  -0.026456   0.002374   0.003003   0.000243
     9  C    0.197458  -0.026456   5.007097   0.406519   0.336858  -0.042619
    10  H   -0.041601   0.002374   0.406519   0.497233  -0.045150   0.004494
    11  C   -0.063463   0.003003   0.336858  -0.045150   5.211121   0.385329
    12  H    0.001595   0.000243  -0.042619   0.004494   0.385329   0.525380
    13  H    0.004797  -0.000079  -0.041018   0.000229   0.379161  -0.023712
    14  H   -0.005532  -0.000196  -0.026758  -0.003974   0.387399  -0.020292
    15  C   -0.037828  -0.005738   0.385453  -0.039884  -0.065548  -0.002999
    16  O   -0.006752   0.020014  -0.069240   0.000879  -0.000207   0.000585
    17  N    0.002737   0.000707  -0.111076   0.002449   0.002151   0.000177
    18  H    0.000031  -0.000016  -0.000261   0.000444   0.000559  -0.000010
    19  C   -0.000049  -0.000016   0.002981  -0.000081  -0.000024  -0.000025
    20  H    0.000001   0.000000  -0.000063   0.000000   0.000015   0.000005
    21  C    0.000001   0.000029  -0.000748   0.000008  -0.000001   0.000003
    22  H    0.000002   0.000002  -0.000147   0.000008   0.000002   0.000000
    23  H    0.000000   0.000000   0.000019  -0.000001   0.000000   0.000000
    24  H   -0.000008   0.000021   0.000193   0.000000  -0.000025   0.000001
    25  C    0.000000   0.000000  -0.000067   0.000003  -0.000021   0.000000
    26  O    0.000000   0.000000  -0.000010   0.000000   0.000002   0.000000
    27  N    0.000000   0.000000  -0.000001   0.000000   0.000000   0.000000
    28  H    0.000000   0.000000   0.000001   0.000000   0.000000   0.000000
    29  C    0.000000   0.000000   0.000000   0.000000   0.000000   0.000000
    30  H    0.000000   0.000000   0.000000   0.000000   0.000000   0.000000
    31  C    0.000000   0.000000   0.000000   0.000000   0.000000   0.000000
    32  H    0.000000   0.000000   0.000000   0.000000   0.000000   0.000000
    33  H    0.000000   0.000000   0.000000   0.000000   0.000000   0.000000
    34  H    0.000000   0.000000   0.000000   0.000000   0.000000   0.000000
    35  C    0.000000   0.000000   0.000000   0.000000   0.000000   0.000000
    36  O    0.000000   0.000000   0.000000   0.000000   0.000000   0.000000
    37  N    0.000000   0.000000   0.000000   0.000000   0.000000   0.000000
    38  H    0.000000   0.000000   0.000000   0.000000   0.000000   0.000000
    39  C    0.000000   0.000000   0.000000   0.000000   0.000000   0.000000
    40  H    0.000000   0.000000   0.000000   0.000000   0.000000   0.000000
    41  H    0.000000   0.000000   0.000000   0.000000   0.000000   0.000000
    42  H    0.000000   0.000000   0.000000   0.000000   0.000000   0.000000
             13         14         15         16         17         18
     1  H    0.000000   0.000001   0.000000   0.000000   0.000000   0.000000
     2  C    0.000007   0.000299   0.000013  -0.000039   0.000000   0.000000
     3  H    0.000000  -0.000005  -0.000011  -0.000001   0.000000   0.000000
     4  H   -0.000001  -0.000025  -0.000006  -0.000001   0.000000   0.000000
     5  C    0.000285   0.000424   0.004060   0.000284  -0.000081   0.000001
     6  O    0.000267   0.011027   0.000559  -0.000003  -0.000002   0.000001
     7  N    0.004797  -0.005532  -0.037828  -0.006752   0.002737   0.000031
     8  H   -0.000079  -0.000196  -0.005738   0.020014   0.000707  -0.000016
     9  C   -0.041018  -0.026758   0.385453  -0.069240  -0.111076  -0.000261
    10  H    0.000229  -0.003974  -0.039884   0.000879   0.002449   0.000444
    11  C    0.379161   0.387399  -0.065548  -0.000207   0.002151   0.000559
    12  H   -0.023712  -0.020292  -0.002999   0.000585   0.000177  -0.000010
    13  H    0.554272  -0.019488  -0.007664   0.000023   0.001252   0.002436
    14  H   -0.019488   0.424471   0.004191  -0.000056   0.000068  -0.000096
    15  C   -0.007664   0.004191   4.174932   0.563358   0.278524  -0.017341
    16  O    0.000023  -0.000056   0.563358   8.311251  -0.100336   0.002152
    17  N    0.001252   0.000068   0.278524  -0.100336   7.406548   0.310357
    18  H    0.002436  -0.000096  -0.017341   0.002152   0.310357   0.294761
    19  C    0.000349   0.000002  -0.035490   0.006825   0.173858  -0.025095
    20  H   -0.000004  -0.000001  -0.001503   0.000571  -0.047035   0.001770
    21  C   -0.000009   0.000000  -0.005343  -0.054370  -0.050718   0.003387
    22  H    0.000000   0.000000   0.000137  -0.002208  -0.000016  -0.000042
    23  H    0.000000   0.000000   0.000532   0.001891   0.004363  -0.000057
    24  H    0.000000   0.000000  -0.003887  -0.005017  -0.001148  -0.000188
    25  C   -0.000034   0.000000   0.003531   0.000174  -0.031845  -0.003213
    26  O   -0.000039   0.000000   0.000234  -0.000001  -0.001118   0.010253
    27  N    0.000000   0.000000  -0.000206   0.000000   0.000643   0.000477
    28  H    0.000000   0.000000  -0.000010   0.000002   0.000227  -0.000032
    29  C    0.000000   0.000000   0.000002   0.000000  -0.000151  -0.000024
    30  H    0.000000   0.000000   0.000000   0.000000   0.000022   0.000009
    31  C    0.000000   0.000000   0.000000   0.000000  -0.000001   0.000002
    32  H    0.000000   0.000000   0.000000   0.000000   0.000001   0.000000
    33  H    0.000000   0.000000   0.000000   0.000000   0.000000   0.000000
    34  H    0.000000   0.000000   0.000000   0.000000  -0.000002  -0.000002
    35  C    0.000000   0.000000   0.000000   0.000000  -0.000001   0.000000
    36  O    0.000000   0.000000   0.000000   0.000000   0.000000   0.000000
    37  N    0.000000   0.000000   0.000000   0.000000   0.000000   0.000000
    38  H    0.000000   0.000000   0.000000   0.000000   0.000000   0.000000
    39  C    0.000000   0.000000   0.000000   0.000000   0.000000   0.000000
    40  H    0.000000   0.000000   0.000000   0.000000   0.000000   0.000000
    41  H    0.000000   0.000000   0.000000   0.000000   0.000000   0.000000
    42  H    0.000000   0.000000   0.000000   0.000000   0.000000   0.000000
             19         20         21         22         23         24
     1  H    0.000000   0.000000   0.000000   0.000000   0.000000   0.000000
     2  C    0.000000   0.000000   0.000000   0.000000   0.000000   0.000000
     3  H    0.000000   0.000000   0.000000   0.000000   0.000000   0.000000
     4  H    0.000000   0.000000   0.000000   0.000000   0.000000   0.000000
     5  C    0.000001   0.000000   0.000000   0.000000   0.000000   0.000000
     6  O    0.000000   0.000000   0.000000   0.000000   0.000000   0.000000
     7  N   -0.000049   0.000001   0.000001   0.000002   0.000000  -0.000008
     8  H   -0.000016   0.000000   0.000029   0.000002   0.000000   0.000021
     9  C    0.002981  -0.000063  -0.000748  -0.000147   0.000019   0.000193
    10  H   -0.000081   0.000000   0.000008   0.000008  -0.000001   0.000000
    11  C   -0.000024   0.000015  -0.000001   0.000002   0.000000  -0.000025
    12  H   -0.000025   0.000005   0.000003   0.000000   0.000000   0.000001
    13  H    0.000349  -0.000004  -0.000009   0.000000   0.000000   0.000000
    14  H    0.000002  -0.000001   0.000000   0.000000   0.000000   0.000000
    15  C   -0.035490  -0.001503  -0.005343   0.000137   0.000532  -0.003887
    16  O    0.006825   0.000571  -0.054370  -0.002208   0.001891  -0.005017
    17  N    0.173858  -0.047035  -0.050718  -0.000016   0.004363  -0.001148
    18  H   -0.025095   0.001770   0.003387  -0.000042  -0.000057  -0.000188
    19  C    4.997712   0.407600   0.327714  -0.042916  -0.042830  -0.022984
    20  H    0.407600   0.497704  -0.039641   0.004492  -0.002036  -0.001757
    21  C    0.327714  -0.039641   5.331060   0.389496   0.381653   0.388007
    22  H   -0.042916   0.004492   0.389496   0.528616  -0.032163  -0.013896
    23  H   -0.042830  -0.002036   0.381653  -0.032163   0.544322  -0.017358
    24  H   -0.022984  -0.001757   0.388007  -0.013896  -0.017358   0.392600
    25  C    0.392338  -0.036061  -0.068836  -0.004651  -0.001944   0.002893
    26  O   -0.073390   0.000379   0.003040  -0.000131  -0.000062  -0.000046
    27  N   -0.090220   0.001648  -0.020688  -0.002401  -0.004936   0.000672
    28  H   -0.004748   0.000119  -0.000480   0.002028   0.000222   0.000192
    29  C    0.004447  -0.000120   0.000824  -0.000016  -0.000019   0.000002
    30  H   -0.000202  -0.000008  -0.000023  -0.000035   0.000003   0.000000
    31  C   -0.000537   0.000034  -0.000014   0.000004  -0.000038   0.000000
    32  H   -0.000015  -0.000006  -0.000024  -0.000002   0.000033   0.000000
    33  H    0.000008  -0.000001   0.000000   0.000000   0.000000   0.000000
    34  H    0.000266  -0.000004  -0.000016   0.000000  -0.000001   0.000000
    35  C    0.000070  -0.000001  -0.000144   0.000003   0.000028   0.000000
    36  O    0.000011   0.000000  -0.000414   0.000033   0.000059  -0.000003
    37  N    0.000001   0.000000  -0.000001   0.000000   0.000000   0.000000
    38  H    0.000000   0.000000   0.000000   0.000000   0.000000   0.000000
    39  C    0.000000   0.000000   0.000000   0.000000   0.000000   0.000000
    40  H    0.000000   0.000000   0.000000   0.000000   0.000000   0.000000
    41  H    0.000000   0.000000   0.000000   0.000000   0.000000   0.000000
    42  H    0.000000   0.000000   0.000000   0.000000   0.000000   0.000000
             25         26         27         28         29         30
     1  H    0.000000   0.000000   0.000000   0.000000   0.000000   0.000000
     2  C    0.000000   0.000000   0.000000   0.000000   0.000000   0.000000
     3  H    0.000000   0.000000   0.000000   0.000000   0.000000   0.000000
     4  H    0.000000   0.000000   0.000000   0.000000   0.000000   0.000000
     5  C    0.000000   0.000000   0.000000   0.000000   0.000000   0.000000
     6  O    0.000000   0.000000   0.000000   0.000000   0.000000   0.000000
     7  N    0.000000   0.000000   0.000000   0.000000   0.000000   0.000000
     8  H    0.000000   0.000000   0.000000   0.000000   0.000000   0.000000
     9  C   -0.000067  -0.000010  -0.000001   0.000001   0.000000   0.000000
    10  H    0.000003   0.000000   0.000000   0.000000   0.000000   0.000000
    11  C   -0.000021   0.000002   0.000000   0.000000   0.000000   0.000000
    12  H    0.000000   0.000000   0.000000   0.000000   0.000000   0.000000
    13  H   -0.000034  -0.000039   0.000000   0.000000   0.000000   0.000000
    14  H    0.000000   0.000000   0.000000   0.000000   0.000000   0.000000
    15  C    0.003531   0.000234  -0.000206  -0.000010   0.000002   0.000000
    16  O    0.000174  -0.000001   0.000000   0.000002   0.000000   0.000000
    17  N   -0.031845  -0.001118   0.000643   0.000227  -0.000151   0.000022
    18  H   -0.003213   0.010253   0.000477  -0.000032  -0.000024   0.000009
    19  C    0.392338  -0.073390  -0.090220  -0.004748   0.004447  -0.000202
    20  H   -0.036061   0.000379   0.001648   0.000119  -0.000120  -0.000008
    21  C   -0.068836   0.003040  -0.020688  -0.000480   0.000824  -0.000023
    22  H   -0.004651  -0.000131  -0.002401   0.002028  -0.000016  -0.000035
    23  H   -0.001944  -0.000062  -0.004936   0.000222  -0.000019   0.000003
    24  H    0.002893  -0.000046   0.000672   0.000192   0.000002   0.000000
    25  C    4.153602   0.552639   0.302676  -0.010616  -0.032169  -0.001839
    26  O    0.552639   8.261157  -0.102535   0.001968   0.013629   0.003070
    27  N    0.302676  -0.102535   7.431144   0.290940   0.192484  -0.040858
    28  H   -0.010616   0.001968   0.290940   0.263465  -0.029329   0.002240
    29  C   -0.032169   0.013629   0.192484  -0.029329   5.037195   0.403296
    30  H   -0.001839   0.003070  -0.040858   0.002240   0.403296   0.499640
    31  C   -0.003585  -0.014981  -0.062804   0.003014   0.336058  -0.045119
    32  H   -0.000090   0.000015   0.001336   0.000237  -0.042379   0.004458
    33  H    0.000258   0.000241   0.004946  -0.000070  -0.042141   0.000221
    34  H    0.000602   0.009409  -0.005282  -0.000196  -0.027173  -0.003956
    35  C    0.003414   0.000442  -0.035490  -0.004738   0.378977  -0.036496
    36  O    0.000231  -0.000002  -0.008827   0.026856  -0.077025   0.001024
    37  N   -0.000094  -0.000001   0.002555   0.000872  -0.115913   0.002207
    38  H    0.000002   0.000001   0.000037  -0.000029   0.001143   0.000465
    39  C    0.000001   0.000000  -0.000048  -0.000010   0.003639  -0.000214
    40  H    0.000000   0.000000  -0.000003  -0.000011   0.000583  -0.000017
    41  H    0.000000   0.000000   0.000000   0.000000  -0.000111   0.000010
    42  H    0.000000   0.000000   0.000001   0.000000  -0.000004  -0.000001
             31         32         33         34         35         36
     1  H    0.000000   0.000000   0.000000   0.000000   0.000000   0.000000
     2  C    0.000000   0.000000   0.000000   0.000000   0.000000   0.000000
     3  H    0.000000   0.000000   0.000000   0.000000   0.000000   0.000000
     4  H    0.000000   0.000000   0.000000   0.000000   0.000000   0.000000
     5  C    0.000000   0.000000   0.000000   0.000000   0.000000   0.000000
     6  O    0.000000   0.000000   0.000000   0.000000   0.000000   0.000000
     7  N    0.000000   0.000000   0.000000   0.000000   0.000000   0.000000
     8  H    0.000000   0.000000   0.000000   0.000000   0.000000   0.000000
     9  C    0.000000   0.000000   0.000000   0.000000   0.000000   0.000000
    10  H    0.000000   0.000000   0.000000   0.000000   0.000000   0.000000
    11  C    0.000000   0.000000   0.000000   0.000000   0.000000   0.000000
    12  H    0.000000   0.000000   0.000000   0.000000   0.000000   0.000000
    13  H    0.000000   0.000000   0.000000   0.000000   0.000000   0.000000
    14  H    0.000000   0.000000   0.000000   0.000000   0.000000   0.000000
    15  C    0.000000   0.000000   0.000000   0.000000   0.000000   0.000000
    16  O    0.000000   0.000000   0.000000   0.000000   0.000000   0.000000
    17  N   -0.000001   0.000001   0.000000  -0.000002  -0.000001   0.000000
    18  H    0.000002   0.000000   0.000000  -0.000002   0.000000   0.000000
    19  C   -0.000537  -0.000015   0.000008   0.000266   0.000070   0.000011
    20  H    0.000034  -0.000006  -0.000001  -0.000004  -0.000001   0.000000
    21  C   -0.000014  -0.000024   0.000000  -0.000016  -0.000144  -0.000414
    22  H    0.000004  -0.000002   0.000000   0.000000   0.000003   0.000033
    23  H   -0.000038   0.000033   0.000000  -0.000001   0.000028   0.000059
    24  H    0.000000   0.000000   0.000000   0.000000   0.000000  -0.000003
    25  C   -0.003585  -0.000090   0.000258   0.000602   0.003414   0.000231
    26  O   -0.014981   0.000015   0.000241   0.009409   0.000442  -0.000002
    27  N   -0.062804   0.001336   0.004946  -0.005282  -0.035490  -0.008827
    28  H    0.003014   0.000237  -0.000070  -0.000196  -0.004738   0.026856
    29  C    0.336058  -0.042379  -0.042141  -0.027173   0.378977  -0.077025
    30  H   -0.045119   0.004458   0.000221  -0.003956  -0.036496   0.001024
    31  C    5.204112   0.386110   0.379493   0.388357  -0.063312  -0.000030
    32  H    0.386110   0.520488  -0.023603  -0.020498  -0.002733   0.000640
    33  H    0.379493  -0.023603   0.563305  -0.020325  -0.006861   0.000023
    34  H    0.388357  -0.020498  -0.020325   0.429332   0.003910  -0.000064
    35  C   -0.063312  -0.002733  -0.006861   0.003910   4.144125   0.591078
    36  O   -0.000030   0.000640   0.000023  -0.000064   0.591078   8.211062
    37  N    0.002423   0.000180   0.000407   0.000091   0.288355  -0.098372
    38  H   -0.000031  -0.000008   0.002619  -0.000080  -0.020781   0.002352
    39  C   -0.000077  -0.000041   0.000159   0.000003  -0.025536  -0.004821
    40  H   -0.000049  -0.000001  -0.000008   0.000000  -0.001937   0.009808
    41  H   -0.000004   0.000001   0.000002   0.000000   0.000789   0.000366
    42  H    0.000011   0.000002  -0.000002  -0.000001   0.000934   0.000375
             37         38         39         40         41         42
     1  H    0.000000   0.000000   0.000000   0.000000   0.000000   0.000000
     2  C    0.000000   0.000000   0.000000   0.000000   0.000000   0.000000
     3  H    0.000000   0.000000   0.000000   0.000000   0.000000   0.000000
     4  H    0.000000   0.000000   0.000000   0.000000   0.000000   0.000000
     5  C    0.000000   0.000000   0.000000   0.000000   0.000000   0.000000
     6  O    0.000000   0.000000   0.000000   0.000000   0.000000   0.000000
     7  N    0.000000   0.000000   0.000000   0.000000   0.000000   0.000000
     8  H    0.000000   0.000000   0.000000   0.000000   0.000000   0.000000
     9  C    0.000000   0.000000   0.000000   0.000000   0.000000   0.000000
    10  H    0.000000   0.000000   0.000000   0.000000   0.000000   0.000000
    11  C    0.000000   0.000000   0.000000   0.000000   0.000000   0.000000
    12  H    0.000000   0.000000   0.000000   0.000000   0.000000   0.000000
    13  H    0.000000   0.000000   0.000000   0.000000   0.000000   0.000000
    14  H    0.000000   0.000000   0.000000   0.000000   0.000000   0.000000
    15  C    0.000000   0.000000   0.000000   0.000000   0.000000   0.000000
    16  O    0.000000   0.000000   0.000000   0.000000   0.000000   0.000000
    17  N    0.000000   0.000000   0.000000   0.000000   0.000000   0.000000
    18  H    0.000000   0.000000   0.000000   0.000000   0.000000   0.000000
    19  C    0.000001   0.000000   0.000000   0.000000   0.000000   0.000000
    20  H    0.000000   0.000000   0.000000   0.000000   0.000000   0.000000
    21  C   -0.000001   0.000000   0.000000   0.000000   0.000000   0.000000
    22  H    0.000000   0.000000   0.000000   0.000000   0.000000   0.000000
    23  H    0.000000   0.000000   0.000000   0.000000   0.000000   0.000000
    24  H    0.000000   0.000000   0.000000   0.000000   0.000000   0.000000
    25  C   -0.000094   0.000002   0.000001   0.000000   0.000000   0.000000
    26  O   -0.000001   0.000001   0.000000   0.000000   0.000000   0.000000
    27  N    0.002555   0.000037  -0.000048  -0.000003   0.000000   0.000001
    28  H    0.000872  -0.000029  -0.000010  -0.000011   0.000000   0.000000
    29  C   -0.115913   0.001143   0.003639   0.000583  -0.000111  -0.000004
    30  H    0.002207   0.000465  -0.000214  -0.000017   0.000010  -0.000001
    31  C    0.002423  -0.000031  -0.000077  -0.000049  -0.000004   0.000011
    32  H    0.000180  -0.000008  -0.000041  -0.000001   0.000001   0.000002
    33  H    0.000407   0.002619   0.000159  -0.000008   0.000002  -0.000002
    34  H    0.000091  -0.000080   0.000003   0.000000   0.000000  -0.000001
    35  C    0.288355  -0.020781  -0.025536  -0.001937   0.000789   0.000934
    36  O   -0.098372   0.002352  -0.004821   0.009808   0.000366   0.000375
    37  N    7.332276   0.322561   0.184805  -0.031703  -0.046950  -0.047934
[...]
    30  H    0.000000   0.000000   0.000001   0.000000   0.000016   0.000013
    31  C    0.000000   0.000000   0.000000   0.000000  -0.000002   0.000000
    32  H    0.000000   0.000000   0.000000   0.000000   0.000000   0.000000
    33  H    0.000000   0.000000   0.000000   0.000000   0.000000   0.000000
    34  H    0.000000   0.000000   0.000000   0.000000   0.000000  -0.000002
    35  C    0.000000   0.000000   0.000000   0.000000  -0.000001  -0.000001
    36  O    0.000000   0.000000   0.000000   0.000000   0.000000   0.000000
    37  N    0.000000   0.000000   0.000000   0.000000   0.000000   0.000000
    38  H    0.000000   0.000000   0.000000   0.000000   0.000000   0.000000
    39  C    0.000000   0.000000   0.000000   0.000000   0.000000   0.000000
    40  H    0.000000   0.000000   0.000000   0.000000   0.000000   0.000000
    41  H    0.000000   0.000000   0.000000   0.000000   0.000000   0.000000
    42  H    0.000000   0.000000   0.000000   0.000000   0.000000   0.000000
             19         20         21         22         23         24
     1  H    0.000000   0.000000   0.000000   0.000000   0.000000   0.000000
     2  C    0.000000   0.000000   0.000000   0.000000   0.000000   0.000000
     3  H    0.000000   0.000000   0.000000   0.000000   0.000000   0.000000
     4  H    0.000000   0.000000   0.000000   0.000000   0.000000   0.000000
     5  C    0.000001   0.000000   0.000000   0.000000   0.000000   0.000000
     6  O    0.000000   0.000000   0.000000   0.000000   0.000000   0.000000
     7  N   -0.000064  -0.000001   0.000002  -0.000001   0.000000   0.000000
     8  H   -0.000008   0.000000   0.000000   0.000001   0.000000  -0.000001
     9  C    0.003009  -0.000141  -0.000079  -0.000065   0.000011   0.000073
    10  H    0.000164   0.000003  -0.000011   0.000001   0.000000  -0.000001
    11  C   -0.000308   0.000066  -0.000006   0.000002   0.000000  -0.000007
    12  H    0.000021   0.000001  -0.000001   0.000000   0.000000   0.000000
    13  H    0.000025  -0.000016   0.000000   0.000000   0.000000   0.000000
    14  H    0.000002  -0.000001   0.000000   0.000000   0.000000   0.000000
    15  C   -0.023787  -0.000996  -0.002401   0.000244   0.000212   0.000270
    16  O    0.002940   0.000182  -0.007690  -0.000755   0.000579   0.003343
    17  N    0.184668  -0.048801  -0.042767  -0.000714   0.003952  -0.002305
    18  H   -0.029015   0.001320   0.003136  -0.000050  -0.000060  -0.000144
    19  C    4.960480   0.413852   0.329671  -0.034272  -0.042736  -0.023618
    20  H    0.413852   0.511600  -0.039569   0.004067  -0.001759  -0.003124
    21  C    0.329671  -0.039569   5.169829   0.388828   0.382112   0.390177
    22  H   -0.034272   0.004067   0.388828   0.505488  -0.028949  -0.019925
    23  H   -0.042736  -0.001759   0.382112  -0.028949   0.544448  -0.022266
    24  H   -0.023618  -0.003124   0.390177  -0.019925  -0.022266   0.445343
    25  C    0.395903  -0.047658  -0.048109  -0.004025  -0.002076   0.002886
    26  O   -0.076587   0.000840   0.002863  -0.000067   0.000002  -0.000047
    27  N   -0.090390   0.002821  -0.001955   0.000868   0.000477   0.000146
    28  H   -0.002885   0.000100   0.000619   0.001638   0.000054   0.000039
    29  C    0.004626  -0.000159  -0.000067  -0.000088  -0.000107   0.000005
    30  H    0.000045  -0.000014  -0.000023  -0.000008   0.000002   0.000000
    31  C   -0.000323   0.000032   0.000011   0.000005  -0.000007   0.000000
    32  H    0.000002  -0.000002  -0.000009  -0.000001   0.000015   0.000000
    33  H    0.000003   0.000000   0.000000   0.000000   0.000000   0.000000
    34  H    0.000095  -0.000005  -0.000007   0.000000   0.000000   0.000000
    35  C    0.000042  -0.000001  -0.000042   0.000009   0.000007   0.000000
    36  O    0.000003   0.000000  -0.000146   0.000042  -0.000013  -0.000001
    37  N    0.000001   0.000000  -0.000001   0.000000   0.000000   0.000000
    38  H    0.000000   0.000000   0.000000   0.000000   0.000000   0.000000
    39  C    0.000000   0.000000   0.000000   0.000000   0.000000   0.000000
    40  H    0.000000   0.000000   0.000000   0.000000   0.000000   0.000000
    41  H    0.000000   0.000000   0.000000   0.000000   0.000000   0.000000
    42  H    0.000000   0.000000   0.000000   0.000000   0.000000   0.000000
             25         26         27         28         29         30
     1  H    0.000000   0.000000   0.000000   0.000000   0.000000   0.000000
     2  C    0.000000   0.000000   0.000000   0.000000   0.000000   0.000000
     3  H    0.000000   0.000000   0.000000   0.000000   0.000000   0.000000
     4  H    0.000000   0.000000   0.000000   0.000000   0.000000   0.000000
     5  C    0.000000   0.000000   0.000000   0.000000   0.000000   0.000000
     6  O    0.000000   0.000000   0.000000   0.000000   0.000000   0.000000
     7  N    0.000001   0.000000   0.000000   0.000000   0.000000   0.000000
     8  H    0.000000   0.000000   0.000000   0.000000   0.000000   0.000000
     9  C   -0.000177  -0.000056  -0.000001   0.000000   0.000000   0.000000
    10  H   -0.000022  -0.000005   0.000000   0.000000   0.000000   0.000000
    11  C    0.000000   0.000002   0.000000   0.000000   0.000000   0.000000
    12  H    0.000000   0.000000   0.000000   0.000000   0.000000   0.000000
    13  H   -0.000004  -0.000014   0.000000   0.000000   0.000000   0.000000
    14  H    0.000000   0.000000   0.000000   0.000000   0.000000   0.000000
    15  C    0.002720   0.000513  -0.000131  -0.000009   0.000000   0.000001
    16  O   -0.000007  -0.000002   0.000003  -0.000003   0.000000   0.000000
    17  N   -0.048050  -0.007950   0.000863   0.000181  -0.000200   0.000016
    18  H   -0.005515   0.018592   0.000832  -0.000041  -0.000038   0.000013
    19  C    0.395903  -0.076587  -0.090390  -0.002885   0.004626   0.000045
    20  H   -0.047658   0.000840   0.002821   0.000100  -0.000159  -0.000014
    21  C   -0.048109   0.002863  -0.001955   0.000619  -0.000067  -0.000023
    22  H   -0.004025  -0.000067   0.000868   0.001638  -0.000088  -0.000008
    23  H   -0.002076   0.000002   0.000477   0.000054  -0.000107   0.000002
    24  H    0.002886  -0.000047   0.000146   0.000039   0.000005   0.000000
    25  C    4.167799   0.557539   0.298738  -0.011088  -0.031078  -0.001310
    26  O    0.557539   8.238143  -0.104621   0.001834   0.009825   0.006364
    27  N    0.298738  -0.104621   7.399887   0.298871   0.193356  -0.043095
    28  H   -0.011088   0.001834   0.298871   0.270933  -0.028695   0.002647
    29  C   -0.031078   0.009825   0.193356  -0.028695   5.051098   0.410704
    30  H   -0.001310   0.006364  -0.043095   0.002647   0.410704   0.484115
    31  C   -0.002490  -0.004127  -0.063471   0.002711   0.338474  -0.040151
    32  H    0.000138  -0.000001   0.000011   0.000509  -0.038494   0.003951
    33  H    0.000052   0.000007   0.004627  -0.000061  -0.037667   0.000022
    34  H    0.002123   0.004523  -0.005318  -0.000197  -0.029611  -0.003586
    35  C    0.003702   0.000468  -0.040524  -0.007369   0.376280  -0.042511
    36  O    0.000311  -0.000004  -0.010826   0.026815  -0.076196   0.001770
    37  N   -0.000126  -0.000002   0.002362   0.001152  -0.115390   0.003941
    38  H   -0.000005  -0.000001   0.000009  -0.000037   0.000541   0.001342
    39  C    0.000002   0.000000  -0.000076  -0.000034   0.004341  -0.000097
    40  H    0.000000   0.000000  -0.000004  -0.000004   0.000154  -0.000001
    41  H    0.000000   0.000000   0.000007   0.000001  -0.000175  -0.000003
    42  H    0.000000   0.000000   0.000000   0.000000   0.000003  -0.000011
             31         32         33         34         35         36
     1  H    0.000000   0.000000   0.000000   0.000000   0.000000   0.000000
     2  C    0.000000   0.000000   0.000000   0.000000   0.000000   0.000000
     3  H    0.000000   0.000000   0.000000   0.000000   0.000000   0.000000
     4  H    0.000000   0.000000   0.000000   0.000000   0.000000   0.000000
     5  C    0.000000   0.000000   0.000000   0.000000   0.000000   0.000000
     6  O    0.000000   0.000000   0.000000   0.000000   0.000000   0.000000
     7  N    0.000000   0.000000   0.000000   0.000000   0.000000   0.000000
     8  H    0.000000   0.000000   0.000000   0.000000   0.000000   0.000000
     9  C    0.000000   0.000000   0.000000   0.000000   0.000000   0.000000
    10  H    0.000000   0.000000   0.000000   0.000000   0.000000   0.000000
    11  C    0.000000   0.000000   0.000000   0.000000   0.000000   0.000000
    12  H    0.000000   0.000000   0.000000   0.000000   0.000000   0.000000
    13  H    0.000000   0.000000   0.000000   0.000000   0.000000   0.000000
    14  H    0.000000   0.000000   0.000000   0.000000   0.000000   0.000000
    15  C    0.000000   0.000000   0.000000   0.000000   0.000000   0.000000
    16  O    0.000000   0.000000   0.000000   0.000000   0.000000   0.000000
    17  N   -0.000002   0.000000   0.000000   0.000000  -0.000001   0.000000
    18  H    0.000000   0.000000   0.000000  -0.000002  -0.000001   0.000000
    19  C   -0.000323   0.000002   0.000003   0.000095   0.000042   0.000003
    20  H    0.000032  -0.000002   0.000000  -0.000005  -0.000001   0.000000
    21  C    0.000011  -0.000009   0.000000  -0.000007  -0.000042  -0.000146
    22  H    0.000005  -0.000001   0.000000   0.000000   0.000009   0.000042
    23  H   -0.000007   0.000015   0.000000   0.000000   0.000007  -0.000013
    24  H    0.000000   0.000000   0.000000   0.000000   0.000000  -0.000001
    25  C   -0.002490   0.000138   0.000052   0.002123   0.003702   0.000311
    26  O   -0.004127  -0.000001   0.000007   0.004523   0.000468  -0.000004
    27  N   -0.063471   0.000011   0.004627  -0.005318  -0.040524  -0.010826
    28  H    0.002711   0.000509  -0.000061  -0.000197  -0.007369   0.026815
    29  C    0.338474  -0.038494  -0.037667  -0.029611   0.376280  -0.076196
    30  H   -0.040151   0.003951   0.000022  -0.003586  -0.042511   0.001770
    31  C    5.145139   0.389057   0.382592   0.391614  -0.052976  -0.000910
    32  H    0.389057   0.512911  -0.024254  -0.023080  -0.004017   0.001592
    33  H    0.382592  -0.024254   0.534341  -0.022646  -0.003024   0.000021
    34  H    0.391614  -0.023080  -0.022646   0.470495   0.004129  -0.000072
    35  C   -0.052976  -0.004017  -0.003024   0.004129   4.163420   0.595612
    36  O   -0.000910   0.001592   0.000021  -0.000072   0.595612   8.178761
    37  N    0.001564   0.000409   0.002338  -0.000051   0.283711  -0.103393
    38  H    0.000336   0.000005   0.000482  -0.000035  -0.022271   0.002495
    39  C   -0.000255  -0.000009  -0.000014   0.000003  -0.028868   0.008212
    40  H    0.000002   0.000003  -0.000011   0.000000  -0.003025   0.003131
    41  H   -0.000005   0.000000   0.000003   0.000000  -0.003764   0.001180
    42  H    0.000004   0.000000  -0.000007   0.000000   0.004556   0.000348
             37         38         39         40         41         42
     1  H    0.000000   0.000000   0.000000   0.000000   0.000000   0.000000
     2  C    0.000000   0.000000   0.000000   0.000000   0.000000   0.000000
     3  H    0.000000   0.000000   0.000000   0.000000   0.000000   0.000000
     4  H    0.000000   0.000000   0.000000   0.000000   0.000000   0.000000
     5  C    0.000000   0.000000   0.000000   0.000000   0.000000   0.000000
     6  O    0.000000   0.000000   0.000000   0.000000   0.000000   0.000000
     7  N    0.000000   0.000000   0.000000   0.000000   0.000000   0.000000
     8  H    0.000000   0.000000   0.000000   0.000000   0.000000   0.000000
     9  C    0.000000   0.000000   0.000000   0.000000   0.000000   0.000000
    10  H    0.000000   0.000000   0.000000   0.000000   0.000000   0.000000
    11  C    0.000000   0.000000   0.000000   0.000000   0.000000   0.000000
    12  H    0.000000   0.000000   0.000000   0.000000   0.000000   0.000000
    13  H    0.000000   0.000000   0.000000   0.000000   0.000000   0.000000
    14  H    0.000000   0.000000   0.000000   0.000000   0.000000   0.000000
    15  C    0.000000   0.000000   0.000000   0.000000   0.000000   0.000000
    16  O    0.000000   0.000000   0.000000   0.000000   0.000000   0.000000
    17  N    0.000000   0.000000   0.000000   0.000000   0.000000   0.000000
    18  H    0.000000   0.000000   0.000000   0.000000   0.000000   0.000000
    19  C    0.000001   0.000000   0.000000   0.000000   0.000000   0.000000
    20  H    0.000000   0.000000   0.000000   0.000000   0.000000   0.000000
    21  C   -0.000001   0.000000   0.000000   0.000000   0.000000   0.000000
    22  H    0.000000   0.000000   0.000000   0.000000   0.000000   0.000000
    23  H    0.000000   0.000000   0.000000   0.000000   0.000000   0.000000
    24  H    0.000000   0.000000   0.000000   0.000000   0.000000   0.000000
    25  C   -0.000126  -0.000005   0.000002   0.000000   0.000000   0.000000
    26  O   -0.000002  -0.000001   0.000000   0.000000   0.000000   0.000000
    27  N    0.002362   0.000009  -0.000076  -0.000004   0.000007   0.000000
    28  H    0.001152  -0.000037  -0.000034  -0.000004   0.000001   0.000000
    29  C   -0.115390   0.000541   0.004341   0.000154  -0.000175   0.000003
    30  H    0.003941   0.001342  -0.000097  -0.000001  -0.000003  -0.000011
    31  C    0.001564   0.000336  -0.000255   0.000002  -0.000005   0.000004
    32  H    0.000409   0.000005  -0.000009   0.000003   0.000000   0.000000
    33  H    0.002338   0.000482  -0.000014  -0.000011   0.000003  -0.000007
    34  H   -0.000051  -0.000035   0.000003   0.000000   0.000000   0.000000
    35  C    0.283711  -0.022271  -0.028868  -0.003025  -0.003764   0.004556
    36  O   -0.103393   0.002495   0.008212   0.003131   0.001180   0.000348
    37  N    7.323707   0.328504   0.193373  -0.040316  -0.045336  -0.037070
    38  H    0.328504   0.320247  -0.021987   0.002502   0.001321  -0.004550
    39  C    0.193373  -0.021987   4.911478   0.404189   0.406416   0.397490
    40  H   -0.040316   0.002502   0.404189   0.486004  -0.032399  -0.024689
    41  H   -0.045336   0.001321   0.406416  -0.032399   0.516728  -0.030703
    42  H   -0.037070  -0.004550   0.397490  -0.024689  -0.030703   0.520654
 Mulliken atomic charges:
              1
     1  H    0.206383
     2  C   -0.575130
     3  H    0.172469
     4  H    0.202156
     5  C    0.756548
     6  O   -0.623579
     7  N   -0.824214
     8  H    0.418626
     9  C   -0.035247
    10  H    0.220417
    11  C   -0.488718
    12  H    0.175934
    13  H    0.162506
    14  H    0.211653
    15  C    0.800065
    16  O   -0.639558
    17  N   -0.857104
    18  H    0.417576
    19  C    0.028442
    20  H    0.207363
    21  C   -0.524368
    22  H    0.187726
    23  H    0.166104
    24  H    0.229153
    25  C    0.769824
    26  O   -0.648031
    27  N   -0.843467
    28  H    0.442318
    29  C   -0.031443
    30  H    0.215875
    31  C   -0.486823
    32  H    0.181263
    33  H    0.163196
    34  H    0.211629
    35  C    0.776457
    36  O   -0.628733
    37  N   -0.799377
    38  H    0.391101
    39  C   -0.274162
    40  H    0.204465
    41  H    0.186729
    42  H    0.173975
 Sum of Mulliken atomic charges =   0.00000
 Mulliken charges with hydrogens summed into heavy atoms:
              1
     2  C    0.005878
     5  C    0.756548
     6  O   -0.623579
     7  N   -0.405587
     9  C    0.185170
    11  C    0.061375
    15  C    0.800065
    16  O   -0.639558
    17  N   -0.439528
    19  C    0.235805
    21  C    0.058616
    25  C    0.769824
    26  O   -0.648031
    27  N   -0.401149
    29  C    0.184432
    31  C    0.069265
    35  C    0.776457
    36  O   -0.628733
    37  N   -0.408276
    39  C    0.291007
 Sum of Mulliken charges with hydrogens summed into heavy atoms =   0.00000
 Electronic spatial extent (au):  <R**2>=           9578.2245
 Charge=              0.0000 electrons
 Dipole moment (field-independent basis, Debye):
    X=             -4.3383    Y=              0.4306    Z=              0.0564  Tot=              4.3600
 Quadrupole moment (field-independent basis, Debye-Ang):
   XX=           -105.1353   YY=           -114.9054   ZZ=           -132.2610
   XY=            -11.5303   XZ=             20.7413   YZ=             -1.0000
 Traceless Quadrupole moment (field-independent basis, Debye-Ang):
   XX=             12.2986   YY=              2.5285   ZZ=            -14.8271
   XY=            -11.5303   XZ=             20.7413   YZ=             -1.0000
 Octapole moment (field-independent basis, Debye-Ang**2):
  XXX=           -103.6842  YYY=             19.7335  ZZZ=             -0.6223  XYY=            -33.6781
  XXY=             40.8519  XXZ=              6.2525  XZZ=            -25.7308  YZZ=              2.1911
  YYZ=             16.1399  XYZ=             64.9559
 Hexadecapole moment (field-independent basis, Debye-Ang**3):
 XXXX=          -9031.1694 YYYY=          -1765.3908 ZZZZ=           -900.9714 XXXY=           -316.3861
 XXXZ=            610.6746 YYYX=            -96.0107 YYYZ=             -6.1315 ZZZX=             55.3740
 ZZZY=            -11.1725 XXYY=          -1753.1648 XXZZ=          -1897.0793 YYZZ=           -482.5755
 XXYZ=             90.1970 YYXZ=             62.5086 ZZXY=            -57.3722
 N-N= 1.598725199274D+03 E-N=-5.505249364185D+03  KE= 9.830937547563D+02
 1\1\GINC-NODE004\FOpt\RHF\6-31G(d)\C12H22N4O4\STEBOSS\26-Dec-2016\0\\#
  HF/6-31G* Opt=(ModRedundant, maxcycles=1000, calcfc) geom=nocrowd\\Ph
 i Psi fixed scan\\0,1\H,4.1898011276,1.9964564929,3.6128567929\C,3.607
 5341393,2.3853176955,2.7879165932\H,2.8904067484,3.1074281983,3.158844
 4131\H,3.0698750496,1.5557138998,2.3418870094\C,4.5541230962,2.9569846
 124,1.7543976904\O,5.5442983483,2.3643717927,1.4112817138\N,4.20575141
 18,4.1514148771,1.2365167385\H,3.3946495449,4.6349921485,1.5503076125\
 C,5.0050992901,4.8234241714,0.2417038434\H,6.0484603089,4.6773182384,0
 .4895449099\C,4.7459299284,4.2797408965,-1.1701984743\H,3.7075621187,4
 .4284213253,-1.4464315759\H,5.3730529877,4.7715447748,-1.9068664828\H,
 4.9660963592,3.2206139367,-1.1874551044\C,4.6596562162,6.3123731384,0.
 3082352372\O,3.6039604333,6.6776401779,0.7576620285\N,5.6142546289,7.1
 169500464,-0.1959579696\H,6.4190120571,6.6799611878,-0.5894435077\C,5.
 6028627078,8.565844434,-0.3856743194\H,5.3577095993,8.7798066376,-1.42
 16638181\C,4.6271503563,9.3245814851,0.5095909706\H,4.7877353209,9.111
 9244464,1.5593997697\H,4.7498737934,10.3894447199,0.3391575393\H,3.609
 4108455,9.0585580536,0.2770011727\C,7.0790575879,8.9656088025,-0.23789
 90168\O,7.8900484729,8.4553519183,-0.9740732165\N,7.4184747796,9.82371
 19343,0.7300894867\H,6.7453766213,10.2034146585,1.3569616048\C,8.79233
 79824,10.2033677275,0.97006883\H,9.4125048847,9.3229066072,0.858223509
 5\C,9.2726124125,11.2824802016,-0.0090586354\H,8.6727324081,12.1797441
 22,0.0960661548\H,10.3111457883,11.539704142,0.1703097504\H,9.18094844
 56,10.9134742891,-1.0219089586\C,8.8704957755,10.7146923836,2.40620924
 55\O,7.8940077692,11.1282983538,2.976212504\N,10.0945977124,10.7113319
 887,2.9601046055\H,10.8399980547,10.2627605756,2.4802395902\C,10.31936
 74798,11.1785057819,4.313464371\H,9.8593854541,12.1463446001,4.4506256
 218\H,9.9057780114,10.4940386922,5.0448641093\H,11.384863942,11.267635
 8335,4.4754876612\\Version=EM64L-G09RevA.02\State=1-A\HF=-984.5569772\
 RMSD=8.512e-09\RMSF=4.642e-04\Dipole=0.974568,1.366022,0.3558464\Quadr
 upole=12.7473257,-11.91494,-0.8323857,14.2378789,7.4176169,-2.4193948\
 PG=C01 [X(C12H22N4O4)]\\@


 KNOWLEDGE IS CHIMERA - FOR BEYOND IT LIES OTHER KNOWLEDGE,
 AND THE INCOMPLETENESS OF WHAT IS KNOWN RENDERS THE KNOWING FALSE.
     -- THE THOMAS COVENANT CHRONICLES
 Job cpu time:  0 days  2 hours 40 minutes 28.3 seconds.
 File lengths (MBytes):  RWF=    553 Int=      0 D2E=      0 Chk=     11 Scr=      1
 Normal termination of Gaussian 09 at Mon Dec 26 17:05:57 2016.
