 Entering Gaussian System, Link 0=g09
 Initial command:
 /home/steboss/Software/g09/l1.exe /home/steboss/projects/phi_psi_scan/alanine/MP2/180/5332/Gau-29563.inp -scrdir=/home/steboss/projects/phi_psi_scan/alanine/MP2/180/5332/
 Entering Link 1 = /home/steboss/Software/g09/l1.exe PID=     29565.
  
 Copyright (c) 1988,1990,1992,1993,1995,1998,2003,2009, Gaussian, Inc.
                  All Rights Reserved.
  
 This is part of the Gaussian(R) 09 program.  It is based on
 the Gaussian(R) 03 system (copyright 2003, Gaussian, Inc.),
 the Gaussian(R) 98 system (copyright 1998, Gaussian, Inc.),
 the Gaussian(R) 94 system (copyright 1995, Gaussian, Inc.),
 the Gaussian 92(TM) system (copyright 1992, Gaussian, Inc.),
 the Gaussian 90(TM) system (copyright 1990, Gaussian, Inc.),
 the Gaussian 88(TM) system (copyright 1988, Gaussian, Inc.),
 the Gaussian 86(TM) system (copyright 1986, Carnegie Mellon
 University), and the Gaussian 82(TM) system (copyright 1983,
 Carnegie Mellon University). Gaussian is a federally registered
 trademark of Gaussian, Inc.
  
 This software contains proprietary and confidential information,
 including trade secrets, belonging to Gaussian, Inc.
  
 This software is provided under written license and may be
 used, copied, transmitted, or stored only in accord with that
 written license.
  
 The following legend is applicable only to US Government
 contracts under FAR:
  
                    RESTRICTED RIGHTS LEGEND
  
 Use, reproduction and disclosure by the US Government is
 subject to restrictions as set forth in subparagraphs (a)
 and (c) of the Commercial Computer Software - Restricted
 Rights clause in FAR 52.227-19.
  
 Gaussian, Inc.
 340 Quinnipiac St., Bldg. 40, Wallingford CT 06492
  
  
 ---------------------------------------------------------------
 Warning -- This program may not be used in any manner that
 competes with the business of Gaussian, Inc. or will provide
 assistance to any competitor of Gaussian, Inc.  The licensee
 of this program is prohibited from giving any competitor of
 Gaussian, Inc. access to this program.  By using this program,
 the user acknowledges that Gaussian, Inc. is engaged in the
 business of creating and licensing software in the field of
 computational chemistry and represents and warrants to the
 licensee that it is not a competitor of Gaussian, Inc. and that
 it will not use this program in any manner prohibited above.
 ---------------------------------------------------------------
  

 Cite this work as:
 Gaussian 09, Revision A.02,
 M. J. Frisch, G. W. Trucks, H. B. Schlegel, G. E. Scuseria, 
 M. A. Robb, J. R. Cheeseman, G. Scalmani, V. Barone, B. Mennucci, 
 G. A. Petersson, H. Nakatsuji, M. Caricato, X. Li, H. P. Hratchian, 
 A. F. Izmaylov, J. Bloino, G. Zheng, J. L. Sonnenberg, M. Hada, 
 M. Ehara, K. Toyota, R. Fukuda, J. Hasegawa, M. Ishida, T. Nakajima, 
 Y. Honda, O. Kitao, H. Nakai, T. Vreven, J. A. Montgomery, Jr., 
 J. E. Peralta, F. Ogliaro, M. Bearpark, J. J. Heyd, E. Brothers, 
 K. N. Kudin, V. N. Staroverov, R. Kobayashi, J. Normand, 
 K. Raghavachari, A. Rendell, J. C. Burant, S. S. Iyengar, J. Tomasi, 
 M. Cossi, N. Rega, J. M. Millam, M. Klene, J. E. Knox, J. B. Cross, 
 V. Bakken, C. Adamo, J. Jaramillo, R. Gomperts, R. E. Stratmann, 
 O. Yazyev, A. J. Austin, R. Cammi, C. Pomelli, J. W. Ochterski, 
 R. L. Martin, K. Morokuma, V. G. Zakrzewski, G. A. Voth, 
 P. Salvador, J. J. Dannenberg, S. Dapprich, A. D. Daniels, 
 O. Farkas, J. B. Foresman, J. V. Ortiz, J. Cioslowski, 
 and D. J. Fox, Gaussian, Inc., Wallingford CT, 2009.
 
 ******************************************
 Gaussian 09:  EM64L-G09RevA.02 11-Jun-2009
                12-Feb-2017 
 ******************************************
 %chk=structure_195.chk
 %NProcShared=8
 Will use up to    8 processors via shared memory.
 -------------------
 #SP MP2/aug-cc-pVDZ
 -------------------
 1/38=1/1;
 2/12=2,17=6,18=5,40=1/2;
 3/5=16,7=10,11=9,16=1,25=1,30=1/1,2,3;
 4//1;
 5/5=2,38=5/2;
 8/10=1/1;
 9/16=-3/6;
 6/7=2,8=2,9=2,10=2/1;
 99/5=1,9=1/99;
 -------------------------------
 Single Point calculation at MP2
 -------------------------------
 Symbolic Z-matrix:
 Charge =  0 Multiplicity = 1
 H                    -4.0095   -1.3341   -0.5246 
 C                    -3.316    -1.1694    0.3058 
 H                    -2.8255   -2.1151    0.5558 
 H                    -3.9094   -0.8393    1.1643 
 C                    -2.3486   -0.0567   -0.0776 
 O                    -2.7483    1.0564   -0.4099 
 N                    -1.0309   -0.3971   -0.0247 
 H                    -0.7417   -1.351     0.1614 
 C                     0.068     0.499    -0.3435 
 H                     0.0165    0.7825   -1.4067 
 C                     0.0375    1.7842    0.5049 
 H                     0.2171    1.5586    1.5611 
 H                     0.7876    2.5093    0.1667 
 H                    -0.9434    2.249     0.3992 
 C                     1.3547   -0.3351   -0.1375 
 O                     1.3073   -1.5599   -0.0371 
 N                     2.5143    0.3678   -0.0687 
 H                     2.4769    1.3723   -0.1546 
 C                     3.8135   -0.2682    0.0753 
 H                     3.6438   -1.3367    0.2099 
 H                     4.4333   -0.1129   -0.8158 
 H                     4.3437    0.1267    0.949 
 
                          Input orientation:                          
 ---------------------------------------------------------------------
 Center     Atomic      Atomic             Coordinates (Angstroms)
 Number     Number       Type             X           Y           Z
 ---------------------------------------------------------------------
      1          1           0       -4.009500   -1.334100   -0.524600
      2          6           0       -3.316000   -1.169400    0.305800
      3          1           0       -2.825500   -2.115100    0.555800
      4          1           0       -3.909400   -0.839300    1.164300
      5          6           0       -2.348600   -0.056700   -0.077600
      6          8           0       -2.748300    1.056400   -0.409900
      7          7           0       -1.030900   -0.397100   -0.024700
      8          1           0       -0.741700   -1.351000    0.161400
      9          6           0        0.068000    0.499000   -0.343500
     10          1           0        0.016500    0.782500   -1.406700
     11          6           0        0.037500    1.784200    0.504900
     12          1           0        0.217100    1.558600    1.561100
     13          1           0        0.787600    2.509300    0.166700
     14          1           0       -0.943400    2.249000    0.399200
     15          6           0        1.354700   -0.335100   -0.137500
     16          8           0        1.307300   -1.559900   -0.037100
     17          7           0        2.514300    0.367800   -0.068700
     18          1           0        2.476900    1.372300   -0.154600
     19          6           0        3.813500   -0.268200    0.075300
     20          1           0        3.643800   -1.336700    0.209900
     21          1           0        4.433300   -0.112900   -0.815800
     22          1           0        4.343700    0.126700    0.949000
 ---------------------------------------------------------------------
                    Distance matrix (angstroms):
                    1          2          3          4          5
     1  H    0.000000
     2  C    1.094364   0.000000
     3  H    1.782998   1.094275   0.000000
     4  H    1.762734   1.094583   1.781229   0.000000
     5  C    2.142463   1.523470   2.205820   2.142633   0.000000
     6  O    2.705230   2.405971   3.316165   2.723956   1.228485
     7  N    3.162266   2.434617   2.551292   3.145636   1.361985
     8  H    3.339071   2.584734   2.254245   3.361840   2.077128
     9  C    4.474266   3.828395   4.001825   4.459172   2.493885
    10  H    4.633225   4.224704   4.508265   4.965175   2.839800
    11  C    5.211705   4.473182   4.837758   4.784933   3.069478
    12  H    5.530100   4.636869   4.874845   4.789089   3.446353
    13  H    6.185611   5.512868   5.881408   5.854070   4.059531
    14  H    4.805516   4.162140   4.755228   4.349728   2.741930
    15  C    5.470145   4.765292   4.595991   5.446067   3.714233
    16  O    5.343875   4.652416   4.211866   5.401535   3.953082
    17  N    6.757535   6.041161   5.921846   6.651413   4.881401
    18  H    7.038102   6.342704   6.386084   6.885891   5.033232
    19  C    7.918040   7.189928   6.907839   7.820183   6.167624
    20  H    7.688465   6.962471   6.525136   7.629490   6.134323
    21  H    8.535631   7.901002   7.653775   8.605178   6.822189
    22  H    8.607054   7.795164   7.521815   8.312230   6.773066
                    6          7          8          9         10
     6  O    0.000000
     7  N    2.282653   0.000000
     8  H    3.185656   1.014000   0.000000
     9  C    2.871698   1.453344   2.081595   0.000000
    10  H    2.951737   2.097243   2.754202   1.101553   0.000000
    11  C    3.021131   2.485965   3.248788   1.540277   2.158254
    12  H    3.595920   2.810165   3.368120   2.184602   3.074152
    13  H    3.866002   3.433764   4.152193   2.195321   2.460086
    14  H    2.309676   2.681267   3.613479   2.153377   2.516606
    15  C    4.341092   2.389070   2.348678   1.547177   2.156543
    16  O    4.840650   2.611405   2.069165   2.422564   3.004797
    17  N    5.318416   3.627044   3.689005   2.465180   2.863778
    18  H    5.240962   3.930943   4.227955   2.569267   2.822975
    19  C    6.711721   4.847146   4.682917   3.846136   4.209216
    20  H    6.853468   4.773961   4.385791   4.057387   4.501301
    21  H    7.287482   5.528480   5.410031   4.433208   4.545220
    22  H    7.280619   5.487147   5.353990   4.482273   4.970317
                   11         12         13         14         15
    11  C    0.000000
    12  H    1.094856   0.000000
    13  H    1.096722   1.781475   0.000000
    14  H    1.090585   1.781411   1.765835   0.000000
    15  C    2.576650   2.786660   2.916291   3.499555   0.000000
    16  O    3.617895   3.669853   4.107312   4.445641   1.229822
    17  N    2.910282   3.058003   2.760965   3.964030   1.357746
    18  H    2.560327   2.843419   2.061489   3.574038   2.043243
    19  C    4.319152   4.298708   4.108398   5.391596   2.468898
    20  H    4.778330   4.685166   4.790768   5.825417   2.522671
    21  H    4.966517   5.120538   4.596995   5.996974   3.160260
    22  H    4.635503   4.410650   4.351393   5.723623   3.213699
                   16         17         18         19         20
    16  O    0.000000
    17  N    2.274615   0.000000
    18  H    3.159045   1.008860   0.000000
    19  C    2.821730   1.453669   2.128519   0.000000
    20  H    2.360097   2.063664   2.972069   1.090233   0.000000
    21  H    3.531580   2.114661   2.543719   1.096508   1.781308
    22  H    3.610642   2.107261   2.500879   1.095632   1.782602
                   21         22
    21  H    0.000000
    22  H    1.783243   0.000000
 Stoichiometry    C6H12N2O2
 Framework group  C1[X(C6H12N2O2)]
 Deg. of freedom    60
 Full point group                 C1      NOp   1
 Largest Abelian subgroup         C1      NOp   1
 Largest concise Abelian subgroup C1      NOp   1
                         Standard orientation:                         
 ---------------------------------------------------------------------
 Center     Atomic      Atomic             Coordinates (Angstroms)
 Number     Number       Type             X           Y           Z
 ---------------------------------------------------------------------
      1          1           0       -4.009501   -1.334075   -0.524604
      2          6           0       -3.316001   -1.169377    0.305796
      3          1           0       -2.825504   -2.115079    0.555796
      4          1           0       -3.909400   -0.839276    1.164296
      5          6           0       -2.348598   -0.056680   -0.077604
      6          8           0       -2.748294    1.056421   -0.409904
      7          7           0       -1.030899   -0.397084   -0.024704
      8          1           0       -0.741701   -1.350985    0.161396
      9          6           0        0.068004    0.499013   -0.343504
     10          1           0        0.016505    0.782513   -1.406704
     11          6           0        0.037508    1.784213    0.504896
     12          1           0        0.217107    1.558612    1.561096
     13          1           0        0.787610    2.509311    0.166696
     14          1           0       -0.943391    2.249016    0.399196
     15          6           0        1.354702   -0.335091   -0.137504
     16          8           0        1.307298   -1.559891   -0.037104
     17          7           0        2.514304    0.367805   -0.068704
     18          1           0        2.476907    1.372306   -0.154604
     19          6           0        3.813502   -0.268198    0.075296
     20          1           0        3.643799   -1.336698    0.209896
     21          1           0        4.433302   -0.112900   -0.815804
     22          1           0        4.343703    0.126700    0.948996
 ---------------------------------------------------------------------
 Rotational constants (GHZ):      3.0737155      0.6617501      0.5651794
 Standard basis: Aug-CC-pVDZ (5D, 7F)
 There are   338 symmetry adapted basis functions of A   symmetry.
 Integral buffers will be    131072 words long.
 Raffenetti 1 integral format.
 Two-electron integral symmetry is turned on.
   338 basis functions,   562 primitive gaussians,   358 cartesian basis functions
    39 alpha electrons       39 beta electrons
       nuclear repulsion energy       549.5462000041 Hartrees.
 NAtoms=   22 NActive=   22 NUniq=   22 SFac= 7.50D-01 NAtFMM=   80 NAOKFM=F Big=F
 One-electron integrals computed using PRISM.
 NBasis=   338 RedAO= T  NBF=   338
 NBsUse=   338 1.00D-06 NBFU=   338
 Harris functional with IExCor=  205 diagonalized for initial guess.
 ExpMin= 2.97D-02 ExpMax= 1.17D+04 ExpMxC= 4.01D+02 IAcc=3 IRadAn=         0 AccDes= 0.00D+00
 HarFok:  IExCor=  205 AccDes= 0.00D+00 IRadAn=         0 IDoV= 1
 ScaDFX=  1.000000  1.000000  1.000000  1.000000
 FoFCou: FMM=F IPFlag=           0 FMFlag=      100000 FMFlg1=           0
         NFxFlg=           0 DoJE=T BraDBF=F KetDBF=T FulRan=T
         Omega=  0.000000  0.000000  1.000000  0.000000  0.000000 ICntrl=     500 IOpCl=  0
         NMat0=    1 NMatS0=    1 NMatT0=    0 NMatD0=    1 NMtDS0=    0 NMtDT0=    0
         I1Cent=           4 NGrid=           0.
 Petite list used in FoFCou.
 Initial guess orbital symmetries:
       Occupied  (A) (A) (A) (A) (A) (A) (A) (A) (A) (A) (A) (A)
                 (A) (A) (A) (A) (A) (A) (A) (A) (A) (A) (A) (A)
                 (A) (A) (A) (A) (A) (A) (A) (A) (A) (A) (A) (A)
                 (A) (A) (A)
       Virtual   (A) (A) (A) (A) (A) (A) (A) (A) (A) (A) (A) (A)
                 (A) (A) (A) (A) (A) (A) (A) (A) (A) (A) (A) (A)
                 (A) (A) (A) (A) (A) (A) (A) (A) (A) (A) (A) (A)
                 (A) (A) (A) (A) (A) (A) (A) (A) (A) (A) (A) (A)
                 (A) (A) (A) (A) (A) (A) (A) (A) (A) (A) (A) (A)
                 (A) (A) (A) (A) (A) (A) (A) (A) (A) (A) (A) (A)
                 (A) (A) (A) (A) (A) (A) (A) (A) (A) (A) (A) (A)
                 (A) (A) (A) (A) (A) (A) (A) (A) (A) (A) (A) (A)
                 (A) (A) (A) (A) (A) (A) (A) (A) (A) (A) (A) (A)
                 (A) (A) (A) (A) (A) (A) (A) (A) (A) (A) (A) (A)
                 (A) (A) (A) (A) (A) (A) (A) (A) (A) (A) (A) (A)
                 (A) (A) (A) (A) (A) (A) (A) (A) (A) (A) (A) (A)
                 (A) (A) (A) (A) (A) (A) (A) (A) (A) (A) (A) (A)
                 (A) (A) (A) (A) (A) (A) (A) (A) (A) (A) (A) (A)
                 (A) (A) (A) (A) (A) (A) (A) (A) (A) (A) (A) (A)
                 (A) (A) (A) (A) (A) (A) (A) (A) (A) (A) (A) (A)
                 (A) (A) (A) (A) (A) (A) (A) (A) (A) (A) (A) (A)
                 (A) (A) (A) (A) (A) (A) (A) (A) (A) (A) (A) (A)
                 (A) (A) (A) (A) (A) (A) (A) (A) (A) (A) (A) (A)
                 (A) (A) (A) (A) (A) (A) (A) (A) (A) (A) (A) (A)
                 (A) (A) (A) (A) (A) (A) (A) (A) (A) (A) (A) (A)
                 (A) (A) (A) (A) (A) (A) (A) (A) (A) (A) (A) (A)
                 (A) (A) (A) (A) (A) (A) (A) (A) (A) (A) (A) (A)
                 (A) (A) (A) (A) (A) (A) (A) (A) (A) (A) (A) (A)
                 (A) (A) (A) (A) (A) (A) (A) (A) (A) (A) (A)
 The electronic state of the initial guess is 1-A.
 Requested convergence on RMS density matrix=1.00D-08 within 128 cycles.
 Requested convergence on MAX density matrix=1.00D-06.
 Requested convergence on             energy=1.00D-06.
 No special actions if energy rises.
 Initial convergence to 1.0D-05 achieved.  Increase integral accuracy.
 SCF Done:  E(RHF) =  -492.924446334     A.U. after   14 cycles
             Convg  =    0.7208D-08             -V/T =  2.0017
 ExpMin= 2.97D-02 ExpMax= 1.17D+04 ExpMxC= 4.01D+02 IAcc=3 IRadAn=         5 AccDes= 0.00D+00
 HarFok:  IExCor=  205 AccDes= 0.00D+00 IRadAn=         5 IDoV=-2
 ScaDFX=  1.000000  1.000000  1.000000  1.000000
 Range of M.O.s used for correlation:    11   338
 NBasis=   338 NAE=    39 NBE=    39 NFC=    10 NFV=     0
 NROrb=    328 NOA=    29 NOB=    29 NVA=   299 NVB=   299

 **** Warning!!: The largest alpha MO coefficient is  0.79167811D+02

 Disk-based method using OVN memory for 29 occupieds at a time.
 Estimated scratch disk usage=  1371094802 words.
 Actual    scratch disk usage=  1357842520 words.
 JobTyp=1 Pass  1:  I=   1 to  29 NPSUse=  8 ParTrn=T ParDer=T DoDerP=F.
 Spin components of T(2) and E(2):
     alpha-alpha T2 =       0.6795174910D-01 E2=     -0.2060487257D+00
     alpha-beta  T2 =       0.3758328608D+00 E2=     -0.1189427465D+01
     beta-beta   T2 =       0.6795174910D-01 E2=     -0.2060487257D+00
 ANorm=    0.1229526884D+01
 E2 =    -0.1601524917D+01 EUMP2 =    -0.49452597125046D+03

 **********************************************************************

            Population analysis using the SCF density.

 **********************************************************************

 Orbital symmetries:
       Occupied  (A) (A) (A) (A) (A) (A) (A) (A) (A) (A) (A) (A)
                 (A) (A) (A) (A) (A) (A) (A) (A) (A) (A) (A) (A)
                 (A) (A) (A) (A) (A) (A) (A) (A) (A) (A) (A) (A)
                 (A) (A) (A)
       Virtual   (A) (A) (A) (A) (A) (A) (A) (A) (A) (A) (A) (A)
                 (A) (A) (A) (A) (A) (A) (A) (A) (A) (A) (A) (A)
                 (A) (A) (A) (A) (A) (A) (A) (A) (A) (A) (A) (A)
                 (A) (A) (A) (A) (A) (A) (A) (A) (A) (A) (A) (A)
                 (A) (A) (A) (A) (A) (A) (A) (A) (A) (A) (A) (A)
                 (A) (A) (A) (A) (A) (A) (A) (A) (A) (A) (A) (A)
                 (A) (A) (A) (A) (A) (A) (A) (A) (A) (A) (A) (A)
                 (A) (A) (A) (A) (A) (A) (A) (A) (A) (A) (A) (A)
                 (A) (A) (A) (A) (A) (A) (A) (A) (A) (A) (A) (A)
                 (A) (A) (A) (A) (A) (A) (A) (A) (A) (A) (A) (A)
                 (A) (A) (A) (A) (A) (A) (A) (A) (A) (A) (A) (A)
                 (A) (A) (A) (A) (A) (A) (A) (A) (A) (A) (A) (A)
                 (A) (A) (A) (A) (A) (A) (A) (A) (A) (A) (A) (A)
                 (A) (A) (A) (A) (A) (A) (A) (A) (A) (A) (A) (A)
                 (A) (A) (A) (A) (A) (A) (A) (A) (A) (A) (A) (A)
                 (A) (A) (A) (A) (A) (A) (A) (A) (A) (A) (A) (A)
                 (A) (A) (A) (A) (A) (A) (A) (A) (A) (A) (A) (A)
                 (A) (A) (A) (A) (A) (A) (A) (A) (A) (A) (A) (A)
                 (A) (A) (A) (A) (A) (A) (A) (A) (A) (A) (A) (A)
                 (A) (A) (A) (A) (A) (A) (A) (A) (A) (A) (A) (A)
                 (A) (A) (A) (A) (A) (A) (A) (A) (A) (A) (A) (A)
                 (A) (A) (A) (A) (A) (A) (A) (A) (A) (A) (A) (A)
                 (A) (A) (A) (A) (A) (A) (A) (A) (A) (A) (A) (A)
                 (A) (A) (A) (A) (A) (A) (A) (A) (A) (A) (A) (A)
                 (A) (A) (A) (A) (A) (A) (A) (A) (A) (A) (A)
 The electronic state is 1-A.
 Alpha  occ. eigenvalues --  -20.54494 -20.52238 -15.60804 -15.58796 -11.37411
 Alpha  occ. eigenvalues --  -11.35753 -11.29938 -11.27767 -11.24059 -11.23643
 Alpha  occ. eigenvalues --   -1.40065  -1.37559  -1.24672  -1.23409  -1.05656
 Alpha  occ. eigenvalues --   -0.98900  -0.96090  -0.89267  -0.80848  -0.77569
 Alpha  occ. eigenvalues --   -0.73119  -0.67717  -0.66242  -0.65526  -0.62900
 Alpha  occ. eigenvalues --   -0.61708  -0.59650  -0.58609  -0.56504  -0.56336
 Alpha  occ. eigenvalues --   -0.55453  -0.54729  -0.53282  -0.52407  -0.49448
 Alpha  occ. eigenvalues --   -0.43756  -0.41616  -0.40826  -0.38752
 Alpha virt. eigenvalues --    0.02754   0.03983   0.04262   0.04452   0.05899
 Alpha virt. eigenvalues --    0.06002   0.06417   0.06623   0.07478   0.07936
 Alpha virt. eigenvalues --    0.09392   0.10425   0.11173   0.11974   0.13144
 Alpha virt. eigenvalues --    0.13997   0.14059   0.14397   0.14721   0.14993
 Alpha virt. eigenvalues --    0.15202   0.15480   0.16220   0.16783   0.17122
 Alpha virt. eigenvalues --    0.17807   0.18287   0.18898   0.18983   0.19381
 Alpha virt. eigenvalues --    0.19792   0.20530   0.20876   0.21585   0.22149
 Alpha virt. eigenvalues --    0.23156   0.24218   0.25000   0.25198   0.26425
 Alpha virt. eigenvalues --    0.27523   0.28521   0.28674   0.29878   0.30208
 Alpha virt. eigenvalues --    0.31419   0.31846   0.32459   0.32905   0.33399
 Alpha virt. eigenvalues --    0.33915   0.34416   0.35442   0.36008   0.36563
 Alpha virt. eigenvalues --    0.37169   0.37860   0.38154   0.39088   0.40605
 Alpha virt. eigenvalues --    0.40981   0.41537   0.41869   0.42479   0.43141
 Alpha virt. eigenvalues --    0.43386   0.44310   0.44905   0.45162   0.45975
 Alpha virt. eigenvalues --    0.46684   0.46746   0.47804   0.47914   0.48569
 Alpha virt. eigenvalues --    0.49301   0.50213   0.50895   0.51205   0.51961
 Alpha virt. eigenvalues --    0.52663   0.53596   0.54106   0.54823   0.55619
 Alpha virt. eigenvalues --    0.56186   0.56518   0.58118   0.58749   0.59261
 Alpha virt. eigenvalues --    0.59584   0.60292   0.61119   0.61689   0.62639
 Alpha virt. eigenvalues --    0.62829   0.62885   0.64541   0.64853   0.65406
 Alpha virt. eigenvalues --    0.65857   0.66813   0.67246   0.67527   0.68289
 Alpha virt. eigenvalues --    0.68608   0.70721   0.71275   0.71764   0.72206
 Alpha virt. eigenvalues --    0.72882   0.73340   0.74297   0.74540   0.75527
 Alpha virt. eigenvalues --    0.76391   0.76929   0.77044   0.79335   0.80306
 Alpha virt. eigenvalues --    0.80509   0.81784   0.82457   0.82750   0.83354
 Alpha virt. eigenvalues --    0.84294   0.85272   0.86307   0.88041   0.88401
 Alpha virt. eigenvalues --    0.89459   0.89785   0.92260   0.92491   0.93562
 Alpha virt. eigenvalues --    0.94834   0.95765   0.96205   0.97494   0.99950
 Alpha virt. eigenvalues --    1.00024   1.01155   1.01969   1.03240   1.05006
 Alpha virt. eigenvalues --    1.06181   1.07958   1.08862   1.09678   1.11338
 Alpha virt. eigenvalues --    1.12293   1.13037   1.14591   1.15104   1.15995
 Alpha virt. eigenvalues --    1.17109   1.17651   1.18928   1.20521   1.21119
 Alpha virt. eigenvalues --    1.22809   1.23774   1.27259   1.28101   1.29997
 Alpha virt. eigenvalues --    1.31575   1.32704   1.34514   1.35726   1.37089
 Alpha virt. eigenvalues --    1.38038   1.41319   1.43446   1.44886   1.46815
 Alpha virt. eigenvalues --    1.48384   1.51272   1.51557   1.52860   1.54397
 Alpha virt. eigenvalues --    1.55354   1.56244   1.60178   1.60556   1.64660
 Alpha virt. eigenvalues --    1.67230   1.68464   1.71412   1.72979   1.73209
 Alpha virt. eigenvalues --    1.75081   1.76217   1.77038   1.79428   1.80326
 Alpha virt. eigenvalues --    1.82323   1.84499   1.85832   1.87909   1.88564
 Alpha virt. eigenvalues --    1.89227   1.89588   1.90710   1.91084   1.92793
 Alpha virt. eigenvalues --    1.94178   1.96980   1.97923   1.99498   2.00644
 Alpha virt. eigenvalues --    2.02524   2.04019   2.05584   2.06831   2.08009
 Alpha virt. eigenvalues --    2.08836   2.09712   2.11469   2.14398   2.15980
 Alpha virt. eigenvalues --    2.16886   2.18830   2.19797   2.20606   2.21888
 Alpha virt. eigenvalues --    2.23794   2.25569   2.27235   2.29677   2.29833
 Alpha virt. eigenvalues --    2.31277   2.32128   2.34161   2.34498   2.35788
 Alpha virt. eigenvalues --    2.36504   2.39896   2.41140   2.42220   2.43553
 Alpha virt. eigenvalues --    2.44486   2.45790   2.48464   2.50895   2.51817
 Alpha virt. eigenvalues --    2.53320   2.54525   2.56313   2.57878   2.61537
 Alpha virt. eigenvalues --    2.62714   2.63687   2.64625   2.65139   2.67537
 Alpha virt. eigenvalues --    2.72474   2.74027   2.74984   2.78037   2.80435
 Alpha virt. eigenvalues --    2.80767   2.82556   2.84282   2.85499   2.88664
 Alpha virt. eigenvalues --    2.88905   2.90905   2.92987   2.95921   2.98364
 Alpha virt. eigenvalues --    2.99772   3.00218   3.03419   3.05879   3.07447
 Alpha virt. eigenvalues --    3.08027   3.15124   3.17423   3.20828   3.23629
 Alpha virt. eigenvalues --    3.28119   3.37551   3.46752   3.47837   3.58054
 Alpha virt. eigenvalues --    3.61132   3.68210   3.75974   3.81871   3.82986
 Alpha virt. eigenvalues --    3.85272   3.87738   3.95510   4.02204   4.05468
 Alpha virt. eigenvalues --    4.06950   4.11773   4.20669   4.21190
          Condensed to atoms (all electrons):
              1          2          3          4          5          6
     1  H    0.737327   0.372577  -0.072260  -0.049076  -0.098413   0.019656
     2  C    0.372577   4.519750   0.346020   0.371341   0.172647  -0.039579
     3  H   -0.072260   0.346020   1.101813  -0.082267   0.138791  -0.010557
     4  H   -0.049076   0.371341  -0.082267   0.732529  -0.096817   0.018422
     5  C   -0.098413   0.172647   0.138791  -0.096817   5.563937   0.232638
     6  O    0.019656  -0.039579  -0.010557   0.018422   0.232638   8.745543
     7  N    0.058962  -0.073720  -0.220530   0.055569  -0.045600  -0.138466
     8  H   -0.005996  -0.058277   0.003278  -0.006189  -0.116852  -0.005174
     9  C   -0.015481   0.036897  -0.003400   0.003070  -0.113128   0.071844
    10  H   -0.002817   0.002484   0.001017   0.000578   0.053872   0.008249
    11  C    0.004052  -0.022937  -0.007370  -0.000526  -0.026791  -0.022152
    12  H    0.000116   0.000415   0.000755  -0.000460   0.041469  -0.000530
    13  H    0.000307  -0.001047  -0.002332   0.000330  -0.068459   0.010318
    14  H   -0.001547   0.008082   0.004936  -0.000764   0.046432   0.002622
    15  C    0.007863  -0.006825  -0.024090   0.002745  -0.168787  -0.012826
    16  O    0.000061   0.004266   0.001963   0.000231  -0.001229   0.000810
    17  N   -0.000064   0.000903   0.002017  -0.000048   0.009583   0.000290
    18  H   -0.000163  -0.001910  -0.000163  -0.000068  -0.000550   0.000015
    19  C    0.000083   0.001770   0.000104   0.000068  -0.006273   0.000339
    20  H    0.000030   0.000330  -0.000055   0.000032  -0.000886   0.000049
    21  H    0.000006   0.000064   0.000015   0.000004   0.000902  -0.000007
    22  H    0.000006   0.000090   0.000000  -0.000007  -0.000906   0.000020
              7          8          9         10         11         12
     1  H    0.058962  -0.005996  -0.015481  -0.002817   0.004052   0.000116
     2  C   -0.073720  -0.058277   0.036897   0.002484  -0.022937   0.000415
     3  H   -0.220530   0.003278  -0.003400   0.001017  -0.007370   0.000755
     4  H    0.055569  -0.006189   0.003070   0.000578  -0.000526  -0.000460
     5  C   -0.045600  -0.116852  -0.113128   0.053872  -0.026791   0.041469
     6  O   -0.138466  -0.005174   0.071844   0.008249  -0.022152  -0.000530
     7  N    7.635061   0.325041  -0.552759  -0.125847   0.087213  -0.049284
     8  H    0.325041   0.962511  -0.041178   0.013743   0.022340   0.000494
     9  C   -0.552759  -0.041178   7.081181   0.255730   0.030074   0.000546
    10  H   -0.125847   0.013743   0.255730   1.063387   0.030286   0.068446
    11  C    0.087213   0.022340   0.030074   0.030286   4.307837   0.290809
    12  H   -0.049284   0.000494   0.000546   0.068446   0.290809   1.127446
    13  H    0.065970   0.009616  -0.127730  -0.082763   0.275256  -0.110657
    14  H   -0.055212  -0.011388   0.074332  -0.006764   0.369261  -0.180042
    15  C    0.283246  -0.086515  -0.580053  -0.202359  -0.047195  -0.144240
    16  O   -0.033313   0.057115  -0.002328  -0.004069   0.020882  -0.003673
    17  N    0.011437   0.004391  -0.040165  -0.001156   0.016010   0.006348
    18  H    0.011927   0.005086  -0.122193   0.008078  -0.000246   0.002429
    19  C   -0.004744  -0.009100  -0.001191  -0.005443  -0.004823  -0.014423
    20  H   -0.003454  -0.000615   0.007843   0.001456  -0.010338  -0.001264
    21  H    0.001299   0.000268   0.028187  -0.000924  -0.005763  -0.000371
    22  H    0.001507  -0.000853  -0.040830  -0.002432   0.021953  -0.001396
             13         14         15         16         17         18
     1  H    0.000307  -0.001547   0.007863   0.000061  -0.000064  -0.000163
     2  C   -0.001047   0.008082  -0.006825   0.004266   0.000903  -0.001910
     3  H   -0.002332   0.004936  -0.024090   0.001963   0.002017  -0.000163
     4  H    0.000330  -0.000764   0.002745   0.000231  -0.000048  -0.000068
     5  C   -0.068459   0.046432  -0.168787  -0.001229   0.009583  -0.000550
     6  O    0.010318   0.002622  -0.012826   0.000810   0.000290   0.000015
     7  N    0.065970  -0.055212   0.283246  -0.033313   0.011437   0.011927
     8  H    0.009616  -0.011388  -0.086515   0.057115   0.004391   0.005086
     9  C   -0.127730   0.074332  -0.580053  -0.002328  -0.040165  -0.122193
    10  H   -0.082763  -0.006764  -0.202359  -0.004069  -0.001156   0.008078
    11  C    0.275256   0.369261  -0.047195   0.020882   0.016010  -0.000246
    12  H   -0.110657  -0.180042  -0.144240  -0.003673   0.006348   0.002429
    13  H    1.254002  -0.243271   0.145920  -0.000453  -0.058469   0.018716
    14  H   -0.243271   1.043497  -0.001680   0.001731   0.016302  -0.000947
    15  C    0.145920  -0.001680   5.436921   0.286767   0.098412   0.063701
    16  O   -0.000453   0.001731   0.286767   8.754717  -0.206027   0.006888
    17  N   -0.058469   0.016302   0.098412  -0.206027   7.250600   0.204975
    18  H    0.018716  -0.000947   0.063701   0.006888   0.204975   1.057351
    19  C   -0.005064   0.006511  -0.140638  -0.005952   0.324425  -0.150146
    20  H    0.002441  -0.000506  -0.005430  -0.005866  -0.047884   0.002580
    21  H   -0.001342  -0.000008  -0.021861   0.010195   0.002754   0.001587
    22  H   -0.000025   0.001685  -0.001547   0.010050  -0.069438   0.004914
             19         20         21         22
     1  H    0.000083   0.000030   0.000006   0.000006
     2  C    0.001770   0.000330   0.000064   0.000090
     3  H    0.000104  -0.000055   0.000015   0.000000
     4  H    0.000068   0.000032   0.000004  -0.000007
     5  C   -0.006273  -0.000886   0.000902  -0.000906
     6  O    0.000339   0.000049  -0.000007   0.000020
     7  N   -0.004744  -0.003454   0.001299   0.001507
     8  H   -0.009100  -0.000615   0.000268  -0.000853
     9  C   -0.001191   0.007843   0.028187  -0.040830
    10  H   -0.005443   0.001456  -0.000924  -0.002432
    11  C   -0.004823  -0.010338  -0.005763   0.021953
    12  H   -0.014423  -0.001264  -0.000371  -0.001396
    13  H   -0.005064   0.002441  -0.001342  -0.000025
    14  H    0.006511  -0.000506  -0.000008   0.001685
    15  C   -0.140638  -0.005430  -0.021861  -0.001547
    16  O   -0.005952  -0.005866   0.010195   0.010050
    17  N    0.324425  -0.047884   0.002754  -0.069438
    18  H   -0.150146   0.002580   0.001587   0.004914
    19  C    4.158171   0.488241   0.291054   0.371205
    20  H    0.488241   0.988141  -0.119793  -0.143104
    21  H    0.291054  -0.119793   1.049975  -0.142492
    22  H    0.371205  -0.143104  -0.142492   1.094959
 Mulliken atomic charges:
              1
     1  H    0.044770
     2  C    0.366662
     3  H   -0.177689
     4  H    0.051303
     5  C    0.484421
     6  O   -0.881523
     7  N   -0.234304
     8  H   -0.061746
     9  C    0.050732
    10  H   -0.072754
    11  C    0.672168
    12  H   -0.032933
    13  H   -0.081264
    14  H   -0.073264
    15  C    1.118472
    16  O   -0.892768
    17  N   -0.525197
    18  H   -0.111861
    19  C    0.705829
    20  H   -0.151948
    21  H   -0.093749
    22  H   -0.103357
 Sum of Mulliken atomic charges =   0.00000
 Mulliken charges with hydrogens summed into heavy atoms:
              1
     2  C    0.285046
     5  C    0.484421
     6  O   -0.881523
     7  N   -0.296050
     9  C   -0.022022
    11  C    0.484708
    15  C    1.118472
    16  O   -0.892768
    17  N   -0.637058
    19  C    0.356774
 Sum of Mulliken charges with hydrogens summed into heavy atoms =   0.00000
 Electronic spatial extent (au):  <R**2>=           2001.8698
 Charge=              0.0000 electrons
 Dipole moment (field-independent basis, Debye):
    X=              3.3194    Y=              0.4687    Z=              0.7196  Tot=              3.4287
 Quadrupole moment (field-independent basis, Debye-Ang):
   XX=            -57.5358   YY=            -64.7813   ZZ=            -61.2033
   XY=             14.8134   XZ=             -3.4049   YZ=              0.3254
 Traceless Quadrupole moment (field-independent basis, Debye-Ang):
   XX=              3.6377   YY=             -3.6078   ZZ=             -0.0299
   XY=             14.8134   XZ=             -3.4049   YZ=              0.3254
 Octapole moment (field-independent basis, Debye-Ang**2):
  XXX=             51.4270  YYY=              5.4573  ZZZ=             -1.5684  XYY=              3.5389
  XXY=            -22.5980  XXZ=              9.3944  XZZ=             -0.0769  YZZ=             -0.6504
  YYZ=              1.4626  XYZ=             -4.5042
 Hexadecapole moment (field-independent basis, Debye-Ang**3):
 XXXX=          -1933.8859 YYYY=           -467.7299 ZZZZ=           -114.9302 XXXY=             86.1741
 XXXZ=            -23.7574 YYYX=             23.8152 YYYZ=             -5.3807 ZZZX=              0.7352
 ZZZY=             -0.4914 XXYY=           -431.4558 XXZZ=           -354.9989 YYZZ=           -100.4244
 XXYZ=             10.1330 YYXZ=             -4.1938 ZZXY=              0.2392
 N-N= 5.495462000041D+02 E-N=-2.254275855311D+03  KE= 4.920849727904D+02
 1\1\GINC-NODE012\SP\RMP2-FC\Aug-CC-pVDZ\C6H12N2O2\MANAGER\13-Feb-2017\
 0\\#SP MP2/aug-cc-pVDZ\\Single Point calculation at MP2\\0,1\H,0,-4.00
 95,-1.3341,-0.5246\C,0,-3.316,-1.1694,0.3058\H,0,-2.8255,-2.1151,0.555
 8\H,0,-3.9094,-0.8393,1.1643\C,0,-2.3486,-0.0567,-0.0776\O,0,-2.7483,1
 .0564,-0.4099\N,0,-1.0309,-0.3971,-0.0247\H,0,-0.7417,-1.351,0.1614\C,
 0,0.068,0.499,-0.3435\H,0,0.0165,0.7825,-1.4067\C,0,0.0375,1.7842,0.50
 49\H,0,0.2171,1.5586,1.5611\H,0,0.7876,2.5093,0.1667\H,0,-0.9434,2.249
 ,0.3992\C,0,1.3547,-0.3351,-0.1375\O,0,1.3073,-1.5599,-0.0371\N,0,2.51
 43,0.3678,-0.0687\H,0,2.4769,1.3723,-0.1546\C,0,3.8135,-0.2682,0.0753\
 H,0,3.6438,-1.3367,0.2099\H,0,4.4333,-0.1129,-0.8158\H,0,4.3437,0.1267
 ,0.949\\Version=EM64L-G09RevA.02\State=1-A\HF=-492.9244463\MP2=-494.52
 59713\RMSD=7.208e-09\PG=C01 [X(C6H12N2O2)]\\@


 FORGIVE MY NONSENSE AS I ALSO FORGIVE THOSE WHO THINK THEY TALK SENSE

                                                       -- ROBERT FROST
 Job cpu time:  0 days  5 hours 25 minutes 21.6 seconds.
 File lengths (MBytes):  RWF=  10476 Int=      0 D2E=      0 Chk=      7 Scr=      2
 Normal termination of Gaussian 09 at Mon Feb 13 00:04:19 2017.
