 Entering Gaussian System, Link 0=g09
 Initial command:
 /home/steboss/Software/g09/l1.exe /home/steboss/projects/phi_psi_scan/alanine/195/4334/Gau-29626.inp -scrdir=/home/steboss/projects/phi_psi_scan/alanine/195/4334/
 Entering Link 1 = /home/steboss/Software/g09/l1.exe PID=     29628.
  
 Copyright (c) 1988,1990,1992,1993,1995,1998,2003,2009, Gaussian, Inc.
                  All Rights Reserved.
  
 This is part of the Gaussian(R) 09 program.  It is based on
 the Gaussian(R) 03 system (copyright 2003, Gaussian, Inc.),
 the Gaussian(R) 98 system (copyright 1998, Gaussian, Inc.),
 the Gaussian(R) 94 system (copyright 1995, Gaussian, Inc.),
 the Gaussian 92(TM) system (copyright 1992, Gaussian, Inc.),
 the Gaussian 90(TM) system (copyright 1990, Gaussian, Inc.),
 the Gaussian 88(TM) system (copyright 1988, Gaussian, Inc.),
 the Gaussian 86(TM) system (copyright 1986, Carnegie Mellon
 University), and the Gaussian 82(TM) system (copyright 1983,
 Carnegie Mellon University). Gaussian is a federally registered
 trademark of Gaussian, Inc.
  
 This software contains proprietary and confidential information,
 including trade secrets, belonging to Gaussian, Inc.
  
 This software is provided under written license and may be
 used, copied, transmitted, or stored only in accord with that
 written license.
  
 The following legend is applicable only to US Government
 contracts under FAR:
  
                    RESTRICTED RIGHTS LEGEND
  
 Use, reproduction and disclosure by the US Government is
 subject to restrictions as set forth in subparagraphs (a)
 and (c) of the Commercial Computer Software - Restricted
 Rights clause in FAR 52.227-19.
  
 Gaussian, Inc.
 340 Quinnipiac St., Bldg. 40, Wallingford CT 06492
  
  
 ---------------------------------------------------------------
 Warning -- This program may not be used in any manner that
 competes with the business of Gaussian, Inc. or will provide
 assistance to any competitor of Gaussian, Inc.  The licensee
 of this program is prohibited from giving any competitor of
 Gaussian, Inc. access to this program.  By using this program,
 the user acknowledges that Gaussian, Inc. is engaged in the
 business of creating and licensing software in the field of
 computational chemistry and represents and warrants to the
 licensee that it is not a competitor of Gaussian, Inc. and that
 it will not use this program in any manner prohibited above.
 ---------------------------------------------------------------
  

 Cite this work as:
 Gaussian 09, Revision A.02,
 M. J. Frisch, G. W. Trucks, H. B. Schlegel, G. E. Scuseria, 
 M. A. Robb, J. R. Cheeseman, G. Scalmani, V. Barone, B. Mennucci, 
 G. A. Petersson, H. Nakatsuji, M. Caricato, X. Li, H. P. Hratchian, 
 A. F. Izmaylov, J. Bloino, G. Zheng, J. L. Sonnenberg, M. Hada, 
 M. Ehara, K. Toyota, R. Fukuda, J. Hasegawa, M. Ishida, T. Nakajima, 
 Y. Honda, O. Kitao, H. Nakai, T. Vreven, J. A. Montgomery, Jr., 
 J. E. Peralta, F. Ogliaro, M. Bearpark, J. J. Heyd, E. Brothers, 
 K. N. Kudin, V. N. Staroverov, R. Kobayashi, J. Normand, 
 K. Raghavachari, A. Rendell, J. C. Burant, S. S. Iyengar, J. Tomasi, 
 M. Cossi, N. Rega, J. M. Millam, M. Klene, J. E. Knox, J. B. Cross, 
 V. Bakken, C. Adamo, J. Jaramillo, R. Gomperts, R. E. Stratmann, 
 O. Yazyev, A. J. Austin, R. Cammi, C. Pomelli, J. W. Ochterski, 
 R. L. Martin, K. Morokuma, V. G. Zakrzewski, G. A. Voth, 
 P. Salvador, J. J. Dannenberg, S. Dapprich, A. D. Daniels, 
 O. Farkas, J. B. Foresman, J. V. Ortiz, J. Cioslowski, 
 and D. J. Fox, Gaussian, Inc., Wallingford CT, 2009.
 
 ******************************************
 Gaussian 09:  EM64L-G09RevA.02 11-Jun-2009
                10-Feb-2017 
 ******************************************
 %chk=structure_300.chk
 %NProcShared=8
 Will use up to    8 processors via shared memory.
 ----------------------------------------------------------------------
 # b3lyp/6-31G* Opt=(ModRedundant, maxcycles=1000, calcfc) geom=nocrowd
 ----------------------------------------------------------------------
 1/6=1000,10=4,14=-1,18=120,19=15,26=3,38=1/1,3;
 2/9=110,12=1,17=6,18=5,40=1/2;
 3/5=1,6=6,7=1,11=2,16=1,25=1,30=1,71=2,74=-5/1,2,3;
 4//1;
 5/5=2,38=5/2;
 8/6=4,10=90,11=11/1;
 11/6=1,8=1,9=11,15=111,16=1/1,2,10;
 10/6=1,7=6,13=1/2;
 6/7=2,8=2,9=2,10=2,28=1/1;
 7/10=1,18=20,25=1/1,2,3,16;
 1/6=1000,10=4,14=-1,18=20,19=15/3(2);
 2/9=110,12=1/2;
 99//99;
 2/9=110,12=1/2;
 3/5=1,6=6,7=1,11=2,16=1,25=1,30=1,71=1,74=-5/1,2,3;
 4/5=5,16=3/1;
 5/5=2,38=5/2;
 7//1,2,3,16;
 1/6=1000,14=-1,18=20,19=15/3(-5);
 2/9=110,12=1/2;
 6/7=2,8=2,9=2,10=2,19=2,28=1/1;
 99/9=1/99;
 ------------------
 Phi Psi fixed scan
 ------------------
 Symbolic Z-matrix:
 Charge =  0 Multiplicity = 1
 H                     1.9702    1.0601    0.5095 
 C                     1.985     2.1203    0.2568 
 H                     1.3772    2.6735    0.9728 
 H                     1.582     2.2609   -0.7462 
 C                     3.4103    2.6754    0.2933 
 O                     4.3566    1.9459    0.5811 
 N                     3.5554    3.9697    0. 
 H                     2.7466    4.529    -0.2306 
 C                     4.8533    4.6139    0. 
 H                     5.4076    4.3155    0.8898 
 C                     5.6613    4.2208   -1.2322 
 H                     5.1233    4.5214   -2.1312 
 H                     6.6305    4.7189   -1.2058 
 H                     5.8085    3.1409   -1.2414 
 C                     4.7127    6.1294    0. 
 O                     5.1823    6.7994    0.9171 
 N                     4.0632    6.6695   -1.0338 
 H                     3.6947    6.077    -1.764 
 C                     3.8632    8.0999   -1.1497 
 H                     4.3136    8.6009   -0.2928 
 H                     4.3301    8.4595   -2.0667 
 H                     2.7955    8.3171   -1.1769 
 
 The following ModRedundant input section has been read:
 D    5    7    9   15 F                                                       
 D    7    9   15   17 F                                                       

 GradGradGradGradGradGradGradGradGradGradGradGradGradGradGradGradGradGrad
 Berny optimization.
 Initialization pass.
                           ----------------------------
                           !    Initial Parameters    !
                           ! (Angstroms and Degrees)  !
 --------------------------                            --------------------------
 ! Name  Definition              Value          Derivative Info.                !
 --------------------------------------------------------------------------------
 ! R1    R(1,2)                  1.09           calculate D2E/DX2 analytically  !
 ! R2    R(2,3)                  1.09           calculate D2E/DX2 analytically  !
 ! R3    R(2,4)                  1.09           calculate D2E/DX2 analytically  !
 ! R4    R(2,5)                  1.53           calculate D2E/DX2 analytically  !
 ! R5    R(5,6)                  1.229          calculate D2E/DX2 analytically  !
 ! R6    R(5,7)                  1.335          calculate D2E/DX2 analytically  !
 ! R7    R(7,8)                  1.01           calculate D2E/DX2 analytically  !
 ! R8    R(7,9)                  1.449          calculate D2E/DX2 analytically  !
 ! R9    R(9,10)                 1.09           calculate D2E/DX2 analytically  !
 ! R10   R(9,11)                 1.525          calculate D2E/DX2 analytically  !
 ! R11   R(9,15)                 1.522          calculate D2E/DX2 analytically  !
 ! R12   R(11,12)                1.09           calculate D2E/DX2 analytically  !
 ! R13   R(11,13)                1.09           calculate D2E/DX2 analytically  !
 ! R14   R(11,14)                1.0899         calculate D2E/DX2 analytically  !
 ! R15   R(15,16)                1.229          calculate D2E/DX2 analytically  !
 ! R16   R(15,17)                1.335          calculate D2E/DX2 analytically  !
 ! R17   R(17,18)                1.01           calculate D2E/DX2 analytically  !
 ! R18   R(17,19)                1.449          calculate D2E/DX2 analytically  !
 ! R19   R(19,20)                1.09           calculate D2E/DX2 analytically  !
 ! R20   R(19,21)                1.09           calculate D2E/DX2 analytically  !
 ! R21   R(19,22)                1.0899         calculate D2E/DX2 analytically  !
 ! A1    A(1,2,3)              109.4988         calculate D2E/DX2 analytically  !
 ! A2    A(1,2,4)              109.4973         calculate D2E/DX2 analytically  !
 ! A3    A(1,2,5)              111.1006         calculate D2E/DX2 analytically  !
 ! A4    A(3,2,4)              109.4393         calculate D2E/DX2 analytically  !
 ! A5    A(3,2,5)              108.6416         calculate D2E/DX2 analytically  !
 ! A6    A(4,2,5)              108.6364         calculate D2E/DX2 analytically  !
 ! A7    A(2,5,6)              120.4978         calculate D2E/DX2 analytically  !
 ! A8    A(2,5,7)              116.5992         calculate D2E/DX2 analytically  !
 ! A9    A(6,5,7)              122.903          calculate D2E/DX2 analytically  !
 ! A10   A(5,7,8)              119.9988         calculate D2E/DX2 analytically  !
 ! A11   A(5,7,9)              121.8962         calculate D2E/DX2 analytically  !
 ! A12   A(8,7,9)              118.105          calculate D2E/DX2 analytically  !
 ! A13   A(7,9,10)             109.5            calculate D2E/DX2 analytically  !
 ! A14   A(7,9,11)             111.0992         calculate D2E/DX2 analytically  !
 ! A15   A(7,9,15)             111.0966         calculate D2E/DX2 analytically  !
 ! A16   A(10,9,11)            108.6382         calculate D2E/DX2 analytically  !
 ! A17   A(10,9,15)            108.6373         calculate D2E/DX2 analytically  !
 ! A18   A(11,9,15)            107.7947         calculate D2E/DX2 analytically  !
 ! A19   A(9,11,12)            109.5007         calculate D2E/DX2 analytically  !
 ! A20   A(9,11,13)            109.4959         calculate D2E/DX2 analytically  !
 ! A21   A(9,11,14)            109.4978         calculate D2E/DX2 analytically  !
 ! A22   A(12,11,13)           109.441          calculate D2E/DX2 analytically  !
 ! A23   A(12,11,14)           109.4482         calculate D2E/DX2 analytically  !
 ! A24   A(13,11,14)           109.4436         calculate D2E/DX2 analytically  !
 ! A25   A(9,15,16)            120.4988         calculate D2E/DX2 analytically  !
 ! A26   A(9,15,17)            116.6009         calculate D2E/DX2 analytically  !
 ! A27   A(16,15,17)           122.9003         calculate D2E/DX2 analytically  !
 ! A28   A(15,17,18)           120.0021         calculate D2E/DX2 analytically  !
 ! A29   A(15,17,19)           121.9023         calculate D2E/DX2 analytically  !
 ! A30   A(18,17,19)           118.0956         calculate D2E/DX2 analytically  !
 ! A31   A(17,19,20)           109.501          calculate D2E/DX2 analytically  !
 ! A32   A(17,19,21)           109.5019         calculate D2E/DX2 analytically  !
 ! A33   A(17,19,22)           109.5084         calculate D2E/DX2 analytically  !
 ! A34   A(20,19,21)           109.4339         calculate D2E/DX2 analytically  !
 ! A35   A(20,19,22)           109.4393         calculate D2E/DX2 analytically  !
 ! A36   A(21,19,22)           109.4429         calculate D2E/DX2 analytically  !
 ! D1    D(1,2,5,6)             -0.0011         calculate D2E/DX2 analytically  !
 ! D2    D(1,2,5,7)           -179.9967         calculate D2E/DX2 analytically  !
 ! D3    D(3,2,5,6)            120.5137         calculate D2E/DX2 analytically  !
 ! D4    D(3,2,5,7)            -59.482          calculate D2E/DX2 analytically  !
 ! D5    D(4,2,5,6)           -120.5106         calculate D2E/DX2 analytically  !
 ! D6    D(4,2,5,7)             59.4937         calculate D2E/DX2 analytically  !
 ! D7    D(2,5,7,8)             -0.006          calculate D2E/DX2 analytically  !
 ! D8    D(2,5,7,9)            179.9978         calculate D2E/DX2 analytically  !
 ! D9    D(6,5,7,8)            179.9985         calculate D2E/DX2 analytically  !
 ! D10   D(6,5,7,9)              0.0022         calculate D2E/DX2 analytically  !
 ! D11   D(5,7,9,10)           -45.0032         calculate D2E/DX2 analytically  !
 ! D12   D(5,7,9,11)            74.9994         calculate D2E/DX2 analytically  !
 ! D13   D(5,7,9,15)          -165.003          frozen, calculate D2E/DX2 analyt!
 ! D14   D(8,7,9,10)           135.0006         calculate D2E/DX2 analytically  !
 ! D15   D(8,7,9,11)          -104.9969         calculate D2E/DX2 analytically  !
 ! D16   D(8,7,9,15)            15.0007         calculate D2E/DX2 analytically  !
 ! D17   D(7,9,11,12)           60.0024         calculate D2E/DX2 analytically  !
 ! D18   D(7,9,11,13)          179.9986         calculate D2E/DX2 analytically  !
 ! D19   D(7,9,11,14)          -60.0038         calculate D2E/DX2 analytically  !
 ! D20   D(10,9,11,12)        -179.4843         calculate D2E/DX2 analytically  !
 ! D21   D(10,9,11,13)         -59.4881         calculate D2E/DX2 analytically  !
 ! D22   D(10,9,11,14)          60.5095         calculate D2E/DX2 analytically  !
 ! D23   D(15,9,11,12)         -61.938          calculate D2E/DX2 analytically  !
 ! D24   D(15,9,11,13)          58.0582         calculate D2E/DX2 analytically  !
 ! D25   D(15,9,11,14)         178.0558         calculate D2E/DX2 analytically  !
 ! D26   D(7,9,15,16)          119.9999         calculate D2E/DX2 analytically  !
 ! D27   D(7,9,15,17)          -60.0015         frozen, calculate D2E/DX2 analyt!
 ! D28   D(10,9,15,16)          -0.5112         calculate D2E/DX2 analytically  !
 ! D29   D(10,9,15,17)         179.4874         calculate D2E/DX2 analytically  !
 ! D30   D(11,9,15,16)        -118.0581         calculate D2E/DX2 analytically  !
 ! D31   D(11,9,15,17)          61.9405         calculate D2E/DX2 analytically  !
 ! D32   D(9,15,17,18)           0.0058         calculate D2E/DX2 analytically  !
 ! D33   D(9,15,17,19)         179.9961         calculate D2E/DX2 analytically  !
 ! D34   D(16,15,17,18)       -179.9956         calculate D2E/DX2 analytically  !
 ! D35   D(16,15,17,19)         -0.0053         calculate D2E/DX2 analytically  !
 ! D36   D(15,17,19,20)          0.0058         calculate D2E/DX2 analytically  !
 ! D37   D(15,17,19,21)        119.9971         calculate D2E/DX2 analytically  !
 ! D38   D(15,17,19,22)       -119.9961         calculate D2E/DX2 analytically  !
 ! D39   D(18,17,19,20)        179.9963         calculate D2E/DX2 analytically  !
 ! D40   D(18,17,19,21)        -60.0124         calculate D2E/DX2 analytically  !
 ! D41   D(18,17,19,22)         59.9944         calculate D2E/DX2 analytically  !
 --------------------------------------------------------------------------------
 Trust Radius=3.00D-01 FncErr=1.00D-07 GrdErr=1.00D-06
 Number of steps in this run= 132 maximum allowed number of steps= 132.
 GradGradGradGradGradGradGradGradGradGradGradGradGradGradGradGradGradGrad

                          Input orientation:                          
 ---------------------------------------------------------------------
 Center     Atomic      Atomic             Coordinates (Angstroms)
 Number     Number       Type             X           Y           Z
 ---------------------------------------------------------------------
      1          1           0        1.970200    1.060100    0.509500
      2          6           0        1.985000    2.120300    0.256800
      3          1           0        1.377200    2.673500    0.972800
      4          1           0        1.582000    2.260900   -0.746200
      5          6           0        3.410300    2.675400    0.293300
      6          8           0        4.356600    1.945900    0.581100
      7          7           0        3.555400    3.969700    0.000000
      8          1           0        2.746600    4.529000   -0.230600
      9          6           0        4.853300    4.613900    0.000000
     10          1           0        5.407600    4.315500    0.889800
     11          6           0        5.661300    4.220800   -1.232200
     12          1           0        5.123300    4.521400   -2.131200
     13          1           0        6.630500    4.718900   -1.205800
     14          1           0        5.808500    3.140900   -1.241400
     15          6           0        4.712700    6.129400    0.000000
     16          8           0        5.182300    6.799400    0.917100
     17          7           0        4.063200    6.669500   -1.033800
     18          1           0        3.694700    6.077000   -1.764000
     19          6           0        3.863200    8.099900   -1.149700
     20          1           0        4.313600    8.600900   -0.292800
     21          1           0        4.330100    8.459500   -2.066700
     22          1           0        2.795500    8.317100   -1.176900
 ---------------------------------------------------------------------
                    Distance matrix (angstroms):
                    1          2          3          4          5
     1  H    0.000000
     2  C    1.090000   0.000000
     3  H    1.780268   1.090003   0.000000
     4  H    1.780282   1.090040   1.779647   0.000000
     5  C    2.174816   1.530016   2.143646   2.143607   0.000000
     6  O    2.546502   2.400015   3.091869   3.091821   1.229017
     7  N    3.352346   2.439751   2.714964   2.714981   1.335025
     8  H    3.630952   2.572825   2.601213   2.601233   2.037352
     9  C    4.604492   3.809348   4.098141   4.098149   2.434349
    10  H    4.749524   4.115068   4.352836   4.640376   2.652348
    11  C    5.162147   4.488252   5.060600   4.551713   3.127685
    12  H    5.375494   4.617007   5.204115   4.423674   3.495752
    13  H    6.168263   5.520198   6.043767   5.633857   4.097912
    14  H    4.704033   4.231475   4.975697   4.345449   2.885023
    15  C    5.786078   4.855839   4.900525   5.032235   3.703024
    16  O    6.589635   5.705497   5.612926   6.027164   4.531720
    17  N    6.182863   5.165248   5.216230   5.067033   4.259144
    18  H    5.771654   4.760481   4.944157   4.479067   3.985505
    19  C    7.476308   6.423511   6.334905   6.281768   5.631391
    20  H    7.937183   6.908156   6.734854   6.918295   6.022542
    21  H    8.182729   7.147279   7.171888   6.907852   6.314384
    22  H    7.495940   6.411921   6.203467   6.191578   5.862444
                    6          7          8          9         10
     6  O    0.000000
     7  N    2.252857   0.000000
     8  H    3.150137   1.010025   0.000000
     9  C    2.775358   1.448978   2.120983   0.000000
    10  H    2.610537   2.083739   2.895134   1.089970   0.000000
    11  C    3.188333   2.452791   3.097364   1.525027   2.139209
    12  H    3.818062   2.702720   3.043196   2.150225   3.041326
    13  H    4.006640   3.386959   4.008959   2.150214   2.459625
    14  H    2.618691   2.702673   3.510523   2.150165   2.466256
    15  C    4.238650   2.450234   2.545586   1.522008   2.136554
    16  O    4.934687   3.390439   3.522012   2.392848   2.494246
    17  N    5.000638   2.935221   2.638239   2.432795   3.323998
    18  H    4.796206   2.751693   2.376239   2.568017   3.616568
    19  C    6.411773   4.298267   3.852644   3.801882   4.567977
    20  H    6.712270   4.701980   4.363454   4.034003   4.578213
    21  H    7.031254   5.002970   4.618178   4.397002   5.203329
    22  H    6.791155   4.567541   3.904815   4.396968   5.206450
                   11         12         13         14         15
    11  C    0.000000
    12  H    1.089957   0.000000
    13  H    1.090023   1.779613   0.000000
    14  H    1.089925   1.779613   1.779617   0.000000
    15  C    2.461892   2.701161   2.668599   3.416575   0.000000
    16  O    3.390886   3.805903   3.306428   4.293701   1.229023
    17  N    2.930771   2.634850   3.228847   3.942104   1.335028
    18  H    2.756049   2.143741   3.282521   3.655399   2.037343
    19  C    4.276375   3.918783   4.369469   5.327690   2.434406
    20  H    4.678038   4.547268   4.612106   5.739875   2.520580
    21  H    4.520516   4.017706   4.474939   5.581603   3.137993
    22  H    4.999554   4.553754   5.258812   5.989606   3.137958
                   16         17         18         19         20
    16  O    0.000000
    17  N    2.252836   0.000000
    18  H    3.150097   1.009971   0.000000
    19  C    2.775426   1.448957   2.120821   0.000000
    20  H    2.337499   2.083768   2.986225   1.090018   0.000000
    21  H    3.519267   2.083799   2.484284   1.090044   1.779603
    22  H    3.519242   2.083777   2.484209   1.089908   1.779551
                   21         22
    21  H    0.000000
    22  H    1.779612   0.000000
 Stoichiometry    C6H12N2O2
 Framework group  C1[X(C6H12N2O2)]
 Deg. of freedom    60
 Full point group                 C1      NOp   1
 Largest Abelian subgroup         C1      NOp   1
 Largest concise Abelian subgroup C1      NOp   1
                         Standard orientation:                         
 ---------------------------------------------------------------------
 Center     Atomic      Atomic             Coordinates (Angstroms)
 Number     Number       Type             X           Y           Z
 ---------------------------------------------------------------------
      1          1           0        4.150675    1.234412   -0.070064
      2          6           0        3.088710    1.473053   -0.011900
      3          1           0        2.821217    2.143547   -0.828595
      4          1           0        2.876626    1.958852    0.940574
      5          6           0        2.233484    0.208742   -0.117035
      6          8           0        2.762316   -0.892856   -0.248563
      7          7           0        0.910230    0.375576   -0.058248
      8          1           0        0.522353    1.301782    0.050589
      9          6           0       -0.007082   -0.742607   -0.146245
     10          1           0        0.301899   -1.403852   -0.955764
     11          6           0       -0.027075   -1.539895    1.153616
     12          1           0       -0.343500   -0.893439    1.972137
     13          1           0       -0.723911   -2.372717    1.058875
     14          1           0        0.971729   -1.924232    1.360041
     15          6           0       -1.426234   -0.266607   -0.421822
     16          8           0       -2.020631   -0.630390   -1.434171
     17          7           0       -1.969211    0.550290    0.483802
     18          1           0       -1.440642    0.821469    1.300574
     19          6           0       -3.312823    1.072220    0.336239
     20          1           0       -3.751137    0.693024   -0.586924
     21          1           0       -3.921287    0.755597    1.183421
     22          1           0       -3.278513    2.161018    0.301007
 ---------------------------------------------------------------------
 Rotational constants (GHZ):      2.5064145      0.6906882      0.6364574
 Standard basis: 6-31G(d) (6D, 7F)
 There are   174 symmetry adapted basis functions of A   symmetry.
 Integral buffers will be    131072 words long.
 Raffenetti 2 integral format.
 Two-electron integral symmetry is turned on.
   174 basis functions,   328 primitive gaussians,   174 cartesian basis functions
    39 alpha electrons       39 beta electrons
       nuclear repulsion energy       554.3498854408 Hartrees.
 NAtoms=   22 NActive=   22 NUniq=   22 SFac= 7.50D-01 NAtFMM=   80 NAOKFM=F Big=F
 One-electron integrals computed using PRISM.
 NBasis=   174 RedAO= T  NBF=   174
 NBsUse=   174 1.00D-06 NBFU=   174
 Harris functional with IExCor=  402 diagonalized for initial guess.
 ExpMin= 1.61D-01 ExpMax= 5.48D+03 ExpMxC= 8.25D+02 IAcc=1 IRadAn=         1 AccDes= 0.00D+00
 HarFok:  IExCor=  402 AccDes= 0.00D+00 IRadAn=         1 IDoV= 1
 ScaDFX=  1.000000  1.000000  1.000000  1.000000
 FoFCou: FMM=F IPFlag=           0 FMFlag=      100000 FMFlg1=           0
         NFxFlg=           0 DoJE=T BraDBF=F KetDBF=T FulRan=T
         Omega=  0.000000  0.000000  1.000000  0.000000  0.000000 ICntrl=     500 IOpCl=  0
         NMat0=    1 NMatS0=    1 NMatT0=    0 NMatD0=    1 NMtDS0=    0 NMtDT0=    0
         I1Cent=           4 NGrid=           0.
 Petite list used in FoFCou.
 Initial guess orbital symmetries:
       Occupied  (A) (A) (A) (A) (A) (A) (A) (A) (A) (A) (A) (A)
                 (A) (A) (A) (A) (A) (A) (A) (A) (A) (A) (A) (A)
                 (A) (A) (A) (A) (A) (A) (A) (A) (A) (A) (A) (A)
                 (A) (A) (A)
       Virtual   (A) (A) (A) (A) (A) (A) (A) (A) (A) (A) (A) (A)
                 (A) (A) (A) (A) (A) (A) (A) (A) (A) (A) (A) (A)
                 (A) (A) (A) (A) (A) (A) (A) (A) (A) (A) (A) (A)
                 (A) (A) (A) (A) (A) (A) (A) (A) (A) (A) (A) (A)
                 (A) (A) (A) (A) (A) (A) (A) (A) (A) (A) (A) (A)
                 (A) (A) (A) (A) (A) (A) (A) (A) (A) (A) (A) (A)
                 (A) (A) (A) (A) (A) (A) (A) (A) (A) (A) (A) (A)
                 (A) (A) (A) (A) (A) (A) (A) (A) (A) (A) (A) (A)
                 (A) (A) (A) (A) (A) (A) (A) (A) (A) (A) (A) (A)
                 (A) (A) (A) (A) (A) (A) (A) (A) (A) (A) (A) (A)
                 (A) (A) (A) (A) (A) (A) (A) (A) (A) (A) (A) (A)
                 (A) (A) (A)
 The electronic state of the initial guess is 1-A.
 Requested convergence on RMS density matrix=1.00D-08 within 128 cycles.
 Requested convergence on MAX density matrix=1.00D-06.
 Requested convergence on             energy=1.00D-06.
 No special actions if energy rises.
 Integral accuracy reduced to 1.0D-05 until final iterations.
 Initial convergence to 1.0D-05 achieved.  Increase integral accuracy.
 SCF Done:  E(RB3LYP) =  -495.836258182     A.U. after   16 cycles
             Convg  =    0.2404D-08             -V/T =  2.0087
 Range of M.O.s used for correlation:     1   174
 NBasis=   174 NAE=    39 NBE=    39 NFC=     0 NFV=     0
 NROrb=    174 NOA=    39 NOB=    39 NVA=   135 NVB=   135
 Symmetrizing basis deriv contribution to polar:
 IMax=3 JMax=2 DiffMx= 0.00D+00
 G2DrvN: will do    23 centers at a time, making    1 passes doing MaxLOS=2.
 Calling FoFCou, ICntrl=  3107 FMM=F I1Cent=   0 AccDes= 0.00D+00.
 FoFDir/FoFCou used for L=0 through L=2.
 End of G2Drv Frequency-dependent properties file   721 does not exist.
 End of G2Drv Frequency-dependent properties file   722 does not exist.
          IDoAtm=1111111111111111111111
          Differentiating once with respect to nuclear coordinates.
          There are    69 degrees of freedom in the 1st order CPHF.  IDoFFX=5.
     63 vectors produced by pass  0 Test12= 7.63D-11 1.45D-07 XBig12= 1.77D-01 1.01D-01.
 AX will form    63 AO Fock derivatives at one time.
     63 vectors produced by pass  1 Test12= 7.63D-11 1.45D-07 XBig12= 4.27D-02 4.89D-02.
     63 vectors produced by pass  2 Test12= 7.63D-11 1.45D-07 XBig12= 5.01D-05 1.09D-03.
     63 vectors produced by pass  3 Test12= 7.63D-11 1.45D-07 XBig12= 1.65D-07 7.94D-05.
     29 vectors produced by pass  4 Test12= 7.63D-11 1.45D-07 XBig12= 1.37D-10 1.52D-06.
 Inverted reduced A of dimension   281 with in-core refinement.
 End of Minotr Frequency-dependent properties file   721 does not exist.
 End of Minotr Frequency-dependent properties file   722 does not exist.

 **********************************************************************

            Population analysis using the SCF density.

 **********************************************************************

 Orbital symmetries:
       Occupied  (A) (A) (A) (A) (A) (A) (A) (A) (A) (A) (A) (A)
                 (A) (A) (A) (A) (A) (A) (A) (A) (A) (A) (A) (A)
                 (A) (A) (A) (A) (A) (A) (A) (A) (A) (A) (A) (A)
                 (A) (A) (A)
       Virtual   (A) (A) (A) (A) (A) (A) (A) (A) (A) (A) (A) (A)
                 (A) (A) (A) (A) (A) (A) (A) (A) (A) (A) (A) (A)
                 (A) (A) (A) (A) (A) (A) (A) (A) (A) (A) (A) (A)
                 (A) (A) (A) (A) (A) (A) (A) (A) (A) (A) (A) (A)
                 (A) (A) (A) (A) (A) (A) (A) (A) (A) (A) (A) (A)
                 (A) (A) (A) (A) (A) (A) (A) (A) (A) (A) (A) (A)
                 (A) (A) (A) (A) (A) (A) (A) (A) (A) (A) (A) (A)
                 (A) (A) (A) (A) (A) (A) (A) (A) (A) (A) (A) (A)
                 (A) (A) (A) (A) (A) (A) (A) (A) (A) (A) (A) (A)
                 (A) (A) (A) (A) (A) (A) (A) (A) (A) (A) (A) (A)
                 (A) (A) (A) (A) (A) (A) (A) (A) (A) (A) (A) (A)
                 (A) (A) (A)
 The electronic state is 1-A.
 Alpha  occ. eigenvalues --  -19.11035 -19.10494 -14.37638 -14.36776 -10.28703
 Alpha  occ. eigenvalues --  -10.28465 -10.23212 -10.22667 -10.19173 -10.18225
 Alpha  occ. eigenvalues --   -1.03868  -1.02831  -0.94126  -0.92799  -0.79019
 Alpha  occ. eigenvalues --   -0.73271  -0.71859  -0.65255  -0.60314  -0.59377
 Alpha  occ. eigenvalues --   -0.54660  -0.49931  -0.46913  -0.46730  -0.45517
 Alpha  occ. eigenvalues --   -0.44583  -0.43043  -0.41762  -0.41274  -0.40139
 Alpha  occ. eigenvalues --   -0.39220  -0.38415  -0.37619  -0.36383  -0.34809
 Alpha  occ. eigenvalues --   -0.26602  -0.26179  -0.24545  -0.23890
 Alpha virt. eigenvalues --    0.02036   0.03343   0.05155   0.08448   0.11275
 Alpha virt. eigenvalues --    0.12396   0.13766   0.15009   0.15220   0.15933
 Alpha virt. eigenvalues --    0.16240   0.16999   0.17802   0.18192   0.20104
 Alpha virt. eigenvalues --    0.21115   0.23340   0.25602   0.27095   0.31487
 Alpha virt. eigenvalues --    0.35938   0.38414   0.42913   0.49205   0.50940
 Alpha virt. eigenvalues --    0.51331   0.52476   0.53242   0.54108   0.55456
 Alpha virt. eigenvalues --    0.57086   0.58915   0.61271   0.63024   0.65535
 Alpha virt. eigenvalues --    0.67804   0.68910   0.70073   0.71269   0.73413
 Alpha virt. eigenvalues --    0.75513   0.76278   0.78353   0.80421   0.83378
 Alpha virt. eigenvalues --    0.84662   0.86682   0.86966   0.87609   0.87988
 Alpha virt. eigenvalues --    0.89109   0.89672   0.91033   0.91841   0.93138
 Alpha virt. eigenvalues --    0.94229   0.95100   0.95729   0.98059   1.00084
 Alpha virt. eigenvalues --    1.04089   1.07398   1.09219   1.10213   1.14750
 Alpha virt. eigenvalues --    1.15395   1.25291   1.26896   1.31797   1.35400
 Alpha virt. eigenvalues --    1.38025   1.39318   1.42925   1.44944   1.46964
 Alpha virt. eigenvalues --    1.51243   1.52821   1.60736   1.64551   1.72736
 Alpha virt. eigenvalues --    1.76070   1.77393   1.77728   1.80516   1.82839
 Alpha virt. eigenvalues --    1.83161   1.84801   1.86040   1.87956   1.91173
 Alpha virt. eigenvalues --    1.92545   1.95377   1.98124   1.98866   2.02381
 Alpha virt. eigenvalues --    2.03829   2.07075   2.09109   2.12881   2.16456
 Alpha virt. eigenvalues --    2.18322   2.22463   2.25874   2.27789   2.29833
 Alpha virt. eigenvalues --    2.31556   2.31687   2.35754   2.39058   2.40475
 Alpha virt. eigenvalues --    2.44234   2.45712   2.51726   2.60854   2.64443
 Alpha virt. eigenvalues --    2.66268   2.70126   2.74216   2.77245   2.87775
 Alpha virt. eigenvalues --    2.91233   2.95935   3.01738   3.14032   3.20125
 Alpha virt. eigenvalues --    3.94138   3.97383   4.04289   4.15518   4.20937
 Alpha virt. eigenvalues --    4.23209   4.26295   4.41044   4.49676   4.67189
          Condensed to atoms (all electrons):
              1          2          3          4          5          6
     1  H    0.496906   0.361624  -0.020794  -0.021351  -0.017718   0.005032
     2  C    0.361624   5.330384   0.351073   0.350499   0.356935  -0.079924
     3  H   -0.020794   0.351073   0.549815  -0.027537  -0.025893   0.001436
     4  H   -0.021351   0.350499  -0.027537   0.560661  -0.027798   0.001352
     5  C   -0.017718   0.356935  -0.025893  -0.027798   4.336002   0.601106
     6  O    0.005032  -0.079924   0.001436   0.001352   0.601106   8.064419
     7  N    0.004561  -0.137653   0.004495   0.004985   0.214769  -0.107836
     8  H   -0.000158  -0.000614   0.001049   0.000936  -0.014589   0.003590
     9  C   -0.000136   0.007437  -0.000194  -0.000172  -0.016043   0.012615
    10  H   -0.000003   0.000498  -0.000034  -0.000007  -0.000810   0.008457
    11  C    0.000009  -0.000550   0.000006   0.000067  -0.009123  -0.007980
    12  H    0.000000   0.000019   0.000000  -0.000001   0.000503  -0.000008
    13  H    0.000000   0.000005   0.000000  -0.000001   0.000121   0.000026
    14  H    0.000002   0.000272  -0.000002  -0.000054   0.005354   0.011429
    15  C    0.000001  -0.000041  -0.000018  -0.000011   0.005863   0.000934
    16  O    0.000000   0.000001   0.000000   0.000000  -0.000139   0.000000
    17  N    0.000000  -0.000020   0.000001  -0.000001   0.000071  -0.000006
    18  H    0.000000  -0.000002  -0.000002   0.000000   0.000057   0.000001
    19  C    0.000000   0.000000   0.000000   0.000000   0.000012   0.000000
    20  H    0.000000   0.000000   0.000000   0.000000   0.000001   0.000000
    21  H    0.000000   0.000000   0.000000   0.000000   0.000000   0.000000
    22  H    0.000000   0.000000   0.000000   0.000000  -0.000002   0.000000
              7          8          9         10         11         12
     1  H    0.004561  -0.000158  -0.000136  -0.000003   0.000009   0.000000
     2  C   -0.137653  -0.000614   0.007437   0.000498  -0.000550   0.000019
     3  H    0.004495   0.001049  -0.000194  -0.000034   0.000006   0.000000
     4  H    0.004985   0.000936  -0.000172  -0.000007   0.000067  -0.000001
     5  C    0.214769  -0.014589  -0.016043  -0.000810  -0.009123   0.000503
     6  O   -0.107836   0.003590   0.012615   0.008457  -0.007980  -0.000008
     7  N    7.250852   0.295305   0.199185  -0.045693  -0.060046  -0.002474
     8  H    0.295305   0.421048  -0.043435   0.003984   0.003762   0.000670
     9  C    0.199185  -0.043435   5.098900   0.375644   0.338701  -0.033659
    10  H   -0.045693   0.003984   0.375644   0.524752  -0.042538   0.005483
    11  C   -0.060046   0.003762   0.338701  -0.042538   5.182891   0.361228
    12  H   -0.002474   0.000670  -0.033659   0.005483   0.361228   0.603010
    13  H    0.005464  -0.000119  -0.034482  -0.000455   0.366238  -0.027925
    14  H   -0.010634  -0.000309  -0.020973  -0.004478   0.365360  -0.026527
    15  C   -0.020544  -0.004392   0.325149  -0.032073  -0.048396  -0.012446
    16  O    0.001095  -0.000108  -0.072590   0.004907   0.000358  -0.000050
    17  N   -0.003855   0.011872  -0.123160   0.005463   0.002934   0.003924
    18  H    0.002397   0.001871   0.000096   0.000137  -0.001069   0.007043
    19  C   -0.000035  -0.000423   0.005905  -0.000119  -0.000149  -0.000070
    20  H   -0.000030  -0.000018   0.001170  -0.000015  -0.000085  -0.000001
    21  H   -0.000003   0.000030  -0.000123   0.000002   0.000001   0.000010
    22  H    0.000014  -0.000113  -0.000126   0.000003  -0.000004   0.000009
             13         14         15         16         17         18
     1  H    0.000000   0.000002   0.000001   0.000000   0.000000   0.000000
     2  C    0.000005   0.000272  -0.000041   0.000001  -0.000020  -0.000002
     3  H    0.000000  -0.000002  -0.000018   0.000000   0.000001  -0.000002
     4  H   -0.000001  -0.000054  -0.000011   0.000000  -0.000001   0.000000
     5  C    0.000121   0.005354   0.005863  -0.000139   0.000071   0.000057
     6  O    0.000026   0.011429   0.000934   0.000000  -0.000006   0.000001
     7  N    0.005464  -0.010634  -0.020544   0.001095  -0.003855   0.002397
     8  H   -0.000119  -0.000309  -0.004392  -0.000108   0.011872   0.001871
     9  C   -0.034482  -0.020973   0.325149  -0.072590  -0.123160   0.000096
    10  H   -0.000455  -0.004478  -0.032073   0.004907   0.005463   0.000137
    11  C    0.366238   0.365360  -0.048396   0.000358   0.002934  -0.001069
    12  H   -0.027925  -0.026527  -0.012446  -0.000050   0.003924   0.007043
    13  H    0.549517  -0.023784   0.001910   0.000893  -0.000537  -0.000003
    14  H   -0.023784   0.508464   0.004359  -0.000091   0.000130  -0.000187
    15  C    0.001910   0.004359   4.423326   0.607454   0.216251  -0.016936
    16  O    0.000893  -0.000091   0.607454   8.068300  -0.109280   0.003996
    17  N   -0.000537   0.000130   0.216251  -0.109280   7.144863   0.293356
    18  H   -0.000003  -0.000187  -0.016936   0.003996   0.293356   0.414526
    19  C   -0.000038   0.000006  -0.025355  -0.009833   0.263240  -0.031099
    20  H   -0.000005   0.000001  -0.000324   0.022812  -0.038001   0.003861
    21  H    0.000009  -0.000002   0.001734   0.000610  -0.044205  -0.000603
    22  H    0.000000   0.000000   0.001523   0.000644  -0.043586  -0.000891
             19         20         21         22
     1  H    0.000000   0.000000   0.000000   0.000000
     2  C    0.000000   0.000000   0.000000   0.000000
     3  H    0.000000   0.000000   0.000000   0.000000
     4  H    0.000000   0.000000   0.000000   0.000000
     5  C    0.000012   0.000001   0.000000  -0.000002
     6  O    0.000000   0.000000   0.000000   0.000000
     7  N   -0.000035  -0.000030  -0.000003   0.000014
     8  H   -0.000423  -0.000018   0.000030  -0.000113
     9  C    0.005905   0.001170  -0.000123  -0.000126
    10  H   -0.000119  -0.000015   0.000002   0.000003
    11  C   -0.000149  -0.000085   0.000001  -0.000004
    12  H   -0.000070  -0.000001   0.000010   0.000009
    13  H   -0.000038  -0.000005   0.000009   0.000000
    14  H    0.000006   0.000001  -0.000002   0.000000
    15  C   -0.025355  -0.000324   0.001734   0.001523
    16  O   -0.009833   0.022812   0.000610   0.000644
    17  N    0.263240  -0.038001  -0.044205  -0.043586
    18  H   -0.031099   0.003861  -0.000603  -0.000891
    19  C    4.970405   0.376074   0.383488   0.381784
    20  H    0.376074   0.467114  -0.023877  -0.023494
    21  H    0.383488  -0.023877   0.558240  -0.038269
    22  H    0.381784  -0.023494  -0.038269   0.564846
 Mulliken atomic charges:
              1
     1  H    0.192027
     2  C   -0.539939
     3  H    0.166600
     4  H    0.158433
     5  C    0.591322
     6  O   -0.514643
     7  N   -0.594318
     8  H    0.320160
     9  C   -0.019710
    10  H    0.196896
    11  C   -0.451616
    12  H    0.121262
    13  H    0.163167
    14  H    0.191663
    15  C    0.572032
    16  O   -0.518977
    17  N   -0.579455
    18  H    0.323451
    19  C   -0.313793
    20  H    0.214820
    21  H    0.162960
    22  H    0.157660
 Sum of Mulliken atomic charges =   0.00000
 Mulliken charges with hydrogens summed into heavy atoms:
              1
     2  C   -0.022880
     5  C    0.591322
     6  O   -0.514643
     7  N   -0.274157
     9  C    0.177186
    11  C    0.024475
    15  C    0.572032
    16  O   -0.518977
    17  N   -0.256004
    19  C    0.221646
 Sum of Mulliken charges with hydrogens summed into heavy atoms =   0.00000
 APT atomic charges:
              1
     1  H    0.755940
     2  C   -1.213231
     3  H    0.344495
     4  H    0.324956
     5  C   -0.157935
     6  O   -0.014148
     7  N   -0.583987
     8  H    0.452322
     9  C   -0.416698
    10  H    0.443489
    11  C   -1.164854
    12  H    0.287972
    13  H    0.476650
    14  H    0.449771
    15  C   -0.291818
    16  O    0.044554
    17  N   -0.302746
    18  H    0.406366
    19  C   -1.420117
    20  H    0.528638
    21  H    0.583184
    22  H    0.467196
 Sum of APT charges=   0.00000
 APT Atomic charges with hydrogens summed into heavy atoms:
              1
     1  H    0.000000
     2  C    0.212161
     3  H    0.000000
     4  H    0.000000
     5  C   -0.157935
     6  O   -0.014148
     7  N   -0.131664
     8  H    0.000000
     9  C    0.026791
    10  H    0.000000
    11  C    0.049539
    12  H    0.000000
    13  H    0.000000
    14  H    0.000000
    15  C   -0.291818
    16  O    0.044554
    17  N    0.103621
    18  H    0.000000
    19  C    0.158901
    20  H    0.000000
    21  H    0.000000
    22  H    0.000000
 Sum of APT charges=   0.00000
 Electronic spatial extent (au):  <R**2>=           1894.4713
 Charge=              0.0000 electrons
 Dipole moment (field-independent basis, Debye):
    X=             -1.6498    Y=              4.3413    Z=              3.5746  Tot=              5.8606
 Quadrupole moment (field-independent basis, Debye-Ang):
   XX=            -65.0751   YY=            -57.6335   ZZ=            -62.4778
   XY=              2.6257   XZ=             -5.3547   YZ=             -1.0855
 Traceless Quadrupole moment (field-independent basis, Debye-Ang):
   XX=             -3.3463   YY=              4.0953   ZZ=             -0.7490
   XY=              2.6257   XZ=             -5.3547   YZ=             -1.0855
 Octapole moment (field-independent basis, Debye-Ang**2):
  XXX=            -29.3166  YYY=              1.2032  ZZZ=              4.1769  XYY=             -4.6498
  XXY=             32.5156  XXZ=             14.3940  XZZ=              6.6391  YZZ=              4.8218
  YYZ=              1.0839  XYZ=              0.3757
 Hexadecapole moment (field-independent basis, Debye-Ang**3):
 XXXX=          -1716.5583 YYYY=           -423.1805 ZZZZ=           -246.2517 XXXY=             22.4119
 XXXZ=            -12.0319 YYYX=             -6.3538 YYYZ=              3.8154 ZZZX=            -13.0844
 ZZZY=              5.5822 XXYY=           -370.8267 XXZZ=           -342.1166 YYZZ=           -111.5024
 XXYZ=            -10.4464 YYXZ=             -1.8660 ZZXY=            -10.3196
 N-N= 5.543498854408D+02 E-N=-2.264680260796D+03  KE= 4.915493746796D+02
  Exact polarizability:   0.000   0.000   0.000   0.000   0.000   0.000
 Approx polarizability: 118.025 -10.639 113.181   1.381  15.183 104.077
 Calling FoFJK, ICntrl=    100147 FMM=F ISym2X=0 I1Cent= 0 IOpClX= 0 NMat=1 NMatS=1 NMatT=0.
 ***** Axes restored to original set *****
 -------------------------------------------------------------------
 Center     Atomic                   Forces (Hartrees/Bohr)
 Number     Number              X              Y              Z
 -------------------------------------------------------------------
      1        1           0.003691661    0.000880884    0.000172497
      2        6           0.005538278    0.009078793   -0.001035737
      3        1          -0.006414700    0.000686367    0.000919093
      4        1          -0.006110662   -0.000181888   -0.002670190
      5        6          -0.003265042   -0.042634627    0.010361049
      6        8           0.003629454    0.004126166   -0.000638044
      7        7          -0.007529550    0.023918620   -0.005814679
      8        1          -0.001620830   -0.000543758    0.002049789
      9        6           0.008038716    0.000735753   -0.008469533
     10        1          -0.002451890    0.002515116    0.003018096
     11        6           0.002963399   -0.006551542   -0.000261055
     12        1           0.001822647   -0.001344995   -0.005791199
     13        1           0.003567720    0.000769608   -0.002418825
     14        1           0.001140040   -0.001539627   -0.001230512
     15        6           0.012118874   -0.005020894    0.038300824
     16        8           0.001434430    0.000971300   -0.002215687
     17        7          -0.013715204    0.008192222   -0.016253500
     18        1           0.001621581    0.000499751   -0.001153762
     19        6          -0.002261498    0.000826599   -0.003872607
     20        1           0.000679670   -0.003471075    0.000568982
     21        1           0.000658558    0.004091367   -0.002888554
     22        1          -0.003535654    0.003995863   -0.000676447
 -------------------------------------------------------------------
 Cartesian Forces:  Max     0.042634627 RMS     0.009031414

 GradGradGradGradGradGradGradGradGradGradGradGradGradGradGradGradGradGrad
 Berny optimization.
 Internal  Forces:  Max     0.032574625 RMS     0.005946106
 Search for a local minimum.
 Step number   1 out of a maximum of  132
 All quantities printed in internal units (Hartrees-Bohrs-Radians)
 Mixed Optimization -- RFO/linear search
 Second derivative matrix not updated -- analytic derivatives used.
     Eigenvalues ---   -0.00073  -0.00032   0.00146   0.00336   0.00408
     Eigenvalues ---    0.01694   0.01884   0.02195   0.03962   0.04061
     Eigenvalues ---    0.04696   0.04919   0.05176   0.05826   0.05902
     Eigenvalues ---    0.05989   0.06393   0.06600   0.11903   0.12375
     Eigenvalues ---    0.12440   0.12659   0.13284   0.13363   0.13394
     Eigenvalues ---    0.14286   0.14640   0.16907   0.17637   0.18090
     Eigenvalues ---    0.18577   0.20021   0.21149   0.22265   0.23469
     Eigenvalues ---    0.24360   0.25131   0.30257   0.32729   0.34588
     Eigenvalues ---    0.34606   0.34826   0.35053   0.35096   0.35260
     Eigenvalues ---    0.35487   0.35767   0.35872   0.35909   0.36935
     Eigenvalues ---    0.39083   0.39658   0.46721   0.46931   0.53123
     Eigenvalues ---    0.54389   0.82659   0.829971000.000001000.00000
     Eigenvalues --- 1000.000001000.000001000.000001000.000001000.00000
     Eigenvalues --- 1000.000001000.000001000.000001000.000001000.00000
     Eigenvalues --- 1000.000001000.000001000.000001000.000001000.00000
     Eigenvalues --- 1000.000001000.000001000.000001000.000001000.00000
     Eigenvalues --- 1000.000001000.000001000.000001000.000001000.00000
     Eigenvalues --- 1000.000001000.000001000.000001000.000001000.00000
     Eigenvalues --- 1000.000001000.000001000.000001000.000001000.00000
     Eigenvalues --- 1000.000001000.000001000.00000
 RFO step:  Lambda=-1.07435304D-02 EMin=-7.33979330D-04
 Linear search not attempted -- first point.
 Maximum step size (   0.300) exceeded in Quadratic search.
    -- Step size scaled by   0.316
 Iteration  1 RMS(Cart)=  0.05166035 RMS(Int)=  0.00225883
 Iteration  2 RMS(Cart)=  0.00238870 RMS(Int)=  0.00004686
 Iteration  3 RMS(Cart)=  0.00000447 RMS(Int)=  0.00004675
 Iteration  4 RMS(Cart)=  0.00000000 RMS(Int)=  0.00004675
 Iteration  1 RMS(Cart)=  0.00001477 RMS(Int)=  0.00000573
 Iteration  2 RMS(Cart)=  0.00000800 RMS(Int)=  0.00000639
 Iteration  3 RMS(Cart)=  0.00000443 RMS(Int)=  0.00000721
 Iteration  4 RMS(Cart)=  0.00000252 RMS(Int)=  0.00000777
 Iteration  5 RMS(Cart)=  0.00000149 RMS(Int)=  0.00000811
 Iteration  6 RMS(Cart)=  0.00000091 RMS(Int)=  0.00000832
 Variable       Old X    -DE/DX   Delta X   Delta X   Delta X     New X
                                 (Linear)    (Quad)   (Total)
    R1        2.05980  -0.00087   0.00000   0.00015   0.00015   2.05995
    R2        2.05981   0.00453   0.00000   0.00375   0.00375   2.06356
    R3        2.05988   0.00469   0.00000   0.00363   0.00363   2.06350
    R4        2.89131  -0.00067   0.00000  -0.00343  -0.00343   2.88788
    R5        2.32251   0.00020   0.00000  -0.00256  -0.00256   2.31995
    R6        2.52283   0.02907   0.00000   0.01842   0.01842   2.54125
    R7        1.90867   0.00053   0.00000   0.00009   0.00009   1.90876
    R8        2.73817   0.01289   0.00000   0.01000   0.01000   2.74817
    R9        2.05975   0.00053   0.00000   0.00133   0.00133   2.06108
   R10        2.88188   0.01510   0.00000   0.00828   0.00828   2.89017
   R11        2.87618   0.01032   0.00000   0.00822   0.00822   2.88440
   R12        2.05972   0.00351   0.00000   0.00377   0.00377   2.06349
   R13        2.05984   0.00347   0.00000   0.00314   0.00314   2.06299
   R14        2.05966   0.00169   0.00000   0.00116   0.00116   2.06082
   R15        2.32252  -0.00058   0.00000  -0.00362  -0.00362   2.31890
   R16        2.52284   0.03257   0.00000   0.01906   0.01906   2.54190
   R17        1.90857  -0.00005   0.00000   0.00007   0.00007   1.90864
   R18        2.73813   0.00654   0.00000   0.00271   0.00271   2.74084
   R19        2.05984  -0.00087   0.00000   0.00027   0.00027   2.06010
   R20        2.05989   0.00406   0.00000   0.00410   0.00410   2.06398
   R21        2.05963   0.00428   0.00000   0.00302   0.00302   2.06264
    A1        1.91111  -0.00019   0.00000  -0.00386  -0.00388   1.90724
    A2        1.91109  -0.00027   0.00000   0.00057   0.00062   1.91171
    A3        1.93907  -0.00785   0.00000  -0.01314  -0.01312   1.92595
    A4        1.91008  -0.00515   0.00000  -0.00838  -0.00847   1.90161
    A5        1.89615   0.00670   0.00000   0.00483   0.00478   1.90094
    A6        1.89606   0.00680   0.00000   0.02011   0.02010   1.91616
    A7        2.10308   0.00992   0.00000   0.01259   0.01256   2.11565
    A8        2.03504  -0.00700   0.00000  -0.00925  -0.00927   2.02577
    A9        2.14506  -0.00292   0.00000  -0.00333  -0.00335   2.14171
   A10        2.09437  -0.00214   0.00000  -0.00349  -0.00351   2.09086
   A11        2.12749   0.00114   0.00000   0.00158   0.00156   2.12905
   A12        2.06132   0.00099   0.00000   0.00191   0.00189   2.06321
   A13        1.91114   0.00040   0.00000  -0.00373  -0.00385   1.90728
   A14        1.93905   0.00056   0.00000   0.00580   0.00586   1.94491
   A15        1.93900  -0.00551   0.00000  -0.01053  -0.01069   1.92831
   A16        1.89609  -0.00206   0.00000   0.00011   0.00017   1.89626
   A17        1.89608  -0.00387   0.00000  -0.01062  -0.01071   1.88537
   A18        1.88137   0.01052   0.00000   0.01907   0.01911   1.90048
   A19        1.91115   0.00677   0.00000   0.01140   0.01138   1.92253
   A20        1.91106   0.00242   0.00000   0.00331   0.00329   1.91436
   A21        1.91110   0.00036   0.00000  -0.00119  -0.00119   1.90991
   A22        1.91011  -0.00402   0.00000  -0.00568  -0.00572   1.90439
   A23        1.91023  -0.00351   0.00000  -0.00488  -0.00489   1.90535
   A24        1.91015  -0.00202   0.00000  -0.00297  -0.00297   1.90719
   A25        2.10310   0.00312   0.00000   0.00888   0.00888   2.11198
   A26        2.03507  -0.00319   0.00000  -0.01000  -0.01001   2.02506
   A27        2.14501   0.00008   0.00000   0.00113   0.00113   2.14614
   A28        2.09443  -0.00180   0.00000  -0.00574  -0.00590   2.08853
   A29        2.12760   0.00433   0.00000   0.00367   0.00351   2.13111
   A30        2.06116  -0.00253   0.00000   0.00207   0.00190   2.06306
   A31        1.91115  -0.00700   0.00000  -0.01215  -0.01213   1.89902
   A32        1.91117   0.00468   0.00000   0.01154   0.01153   1.92270
   A33        1.91128   0.00516   0.00000   0.00556   0.00554   1.91682
   A34        1.90998   0.00019   0.00000  -0.00340  -0.00337   1.90661
   A35        1.91008   0.00012   0.00000   0.00170   0.00171   1.91178
   A36        1.91014  -0.00316   0.00000  -0.00325  -0.00331   1.90683
    D1       -0.00002  -0.00008   0.00000  -0.09472  -0.09477  -0.09479
    D2       -3.14154   0.00004   0.00000  -0.08321  -0.08322   3.05843
    D3        2.10336  -0.00083   0.00000  -0.10451  -0.10457   1.99879
    D4       -1.03816  -0.00071   0.00000  -0.09300  -0.09301  -1.13117
    D5       -2.10331   0.00071   0.00000  -0.10030  -0.10027  -2.20358
    D6        1.03836   0.00084   0.00000  -0.08879  -0.08872   0.94965
    D7       -0.00010   0.00027   0.00000  -0.00928  -0.00925  -0.00936
    D8        3.14155  -0.00086   0.00000  -0.02141  -0.02137   3.12019
    D9        3.14157   0.00039   0.00000   0.00253   0.00249  -3.13913
   D10        0.00004  -0.00073   0.00000  -0.00959  -0.00962  -0.00958
   D11       -0.78545  -0.00184   0.00000  -0.02229  -0.02227  -0.80773
   D12        1.30899  -0.00379   0.00000  -0.02092  -0.02088   1.28810
   D13       -2.87985   0.00619   0.00000   0.00000   0.00000  -2.87984
   D14        2.35620  -0.00295   0.00000  -0.03420  -0.03420   2.32200
   D15       -1.83254  -0.00490   0.00000  -0.03283  -0.03281  -1.86535
   D16        0.26181   0.00509   0.00000  -0.01191  -0.01193   0.24988
   D17        1.04724  -0.00014   0.00000  -0.00126  -0.00121   1.04603
   D18        3.14157   0.00057   0.00000   0.00080   0.00086  -3.14076
   D19       -1.04726  -0.00020   0.00000  -0.00154  -0.00149  -1.04875
   D20       -3.13259  -0.00063   0.00000  -0.00222  -0.00224  -3.13484
   D21       -1.03826   0.00008   0.00000  -0.00016  -0.00017  -1.03843
   D22        1.05609  -0.00070   0.00000  -0.00250  -0.00252   1.05357
   D23       -1.08102  -0.00056   0.00000  -0.00429  -0.00434  -1.08536
   D24        1.01331   0.00015   0.00000  -0.00224  -0.00226   1.01104
   D25        3.10766  -0.00062   0.00000  -0.00457  -0.00461   3.10305
   D26        2.09439  -0.00229   0.00000  -0.00277  -0.00274   2.09165
   D27       -1.04722  -0.00287   0.00000   0.00000   0.00000  -1.04722
   D28       -0.00892   0.00313   0.00000   0.01524   0.01517   0.00625
   D29        3.13265   0.00255   0.00000   0.01801   0.01791  -3.13263
   D30       -2.06050   0.00188   0.00000   0.01037   0.01037  -2.05013
   D31        1.08107   0.00130   0.00000   0.01314   0.01311   1.09418
   D32        0.00010  -0.00083   0.00000  -0.03153  -0.03147  -0.03137
   D33        3.14152  -0.00004   0.00000   0.00294   0.00292  -3.13874
   D34       -3.14152  -0.00143   0.00000  -0.02869  -0.02867   3.11300
   D35       -0.00009  -0.00064   0.00000   0.00579   0.00572   0.00563
   D36        0.00010  -0.00034   0.00000  -0.08018  -0.08020  -0.08010
   D37        2.09434  -0.00154   0.00000  -0.08472  -0.08479   2.00956
   D38       -2.09433   0.00063   0.00000  -0.07821  -0.07822  -2.17254
   D39        3.14153   0.00044   0.00000  -0.04633  -0.04630   3.09523
   D40       -1.04741  -0.00076   0.00000  -0.05088  -0.05088  -1.09830
   D41        1.04710   0.00141   0.00000  -0.04437  -0.04431   1.00279
         Item               Value     Threshold  Converged?
 Maximum Force            0.032575     0.000450     NO 
 RMS     Force            0.005918     0.000300     NO 
 Maximum Displacement     0.211934     0.001800     NO 
 RMS     Displacement     0.051795     0.001200     NO 
 Predicted change in Energy=-2.990365D-03
 GradGradGradGradGradGradGradGradGradGradGradGradGradGradGradGradGradGrad

                          Input orientation:                          
 ---------------------------------------------------------------------
 Center     Atomic      Atomic             Coordinates (Angstroms)
 Number     Number       Type             X           Y           Z
 ---------------------------------------------------------------------
      1          1           0        1.964736    1.062629    0.427283
      2          6           0        1.974284    2.140995    0.268191
      3          1           0        1.412874    2.628378    1.068015
      4          1           0        1.502290    2.373051   -0.688757
      5          6           0        3.409077    2.666982    0.278405
      6          8           0        4.354632    1.931155    0.546063
      7          7           0        3.562050    3.972168   -0.007085
      8          1           0        2.752543    4.537828   -0.219159
      9          6           0        4.867662    4.612702   -0.007740
     10          1           0        5.412836    4.319981    0.890409
     11          6           0        5.688843    4.206580   -1.232413
     12          1           0        5.167496    4.495056   -2.147474
     13          1           0        6.661322    4.701802   -1.203789
     14          1           0        5.834986    3.125884   -1.229080
     15          6           0        4.717460    6.131598    0.004964
     16          8           0        5.180093    6.804938    0.920595
     17          7           0        4.053393    6.667767   -1.034687
     18          1           0        3.714861    6.068781   -1.774099
     19          6           0        3.837512    8.096765   -1.157114
     20          1           0        4.217702    8.587658   -0.261052
     21          1           0        4.365831    8.483797   -2.031193
     22          1           0        2.770618    8.302406   -1.261183
 ---------------------------------------------------------------------
                    Distance matrix (angstroms):
                    1          2          3          4          5
     1  H    0.000000
     2  C    1.090080   0.000000
     3  H    1.779511   1.091990   0.000000
     4  H    1.782303   1.091960   1.777480   0.000000
     5  C    2.163847   1.528201   2.147044   2.158155   0.000000
     6  O    2.545593   2.405681   3.067978   3.139411   1.227663
     7  N    3.347462   2.439257   2.753283   2.695267   1.344773
     8  H    3.621537   2.566710   2.664118   2.543602   2.044179
     9  C    4.606434   3.815378   4.126784   4.099457   2.448504
    10  H    4.765944   4.118104   4.346580   4.645070   2.668709
    11  C    5.148591   4.507372   5.105546   4.602675   3.138514
    12  H    5.354306   4.644744   5.284036   4.479341   3.509812
    13  H    6.161322   5.540106   6.083287   5.683656   4.112723
    14  H    4.688218   4.256388   5.007916   4.430683   2.892773
    15  C    5.783622   4.849661   4.931826   4.994521   3.713516
    16  O    6.599695   5.696947   5.626483   5.979788   4.546601
    17  N    6.157711   5.148965   5.264062   5.007232   4.259769
    18  H    5.742000   4.756895   5.021267   4.442055   3.984785
    19  C    7.449609   6.401118   6.382266   6.199478   5.632656
    20  H    7.885158   6.846348   6.719114   6.795420   5.999941
    21  H    8.178208   7.158058   7.253342   6.880641   6.331268
    22  H    7.477615   6.398134   6.281976   6.090450   5.876731
                    6          7          8          9         10
     6  O    0.000000
     7  N    2.258294   0.000000
     8  H    3.153886   1.010073   0.000000
     9  C    2.785784   1.454271   2.126977   0.000000
    10  H    2.635311   2.086116   2.890633   1.090675   0.000000
    11  C    3.181298   2.465690   3.123823   1.529411   2.143692
    12  H    3.806505   2.726194   3.090668   2.163840   3.052798
    13  H    4.007404   3.401463   4.034221   2.157704   2.467826
    14  H    2.601914   2.715825   3.537652   2.153605   2.469071
    15  C    4.250665   2.449133   2.539928   1.526358   2.132960
    16  O    4.957360   3.391642   3.511670   2.401108   2.496015
    17  N    5.002500   2.926369   2.625631   2.437405   3.326586
    18  H    4.786691   2.746175   2.384893   2.563033   3.611236
    19  C    6.417397   4.290775   3.837050   3.810639   4.575817
    20  H    6.706655   4.668739   4.306921   4.035703   4.579004
    21  H    7.041270   5.009778   4.632153   4.396769   5.193201
    22  H    6.809411   4.577126   3.906174   4.425226   5.241219
                   11         12         13         14         15
    11  C    0.000000
    12  H    1.091951   0.000000
    13  H    1.091686   1.778989   0.000000
    14  H    1.090538   1.778658   1.779604   0.000000
    15  C    2.486038   2.741130   2.698888   3.435993   0.000000
    16  O    3.412585   3.840412   3.336199   4.311082   1.227109
    17  N    2.961627   2.683318   3.270306   3.969483   1.345115
    18  H    2.767277   2.173975   3.297805   3.667781   2.043090
    19  C    4.308903   3.965096   4.416091   5.357681   2.446756
    20  H    4.722462   4.605442   4.686140   5.777860   2.520467
    21  H    4.547856   4.070165   4.500817   5.613291   3.130881
    22  H    5.029180   4.585461   5.301435   6.015626   3.178951
                   16         17         18         19         20
    16  O    0.000000
    17  N    2.260839   0.000000
    18  H    3.154395   1.010010   0.000000
    19  C    2.790738   1.450390   2.123308   0.000000
    20  H    2.345331   2.076413   2.981091   1.090159   0.000000
    21  H    3.492083   2.094901   2.514391   1.092213   1.779362
    22  H    3.578845   2.090181   2.478660   1.091503   1.782044
                   21         22
    21  H    0.000000
    22  H    1.780596   0.000000
 Stoichiometry    C6H12N2O2
 Framework group  C1[X(C6H12N2O2)]
 Deg. of freedom    60
 Full point group                 C1      NOp   1
 Largest Abelian subgroup         C1      NOp   1
 Largest concise Abelian subgroup C1      NOp   1
                         Standard orientation:                         
 ---------------------------------------------------------------------
 Center     Atomic      Atomic             Coordinates (Angstroms)
 Number     Number       Type             X           Y           Z
 ---------------------------------------------------------------------
      1          1           0       -4.132138    1.255517   -0.021015
      2          6           0       -3.069245    1.495448    0.010058
      3          1           0       -2.865231    2.116213    0.884971
      4          1           0       -2.793503    2.049169   -0.889795
      5          6           0       -2.238315    0.216443    0.105452
      6          8           0       -2.772516   -0.881074    0.236767
      7          7           0       -0.903831    0.373269    0.050930
      8          1           0       -0.511014    1.297680   -0.055875
      9          6           0        0.009190   -0.753776    0.156128
     10          1           0       -0.298059   -1.389773    0.987200
     11          6           0        0.014134   -1.590458   -1.124121
     12          1           0        0.325616   -0.977865   -1.972689
     13          1           0        0.706664   -2.427143   -1.013940
     14          1           0       -0.989114   -1.975611   -1.309656
     15          6           0        1.428936   -0.266950    0.433777
     16          8           0        2.026074   -0.606370    1.450642
     17          7           0        1.966231    0.545695   -0.493723
     18          1           0        1.439083    0.773253   -1.324657
     19          6           0        3.307529    1.082215   -0.364508
     20          1           0        3.714175    0.782929    0.601678
     21          1           0        3.946813    0.693340   -1.160135
     22          1           0        3.278069    2.171557   -0.426527
 ---------------------------------------------------------------------
 Rotational constants (GHZ):      2.4638353      0.6913936      0.6347615
 Standard basis: 6-31G(d) (6D, 7F)
 There are   174 symmetry adapted basis functions of A   symmetry.
 Integral buffers will be    131072 words long.
 Raffenetti 2 integral format.
 Two-electron integral symmetry is turned on.
   174 basis functions,   328 primitive gaussians,   174 cartesian basis functions
    39 alpha electrons       39 beta electrons
       nuclear repulsion energy       553.0212923458 Hartrees.
 NAtoms=   22 NActive=   22 NUniq=   22 SFac= 7.50D-01 NAtFMM=   80 NAOKFM=F Big=F
 One-electron integrals computed using PRISM.
 NBasis=   174 RedAO= T  NBF=   174
 NBsUse=   174 1.00D-06 NBFU=   174
 Initial guess read from the read-write file.
 B after Tr=     0.000000    0.000000    0.000000
         Rot=    1.000000    0.000000    0.000000    0.000000 Ang=   0.00 deg.
 Initial guess orbital symmetries:
       Occupied  (A) (A) (A) (A) (A) (A) (A) (A) (A) (A) (A) (A)
                 (A) (A) (A) (A) (A) (A) (A) (A) (A) (A) (A) (A)
                 (A) (A) (A) (A) (A) (A) (A) (A) (A) (A) (A) (A)
                 (A) (A) (A)
       Virtual   (A) (A) (A) (A) (A) (A) (A) (A) (A) (A) (A) (A)
                 (A) (A) (A) (A) (A) (A) (A) (A) (A) (A) (A) (A)
                 (A) (A) (A) (A) (A) (A) (A) (A) (A) (A) (A) (A)
                 (A) (A) (A) (A) (A) (A) (A) (A) (A) (A) (A) (A)
                 (A) (A) (A) (A) (A) (A) (A) (A) (A) (A) (A) (A)
                 (A) (A) (A) (A) (A) (A) (A) (A) (A) (A) (A) (A)
                 (A) (A) (A) (A) (A) (A) (A) (A) (A) (A) (A) (A)
                 (A) (A) (A) (A) (A) (A) (A) (A) (A) (A) (A) (A)
                 (A) (A) (A) (A) (A) (A) (A) (A) (A) (A) (A) (A)
                 (A) (A) (A) (A) (A) (A) (A) (A) (A) (A) (A) (A)
                 (A) (A) (A) (A) (A) (A) (A) (A) (A) (A) (A) (A)
                 (A) (A) (A)
 Harris functional with IExCor=  402 diagonalized for initial guess.
 ExpMin= 1.61D-01 ExpMax= 5.48D+03 ExpMxC= 8.25D+02 IAcc=1 IRadAn=         1 AccDes= 0.00D+00
 HarFok:  IExCor=  402 AccDes= 0.00D+00 IRadAn=         1 IDoV= 1
 ScaDFX=  1.000000  1.000000  1.000000  1.000000
 FoFCou: FMM=F IPFlag=           0 FMFlag=      100000 FMFlg1=           0
         NFxFlg=           0 DoJE=T BraDBF=F KetDBF=T FulRan=T
         Omega=  0.000000  0.000000  1.000000  0.000000  0.000000 ICntrl=     500 IOpCl=  0
         NMat0=    1 NMatS0=    1 NMatT0=    0 NMatD0=    1 NMtDS0=    0 NMtDT0=    0
         I1Cent=           4 NGrid=           0.
 Petite list used in FoFCou.
 Requested convergence on RMS density matrix=1.00D-08 within 128 cycles.
 Requested convergence on MAX density matrix=1.00D-06.
 Requested convergence on             energy=1.00D-06.
 No special actions if energy rises.
 Integral accuracy reduced to 1.0D-05 until final iterations.
 Initial convergence to 1.0D-05 achieved.  Increase integral accuracy.
 SCF Done:  E(RB3LYP) =  -495.839248905     A.U. after   16 cycles
             Convg  =    0.9364D-08             -V/T =  2.0089
 Calling FoFJK, ICntrl=      2127 FMM=F ISym2X=0 I1Cent= 0 IOpClX= 0 NMat=1 NMatS=1 NMatT=0.
 ***** Axes restored to original set *****
 -------------------------------------------------------------------
 Center     Atomic                   Forces (Hartrees/Bohr)
 Number     Number              X              Y              Z
 -------------------------------------------------------------------
      1        1           0.002552038    0.000546086   -0.000018218
      2        6           0.004104645    0.006506763   -0.000819755
      3        1          -0.004462181    0.000316783    0.000977315
      4        1          -0.004388625    0.000062650   -0.001502031
      5        6          -0.002528895   -0.029882299    0.006993921
      6        8           0.002503846    0.002854587   -0.000413396
      7        7          -0.005009092    0.016531437   -0.004797000
      8        1          -0.001169469   -0.000296054    0.001941863
      9        6           0.005689135    0.000689778   -0.006953601
     10        1          -0.001984771    0.001937175    0.002299619
     11        6           0.002072782   -0.004646317    0.000051989
     12        1           0.001387132   -0.001060010   -0.004006185
     13        1           0.002503809    0.000486531   -0.001695244
     14        1           0.000838439   -0.001072129   -0.000828931
     15        6           0.008657475   -0.003476884    0.027289774
     16        8           0.001157294    0.000760099   -0.001687893
     17        7          -0.010685187    0.005578677   -0.010898512
     18        1           0.001513833    0.000390284   -0.000958813
     19        6          -0.001362259    0.000434419   -0.002895339
     20        1           0.000450150   -0.002385948    0.000401924
     21        1           0.000592013    0.002937517   -0.001873194
     22        1          -0.002432113    0.002786853   -0.000608293
 -------------------------------------------------------------------
 Cartesian Forces:  Max     0.029882299 RMS     0.006392113

 GradGradGradGradGradGradGradGradGradGradGradGradGradGradGradGradGradGrad
 Berny optimization.
 Using GEDIIS/GDIIS optimizer.
 Internal  Forces:  Max     0.022783836 RMS     0.004183158
 Search for a local minimum.
 Step number   2 out of a maximum of  132
 All quantities printed in internal units (Hartrees-Bohrs-Radians)
 Mixed Optimization -- RFO/linear search
 Update second derivatives using D2CorX and points    1    2
 DE= -2.99D-03 DEPred=-2.99D-03 R= 1.00D+00
 SS=  1.41D+00  RLast= 3.00D-01 DXNew= 5.0454D-01 9.0000D-01
 Trust test= 1.00D+00 RLast= 3.00D-01 DXMaxT set to 5.05D-01
 Use linear search instead of GDIIS.
 Linear search step of   0.594 exceeds DXMaxT=   0.505 but not scaled.
 Quartic linear search produced a step of  2.00000.
 Iteration  1 RMS(Cart)=  0.10220018 RMS(Int)=  0.00885727
 Iteration  2 RMS(Cart)=  0.00945010 RMS(Int)=  0.00028706
 Iteration  3 RMS(Cart)=  0.00008011 RMS(Int)=  0.00028036
 Iteration  4 RMS(Cart)=  0.00000002 RMS(Int)=  0.00028036
 Iteration  1 RMS(Cart)=  0.00009600 RMS(Int)=  0.00003692
 Iteration  2 RMS(Cart)=  0.00005260 RMS(Int)=  0.00004118
 Iteration  3 RMS(Cart)=  0.00002935 RMS(Int)=  0.00004653
 Iteration  4 RMS(Cart)=  0.00001679 RMS(Int)=  0.00005017
 Iteration  5 RMS(Cart)=  0.00000988 RMS(Int)=  0.00005240
 Iteration  6 RMS(Cart)=  0.00000599 RMS(Int)=  0.00005374
 Iteration  7 RMS(Cart)=  0.00000374 RMS(Int)=  0.00005454
 Iteration  8 RMS(Cart)=  0.00000239 RMS(Int)=  0.00005503
 Iteration  9 RMS(Cart)=  0.00000155 RMS(Int)=  0.00005532
 Iteration 10 RMS(Cart)=  0.00000102 RMS(Int)=  0.00005551
 Iteration 11 RMS(Cart)=  0.00000068 RMS(Int)=  0.00005562
 Variable       Old X    -DE/DX   Delta X   Delta X   Delta X     New X
                                 (Linear)    (Quad)   (Total)
    R1        2.05995  -0.00056   0.00030   0.00000   0.00030   2.06025
    R2        2.06356   0.00315   0.00751   0.00000   0.00751   2.07107
    R3        2.06350   0.00323   0.00726   0.00000   0.00726   2.07076
    R4        2.88788  -0.00049  -0.00686   0.00000  -0.00686   2.88102
    R5        2.31995   0.00013  -0.00512   0.00000  -0.00512   2.31483
    R6        2.54125   0.02038   0.03684   0.00000   0.03684   2.57810
    R7        1.90876   0.00036   0.00018   0.00000   0.00018   1.90895
    R8        2.74817   0.00902   0.02000   0.00000   0.02000   2.76818
    R9        2.06108   0.00038   0.00267   0.00000   0.00267   2.06374
   R10        2.89017   0.01051   0.01657   0.00000   0.01657   2.90673
   R11        2.88440   0.00727   0.01644   0.00000   0.01644   2.90084
   R12        2.06349   0.00241   0.00754   0.00000   0.00754   2.07103
   R13        2.06299   0.00241   0.00629   0.00000   0.00629   2.06928
   R14        2.06082   0.00117   0.00232   0.00000   0.00232   2.06313
   R15        2.31890  -0.00041  -0.00723   0.00000  -0.00723   2.31167
   R16        2.54190   0.02278   0.03812   0.00000   0.03812   2.58002
   R17        1.90864  -0.00004   0.00015   0.00000   0.00015   1.90879
   R18        2.74084   0.00455   0.00542   0.00000   0.00542   2.74626
   R19        2.06010  -0.00059   0.00053   0.00000   0.00053   2.06064
   R20        2.06398   0.00283   0.00820   0.00000   0.00820   2.07218
   R21        2.06264   0.00296   0.00603   0.00000   0.00603   2.06867
    A1        1.90724  -0.00018  -0.00776   0.00000  -0.00783   1.89941
    A2        1.91171  -0.00018   0.00123   0.00000   0.00152   1.91322
    A3        1.92595  -0.00543  -0.02624   0.00000  -0.02612   1.89983
    A4        1.90161  -0.00367  -0.01693   0.00000  -0.01742   1.88418
    A5        1.90094   0.00475   0.00957   0.00000   0.00927   1.91021
    A6        1.91616   0.00473   0.04019   0.00000   0.04009   1.95625
    A7        2.11565   0.00685   0.02513   0.00000   0.02500   2.14064
    A8        2.02577  -0.00485  -0.01854   0.00000  -0.01867   2.00710
    A9        2.14171  -0.00200  -0.00671   0.00000  -0.00682   2.13489
   A10        2.09086  -0.00151  -0.00702   0.00000  -0.00714   2.08372
   A11        2.12905   0.00081   0.00312   0.00000   0.00300   2.13205
   A12        2.06321   0.00069   0.00378   0.00000   0.00366   2.06687
   A13        1.90728   0.00011  -0.00771   0.00000  -0.00845   1.89884
   A14        1.94491   0.00051   0.01172   0.00000   0.01209   1.95699
   A15        1.92831  -0.00403  -0.02138   0.00000  -0.02232   1.90599
   A16        1.89626  -0.00139   0.00033   0.00000   0.00069   1.89695
   A17        1.88537  -0.00299  -0.02143   0.00000  -0.02200   1.86337
   A18        1.90048   0.00772   0.03822   0.00000   0.03844   1.93892
   A19        1.92253   0.00478   0.02276   0.00000   0.02266   1.94519
   A20        1.91436   0.00169   0.00659   0.00000   0.00650   1.92085
   A21        1.90991   0.00023  -0.00238   0.00000  -0.00238   1.90753
   A22        1.90439  -0.00286  -0.01143   0.00000  -0.01162   1.89277
   A23        1.90535  -0.00248  -0.00977   0.00000  -0.00979   1.89555
   A24        1.90719  -0.00142  -0.00593   0.00000  -0.00592   1.90127
   A25        2.11198   0.00222   0.01775   0.00000   0.01774   2.12972
   A26        2.02506  -0.00218  -0.02001   0.00000  -0.02002   2.00505
   A27        2.14614  -0.00004   0.00225   0.00000   0.00225   2.14839
   A28        2.08853  -0.00128  -0.01180   0.00000  -0.01275   2.07579
   A29        2.13111   0.00295   0.00702   0.00000   0.00604   2.13715
   A30        2.06306  -0.00169   0.00380   0.00000   0.00279   2.06584
   A31        1.89902  -0.00484  -0.02426   0.00000  -0.02413   1.87489
   A32        1.92270   0.00328   0.02306   0.00000   0.02297   1.94567
   A33        1.91682   0.00360   0.01107   0.00000   0.01092   1.92774
   A34        1.90661   0.00011  -0.00674   0.00000  -0.00655   1.90006
   A35        1.91178   0.00006   0.00341   0.00000   0.00348   1.91526
   A36        1.90683  -0.00224  -0.00662   0.00000  -0.00695   1.89988
    D1       -0.09479  -0.00014  -0.18954   0.00000  -0.18983  -0.28462
    D2        3.05843  -0.00004  -0.16643   0.00000  -0.16644   2.89200
    D3        1.99879  -0.00071  -0.20913   0.00000  -0.20944   1.78936
    D4       -1.13117  -0.00061  -0.18602   0.00000  -0.18605  -1.31721
    D5       -2.20358   0.00050  -0.20054   0.00000  -0.20037  -2.40395
    D6        0.94965   0.00060  -0.17743   0.00000  -0.17698   0.77266
    D7       -0.00936   0.00036  -0.01851   0.00000  -0.01833  -0.02769
    D8        3.12019  -0.00073  -0.04273   0.00000  -0.04249   3.07770
    D9       -3.13913   0.00040   0.00499   0.00000   0.00474  -3.13439
   D10       -0.00958  -0.00069  -0.01924   0.00000  -0.01942  -0.02900
   D11       -0.80773  -0.00130  -0.04455   0.00000  -0.04442  -0.85215
   D12        1.28810  -0.00264  -0.04176   0.00000  -0.04153   1.24658
   D13       -2.87984   0.00473   0.00000   0.00000   0.00000  -2.87984
   D14        2.32200  -0.00239  -0.06841   0.00000  -0.06842   2.25358
   D15       -1.86535  -0.00373  -0.06562   0.00000  -0.06553  -1.93089
   D16        0.24988   0.00364  -0.02386   0.00000  -0.02400   0.22588
   D17        1.04603  -0.00001  -0.00242   0.00000  -0.00214   1.04389
   D18       -3.14076   0.00052   0.00172   0.00000   0.00211  -3.13865
   D19       -1.04875  -0.00006  -0.00297   0.00000  -0.00265  -1.05140
   D20       -3.13484  -0.00047  -0.00449   0.00000  -0.00464  -3.13947
   D21       -1.03843   0.00006  -0.00034   0.00000  -0.00040  -1.03883
   D22        1.05357  -0.00052  -0.00504   0.00000  -0.00515   1.04842
   D23       -1.08536  -0.00052  -0.00867   0.00000  -0.00894  -1.09430
   D24        1.01104   0.00001  -0.00453   0.00000  -0.00470   1.00635
   D25        3.10305  -0.00057  -0.00922   0.00000  -0.00945   3.09360
   D26        2.09165  -0.00172  -0.00548   0.00000  -0.00531   2.08635
   D27       -1.04722  -0.00219   0.00001   0.00000   0.00000  -1.04722
   D28        0.00625   0.00234   0.03034   0.00000   0.02991   0.03616
   D29       -3.13263   0.00187   0.03582   0.00000   0.03522  -3.09741
   D30       -2.05013   0.00144   0.02074   0.00000   0.02072  -2.02941
   D31        1.09418   0.00096   0.02623   0.00000   0.02603   1.12021
   D32       -0.03137  -0.00075  -0.06294   0.00000  -0.06252  -0.09389
   D33       -3.13874   0.00002   0.00583   0.00000   0.00568  -3.13306
   D34        3.11300  -0.00124  -0.05733   0.00000  -0.05718   3.05582
   D35        0.00563  -0.00046   0.01144   0.00000   0.01103   0.01665
   D36       -0.08010  -0.00037  -0.16040   0.00000  -0.16051  -0.24060
   D37        2.00956  -0.00125  -0.16957   0.00000  -0.16994   1.83961
   D38       -2.17254   0.00036  -0.15643   0.00000  -0.15643  -2.32898
   D39        3.09523   0.00039  -0.09259   0.00000  -0.09238   3.00285
   D40       -1.09830  -0.00049  -0.10177   0.00000  -0.10182  -1.20011
   D41        1.00279   0.00111  -0.08862   0.00000  -0.08831   0.91448
         Item               Value     Threshold  Converged?
 Maximum Force            0.022784     0.000450     NO 
 RMS     Force            0.004152     0.000300     NO 
 Maximum Displacement     0.409789     0.001800     NO 
 RMS     Displacement     0.103501     0.001200     NO 
 Predicted change in Energy=-3.204873D-03
 GradGradGradGradGradGradGradGradGradGradGradGradGradGradGradGradGradGrad

                          Input orientation:                          
 ---------------------------------------------------------------------
 Center     Atomic      Atomic             Coordinates (Angstroms)
 Number     Number       Type             X           Y           Z
 ---------------------------------------------------------------------
      1          1           0        1.934024    1.095213    0.258530
      2          6           0        1.954154    2.184728    0.292781
      3          1           0        1.491917    2.517769    1.229027
      4          1           0        1.365068    2.589902   -0.537634
      5          6           0        3.404579    2.652291    0.248386
      6          8           0        4.347408    1.903999    0.475649
      7          7           0        3.574736    3.978686   -0.021720
      8          1           0        2.765037    4.556810   -0.196661
      9          6           0        4.896290    4.610585   -0.024126
     10          1           0        5.422471    4.329280    0.890561
     11          6           0        5.743288    4.177684   -1.232920
     12          1           0        5.256197    4.441263   -2.178624
     13          1           0        6.722635    4.666379   -1.199575
     14          1           0        5.886130    3.095682   -1.204358
     15          6           0        4.726799    6.135784    0.013834
     16          8           0        5.175077    6.815751    0.926581
     17          7           0        4.033985    6.663098   -1.037812
     18          1           0        3.756786    6.054477   -1.794792
     19          6           0        3.786583    8.088815   -1.172257
     20          1           0        4.017729    8.552234   -0.212633
     21          1           0        4.423891    8.535841   -1.944546
     22          1           0        2.738318    8.272629   -1.428591
 ---------------------------------------------------------------------
                    Distance matrix (angstroms):
                    1          2          3          4          5
     1  H    0.000000
     2  C    1.090240   0.000000
     3  H    1.777917   1.095963   0.000000
     4  H    1.786529   1.095800   1.772677   0.000000
     5  C    2.141757   1.524571   2.153608   2.186624   0.000000
     6  O    2.554544   2.416591   3.016310   3.223594   1.224955
     7  N    3.329398   2.437925   2.834922   2.660361   1.364271
     8  H    3.588932   2.554184   2.794836   2.438217   2.057735
     9  C    4.605730   3.826404   4.188081   4.100777   2.476768
    10  H    4.798741   4.121367   4.341128   4.639795   2.701217
    11  C    5.122162   4.545016   5.185621   4.708852   3.160800
    12  H    5.307787   4.701413   5.429708   4.610995   3.538261
    13  H    6.148991   5.578900   6.154271   5.783896   4.142782
    14  H    4.664875   4.304846   5.056131   4.597862   2.909495
    15  C    5.767740   4.834895   5.003118   4.917177   3.733364
    16  O    6.608727   5.676479   5.668315   5.875193   4.574824
    17  N    6.090294   5.113899   5.365111   4.895326   4.258759
    18  H    5.668588   4.752094   5.175076   4.393636   3.984156
    19  C    7.374930   6.353138   6.486001   6.041897   5.632046
    20  H    7.756996   6.712594   6.698722   6.533884   5.949607
    21  H    8.149597   7.172298   7.408456   6.833007   6.361141
    22  H    7.416777   6.374996   6.460253   5.913798   5.902911
                    6          7          8          9         10
     6  O    0.000000
     7  N    2.269079   0.000000
     8  H    3.161218   1.010170   0.000000
     9  C    2.806537   1.464857   2.138901   0.000000
    10  H    2.685126   2.090286   2.880239   1.092086   0.000000
    11  C    3.168175   2.491831   3.176090   1.538178   2.152923
[...]
    13  H    6.027173   5.601934   6.250693   5.915087   4.147090
    14  H    4.564495   4.340998   5.014738   4.869885   2.910365
    15  C    5.647050   4.839350   5.371415   4.737757   3.740603
    16  O    6.564367   5.668389   6.022722   5.590762   4.584525
    17  N    5.847273   5.134672   5.837250   4.796422   4.263787
    18  H    5.371450   4.811626   5.655529   4.470730   3.998083
    19  C    7.147043   6.405680   7.067566   5.925945   5.657866
    20  H    7.607445   6.760185   7.282357   6.315484   5.986411
    21  H    7.873292   7.211948   7.937648   6.787070   6.361212
    22  H    7.185624   6.470648   7.152194   5.825798   5.962679
                    6          7          8          9         10
     6  O    0.000000
     7  N    2.277638   0.000000
     8  H    3.155229   1.010456   0.000000
     9  C    2.818706   1.470042   2.133740   0.000000
    10  H    2.747309   2.097675   2.794396   1.094166   0.000000
    11  C    3.113849   2.497434   3.277489   1.537617   2.153273
    12  H    3.681026   2.770522   3.358256   2.194476   3.079417
    13  H    3.986122   3.436167   4.153390   2.171864   2.492557
    14  H    2.494757   2.757955   3.697497   2.158319   2.463641
    15  C    4.294480   2.447278   2.497987   1.537813   2.113965
    16  O    5.044370   3.396697   3.399111   2.420386   2.483000
    17  N    5.001390   2.905123   2.661863   2.450181   3.326494
    18  H    4.742962   2.745452   2.582692   2.545482   3.589943
    19  C    6.437787   4.291864   3.880192   3.830141   4.582698
    20  H    6.734074   4.626534   4.205412   4.055586   4.585593
    21  H    7.031622   5.015288   4.742398   4.370855   5.135595
    22  H    6.881126   4.643554   4.038045   4.503135   5.321844
                   11         12         13         14         15
    11  C    0.000000
    12  H    1.096269   0.000000
    13  H    1.095411   1.778432   0.000000
    14  H    1.091408   1.774224   1.779972   0.000000
    15  C    2.553866   2.867497   2.766943   3.486758   0.000000
    16  O    3.467911   3.951556   3.398957   4.342537   1.222822
    17  N    3.053909   2.845352   3.365019   4.057561   1.370676
    18  H    2.793424   2.266349   3.301582   3.715192   2.051137
    19  C    4.381973   4.103180   4.484177   5.431955   2.474559
    20  H    4.826253   4.771608   4.819609   5.867331   2.537346
    21  H    4.585306   4.202997   4.499695   5.664593   3.101095
    22  H    5.110780   4.702407   5.368207   6.105703   3.273397
                   16         17         18         19         20
    16  O    0.000000
    17  N    2.282831   0.000000
    18  H    3.159594   1.010624   0.000000
    19  C    2.827124   1.453709   2.128484   0.000000
    20  H    2.390607   2.063058   2.972149   1.090651   0.000000
    21  H    3.423825   2.120891   2.556741   1.097437   1.777776
    22  H    3.705295   2.104993   2.492014   1.095051   1.784763
                   21         22
    21  H    0.000000
    22  H    1.783297   0.000000
 Stoichiometry    C6H12N2O2
 Framework group  C1[X(C6H12N2O2)]
 Deg. of freedom    60
 Full point group                 C1      NOp   1
 Largest Abelian subgroup         C1      NOp   1
 Largest concise Abelian subgroup C1      NOp   1
                         Standard orientation:                         
 ---------------------------------------------------------------------
 Center     Atomic      Atomic             Coordinates (Angstroms)
 Number     Number       Type             X           Y           Z
 ---------------------------------------------------------------------
      1          1           0        3.808980   -1.451410   -0.765142
      2          6           0        3.045184   -1.535675    0.012934
      3          1           0        3.564983   -1.666541    0.967876
      4          1           0        2.433875   -2.422889   -0.180783
      5          6           0        2.250494   -0.237478    0.059444
      6          8           0        2.796585    0.856044    0.129948
      7          7           0        0.887388   -0.380624    0.014831
      8          1           0        0.500335   -1.307897    0.121493
      9          6           0       -0.019284    0.759637    0.211741
     10          1           0        0.272133    1.290950    1.122775
     11          6           0        0.021603    1.746330   -0.966830
     12          1           0       -0.238250    1.259127   -1.913886
     13          1           0       -0.683369    2.566651   -0.793587
     14          1           0        1.028850    2.157043   -1.055938
     15          6           0       -1.437404    0.227703    0.477919
     16          8           0       -2.038853    0.471594    1.514293
     17          7           0       -1.961415   -0.535294   -0.533021
     18          1           0       -1.453361   -0.585085   -1.405239
     19          6           0       -3.321537   -1.047114   -0.495901
     20          1           0       -3.671407   -0.974026    0.534521
     21          1           0       -3.993069   -0.462368   -1.137373
     22          1           0       -3.347695   -2.093656   -0.817151
 ---------------------------------------------------------------------
 Rotational constants (GHZ):      2.3922251      0.6877670      0.6278520

 **********************************************************************

            Population analysis using the SCF density.

 **********************************************************************

 Orbital symmetries:
       Occupied  (A) (A) (A) (A) (A) (A) (A) (A) (A) (A) (A) (A)
                 (A) (A) (A) (A) (A) (A) (A) (A) (A) (A) (A) (A)
                 (A) (A) (A) (A) (A) (A) (A) (A) (A) (A) (A) (A)
                 (A) (A) (A)
       Virtual   (A) (A) (A) (A) (A) (A) (A) (A) (A) (A) (A) (A)
                 (A) (A) (A) (A) (A) (A) (A) (A) (A) (A) (A) (A)
                 (A) (A) (A) (A) (A) (A) (A) (A) (A) (A) (A) (A)
                 (A) (A) (A) (A) (A) (A) (A) (A) (A) (A) (A) (A)
                 (A) (A) (A) (A) (A) (A) (A) (A) (A) (A) (A) (A)
                 (A) (A) (A) (A) (A) (A) (A) (A) (A) (A) (A) (A)
                 (A) (A) (A) (A) (A) (A) (A) (A) (A) (A) (A) (A)
                 (A) (A) (A) (A) (A) (A) (A) (A) (A) (A) (A) (A)
                 (A) (A) (A) (A) (A) (A) (A) (A) (A) (A) (A) (A)
                 (A) (A) (A) (A) (A) (A) (A) (A) (A) (A) (A) (A)
                 (A) (A) (A) (A) (A) (A) (A) (A) (A) (A) (A) (A)
                 (A) (A) (A)
 The electronic state is 1-A.
 Alpha  occ. eigenvalues --  -19.11859 -19.11071 -14.37185 -14.36545 -10.29191
 Alpha  occ. eigenvalues --  -10.28961 -10.23624 -10.22576 -10.19520 -10.18405
 Alpha  occ. eigenvalues --   -1.03923  -1.03009  -0.93416  -0.91812  -0.78244
 Alpha  occ. eigenvalues --   -0.73126  -0.71358  -0.65026  -0.59083  -0.58174
 Alpha  occ. eigenvalues --   -0.53924  -0.49791  -0.47316  -0.45870  -0.45070
 Alpha  occ. eigenvalues --   -0.44411  -0.42892  -0.41575  -0.41058  -0.40020
 Alpha  occ. eigenvalues --   -0.39560  -0.38336  -0.37626  -0.36526  -0.34586
 Alpha  occ. eigenvalues --   -0.26847  -0.26018  -0.25097  -0.24579
 Alpha virt. eigenvalues --    0.01208   0.02888   0.06340   0.07931   0.11358
 Alpha virt. eigenvalues --    0.12542   0.13648   0.15024   0.15452   0.15584
 Alpha virt. eigenvalues --    0.16373   0.17668   0.18231   0.18599   0.19837
 Alpha virt. eigenvalues --    0.20289   0.22851   0.24467   0.26843   0.30683
 Alpha virt. eigenvalues --    0.35650   0.37679   0.42538   0.49318   0.51011
 Alpha virt. eigenvalues --    0.51711   0.52199   0.53242   0.54674   0.54910
 Alpha virt. eigenvalues --    0.56665   0.58574   0.61447   0.63294   0.65591
 Alpha virt. eigenvalues --    0.67167   0.69168   0.70302   0.71366   0.72132
 Alpha virt. eigenvalues --    0.74983   0.76564   0.79027   0.79480   0.82859
 Alpha virt. eigenvalues --    0.83700   0.86318   0.86714   0.86831   0.87528
 Alpha virt. eigenvalues --    0.89302   0.89761   0.91271   0.92399   0.93797
 Alpha virt. eigenvalues --    0.94466   0.95049   0.96117   0.98401   0.98745
 Alpha virt. eigenvalues --    1.03837   1.07038   1.08122   1.09870   1.14492
 Alpha virt. eigenvalues --    1.16154   1.20147   1.25783   1.30722   1.34545
 Alpha virt. eigenvalues --    1.35747   1.38033   1.41854   1.43384   1.47131
 Alpha virt. eigenvalues --    1.49560   1.53555   1.61348   1.66149   1.71088
 Alpha virt. eigenvalues --    1.75168   1.75839   1.76935   1.79769   1.81052
 Alpha virt. eigenvalues --    1.82159   1.83758   1.84138   1.87745   1.89738
 Alpha virt. eigenvalues --    1.90138   1.94146   1.97046   1.97823   2.00506
 Alpha virt. eigenvalues --    2.03474   2.04376   2.07093   2.11822   2.17043
 Alpha virt. eigenvalues --    2.20750   2.22204   2.23214   2.27327   2.29687
 Alpha virt. eigenvalues --    2.30388   2.32819   2.34918   2.39215   2.40023
 Alpha virt. eigenvalues --    2.41943   2.43549   2.51414   2.57930   2.62338
 Alpha virt. eigenvalues --    2.65747   2.68210   2.71570   2.75206   2.85603
 Alpha virt. eigenvalues --    2.89074   2.96672   3.00902   3.10778   3.15729
 Alpha virt. eigenvalues --    3.91447   3.94122   4.04422   4.14090   4.17766
 Alpha virt. eigenvalues --    4.21368   4.25566   4.43088   4.50266   4.65192
          Condensed to atoms (all electrons):
              1          2          3          4          5          6
     1  H    0.515833   0.361468  -0.022849  -0.026178  -0.019187   0.001211
     2  C    0.361468   5.309987   0.362780   0.340156   0.352087  -0.079003
     3  H   -0.022849   0.362780   0.517097  -0.025837  -0.019981   0.000246
     4  H   -0.026178   0.340156  -0.025837   0.583687  -0.026461   0.003094
     5  C   -0.019187   0.352087  -0.019981  -0.026461   4.307394   0.582904
     6  O    0.001211  -0.079003   0.000246   0.003094   0.582904   8.069027
     7  N    0.002453  -0.119054   0.000838   0.006543   0.255115  -0.096955
     8  H   -0.000005   0.001005  -0.000169   0.002285  -0.012076   0.003319
     9  C   -0.000115   0.007043  -0.000192   0.000127  -0.020334   0.010888
    10  H   -0.000016   0.000281   0.000042  -0.000005  -0.000149   0.005255
    11  C    0.000029  -0.000459  -0.000005   0.000003  -0.007488  -0.009875
    12  H   -0.000004   0.000028   0.000001  -0.000001   0.000653  -0.000059
    13  H    0.000000   0.000006   0.000000   0.000000   0.000169   0.000161
    14  H    0.000002   0.000261   0.000000  -0.000017   0.003569   0.014597
    15  C    0.000003  -0.000040  -0.000001  -0.000069   0.004410   0.000689
    16  O    0.000000   0.000001   0.000000   0.000000  -0.000134   0.000000
    17  N    0.000000  -0.000023   0.000000  -0.000004   0.000149  -0.000006
    18  H   -0.000001   0.000007   0.000000   0.000000   0.000024   0.000000
    19  C    0.000000   0.000000   0.000000   0.000000   0.000010   0.000000
    20  H    0.000000   0.000000   0.000000   0.000000   0.000000   0.000000
    21  H    0.000000   0.000000   0.000000   0.000000   0.000000   0.000000
    22  H    0.000000   0.000000   0.000000   0.000000  -0.000001   0.000000
              7          8          9         10         11         12
     1  H    0.002453  -0.000005  -0.000115  -0.000016   0.000029  -0.000004
     2  C   -0.119054   0.001005   0.007043   0.000281  -0.000459   0.000028
     3  H    0.000838  -0.000169  -0.000192   0.000042  -0.000005   0.000001
     4  H    0.006543   0.002285   0.000127  -0.000005   0.000003  -0.000001
     5  C    0.255115  -0.012076  -0.020334  -0.000149  -0.007488   0.000653
     6  O   -0.096955   0.003319   0.010888   0.005255  -0.009875  -0.000059
     7  N    7.205437   0.293144   0.200545  -0.049613  -0.050781  -0.001233
     8  H    0.293144   0.411523  -0.043603   0.003033   0.004540   0.000156
     9  C    0.200545  -0.043603   5.076890   0.373922   0.340912  -0.031624
    10  H   -0.049613   0.003033   0.373922   0.547123  -0.041984   0.005121
    11  C   -0.050781   0.004540   0.340912  -0.041984   5.167170   0.360478
    12  H   -0.001233   0.000156  -0.031624   0.005121   0.360478   0.593078
    13  H    0.004313  -0.000111  -0.032717  -0.000160   0.363653  -0.028959
    14  H   -0.007950  -0.000175  -0.020934  -0.004835   0.365129  -0.026651
    15  C   -0.020329  -0.001916   0.328645  -0.036890  -0.034745  -0.008295
    16  O    0.000850  -0.000023  -0.069304   0.005742   0.000576  -0.000041
    17  N   -0.003977   0.011135  -0.120738   0.006035   0.001798   0.002333
    18  H    0.003381   0.000037   0.000224   0.000220   0.000068   0.006382
    19  C    0.000055  -0.000333   0.005552  -0.000137  -0.000234  -0.000084
    20  H   -0.000037  -0.000052   0.001019  -0.000016  -0.000038   0.000000
    21  H   -0.000001   0.000025  -0.000140   0.000001   0.000003   0.000002
    22  H    0.000011  -0.000072  -0.000105   0.000003  -0.000004   0.000007
             13         14         15         16         17         18
     1  H    0.000000   0.000002   0.000003   0.000000   0.000000  -0.000001
     2  C    0.000006   0.000261  -0.000040   0.000001  -0.000023   0.000007
     3  H    0.000000   0.000000  -0.000001   0.000000   0.000000   0.000000
     4  H    0.000000  -0.000017  -0.000069   0.000000  -0.000004   0.000000
     5  C    0.000169   0.003569   0.004410  -0.000134   0.000149   0.000024
     6  O    0.000161   0.014597   0.000689   0.000000  -0.000006   0.000000
     7  N    0.004313  -0.007950  -0.020329   0.000850  -0.003977   0.003381
     8  H   -0.000111  -0.000175  -0.001916  -0.000023   0.011135   0.000037
     9  C   -0.032717  -0.020934   0.328645  -0.069304  -0.120738   0.000224
    10  H   -0.000160  -0.004835  -0.036890   0.005742   0.006035   0.000220
    11  C    0.363653   0.365129  -0.034745   0.000576   0.001798   0.000068
    12  H   -0.028959  -0.026651  -0.008295  -0.000041   0.002333   0.006382
    13  H    0.555419  -0.023039   0.000661   0.000701   0.000017  -0.000075
    14  H   -0.023039   0.495450   0.003580  -0.000072   0.000025  -0.000140
    15  C    0.000661   0.003580   4.423110   0.602946   0.227684  -0.018941
    16  O    0.000701  -0.000072   0.602946   8.048439  -0.104111   0.003606
    17  N    0.000017   0.000025   0.227684  -0.104111   7.123215   0.296473
    18  H   -0.000075  -0.000140  -0.018941   0.003606   0.296473   0.408544
    19  C   -0.000024   0.000005  -0.024104  -0.006600   0.267688  -0.031574
    20  H   -0.000005   0.000001  -0.000836   0.019869  -0.040546   0.004128
    21  H    0.000008  -0.000002  -0.000066   0.000593  -0.043328  -0.000581
    22  H    0.000000   0.000000   0.002640   0.000466  -0.039192  -0.001098
             19         20         21         22
     1  H    0.000000   0.000000   0.000000   0.000000
     2  C    0.000000   0.000000   0.000000   0.000000
     3  H    0.000000   0.000000   0.000000   0.000000
     4  H    0.000000   0.000000   0.000000   0.000000
     5  C    0.000010   0.000000   0.000000  -0.000001
     6  O    0.000000   0.000000   0.000000   0.000000
     7  N    0.000055  -0.000037  -0.000001   0.000011
     8  H   -0.000333  -0.000052   0.000025  -0.000072
     9  C    0.005552   0.001019  -0.000140  -0.000105
    10  H   -0.000137  -0.000016   0.000001   0.000003
    11  C   -0.000234  -0.000038   0.000003  -0.000004
    12  H   -0.000084   0.000000   0.000002   0.000007
    13  H   -0.000024  -0.000005   0.000008   0.000000
    14  H    0.000005   0.000001  -0.000002   0.000000
    15  C   -0.024104  -0.000836  -0.000066   0.002640
    16  O   -0.006600   0.019869   0.000593   0.000466
    17  N    0.267688  -0.040546  -0.043328  -0.039192
    18  H   -0.031574   0.004128  -0.000581  -0.001098
    19  C    4.960504   0.377549   0.384467   0.377524
    20  H    0.377549   0.483479  -0.027476  -0.022603
    21  H    0.384467  -0.027476   0.563575  -0.039741
    22  H    0.377524  -0.022603  -0.039741   0.566318
 Mulliken atomic charges:
              1
     1  H    0.187358
     2  C   -0.536532
     3  H    0.188028
     4  H    0.142676
     5  C    0.599327
     6  O   -0.505495
     7  N   -0.622757
     8  H    0.328335
     9  C   -0.005962
    10  H    0.187026
    11  C   -0.458746
    12  H    0.128713
    13  H    0.159982
    14  H    0.201196
    15  C    0.551864
    16  O   -0.503504
    17  N   -0.584630
    18  H    0.329315
    19  C   -0.310267
    20  H    0.205563
    21  H    0.162663
    22  H    0.155846
 Sum of Mulliken atomic charges =   0.00000
 Mulliken charges with hydrogens summed into heavy atoms:
              1
     2  C   -0.018469
     5  C    0.599327
     6  O   -0.505495
     7  N   -0.294422
     9  C    0.181064
    11  C    0.031145
    15  C    0.551864
    16  O   -0.503504
    17  N   -0.255314
    19  C    0.213805
 Sum of Mulliken charges with hydrogens summed into heavy atoms =   0.00000
 Electronic spatial extent (au):  <R**2>=           1918.9290
 Charge=              0.0000 electrons
 Dipole moment (field-independent basis, Debye):
    X=             -1.3869    Y=             -3.6174    Z=             -3.1541  Tot=              4.9957
 Quadrupole moment (field-independent basis, Debye-Ang):
   XX=            -64.7300   YY=            -57.3745   ZZ=            -62.1146
   XY=             -3.7238   XZ=              6.6893   YZ=             -1.1630
 Traceless Quadrupole moment (field-independent basis, Debye-Ang):
   XX=             -3.3236   YY=              4.0319   ZZ=             -0.7082
   XY=             -3.7238   XZ=              6.6893   YZ=             -1.1630
 Octapole moment (field-independent basis, Debye-Ang**2):
  XXX=            -26.8497  YYY=             -0.7885  ZZZ=             -5.7502  XYY=             -3.6996
  XXY=            -32.3552  XXZ=            -15.0801  XZZ=              8.3129  YZZ=             -3.5474
  YYZ=              0.1748  XYZ=             -0.0078
 Hexadecapole moment (field-independent basis, Debye-Ang**3):
 XXXX=          -1736.8183 YYYY=           -450.8174 ZZZZ=           -243.7868 XXXY=            -30.6529
 XXXZ=             19.5060 YYYX=              5.4341 YYYZ=              4.7007 ZZZX=             16.1191
 ZZZY=              2.5623 XXYY=           -368.9863 XXZZ=           -336.3334 YYZZ=           -117.1319
 XXYZ=             -7.5530 YYXZ=              1.2680 ZZXY=              8.9084
 N-N= 5.495236267063D+02 E-N=-2.254850862011D+03  KE= 4.912337507991D+02
 1\1\GINC-NODE007\FOpt\RB3LYP\6-31G(d)\C6H12N2O2\MANAGER\10-Feb-2017\0\
 \# b3lyp/6-31G* Opt=(ModRedundant, maxcycles=1000, calcfc) geom=nocrow
 d\\Phi Psi fixed scan\\0,1\H,1.8290505868,1.2909783242,-0.3166980871\C
 ,1.9498327433,2.1709449599,0.3212357082\H,1.7499965552,1.8573734098,1.
 3512690734\H,1.2115697882,2.9258978156,0.0324677435\C,3.3920655518,2.6
 500362517,0.2240387535\O,4.3402738966,1.891178397,0.3789950959\N,3.551
 1897188,3.9842542956,-0.0499725161\H,2.7377492009,4.5819691341,-0.0044
 530858\C,4.8708882852,4.6310354424,-0.0169014694\H,5.3646811276,4.3807
 784147,0.9268886478\C,5.7710809251,4.177024086,-1.1778457335\H,5.31171
 2291,4.3811490905,-2.1520729204\H,6.7335110014,4.6981180651,-1.1318581
 584\H,5.945216031,3.1025865518,-1.0976439219\C,4.6770834998,6.15637460
 73,0.0085654284\O,5.0932562501,6.8488981973,0.9264465995\N,4.004406829
 4,6.6657852747,-1.0716007187\H,3.8052266684,6.0462039662,-1.8447801345
 \C,3.8072655912,8.0934008985,-1.262176856\H,4.0012722086,8.581695724,-
 0.306431034\H,4.4966951401,8.5019852303,-2.0119194115\H,2.7790761094,8
 .3012318633,-1.576453003\\Version=EM64L-G09RevA.02\State=1-A\HF=-495.8
 434462\RMSD=4.769e-09\RMSF=4.726e-04\Dipole=-1.3213549,0.6409872,-1.30
 62019\Quadrupole=3.7426614,-4.8384614,1.0958,0.7496623,-2.2840955,-3.9
 676738\PG=C01 [X(C6H12N2O2)]\\@


 RESEARCH IS WHAT I AM DOING WHEN I DON'T KNOW WHAT I AM DOING.
     -- WERNER VON BRAUN
 Job cpu time:  0 days  1 hours 44 minutes 52.0 seconds.
 File lengths (MBytes):  RWF=    186 Int=      0 D2E=      0 Chk=      4 Scr=      2
 Normal termination of Gaussian 09 at Fri Feb 10 21:38:53 2017.
