 Entering Gaussian System, Link 0=g09
 Initial command:
 /home/steboss/Software/g09/l1.exe /home/steboss/projects/phi_psi_scan/alanine/195/4339/Gau-31802.inp -scrdir=/home/steboss/projects/phi_psi_scan/alanine/195/4339/
 Entering Link 1 = /home/steboss/Software/g09/l1.exe PID=     31811.
  
 Copyright (c) 1988,1990,1992,1993,1995,1998,2003,2009, Gaussian, Inc.
                  All Rights Reserved.
  
 This is part of the Gaussian(R) 09 program.  It is based on
 the Gaussian(R) 03 system (copyright 2003, Gaussian, Inc.),
 the Gaussian(R) 98 system (copyright 1998, Gaussian, Inc.),
 the Gaussian(R) 94 system (copyright 1995, Gaussian, Inc.),
 the Gaussian 92(TM) system (copyright 1992, Gaussian, Inc.),
 the Gaussian 90(TM) system (copyright 1990, Gaussian, Inc.),
 the Gaussian 88(TM) system (copyright 1988, Gaussian, Inc.),
 the Gaussian 86(TM) system (copyright 1986, Carnegie Mellon
 University), and the Gaussian 82(TM) system (copyright 1983,
 Carnegie Mellon University). Gaussian is a federally registered
 trademark of Gaussian, Inc.
  
 This software contains proprietary and confidential information,
 including trade secrets, belonging to Gaussian, Inc.
  
 This software is provided under written license and may be
 used, copied, transmitted, or stored only in accord with that
 written license.
  
 The following legend is applicable only to US Government
 contracts under FAR:
  
                    RESTRICTED RIGHTS LEGEND
  
 Use, reproduction and disclosure by the US Government is
 subject to restrictions as set forth in subparagraphs (a)
 and (c) of the Commercial Computer Software - Restricted
 Rights clause in FAR 52.227-19.
  
 Gaussian, Inc.
 340 Quinnipiac St., Bldg. 40, Wallingford CT 06492
  
  
 ---------------------------------------------------------------
 Warning -- This program may not be used in any manner that
 competes with the business of Gaussian, Inc. or will provide
 assistance to any competitor of Gaussian, Inc.  The licensee
 of this program is prohibited from giving any competitor of
 Gaussian, Inc. access to this program.  By using this program,
 the user acknowledges that Gaussian, Inc. is engaged in the
 business of creating and licensing software in the field of
 computational chemistry and represents and warrants to the
 licensee that it is not a competitor of Gaussian, Inc. and that
 it will not use this program in any manner prohibited above.
 ---------------------------------------------------------------
  

 Cite this work as:
 Gaussian 09, Revision A.02,
 M. J. Frisch, G. W. Trucks, H. B. Schlegel, G. E. Scuseria, 
 M. A. Robb, J. R. Cheeseman, G. Scalmani, V. Barone, B. Mennucci, 
 G. A. Petersson, H. Nakatsuji, M. Caricato, X. Li, H. P. Hratchian, 
 A. F. Izmaylov, J. Bloino, G. Zheng, J. L. Sonnenberg, M. Hada, 
 M. Ehara, K. Toyota, R. Fukuda, J. Hasegawa, M. Ishida, T. Nakajima, 
 Y. Honda, O. Kitao, H. Nakai, T. Vreven, J. A. Montgomery, Jr., 
 J. E. Peralta, F. Ogliaro, M. Bearpark, J. J. Heyd, E. Brothers, 
 K. N. Kudin, V. N. Staroverov, R. Kobayashi, J. Normand, 
 K. Raghavachari, A. Rendell, J. C. Burant, S. S. Iyengar, J. Tomasi, 
 M. Cossi, N. Rega, J. M. Millam, M. Klene, J. E. Knox, J. B. Cross, 
 V. Bakken, C. Adamo, J. Jaramillo, R. Gomperts, R. E. Stratmann, 
 O. Yazyev, A. J. Austin, R. Cammi, C. Pomelli, J. W. Ochterski, 
 R. L. Martin, K. Morokuma, V. G. Zakrzewski, G. A. Voth, 
 P. Salvador, J. J. Dannenberg, S. Dapprich, A. D. Daniels, 
 O. Farkas, J. B. Foresman, J. V. Ortiz, J. Cioslowski, 
 and D. J. Fox, Gaussian, Inc., Wallingford CT, 2009.
 
 ******************************************
 Gaussian 09:  EM64L-G09RevA.02 11-Jun-2009
                10-Feb-2017 
 ******************************************
 %chk=structure_45.chk
 %NProcShared=8
 Will use up to    8 processors via shared memory.
 ----------------------------------------------------------------------
 # b3lyp/6-31G* Opt=(ModRedundant, maxcycles=1000, calcfc) geom=nocrowd
 ----------------------------------------------------------------------
 1/6=1000,10=4,14=-1,18=120,19=15,26=3,38=1/1,3;
 2/9=110,12=1,17=6,18=5,40=1/2;
 3/5=1,6=6,7=1,11=2,16=1,25=1,30=1,71=2,74=-5/1,2,3;
 4//1;
 5/5=2,38=5/2;
 8/6=4,10=90,11=11/1;
 11/6=1,8=1,9=11,15=111,16=1/1,2,10;
 10/6=1,7=6,13=1/2;
 6/7=2,8=2,9=2,10=2,28=1/1;
 7/10=1,18=20,25=1/1,2,3,16;
 1/6=1000,10=4,14=-1,18=20,19=15/3(2);
 2/9=110,12=1/2;
 99//99;
 2/9=110,12=1/2;
 3/5=1,6=6,7=1,11=2,16=1,25=1,30=1,71=1,74=-5/1,2,3;
 4/5=5,16=3/1;
 5/5=2,38=5/2;
 7//1,2,3,16;
 1/6=1000,14=-1,18=20,19=15/3(-5);
 2/9=110,12=1/2;
 6/7=2,8=2,9=2,10=2,19=2,28=1/1;
 99/9=1/99;
 ------------------
 Phi Psi fixed scan
 ------------------
 Symbolic Z-matrix:
 Charge =  0 Multiplicity = 1
 H                     1.9702    1.0601    0.5095 
 C                     1.985     2.1203    0.2568 
 H                     1.3772    2.6735    0.9728 
 H                     1.582     2.2609   -0.7462 
 C                     3.4103    2.6754    0.2933 
 O                     4.3566    1.9459    0.5811 
 N                     3.5554    3.9697    0. 
 H                     2.7466    4.529    -0.2306 
 C                     4.8533    4.6139    0. 
 H                     5.4076    4.3155    0.8898 
 C                     5.6613    4.2208   -1.2322 
 H                     5.1233    4.5214   -2.1312 
 H                     6.6305    4.7189   -1.2058 
 H                     5.8085    3.1409   -1.2414 
 C                     4.7127    6.1294    0. 
 O                     5.4006    6.8197   -0.7488 
 N                     3.817     6.6467    0.8441 
 H                     3.2747    6.038     1.4403 
 C                     3.5895    8.0746    0.9387 
 H                     4.2439    8.5944    0.2391 
 H                     2.5501    8.2943    0.695 
 H                     3.8031    8.4106    1.9534 
 
 The following ModRedundant input section has been read:
 D    5    7    9   15 F                                                       
 D    7    9   15   17 F                                                       

 GradGradGradGradGradGradGradGradGradGradGradGradGradGradGradGradGradGrad
 Berny optimization.
 Initialization pass.
                           ----------------------------
                           !    Initial Parameters    !
                           ! (Angstroms and Degrees)  !
 --------------------------                            --------------------------
 ! Name  Definition              Value          Derivative Info.                !
 --------------------------------------------------------------------------------
 ! R1    R(1,2)                  1.09           calculate D2E/DX2 analytically  !
 ! R2    R(2,3)                  1.09           calculate D2E/DX2 analytically  !
 ! R3    R(2,4)                  1.09           calculate D2E/DX2 analytically  !
 ! R4    R(2,5)                  1.53           calculate D2E/DX2 analytically  !
 ! R5    R(5,6)                  1.229          calculate D2E/DX2 analytically  !
 ! R6    R(5,7)                  1.335          calculate D2E/DX2 analytically  !
 ! R7    R(7,8)                  1.01           calculate D2E/DX2 analytically  !
 ! R8    R(7,9)                  1.449          calculate D2E/DX2 analytically  !
 ! R9    R(9,10)                 1.09           calculate D2E/DX2 analytically  !
 ! R10   R(9,11)                 1.525          calculate D2E/DX2 analytically  !
 ! R11   R(9,15)                 1.522          calculate D2E/DX2 analytically  !
 ! R12   R(11,12)                1.09           calculate D2E/DX2 analytically  !
 ! R13   R(11,13)                1.09           calculate D2E/DX2 analytically  !
 ! R14   R(11,14)                1.0899         calculate D2E/DX2 analytically  !
 ! R15   R(15,16)                1.229          calculate D2E/DX2 analytically  !
 ! R16   R(15,17)                1.3351         calculate D2E/DX2 analytically  !
 ! R17   R(17,18)                1.01           calculate D2E/DX2 analytically  !
 ! R18   R(17,19)                1.449          calculate D2E/DX2 analytically  !
 ! R19   R(19,20)                1.0899         calculate D2E/DX2 analytically  !
 ! R20   R(19,21)                1.09           calculate D2E/DX2 analytically  !
 ! R21   R(19,22)                1.09           calculate D2E/DX2 analytically  !
 ! A1    A(1,2,3)              109.4988         calculate D2E/DX2 analytically  !
 ! A2    A(1,2,4)              109.4973         calculate D2E/DX2 analytically  !
 ! A3    A(1,2,5)              111.1006         calculate D2E/DX2 analytically  !
 ! A4    A(3,2,4)              109.4393         calculate D2E/DX2 analytically  !
 ! A5    A(3,2,5)              108.6416         calculate D2E/DX2 analytically  !
 ! A6    A(4,2,5)              108.6364         calculate D2E/DX2 analytically  !
 ! A7    A(2,5,6)              120.4978         calculate D2E/DX2 analytically  !
 ! A8    A(2,5,7)              116.5992         calculate D2E/DX2 analytically  !
 ! A9    A(6,5,7)              122.903          calculate D2E/DX2 analytically  !
 ! A10   A(5,7,8)              119.9988         calculate D2E/DX2 analytically  !
 ! A11   A(5,7,9)              121.8962         calculate D2E/DX2 analytically  !
 ! A12   A(8,7,9)              118.105          calculate D2E/DX2 analytically  !
 ! A13   A(7,9,10)             109.5            calculate D2E/DX2 analytically  !
 ! A14   A(7,9,11)             111.0992         calculate D2E/DX2 analytically  !
 ! A15   A(7,9,15)             111.0966         calculate D2E/DX2 analytically  !
 ! A16   A(10,9,11)            108.6382         calculate D2E/DX2 analytically  !
 ! A17   A(10,9,15)            108.6373         calculate D2E/DX2 analytically  !
 ! A18   A(11,9,15)            107.7947         calculate D2E/DX2 analytically  !
 ! A19   A(9,11,12)            109.5007         calculate D2E/DX2 analytically  !
 ! A20   A(9,11,13)            109.4959         calculate D2E/DX2 analytically  !
 ! A21   A(9,11,14)            109.4978         calculate D2E/DX2 analytically  !
 ! A22   A(12,11,13)           109.441          calculate D2E/DX2 analytically  !
 ! A23   A(12,11,14)           109.4482         calculate D2E/DX2 analytically  !
 ! A24   A(13,11,14)           109.4436         calculate D2E/DX2 analytically  !
 ! A25   A(9,15,16)            120.5022         calculate D2E/DX2 analytically  !
 ! A26   A(9,15,17)            116.6022         calculate D2E/DX2 analytically  !
 ! A27   A(16,15,17)           122.8956         calculate D2E/DX2 analytically  !
 ! A28   A(15,17,18)           119.996          calculate D2E/DX2 analytically  !
 ! A29   A(15,17,19)           121.9004         calculate D2E/DX2 analytically  !
 ! A30   A(18,17,19)           118.1036         calculate D2E/DX2 analytically  !
 ! A31   A(17,19,20)           109.4999         calculate D2E/DX2 analytically  !
 ! A32   A(17,19,21)           109.497          calculate D2E/DX2 analytically  !
 ! A33   A(17,19,22)           109.4979         calculate D2E/DX2 analytically  !
 ! A34   A(20,19,21)           109.4462         calculate D2E/DX2 analytically  !
 ! A35   A(20,19,22)           109.4431         calculate D2E/DX2 analytically  !
 ! A36   A(21,19,22)           109.4433         calculate D2E/DX2 analytically  !
 ! D1    D(1,2,5,6)             -0.0011         calculate D2E/DX2 analytically  !
 ! D2    D(1,2,5,7)           -179.9967         calculate D2E/DX2 analytically  !
 ! D3    D(3,2,5,6)            120.5137         calculate D2E/DX2 analytically  !
 ! D4    D(3,2,5,7)            -59.482          calculate D2E/DX2 analytically  !
 ! D5    D(4,2,5,6)           -120.5106         calculate D2E/DX2 analytically  !
 ! D6    D(4,2,5,7)             59.4937         calculate D2E/DX2 analytically  !
 ! D7    D(2,5,7,8)             -0.006          calculate D2E/DX2 analytically  !
 ! D8    D(2,5,7,9)            179.9978         calculate D2E/DX2 analytically  !
 ! D9    D(6,5,7,8)            179.9985         calculate D2E/DX2 analytically  !
 ! D10   D(6,5,7,9)              0.0022         calculate D2E/DX2 analytically  !
 ! D11   D(5,7,9,10)           -45.0032         calculate D2E/DX2 analytically  !
 ! D12   D(5,7,9,11)            74.9994         calculate D2E/DX2 analytically  !
 ! D13   D(5,7,9,15)          -165.003          frozen, calculate D2E/DX2 analyt!
 ! D14   D(8,7,9,10)           135.0006         calculate D2E/DX2 analytically  !
 ! D15   D(8,7,9,11)          -104.9969         calculate D2E/DX2 analytically  !
 ! D16   D(8,7,9,15)            15.0007         calculate D2E/DX2 analytically  !
 ! D17   D(7,9,11,12)           60.0024         calculate D2E/DX2 analytically  !
 ! D18   D(7,9,11,13)          179.9986         calculate D2E/DX2 analytically  !
 ! D19   D(7,9,11,14)          -60.0038         calculate D2E/DX2 analytically  !
 ! D20   D(10,9,11,12)        -179.4843         calculate D2E/DX2 analytically  !
 ! D21   D(10,9,11,13)         -59.4881         calculate D2E/DX2 analytically  !
 ! D22   D(10,9,11,14)          60.5095         calculate D2E/DX2 analytically  !
 ! D23   D(15,9,11,12)         -61.938          calculate D2E/DX2 analytically  !
 ! D24   D(15,9,11,13)          58.0582         calculate D2E/DX2 analytically  !
 ! D25   D(15,9,11,14)         178.0558         calculate D2E/DX2 analytically  !
 ! D26   D(7,9,15,16)         -134.9972         calculate D2E/DX2 analytically  !
 ! D27   D(7,9,15,17)           45.0006         frozen, calculate D2E/DX2 analyt!
 ! D28   D(10,9,15,16)         104.4917         calculate D2E/DX2 analytically  !
 ! D29   D(10,9,15,17)         -75.5105         calculate D2E/DX2 analytically  !
 ! D30   D(11,9,15,16)         -13.0552         calculate D2E/DX2 analytically  !
 ! D31   D(11,9,15,17)         166.9426         calculate D2E/DX2 analytically  !
 ! D32   D(9,15,17,18)          -0.0011         calculate D2E/DX2 analytically  !
 ! D33   D(9,15,17,19)        -179.9993         calculate D2E/DX2 analytically  !
 ! D34   D(16,15,17,18)        179.9966         calculate D2E/DX2 analytically  !
 ! D35   D(16,15,17,19)         -0.0015         calculate D2E/DX2 analytically  !
 ! D36   D(15,17,19,20)         -0.002          calculate D2E/DX2 analytically  !
 ! D37   D(15,17,19,21)        120.0007         calculate D2E/DX2 analytically  !
 ! D38   D(15,17,19,22)       -120.0014         calculate D2E/DX2 analytically  !
 ! D39   D(18,17,19,20)        179.9998         calculate D2E/DX2 analytically  !
 ! D40   D(18,17,19,21)        -59.9975         calculate D2E/DX2 analytically  !
 ! D41   D(18,17,19,22)         60.0004         calculate D2E/DX2 analytically  !
 --------------------------------------------------------------------------------
 Trust Radius=3.00D-01 FncErr=1.00D-07 GrdErr=1.00D-06
 Number of steps in this run= 132 maximum allowed number of steps= 132.
 GradGradGradGradGradGradGradGradGradGradGradGradGradGradGradGradGradGrad

                          Input orientation:                          
 ---------------------------------------------------------------------
 Center     Atomic      Atomic             Coordinates (Angstroms)
 Number     Number       Type             X           Y           Z
 ---------------------------------------------------------------------
      1          1           0        1.970200    1.060100    0.509500
      2          6           0        1.985000    2.120300    0.256800
      3          1           0        1.377200    2.673500    0.972800
      4          1           0        1.582000    2.260900   -0.746200
      5          6           0        3.410300    2.675400    0.293300
      6          8           0        4.356600    1.945900    0.581100
      7          7           0        3.555400    3.969700    0.000000
      8          1           0        2.746600    4.529000   -0.230600
      9          6           0        4.853300    4.613900    0.000000
     10          1           0        5.407600    4.315500    0.889800
     11          6           0        5.661300    4.220800   -1.232200
     12          1           0        5.123300    4.521400   -2.131200
     13          1           0        6.630500    4.718900   -1.205800
     14          1           0        5.808500    3.140900   -1.241400
     15          6           0        4.712700    6.129400    0.000000
     16          8           0        5.400600    6.819700   -0.748800
     17          7           0        3.817000    6.646700    0.844100
     18          1           0        3.274700    6.038000    1.440300
     19          6           0        3.589500    8.074600    0.938700
     20          1           0        4.243900    8.594400    0.239100
     21          1           0        2.550100    8.294300    0.695000
     22          1           0        3.803100    8.410600    1.953400
 ---------------------------------------------------------------------
                    Distance matrix (angstroms):
                    1          2          3          4          5
     1  H    0.000000
     2  C    1.090000   0.000000
     3  H    1.780268   1.090003   0.000000
     4  H    1.780282   1.090040   1.779647   0.000000
     5  C    2.174816   1.530016   2.143646   2.143607   0.000000
     6  O    2.546502   2.400015   3.091869   3.091821   1.229017
     7  N    3.352346   2.439751   2.714964   2.714981   1.335025
     8  H    3.630952   2.572825   2.601213   2.601233   2.037352
     9  C    4.604492   3.809348   4.098141   4.098149   2.434349
    10  H    4.749524   4.115068   4.352836   4.640376   2.652348
    11  C    5.162147   4.488252   5.060600   4.551713   3.127685
    12  H    5.375494   4.617007   5.204115   4.423674   3.495752
    13  H    6.168263   5.520198   6.043767   5.633857   4.097912
    14  H    4.704033   4.231475   4.975697   4.345449   2.885023
    15  C    5.786078   4.855839   4.900525   5.032235   3.703024
    16  O    6.820847   5.895924   6.028485   5.946795   4.714074
    17  N    5.893448   4.918276   4.664280   5.172961   4.029889
    18  H    5.229493   4.290964   3.890877   4.681079   3.555429
    19  C    7.211765   6.204280   5.836721   6.377151   5.440590
    20  H    7.874548   6.856888   6.619165   6.940443   5.977657
    21  H    7.259776   6.215274   5.748588   6.278231   5.698539
    22  H    7.711953   6.764009   6.305623   7.073891   5.983539
                    6          7          8          9         10
     6  O    0.000000
     7  N    2.252857   0.000000
     8  H    3.150137   1.010025   0.000000
     9  C    2.775358   1.448978   2.120983   0.000000
    10  H    2.610537   2.083739   2.895134   1.089970   0.000000
    11  C    3.188333   2.452791   3.097364   1.525027   2.139209
    12  H    3.818062   2.702720   3.043196   2.150225   3.041326
    13  H    4.006640   3.386959   4.008959   2.150214   2.459625
    14  H    2.618691   2.702673   3.510523   2.150165   2.466256
    15  C    4.238650   2.450234   2.545586   1.522008   2.136554
    16  O    5.158730   3.476775   3.543946   2.392863   2.992670
    17  N    4.738972   2.819090   2.604878   2.432838   2.822515
    18  H    4.319029   2.535966   2.312548   2.567976   2.796305
    19  C    6.186864   4.211000   3.827404   3.801946   4.175968
    20  H    6.658244   4.681779   4.357752   4.033970   4.481807
    21  H    6.601409   4.493976   3.882374   4.396942   4.902459
    22  H    6.631886   4.857851   4.577430   4.397002   4.524987
                   11         12         13         14         15
    11  C    0.000000
    12  H    1.089957   0.000000
    13  H    1.090023   1.779613   0.000000
    14  H    1.089925   1.779613   1.779617   0.000000
    15  C    2.461892   2.701161   2.668599   3.416575   0.000000
    16  O    2.656298   2.696314   2.476866   3.733980   1.228992
    17  N    3.687473   3.882748   3.979232   4.539385   1.335059
    18  H    4.017503   4.298024   4.472501   4.690932   2.037317
    19  C    4.884356   4.939844   5.010717   5.832512   2.434448
    20  H    4.827227   4.793850   4.775259   5.863490   2.520549
    21  H    5.476045   5.370618   5.748582   6.397214   3.137938
    22  H    5.581700   5.792475   5.621689   6.480595   3.137996
                   16         17         18         19         20
    16  O    0.000000
    17  N    2.252787   0.000000
    18  H    3.150026   1.009980   0.000000
    19  C    2.775340   1.449001   2.120953   0.000000
    20  H    2.337405   2.083700   2.986203   1.089895   0.000000
    21  H    3.519141   2.083711   2.484232   1.089959   1.779568
    22  H    3.519212   2.083767   2.484292   1.090017   1.779582
                   21         22
    21  H    0.000000
    22  H    1.779636   0.000000
 Stoichiometry    C6H12N2O2
 Framework group  C1[X(C6H12N2O2)]
 Deg. of freedom    60
 Full point group                 C1      NOp   1
 Largest Abelian subgroup         C1      NOp   1
 Largest concise Abelian subgroup C1      NOp   1
                         Standard orientation:                         
 ---------------------------------------------------------------------
 Center     Atomic      Atomic             Coordinates (Angstroms)
 Number     Number       Type             X           Y           Z
 ---------------------------------------------------------------------
      1          1           0       -4.045415   -1.359344    0.214339
      2          6           0       -3.010648   -1.411947    0.552853
      3          1           0       -2.588774   -2.380451    0.284288
      4          1           0       -2.975243   -1.288400    1.635290
      5          6           0       -2.163439   -0.313505   -0.092600
      6          8           0       -2.669353    0.482429   -0.880649
      7          7           0       -0.872817   -0.276854    0.246875
      8          1           0       -0.502882   -0.953226    0.899423
      9          6           0        0.033639    0.714955   -0.295519
     10          1           0       -0.125381    0.804164   -1.370130
     11          6           0       -0.197256    2.078975    0.346235
     12          1           0       -0.032751    2.007789    1.421351
     13          1           0        0.496704    2.803602   -0.079776
     14          1           0       -1.220807    2.401792    0.156318
     15          6           0        1.483947    0.324522   -0.049195
     16          8           0        2.293310    1.155453    0.356893
     17          7           0        1.811292   -0.945962   -0.296377
     18          1           0        1.110320   -1.592395   -0.629276
     19          6           0        3.158969   -1.441297   -0.101406
     20          1           0        3.795411   -0.632646    0.257618
     21          1           0        3.147725   -2.247265    0.632283
     22          1           0        3.548839   -1.817179   -1.047371
 ---------------------------------------------------------------------
 Rotational constants (GHZ):      2.2954338      0.7527151      0.6111902
 Standard basis: 6-31G(d) (6D, 7F)
 There are   174 symmetry adapted basis functions of A   symmetry.
 Integral buffers will be    131072 words long.
 Raffenetti 2 integral format.
 Two-electron integral symmetry is turned on.
   174 basis functions,   328 primitive gaussians,   174 cartesian basis functions
    39 alpha electrons       39 beta electrons
       nuclear repulsion energy       554.9359082982 Hartrees.
 NAtoms=   22 NActive=   22 NUniq=   22 SFac= 7.50D-01 NAtFMM=   80 NAOKFM=F Big=F
 One-electron integrals computed using PRISM.
 NBasis=   174 RedAO= T  NBF=   174
 NBsUse=   174 1.00D-06 NBFU=   174
 Harris functional with IExCor=  402 diagonalized for initial guess.
 ExpMin= 1.61D-01 ExpMax= 5.48D+03 ExpMxC= 8.25D+02 IAcc=1 IRadAn=         1 AccDes= 0.00D+00
 HarFok:  IExCor=  402 AccDes= 0.00D+00 IRadAn=         1 IDoV= 1
 ScaDFX=  1.000000  1.000000  1.000000  1.000000
 FoFCou: FMM=F IPFlag=           0 FMFlag=      100000 FMFlg1=           0
         NFxFlg=           0 DoJE=T BraDBF=F KetDBF=T FulRan=T
         Omega=  0.000000  0.000000  1.000000  0.000000  0.000000 ICntrl=     500 IOpCl=  0
         NMat0=    1 NMatS0=    1 NMatT0=    0 NMatD0=    1 NMtDS0=    0 NMtDT0=    0
         I1Cent=           4 NGrid=           0.
 Petite list used in FoFCou.
 Initial guess orbital symmetries:
       Occupied  (A) (A) (A) (A) (A) (A) (A) (A) (A) (A) (A) (A)
                 (A) (A) (A) (A) (A) (A) (A) (A) (A) (A) (A) (A)
                 (A) (A) (A) (A) (A) (A) (A) (A) (A) (A) (A) (A)
                 (A) (A) (A)
       Virtual   (A) (A) (A) (A) (A) (A) (A) (A) (A) (A) (A) (A)
                 (A) (A) (A) (A) (A) (A) (A) (A) (A) (A) (A) (A)
                 (A) (A) (A) (A) (A) (A) (A) (A) (A) (A) (A) (A)
                 (A) (A) (A) (A) (A) (A) (A) (A) (A) (A) (A) (A)
                 (A) (A) (A) (A) (A) (A) (A) (A) (A) (A) (A) (A)
                 (A) (A) (A) (A) (A) (A) (A) (A) (A) (A) (A) (A)
                 (A) (A) (A) (A) (A) (A) (A) (A) (A) (A) (A) (A)
                 (A) (A) (A) (A) (A) (A) (A) (A) (A) (A) (A) (A)
                 (A) (A) (A) (A) (A) (A) (A) (A) (A) (A) (A) (A)
                 (A) (A) (A) (A) (A) (A) (A) (A) (A) (A) (A) (A)
                 (A) (A) (A) (A) (A) (A) (A) (A) (A) (A) (A) (A)
                 (A) (A) (A)
 The electronic state of the initial guess is 1-A.
 Requested convergence on RMS density matrix=1.00D-08 within 128 cycles.
 Requested convergence on MAX density matrix=1.00D-06.
 Requested convergence on             energy=1.00D-06.
 No special actions if energy rises.
 Integral accuracy reduced to 1.0D-05 until final iterations.
 Initial convergence to 1.0D-05 achieved.  Increase integral accuracy.
 SCF Done:  E(RB3LYP) =  -495.839988599     A.U. after   15 cycles
             Convg  =    0.6956D-08             -V/T =  2.0088
 Range of M.O.s used for correlation:     1   174
 NBasis=   174 NAE=    39 NBE=    39 NFC=     0 NFV=     0
 NROrb=    174 NOA=    39 NOB=    39 NVA=   135 NVB=   135
 Symmetrizing basis deriv contribution to polar:
 IMax=3 JMax=2 DiffMx= 0.00D+00
 G2DrvN: will do    23 centers at a time, making    1 passes doing MaxLOS=2.
 Calling FoFCou, ICntrl=  3107 FMM=F I1Cent=   0 AccDes= 0.00D+00.
 FoFDir/FoFCou used for L=0 through L=2.
 End of G2Drv Frequency-dependent properties file   721 does not exist.
 End of G2Drv Frequency-dependent properties file   722 does not exist.
          IDoAtm=1111111111111111111111
          Differentiating once with respect to nuclear coordinates.
          There are    69 degrees of freedom in the 1st order CPHF.  IDoFFX=5.
     63 vectors produced by pass  0 Test12= 7.63D-11 1.45D-07 XBig12= 1.71D-01 1.04D-01.
 AX will form    63 AO Fock derivatives at one time.
     63 vectors produced by pass  1 Test12= 7.63D-11 1.45D-07 XBig12= 4.03D-02 5.93D-02.
     63 vectors produced by pass  2 Test12= 7.63D-11 1.45D-07 XBig12= 5.31D-05 1.27D-03.
     63 vectors produced by pass  3 Test12= 7.63D-11 1.45D-07 XBig12= 1.09D-07 5.22D-05.
     27 vectors produced by pass  4 Test12= 7.63D-11 1.45D-07 XBig12= 1.05D-10 1.95D-06.
 Inverted reduced A of dimension   279 with in-core refinement.
 End of Minotr Frequency-dependent properties file   721 does not exist.
 End of Minotr Frequency-dependent properties file   722 does not exist.

 **********************************************************************

            Population analysis using the SCF density.

 **********************************************************************

 Orbital symmetries:
       Occupied  (A) (A) (A) (A) (A) (A) (A) (A) (A) (A) (A) (A)
                 (A) (A) (A) (A) (A) (A) (A) (A) (A) (A) (A) (A)
                 (A) (A) (A) (A) (A) (A) (A) (A) (A) (A) (A) (A)
                 (A) (A) (A)
       Virtual   (A) (A) (A) (A) (A) (A) (A) (A) (A) (A) (A) (A)
                 (A) (A) (A) (A) (A) (A) (A) (A) (A) (A) (A) (A)
                 (A) (A) (A) (A) (A) (A) (A) (A) (A) (A) (A) (A)
                 (A) (A) (A) (A) (A) (A) (A) (A) (A) (A) (A) (A)
                 (A) (A) (A) (A) (A) (A) (A) (A) (A) (A) (A) (A)
                 (A) (A) (A) (A) (A) (A) (A) (A) (A) (A) (A) (A)
                 (A) (A) (A) (A) (A) (A) (A) (A) (A) (A) (A) (A)
                 (A) (A) (A) (A) (A) (A) (A) (A) (A) (A) (A) (A)
                 (A) (A) (A) (A) (A) (A) (A) (A) (A) (A) (A) (A)
                 (A) (A) (A) (A) (A) (A) (A) (A) (A) (A) (A) (A)
                 (A) (A) (A) (A) (A) (A) (A) (A) (A) (A) (A) (A)
                 (A) (A) (A)
 The electronic state is 1-A.
 Alpha  occ. eigenvalues --  -19.11159 -19.10710 -14.37459 -14.36990 -10.28727
 Alpha  occ. eigenvalues --  -10.28651 -10.23235 -10.22548 -10.19393 -10.16227
 Alpha  occ. eigenvalues --   -1.04019  -1.03020  -0.94205  -0.92754  -0.78363
 Alpha  occ. eigenvalues --   -0.73074  -0.72032  -0.64190  -0.60266  -0.59224
 Alpha  occ. eigenvalues --   -0.54644  -0.48914  -0.48195  -0.46419  -0.46108
 Alpha  occ. eigenvalues --   -0.45142  -0.42205  -0.41498  -0.40399  -0.39588
 Alpha  occ. eigenvalues --   -0.39094  -0.38074  -0.36548  -0.35997  -0.34316
 Alpha  occ. eigenvalues --   -0.26343  -0.25910  -0.25209  -0.24396
 Alpha virt. eigenvalues --    0.02198   0.02903   0.05714   0.09106   0.11696
 Alpha virt. eigenvalues --    0.12369   0.13425   0.15142   0.15853   0.16246
 Alpha virt. eigenvalues --    0.16345   0.16714   0.17608   0.18932   0.20168
 Alpha virt. eigenvalues --    0.21226   0.23984   0.25737   0.28304   0.31905
 Alpha virt. eigenvalues --    0.35455   0.38455   0.41290   0.50239   0.50698
 Alpha virt. eigenvalues --    0.51505   0.52859   0.53692   0.54898   0.56575
 Alpha virt. eigenvalues --    0.56975   0.59984   0.62321   0.64288   0.65043
 Alpha virt. eigenvalues --    0.67721   0.69159   0.70220   0.71382   0.73160
 Alpha virt. eigenvalues --    0.75582   0.75826   0.78392   0.81444   0.82416
 Alpha virt. eigenvalues --    0.84696   0.86159   0.86724   0.87689   0.87868
 Alpha virt. eigenvalues --    0.89218   0.90157   0.91120   0.91774   0.93380
 Alpha virt. eigenvalues --    0.94330   0.95085   0.95824   0.97658   0.98417
 Alpha virt. eigenvalues --    1.04320   1.06258   1.08497   1.13970   1.17394
 Alpha virt. eigenvalues --    1.18745   1.27339   1.29293   1.32727   1.33297
 Alpha virt. eigenvalues --    1.36167   1.37615   1.42207   1.44871   1.45624
 Alpha virt. eigenvalues --    1.48491   1.53749   1.61835   1.65436   1.69856
 Alpha virt. eigenvalues --    1.76571   1.78200   1.80057   1.82589   1.83137
 Alpha virt. eigenvalues --    1.83662   1.85246   1.86868   1.88545   1.90944
 Alpha virt. eigenvalues --    1.92696   1.94743   1.97389   2.00156   2.03706
 Alpha virt. eigenvalues --    2.04488   2.06909   2.09364   2.11423   2.17784
 Alpha virt. eigenvalues --    2.18338   2.23630   2.24985   2.28027   2.28738
 Alpha virt. eigenvalues --    2.30613   2.31352   2.38230   2.38599   2.41523
 Alpha virt. eigenvalues --    2.44601   2.46331   2.55530   2.56432   2.65734
 Alpha virt. eigenvalues --    2.66188   2.68473   2.72726   2.74973   2.87665
 Alpha virt. eigenvalues --    2.93234   2.96390   3.03925   3.15232   3.20499
 Alpha virt. eigenvalues --    3.96327   3.97738   4.04310   4.10332   4.20396
 Alpha virt. eigenvalues --    4.23000   4.26478   4.43231   4.47169   4.63244
          Condensed to atoms (all electrons):
              1          2          3          4          5          6
     1  H    0.495924   0.361740  -0.021392  -0.020733  -0.017639   0.005013
     2  C    0.361740   5.331013   0.348657   0.352471   0.356482  -0.079752
     3  H   -0.021392   0.348657   0.562669  -0.027599  -0.026370   0.001505
     4  H   -0.020733   0.352471  -0.027599   0.549710  -0.027409   0.001279
     5  C   -0.017639   0.356482  -0.026370  -0.027409   4.346173   0.601769
     6  O    0.005013  -0.079752   0.001505   0.001279   0.601769   8.061892
     7  N    0.004556  -0.137898   0.004838   0.004747   0.209023  -0.109210
     8  H   -0.000148  -0.000736   0.001043   0.000946  -0.015583   0.003527
     9  C   -0.000137   0.007216  -0.000259  -0.000107  -0.016415   0.012629
    10  H   -0.000002   0.000481  -0.000039  -0.000007  -0.003085   0.008888
    11  C    0.000010  -0.000556   0.000007   0.000069  -0.006325  -0.007596
    12  H    0.000000   0.000007   0.000000  -0.000002   0.000298  -0.000016
    13  H    0.000000   0.000004   0.000000  -0.000001   0.000097   0.000031
    14  H    0.000000   0.000273  -0.000002  -0.000048   0.004515   0.010179
    15  C    0.000000  -0.000009  -0.000001  -0.000022   0.005371   0.000837
    16  O    0.000000   0.000001   0.000000   0.000000  -0.000095  -0.000001
    17  N    0.000000  -0.000044  -0.000007   0.000003   0.000352  -0.000002
    18  H    0.000000  -0.000007   0.000069  -0.000006   0.000024  -0.000040
    19  C    0.000000   0.000000   0.000000   0.000000   0.000017   0.000000
    20  H    0.000000   0.000000   0.000000   0.000000   0.000001   0.000000
    21  H    0.000000   0.000000   0.000000   0.000000  -0.000002   0.000000
    22  H    0.000000   0.000000   0.000000   0.000000   0.000001   0.000000
              7          8          9         10         11         12
     1  H    0.004556  -0.000148  -0.000137  -0.000002   0.000010   0.000000
     2  C   -0.137898  -0.000736   0.007216   0.000481  -0.000556   0.000007
     3  H    0.004838   0.001043  -0.000259  -0.000039   0.000007   0.000000
     4  H    0.004747   0.000946  -0.000107  -0.000007   0.000069  -0.000002
     5  C    0.209023  -0.015583  -0.016415  -0.003085  -0.006325   0.000298
     6  O   -0.109210   0.003527   0.012629   0.008888  -0.007596  -0.000016
     7  N    7.251980   0.295628   0.205722  -0.048401  -0.062378  -0.001149
     8  H    0.295628   0.419584  -0.043974   0.004790   0.002684   0.001112
     9  C    0.205722  -0.043974   5.140708   0.374172   0.371774  -0.035198
    10  H   -0.048401   0.004790   0.374172   0.550592  -0.042075   0.005456
    11  C   -0.062378   0.002684   0.371774  -0.042075   5.102894   0.376482
    12  H   -0.001149   0.001112  -0.035198   0.005456   0.376482   0.566994
    13  H    0.004987  -0.000106  -0.027274  -0.000102   0.366498  -0.022796
    14  H   -0.007995  -0.000131  -0.027021  -0.004031   0.359098  -0.030313
    15  C   -0.024193  -0.001636   0.294177  -0.031322  -0.040691  -0.006049
    16  O    0.001048  -0.000128  -0.091447   0.000499   0.000806   0.001981
    17  N   -0.003582   0.010945  -0.137192  -0.001275   0.005828   0.000058
    18  H    0.011481   0.000247  -0.000848  -0.000749   0.000430  -0.000018
    19  C    0.000094  -0.000455   0.006365  -0.000237  -0.000158  -0.000007
    20  H   -0.000033  -0.000022   0.001299  -0.000024  -0.000027  -0.000005
    21  H    0.000019  -0.000119  -0.000044  -0.000007   0.000008   0.000000
    22  H   -0.000007   0.000034  -0.000206   0.000028  -0.000002   0.000000
             13         14         15         16         17         18
     1  H    0.000000   0.000000   0.000000   0.000000   0.000000   0.000000
     2  C    0.000004   0.000273  -0.000009   0.000001  -0.000044  -0.000007
     3  H    0.000000  -0.000002  -0.000001   0.000000  -0.000007   0.000069
     4  H   -0.000001  -0.000048  -0.000022   0.000000   0.000003  -0.000006
     5  C    0.000097   0.004515   0.005371  -0.000095   0.000352   0.000024
     6  O    0.000031   0.010179   0.000837  -0.000001  -0.000002  -0.000040
     7  N    0.004987  -0.007995  -0.024193   0.001048  -0.003582   0.011481
     8  H   -0.000106  -0.000131  -0.001636  -0.000128   0.010945   0.000247
     9  C   -0.027274  -0.027021   0.294177  -0.091447  -0.137192  -0.000848
    10  H   -0.000102  -0.004031  -0.031322   0.000499  -0.001275  -0.000749
    11  C    0.366498   0.359098  -0.040691   0.000806   0.005828   0.000430
    12  H   -0.022796  -0.030313  -0.006049   0.001981   0.000058  -0.000018
    13  H    0.534370  -0.025899  -0.003257   0.006430   0.000210  -0.000042
    14  H   -0.025899   0.546394   0.005741   0.000964  -0.000050  -0.000015
    15  C   -0.003257   0.005741   4.401518   0.590661   0.278296  -0.025207
    16  O    0.006430   0.000964   0.590661   8.087927  -0.098487   0.003714
    17  N    0.000210  -0.000050   0.278296  -0.098487   7.095698   0.300693
    18  H   -0.000042  -0.000015  -0.025207   0.003714   0.300693   0.413751
    19  C   -0.000001   0.000002  -0.024805  -0.009165   0.260194  -0.031191
    20  H   -0.000003   0.000000  -0.000358   0.021914  -0.037549   0.003746
    21  H    0.000000   0.000000   0.001013   0.000613  -0.044045  -0.000017
    22  H    0.000000   0.000000   0.001625   0.000552  -0.043112  -0.001486
             19         20         21         22
     1  H    0.000000   0.000000   0.000000   0.000000
     2  C    0.000000   0.000000   0.000000   0.000000
     3  H    0.000000   0.000000   0.000000   0.000000
     4  H    0.000000   0.000000   0.000000   0.000000
     5  C    0.000017   0.000001  -0.000002   0.000001
     6  O    0.000000   0.000000   0.000000   0.000000
     7  N    0.000094  -0.000033   0.000019  -0.000007
     8  H   -0.000455  -0.000022  -0.000119   0.000034
     9  C    0.006365   0.001299  -0.000044  -0.000206
    10  H   -0.000237  -0.000024  -0.000007   0.000028
    11  C   -0.000158  -0.000027   0.000008  -0.000002
    12  H   -0.000007  -0.000005   0.000000   0.000000
    13  H   -0.000001  -0.000003   0.000000   0.000000
    14  H    0.000002   0.000000   0.000000   0.000000
    15  C   -0.024805  -0.000358   0.001013   0.001625
    16  O   -0.009165   0.021914   0.000613   0.000552
    17  N    0.260194  -0.037549  -0.044045  -0.043112
    18  H   -0.031191   0.003746  -0.000017  -0.001486
    19  C    4.971524   0.376590   0.382136   0.383651
    20  H    0.376590   0.468801  -0.024209  -0.023491
    21  H    0.382136  -0.024209   0.566195  -0.038237
    22  H    0.383651  -0.023491  -0.038237   0.557454
 Mulliken atomic charges:
              1
     1  H    0.192807
     2  C   -0.539342
     3  H    0.156880
     4  H    0.166709
     5  C    0.588799
     6  O   -0.510932
     7  N   -0.599278
     8  H    0.322499
     9  C   -0.033942
    10  H    0.186450
    11  C   -0.426779
    12  H    0.143166
    13  H    0.166853
    14  H    0.168340
    15  C    0.578310
    16  O   -0.517787
    17  N   -0.586931
    18  H    0.325470
    19  C   -0.314553
    20  H    0.213370
    21  H    0.156696
    22  H    0.163196
 Sum of Mulliken atomic charges =   0.00000
 Mulliken charges with hydrogens summed into heavy atoms:
              1
     2  C   -0.022946
     5  C    0.588799
     6  O   -0.510932
     7  N   -0.276779
     9  C    0.152508
    11  C    0.051581
    15  C    0.578310
    16  O   -0.517787
    17  N   -0.261462
    19  C    0.218709
 Sum of Mulliken charges with hydrogens summed into heavy atoms =   0.00000
 APT atomic charges:
              1
     1  H    0.746686
     2  C   -1.214654
     3  H    0.311790
     4  H    0.363132
     5  C   -0.149201
     6  O   -0.025330
     7  N   -0.587558
     8  H    0.459034
     9  C   -0.405550
    10  H    0.413185
    11  C   -1.200674
    12  H    0.341107
    13  H    0.489779
    14  H    0.443095
    15  C   -0.277289
    16  O    0.048673
    17  N   -0.313378
    18  H    0.401749
    19  C   -1.417969
    20  H    0.535434
    21  H    0.465857
    22  H    0.572083
 Sum of APT charges=   0.00000
 APT Atomic charges with hydrogens summed into heavy atoms:
              1
     1  H    0.000000
     2  C    0.206954
     3  H    0.000000
     4  H    0.000000
     5  C   -0.149201
     6  O   -0.025330
     7  N   -0.128524
     8  H    0.000000
     9  C    0.007635
    10  H    0.000000
    11  C    0.073307
    12  H    0.000000
    13  H    0.000000
    14  H    0.000000
    15  C   -0.277289
    16  O    0.048673
    17  N    0.088371
    18  H    0.000000
    19  C    0.155405
    20  H    0.000000
    21  H    0.000000
    22  H    0.000000
 Sum of APT charges=   0.00000
 Electronic spatial extent (au):  <R**2>=           1887.0889
 Charge=              0.0000 electrons
 Dipole moment (field-independent basis, Debye):
    X=              0.9476    Y=             -5.0092    Z=              0.9772  Tot=              5.1909
 Quadrupole moment (field-independent basis, Debye-Ang):
   XX=            -67.6430   YY=            -57.5702   ZZ=            -60.0345
   XY=             -2.7152   XZ=             -7.5559   YZ=             -0.4790
 Traceless Quadrupole moment (field-independent basis, Debye-Ang):
   XX=             -5.8938   YY=              4.1791   ZZ=              1.7147
   XY=             -2.7152   XZ=             -7.5559   YZ=             -0.4790
 Octapole moment (field-independent basis, Debye-Ang**2):
  XXX=             17.0099  YYY=             -7.6627  ZZZ=              0.4773  XYY=             -1.1088
  XXY=            -33.5367  XXZ=              9.9173  XZZ=              4.6165  YZZ=             -2.0313
  YYZ=             -3.4896  XYZ=             -3.9255
 Hexadecapole moment (field-independent basis, Debye-Ang**3):
 XXXX=          -1670.3937 YYYY=           -576.7215 ZZZZ=           -141.8337 XXXY=            -12.3794
 XXXZ=            -41.0474 YYYX=            -14.3785 YYYZ=             -0.9868 ZZZX=              0.7345
 ZZZY=             -0.0926 XXYY=           -380.2120 XXZZ=           -316.8018 YYZZ=           -120.7225
 XXYZ=              4.9794 YYXZ=             -2.5310 ZZXY=              0.4369
 N-N= 5.549359082982D+02 E-N=-2.265970740273D+03  KE= 4.915378438147D+02
  Exact polarizability:   0.000   0.000   0.000   0.000   0.000   0.000
 Approx polarizability: 119.740   0.510 121.305  12.500  -2.804  94.942
 Calling FoFJK, ICntrl=    100147 FMM=F ISym2X=0 I1Cent= 0 IOpClX= 0 NMat=1 NMatS=1 NMatT=0.
 ***** Axes restored to original set *****
 -------------------------------------------------------------------
 Center     Atomic                   Forces (Hartrees/Bohr)
 Number     Number              X              Y              Z
 -------------------------------------------------------------------
      1        1           0.003637803    0.000911092    0.000226704
      2        6           0.005716987    0.008768469   -0.001672240
      3        1          -0.006679866    0.000701181    0.000957728
      4        1          -0.006001879   -0.000133469   -0.002523306
      5        6          -0.002747893   -0.044432414    0.009994892
      6        8           0.002478084    0.004636621    0.000497882
      7        7          -0.006877090    0.025936218    0.003480688
      8        1          -0.001074794   -0.001107996   -0.002938257
      9        6           0.009796540    0.000317920   -0.014613816
     10        1          -0.000697153   -0.003431422    0.005616026
     11        6           0.004014280   -0.006299650    0.001099835
     12        1           0.001279818    0.001213058   -0.003148673
     13        1           0.000734972    0.000386069   -0.002701379
     14        1           0.000082229   -0.001888931    0.000147640
     15        6           0.017335865   -0.000663460   -0.017210792
     16        8          -0.000902538    0.002266898    0.003390354
     17        7          -0.015997124    0.008800321    0.012552734
     18        1           0.001831924   -0.001427462    0.001070977
     19        6          -0.002891517    0.000417289    0.003270416
     20        1           0.000765285   -0.003127789   -0.000426335
     21        1          -0.003666106    0.004075599   -0.000116825
     22        1          -0.000137828    0.004081856    0.003045749
 -------------------------------------------------------------------
 Cartesian Forces:  Max     0.044432414 RMS     0.008439231

 GradGradGradGradGradGradGradGradGradGradGradGradGradGradGradGradGradGrad
 Berny optimization.
 Internal  Forces:  Max     0.030702737 RMS     0.005997732
 Search for a local minimum.
 Step number   1 out of a maximum of  132
 All quantities printed in internal units (Hartrees-Bohrs-Radians)
 Mixed Optimization -- RFO/linear search
 Second derivative matrix not updated -- analytic derivatives used.
     Eigenvalues ---   -0.00083  -0.00011   0.00200   0.00321   0.00520
     Eigenvalues ---    0.01863   0.02032   0.02184   0.03551   0.03979
     Eigenvalues ---    0.04643   0.04816   0.05349   0.05642   0.05827
     Eigenvalues ---    0.05977   0.06406   0.06608   0.11803   0.12422
     Eigenvalues ---    0.12503   0.13252   0.13298   0.13423   0.13623
     Eigenvalues ---    0.14281   0.15605   0.17904   0.18075   0.18538
     Eigenvalues ---    0.18736   0.20497   0.21318   0.22322   0.24062
     Eigenvalues ---    0.24885   0.27725   0.30864   0.32824   0.34427
     Eigenvalues ---    0.34594   0.34768   0.35047   0.35126   0.35190
     Eigenvalues ---    0.35479   0.35898   0.35915   0.35954   0.37973
     Eigenvalues ---    0.39199   0.40425   0.46715   0.46905   0.53291
     Eigenvalues ---    0.54704   0.82548   0.827781000.000001000.00000
     Eigenvalues --- 1000.000001000.000001000.000001000.000001000.00000
     Eigenvalues --- 1000.000001000.000001000.000001000.000001000.00000
     Eigenvalues --- 1000.000001000.000001000.000001000.000001000.00000
     Eigenvalues --- 1000.000001000.000001000.000001000.000001000.00000
     Eigenvalues --- 1000.000001000.000001000.000001000.000001000.00000
     Eigenvalues --- 1000.000001000.000001000.000001000.000001000.00000
     Eigenvalues --- 1000.000001000.000001000.000001000.000001000.00000
     Eigenvalues --- 1000.000001000.000001000.00000
 RFO step:  Lambda=-1.08882064D-02 EMin=-8.27538373D-04
 Linear search not attempted -- first point.
 Maximum step size (   0.300) exceeded in Quadratic search.
    -- Step size scaled by   0.312
 Iteration  1 RMS(Cart)=  0.05215196 RMS(Int)=  0.00234124
 Iteration  2 RMS(Cart)=  0.00245610 RMS(Int)=  0.00006025
 Iteration  3 RMS(Cart)=  0.00000446 RMS(Int)=  0.00006016
 Iteration  4 RMS(Cart)=  0.00000000 RMS(Int)=  0.00006016
 Iteration  1 RMS(Cart)=  0.00001898 RMS(Int)=  0.00000556
 Iteration  2 RMS(Cart)=  0.00001010 RMS(Int)=  0.00000620
 Iteration  3 RMS(Cart)=  0.00000543 RMS(Int)=  0.00000700
 Iteration  4 RMS(Cart)=  0.00000296 RMS(Int)=  0.00000753
 Iteration  5 RMS(Cart)=  0.00000165 RMS(Int)=  0.00000785
 Iteration  6 RMS(Cart)=  0.00000095 RMS(Int)=  0.00000805
 Variable       Old X    -DE/DX   Delta X   Delta X   Delta X     New X
                                 (Linear)    (Quad)   (Total)
    R1        2.05980  -0.00088   0.00000   0.00016   0.00016   2.05996
    R2        2.05981   0.00471   0.00000   0.00353   0.00353   2.06334
    R3        2.05988   0.00452   0.00000   0.00367   0.00367   2.06355
    R4        2.89131  -0.00054   0.00000  -0.00350  -0.00350   2.88781
    R5        2.32251  -0.00073   0.00000  -0.00288  -0.00288   2.31962
    R6        2.52283   0.03068   0.00000   0.01895   0.01895   2.54178
    R7        1.90867   0.00092   0.00000   0.00046   0.00046   1.90913
    R8        2.73817   0.01245   0.00000   0.00947   0.00947   2.74764
    R9        2.05975   0.00517   0.00000   0.00438   0.00438   2.06412
   R10        2.88188   0.00865   0.00000   0.00303   0.00303   2.88492
   R11        2.87618   0.01470   0.00000   0.01062   0.01062   2.88680
   R12        2.05972   0.00230   0.00000   0.00246   0.00246   2.06218
   R13        2.05984   0.00076   0.00000   0.00158   0.00158   2.06143
   R14        2.05966   0.00188   0.00000   0.00144   0.00144   2.06110
   R15        2.32246  -0.00130   0.00000  -0.00330  -0.00330   2.31916
   R16        2.52290   0.03070   0.00000   0.01735   0.01735   2.54025
   R17        1.90859   0.00051   0.00000   0.00033   0.00033   1.90892
   R18        2.73822   0.00668   0.00000   0.00198   0.00198   2.74020
   R19        2.05960  -0.00076   0.00000   0.00048   0.00048   2.06008
   R20        2.05972   0.00434   0.00000   0.00307   0.00307   2.06279
   R21        2.05983   0.00406   0.00000   0.00409   0.00409   2.06393
    A1        1.91111  -0.00031   0.00000   0.00081   0.00086   1.91197
    A2        1.91109  -0.00023   0.00000  -0.00394  -0.00395   1.90713
    A3        1.93907  -0.00779   0.00000  -0.01295  -0.01293   1.92614
    A4        1.91008  -0.00524   0.00000  -0.00858  -0.00866   1.90142
    A5        1.89615   0.00699   0.00000   0.01988   0.01986   1.91602
    A6        1.89606   0.00663   0.00000   0.00490   0.00485   1.90092
    A7        2.10308   0.00951   0.00000   0.01261   0.01260   2.11569
    A8        2.03504  -0.00724   0.00000  -0.00886  -0.00886   2.02618
    A9        2.14506  -0.00227   0.00000  -0.00375  -0.00376   2.14130
   A10        2.09437  -0.00255   0.00000  -0.00255  -0.00281   2.09156
   A11        2.12749   0.00289   0.00000   0.00237   0.00211   2.12960
   A12        2.06132  -0.00034   0.00000   0.00017  -0.00010   2.06122
   A13        1.91114  -0.00109   0.00000  -0.01164  -0.01169   1.89944
   A14        1.93905   0.00162   0.00000   0.00814   0.00818   1.94722
   A15        1.93900  -0.00714   0.00000  -0.00875  -0.00889   1.93011
   A16        1.89609  -0.00222   0.00000   0.00089   0.00091   1.89701
   A17        1.89608  -0.00174   0.00000  -0.00228  -0.00241   1.89367
   A18        1.88137   0.01071   0.00000   0.01398   0.01402   1.89539
   A19        1.91115   0.00276   0.00000   0.00569   0.00569   1.91683
   A20        1.91106   0.00288   0.00000   0.00299   0.00299   1.91405
   A21        1.91110  -0.00112   0.00000  -0.00066  -0.00066   1.91044
   A22        1.91011  -0.00324   0.00000  -0.00803  -0.00803   1.90208
   A23        1.91023  -0.00061   0.00000   0.00024   0.00023   1.91046
   A24        1.91015  -0.00068   0.00000  -0.00024  -0.00024   1.90991
   A25        2.10316   0.00798   0.00000   0.00840   0.00840   2.11156
   A26        2.03509  -0.00788   0.00000  -0.01100  -0.01101   2.02409
   A27        2.14493  -0.00010   0.00000   0.00260   0.00260   2.14753
   A28        2.09433  -0.00442   0.00000  -0.01005  -0.01014   2.08419
   A29        2.12756   0.00584   0.00000   0.00472   0.00463   2.13220
   A30        2.06130  -0.00142   0.00000   0.00533   0.00523   2.06653
   A31        1.91113  -0.00654   0.00000  -0.01123  -0.01121   1.89992
   A32        1.91108   0.00519   0.00000   0.00583   0.00581   1.91689
   A33        1.91110   0.00467   0.00000   0.01148   0.01146   1.92256
   A34        1.91020  -0.00006   0.00000   0.00107   0.00108   1.91128
   A35        1.91014  -0.00001   0.00000  -0.00371  -0.00368   1.90646
   A36        1.91015  -0.00326   0.00000  -0.00344  -0.00350   1.90665
    D1       -0.00002  -0.00021   0.00000   0.09154   0.09157   0.09155
    D2       -3.14154   0.00016   0.00000   0.08561   0.08562  -3.05591
    D3        2.10336  -0.00090   0.00000   0.09738   0.09734   2.20070
    D4       -1.03816  -0.00053   0.00000   0.09145   0.09139  -0.94677
    D5       -2.10331   0.00060   0.00000   0.10126   0.10130  -2.00200
    D6        1.03836   0.00097   0.00000   0.09534   0.09535   1.13371
    D7       -0.00010   0.00024   0.00000  -0.00680  -0.00678  -0.00689
    D8        3.14155   0.00099   0.00000   0.03717   0.03712  -3.10451
    D9        3.14157   0.00062   0.00000  -0.01288  -0.01283   3.12874
   D10        0.00004   0.00137   0.00000   0.03109   0.03107   0.03111
   D11       -0.78545  -0.00042   0.00000  -0.01593  -0.01587  -0.80132
   D12        1.30899  -0.00287   0.00000  -0.01725  -0.01723   1.29176
   D13       -2.87985   0.00697   0.00000   0.00000   0.00000  -2.87985
   D14        2.35620   0.00032   0.00000   0.02724   0.02730   2.38351
   D15       -1.83254  -0.00214   0.00000   0.02592   0.02594  -1.80660
   D16        0.26181   0.00770   0.00000   0.04318   0.04317   0.30498
   D17        1.04724   0.00064   0.00000   0.00620   0.00624   1.05348
   D18        3.14157   0.00013   0.00000   0.00169   0.00173  -3.13989
   D19       -1.04726   0.00038   0.00000   0.00282   0.00286  -1.04440
   D20       -3.13259  -0.00114   0.00000  -0.00260  -0.00260  -3.13519
   D21       -1.03826  -0.00165   0.00000  -0.00711  -0.00711  -1.04537
   D22        1.05609  -0.00140   0.00000  -0.00597  -0.00598   1.05011
   D23       -1.08102   0.00146   0.00000   0.00284   0.00281  -1.07822
   D24        1.01331   0.00096   0.00000  -0.00167  -0.00171   1.01160
   D25        3.10766   0.00120   0.00000  -0.00054  -0.00058   3.10708
   D26       -2.35615  -0.00431   0.00000  -0.00477  -0.00477  -2.36092
   D27        0.78541  -0.00317   0.00000   0.00000   0.00000   0.78541
   D28        1.82372   0.00258   0.00000   0.01653   0.01653   1.84025
   D29       -1.31791   0.00372   0.00000   0.02130   0.02130  -1.29661
   D30       -0.22786   0.00029   0.00000   0.00904   0.00902  -0.21884
   D31        2.91370   0.00143   0.00000   0.01381   0.01379   2.92748
   D32       -0.00002   0.00043   0.00000   0.01463   0.01457   0.01455
   D33       -3.14158  -0.00047   0.00000  -0.01103  -0.01096   3.13065
   D34        3.14153   0.00161   0.00000   0.01953   0.01945  -3.12220
   D35       -0.00003   0.00071   0.00000  -0.00614  -0.00608  -0.00611
   D36       -0.00003   0.00039   0.00000   0.07583   0.07587   0.07583
   D37        2.09441  -0.00051   0.00000   0.07383   0.07385   2.16826
   D38       -2.09442   0.00155   0.00000   0.08023   0.08031  -2.01411
   D39        3.14159  -0.00049   0.00000   0.05064   0.05058  -3.09101
   D40       -1.04715  -0.00139   0.00000   0.04864   0.04857  -0.99859
   D41        1.04720   0.00067   0.00000   0.05503   0.05502   1.10223
         Item               Value     Threshold  Converged?
 Maximum Force            0.030703     0.000450     NO 
 RMS     Force            0.005948     0.000300     NO 
 Maximum Displacement     0.215992     0.001800     NO 
 RMS     Displacement     0.052252     0.001200     NO 
 Predicted change in Energy=-3.008511D-03
 GradGradGradGradGradGradGradGradGradGradGradGradGradGradGradGradGradGrad

                          Input orientation:                          
 ---------------------------------------------------------------------
 Center     Atomic      Atomic             Coordinates (Angstroms)
 Number     Number       Type             X           Y           Z
 ---------------------------------------------------------------------
      1          1           0        1.953861    1.097067    0.588385
      2          6           0        1.981031    2.130828    0.243589
      3          1           0        1.322064    2.740634    0.864948
      4          1           0        1.633890    2.174970   -0.790803
      5          6           0        3.406809    2.676579    0.311332
      6          8           0        4.350425    1.954632    0.619742
      7          7           0        3.556936    3.978417    0.008281
      8          1           0        2.751378    4.530362   -0.250715
      9          6           0        4.861781    4.619533   -0.012585
     10          1           0        5.412263    4.327899    0.884637
     11          6           0        5.670915    4.205530   -1.239169
     12          1           0        5.139903    4.494509   -2.147664
     13          1           0        6.642229    4.701774   -1.222867
     14          1           0        5.815601    3.124514   -1.231101
     15          6           0        4.713254    6.139916   -0.017355
     16          8           0        5.385489    6.838006   -0.770288
     17          7           0        3.817408    6.646596    0.847352
     18          1           0        3.305444    6.022033    1.454168
     19          6           0        3.578243    8.071986    0.964426
     20          1           0        4.167694    8.591414    0.208669
     21          1           0        2.518672    8.283639    0.809298
     22          1           0        3.874110    8.423063    1.955420
 ---------------------------------------------------------------------
                    Distance matrix (angstroms):
                    1          2          3          4          5
     1  H    0.000000
     2  C    1.090085   0.000000
     3  H    1.782405   1.091873   0.000000
     4  H    1.779443   1.091982   1.777280   0.000000
     5  C    2.163949   1.528161   2.157952   2.146988   0.000000
     6  O    2.545569   2.405529   3.138296   3.068836   1.227492
     7  N    3.347918   2.439761   2.694558   2.754826   1.345051
     8  H    3.623209   2.568178   2.547699   2.662395   2.044994
     9  C    4.607052   3.815495   4.102429   4.123201   2.448864
    10  H    4.742003   4.124490   4.387429   4.660291   2.660335
    11  C    5.178706   4.485333   5.048340   4.541121   3.141325
    12  H    5.401800   4.613410   5.169894   4.417404   3.514989
    13  H    6.185091   5.521506   6.042285   5.626267   4.113773
    14  H    4.725897   4.226825   4.973194   4.310708   2.895172
    15  C    5.780268   4.858593   4.881982   5.079518   3.716119
    16  O    6.824987   5.897102   5.997823   5.984882   4.733133
    17  N    5.859791   4.912125   4.635040   5.238964   4.027027
    18  H    5.179927   4.284979   3.879247   4.757508   3.536723
    19  C    7.171438   6.194195   5.789953   6.452607   5.437494
    20  H    7.823713   6.820695   6.539108   6.970642   5.964458
    21  H    7.212117   6.202110   5.670967   6.376441   5.698761
    22  H    7.695867   6.790164   6.323928   7.183244   5.995288
                    6          7          8          9         10
     6  O    0.000000
     7  N    2.258145   0.000000
     8  H    3.154209   1.010270   0.000000
     9  C    2.786220   1.453989   2.125666   0.000000
    10  H    2.613440   2.081436   2.900056   1.092286   0.000000
    11  C    3.204027   2.465080   3.099396   1.526632   2.142995
    12  H    3.838332   2.724011   3.050369   2.156744   3.049064
    13  H    4.024222   3.399706   4.014123   2.154424   2.468638
    14  H    2.634574   2.714182   3.510987   2.151659   2.467218
    15  C    4.249017   2.451490   2.548348   1.527628   2.141403
    16  O    5.181784   3.482387   3.540299   2.402084   3.006681
    17  N    4.727626   2.809104   2.611631   2.437046   2.814482
    18  H    4.281589   2.515989   2.332101   2.557450   2.762814
    19  C    6.175524   4.203804   3.834498   3.810703   4.169914
    20  H    6.652011   4.657566   4.325405   4.038137   4.492599
    21  H    6.591478   4.500506   3.907028   4.426209   4.901676
    22  H    6.622048   4.862800   4.613099   4.394926   4.503649
                   11         12         13         14         15
    11  C    0.000000
    12  H    1.091259   0.000000
    13  H    1.090859   1.776286   0.000000
    14  H    1.090686   1.781444   1.780767   0.000000
    15  C    2.480280   2.725363   2.691181   3.432345   0.000000
    16  O    2.689098   2.729369   2.519467   3.766613   1.227247
    17  N    3.707811   3.917983   4.005965   4.551682   1.344241
    18  H    4.018606   4.321083   4.477023   4.680510   2.039904
    19  C    4.917783   4.992217   5.052781   5.856927   2.446435
    20  H    4.857148   4.825155   4.827206   5.888593   2.521620
    21  H    5.546515   5.474667   5.827793   6.453645   3.177278
    22  H    5.587619   5.819885   5.622453   6.480581   3.131895
                   16         17         18         19         20
    16  O    0.000000
    17  N    2.261034   0.000000
    18  H    3.152872   1.010154   0.000000
    19  C    2.792504   1.450049   2.125224   0.000000
    20  H    2.348578   2.076760   2.982694   1.090150   0.000000
    21  H    3.578209   2.089993   2.479865   1.091582   1.781784
    22  H    3.496592   2.094484   2.517852   1.092183   1.779234
                   21         22
    21  H    0.000000
    22  H    1.780519   0.000000
 Stoichiometry    C6H12N2O2
 Framework group  C1[X(C6H12N2O2)]
 Deg. of freedom    60
 Full point group                 C1      NOp   1
 Largest Abelian subgroup         C1      NOp   1
 Largest concise Abelian subgroup C1      NOp   1
                         Standard orientation:                         
 ---------------------------------------------------------------------
 Center     Atomic      Atomic             Coordinates (Angstroms)
 Number     Number       Type             X           Y           Z
 ---------------------------------------------------------------------
      1          1           0        4.013675   -1.417237   -0.171270
      2          6           0        3.003050   -1.406350   -0.579686
      3          1           0        2.537829   -2.382690   -0.429629
      4          1           0        3.049251   -1.196477   -1.650313
      5          6           0        2.165952   -0.324451    0.101517
      6          8           0        2.666262    0.452805    0.909168
      7          7           0        0.866652   -0.277219   -0.243086
      8          1           0        0.502376   -0.931478   -0.921241
      9          6           0       -0.036601    0.728898    0.291654
     10          1           0        0.117890    0.803758    1.370364
     11          6           0        0.214536    2.098274   -0.334720
     12          1           0        0.058672    2.046027   -1.413527
     13          1           0       -0.476885    2.828068    0.088732
     14          1           0        1.239906    2.408810   -0.130320
     15          6           0       -1.490495    0.335619    0.036366
     16          8           0       -2.304009    1.156747   -0.376042
     17          7           0       -1.808310   -0.944489    0.295797
     18          1           0       -1.098476   -1.569943    0.649852
     19          6           0       -3.151974   -1.458406    0.113866
     20          1           0       -3.773297   -0.674604   -0.319770
     21          1           0       -3.131375   -2.319827   -0.556268
     22          1           0       -3.572785   -1.760376    1.075425
 ---------------------------------------------------------------------
 Rotational constants (GHZ):      2.2630095      0.7517019      0.6103447
 Standard basis: 6-31G(d) (6D, 7F)
 There are   174 symmetry adapted basis functions of A   symmetry.
 Integral buffers will be    131072 words long.
 Raffenetti 2 integral format.
 Two-electron integral symmetry is turned on.
   174 basis functions,   328 primitive gaussians,   174 cartesian basis functions
    39 alpha electrons       39 beta electrons
       nuclear repulsion energy       553.6163444072 Hartrees.
 NAtoms=   22 NActive=   22 NUniq=   22 SFac= 7.50D-01 NAtFMM=   80 NAOKFM=F Big=F
 One-electron integrals computed using PRISM.
 NBasis=   174 RedAO= T  NBF=   174
 NBsUse=   174 1.00D-06 NBFU=   174
 Initial guess read from the read-write file.
 B after Tr=     0.000000    0.000000    0.000000
         Rot=    1.000000    0.000000    0.000000    0.000000 Ang=   0.00 deg.
 Initial guess orbital symmetries:
       Occupied  (A) (A) (A) (A) (A) (A) (A) (A) (A) (A) (A) (A)
                 (A) (A) (A) (A) (A) (A) (A) (A) (A) (A) (A) (A)
                 (A) (A) (A) (A) (A) (A) (A) (A) (A) (A) (A) (A)
                 (A) (A) (A)
       Virtual   (A) (A) (A) (A) (A) (A) (A) (A) (A) (A) (A) (A)
                 (A) (A) (A) (A) (A) (A) (A) (A) (A) (A) (A) (A)
                 (A) (A) (A) (A) (A) (A) (A) (A) (A) (A) (A) (A)
                 (A) (A) (A) (A) (A) (A) (A) (A) (A) (A) (A) (A)
                 (A) (A) (A) (A) (A) (A) (A) (A) (A) (A) (A) (A)
                 (A) (A) (A) (A) (A) (A) (A) (A) (A) (A) (A) (A)
                 (A) (A) (A) (A) (A) (A) (A) (A) (A) (A) (A) (A)
                 (A) (A) (A) (A) (A) (A) (A) (A) (A) (A) (A) (A)
                 (A) (A) (A) (A) (A) (A) (A) (A) (A) (A) (A) (A)
                 (A) (A) (A) (A) (A) (A) (A) (A) (A) (A) (A) (A)
                 (A) (A) (A) (A) (A) (A) (A) (A) (A) (A) (A) (A)
                 (A) (A) (A)
 Harris functional with IExCor=  402 diagonalized for initial guess.
 ExpMin= 1.61D-01 ExpMax= 5.48D+03 ExpMxC= 8.25D+02 IAcc=1 IRadAn=         1 AccDes= 0.00D+00
 HarFok:  IExCor=  402 AccDes= 0.00D+00 IRadAn=         1 IDoV= 1
 ScaDFX=  1.000000  1.000000  1.000000  1.000000
 FoFCou: FMM=F IPFlag=           0 FMFlag=      100000 FMFlg1=           0
         NFxFlg=           0 DoJE=T BraDBF=F KetDBF=T FulRan=T
         Omega=  0.000000  0.000000  1.000000  0.000000  0.000000 ICntrl=     500 IOpCl=  0
         NMat0=    1 NMatS0=    1 NMatT0=    0 NMatD0=    1 NMtDS0=    0 NMtDT0=    0
         I1Cent=           4 NGrid=           0.
 Petite list used in FoFCou.
 Requested convergence on RMS density matrix=1.00D-08 within 128 cycles.
 Requested convergence on MAX density matrix=1.00D-06.
 Requested convergence on             energy=1.00D-06.
 No special actions if energy rises.
 Integral accuracy reduced to 1.0D-05 until final iterations.
 Initial convergence to 1.0D-05 achieved.  Increase integral accuracy.
 SCF Done:  E(RB3LYP) =  -495.842993901     A.U. after   16 cycles
             Convg  =    0.6389D-08             -V/T =  2.0089
 Calling FoFJK, ICntrl=      2127 FMM=F ISym2X=0 I1Cent= 0 IOpClX= 0 NMat=1 NMatS=1 NMatT=0.
 ***** Axes restored to original set *****
 -------------------------------------------------------------------
 Center     Atomic                   Forces (Hartrees/Bohr)
 Number     Number              X              Y              Z
 -------------------------------------------------------------------
      1        1           0.002500008    0.000643526    0.000291977
      2        6           0.004212923    0.006383549   -0.001112850
      3        1          -0.004729744    0.000489479    0.000259637
      4        1          -0.004133533   -0.000398985   -0.001982425
      5        6          -0.002185463   -0.031138904    0.007898040
      6        8           0.001688852    0.003254771    0.000349274
      7        7          -0.004749956    0.018637509    0.003517924
      8        1          -0.000661817   -0.001145292   -0.002900552
      9        6           0.007030268    0.000322101   -0.012040752
     10        1          -0.000720330   -0.002550988    0.004013445
     11        6           0.002760261   -0.004503878    0.000925385
     12        1           0.000961810    0.000832326   -0.002228824
     13        1           0.000496301    0.000254653   -0.001935916
     14        1           0.000071877   -0.001317432    0.000133890
     15        6           0.012319974   -0.000201270   -0.011285605
     16        8          -0.000698421    0.001664761    0.002382806
     17        7          -0.011883037    0.006032520    0.008458249
     18        1           0.001528561   -0.001002830    0.000853941
     19        6          -0.001845675    0.000114140    0.002528527
     20        1           0.000522508   -0.002153943   -0.000329996
     21        1          -0.002564348    0.002865498    0.000122972
     22        1           0.000078980    0.002918689    0.002080854
 -------------------------------------------------------------------
 Cartesian Forces:  Max     0.031138904 RMS     0.006024927

 GradGradGradGradGradGradGradGradGradGradGradGradGradGradGradGradGradGrad
 Berny optimization.
 Using GEDIIS/GDIIS optimizer.
 Internal  Forces:  Max     0.021678575 RMS     0.004260489
 Search for a local minimum.
 Step number   2 out of a maximum of  132
 All quantities printed in internal units (Hartrees-Bohrs-Radians)
 Mixed Optimization -- RFO/linear search
 Update second derivatives using D2CorX and points    1    2
 DE= -3.01D-03 DEPred=-3.01D-03 R= 9.99D-01
 SS=  1.41D+00  RLast= 3.00D-01 DXNew= 5.0454D-01 8.9999D-01
 Trust test= 9.99D-01 RLast= 3.00D-01 DXMaxT set to 5.05D-01
 Use linear search instead of GDIIS.
 Linear search step of   0.594 exceeds DXMaxT=   0.505 but not scaled.
 Quartic linear search produced a step of  2.00000.
 Iteration  1 RMS(Cart)=  0.10316596 RMS(Int)=  0.00918838
 Iteration  2 RMS(Cart)=  0.00974721 RMS(Int)=  0.00036411
 Iteration  3 RMS(Cart)=  0.00007957 RMS(Int)=  0.00035914
 Iteration  4 RMS(Cart)=  0.00000002 RMS(Int)=  0.00035914
 Iteration  1 RMS(Cart)=  0.00011529 RMS(Int)=  0.00003355
 Iteration  2 RMS(Cart)=  0.00006157 RMS(Int)=  0.00003744
 Iteration  3 RMS(Cart)=  0.00003313 RMS(Int)=  0.00004225
 Iteration  4 RMS(Cart)=  0.00001803 RMS(Int)=  0.00004547
 Iteration  5 RMS(Cart)=  0.00000997 RMS(Int)=  0.00004741
 Iteration  6 RMS(Cart)=  0.00000564 RMS(Int)=  0.00004855
 Iteration  7 RMS(Cart)=  0.00000328 RMS(Int)=  0.00004922
 Iteration  8 RMS(Cart)=  0.00000196 RMS(Int)=  0.00004962
 Iteration  9 RMS(Cart)=  0.00000121 RMS(Int)=  0.00004985
 Iteration 10 RMS(Cart)=  0.00000077 RMS(Int)=  0.00005000
 Variable       Old X    -DE/DX   Delta X   Delta X   Delta X     New X
                                 (Linear)    (Quad)   (Total)
    R1        2.05996  -0.00058   0.00032   0.00000   0.00032   2.06028
    R2        2.06334   0.00328   0.00707   0.00000   0.00707   2.07041
    R3        2.06355   0.00318   0.00734   0.00000   0.00734   2.07089
    R4        2.88781  -0.00042  -0.00701   0.00000  -0.00701   2.88080
    R5        2.31962  -0.00053  -0.00576   0.00000  -0.00576   2.31386
    R6        2.54178   0.02168   0.03789   0.00000   0.03789   2.57967
    R7        1.90913   0.00065   0.00093   0.00000   0.00093   1.91006
    R8        2.74764   0.00877   0.01894   0.00000   0.01894   2.76658
    R9        2.06412   0.00362   0.00875   0.00000   0.00875   2.07287
   R10        2.88492   0.00605   0.00606   0.00000   0.00606   2.89098
   R11        2.88680   0.01042   0.02124   0.00000   0.02124   2.90804
   R12        2.06218   0.00161   0.00492   0.00000   0.00492   2.06710
   R13        2.06143   0.00053   0.00316   0.00000   0.00316   2.06459
   R14        2.06110   0.00132   0.00288   0.00000   0.00288   2.06397
   R15        2.31916  -0.00090  -0.00659   0.00000  -0.00659   2.31257
   R16        2.54025   0.02156   0.03470   0.00000   0.03470   2.57495
   R17        1.90892   0.00036   0.00066   0.00000   0.00066   1.90957
   R18        2.74020   0.00467   0.00396   0.00000   0.00396   2.74416
   R19        2.06008  -0.00051   0.00096   0.00000   0.00096   2.06105
   R20        2.06279   0.00303   0.00614   0.00000   0.00614   2.06893
   R21        2.06393   0.00285   0.00818   0.00000   0.00818   2.07211
    A1        1.91197  -0.00021   0.00172   0.00000   0.00199   1.91396
    A2        1.90713  -0.00021  -0.00791   0.00000  -0.00798   1.89916
    A3        1.92614  -0.00542  -0.02587   0.00000  -0.02575   1.90038
    A4        1.90142  -0.00375  -0.01732   0.00000  -0.01780   1.88362
    A5        1.91602   0.00490   0.03973   0.00000   0.03962   1.95564
    A6        1.90092   0.00470   0.00971   0.00000   0.00942   1.91033
    A7        2.11569   0.00662   0.02521   0.00000   0.02517   2.14086
    A8        2.02618  -0.00505  -0.01773   0.00000  -0.01776   2.00842
    A9        2.14130  -0.00157  -0.00751   0.00000  -0.00754   2.13376
   A10        2.09156  -0.00183  -0.00562   0.00000  -0.00719   2.08437
   A11        2.12960   0.00204   0.00421   0.00000   0.00262   2.13222
   A12        2.06122  -0.00023  -0.00020   0.00000  -0.00182   2.05940
   A13        1.89944  -0.00099  -0.02339   0.00000  -0.02371   1.87573
   A14        1.94722   0.00127   0.01635   0.00000   0.01658   1.96381
   A15        1.93011  -0.00523  -0.01778   0.00000  -0.01858   1.91153
   A16        1.89701  -0.00153   0.00183   0.00000   0.00198   1.89899
   A17        1.89367  -0.00158  -0.00482   0.00000  -0.00561   1.88806
   A18        1.89539   0.00801   0.02803   0.00000   0.02822   1.92361
   A19        1.91683   0.00197   0.01137   0.00000   0.01135   1.92819
   A20        1.91405   0.00203   0.00598   0.00000   0.00597   1.92003
   A21        1.91044  -0.00079  -0.00132   0.00000  -0.00134   1.90910
   A22        1.90208  -0.00232  -0.01606   0.00000  -0.01607   1.88601
   A23        1.91046  -0.00042   0.00046   0.00000   0.00043   1.91090
   A24        1.90991  -0.00048  -0.00049   0.00000  -0.00049   1.90942
   A25        2.11156   0.00572   0.01679   0.00000   0.01677   2.12833
   A26        2.02409  -0.00555  -0.02201   0.00000  -0.02203   2.00205
   A27        2.14753  -0.00018   0.00520   0.00000   0.00518   2.15271
   A28        2.08419  -0.00313  -0.02028   0.00000  -0.02079   2.06340
   A29        2.13220   0.00403   0.00927   0.00000   0.00873   2.14092
   A30        2.06653  -0.00092   0.01047   0.00000   0.00990   2.07643
   A31        1.89992  -0.00454  -0.02242   0.00000  -0.02229   1.87763
   A32        1.91689   0.00365   0.01161   0.00000   0.01146   1.92835
   A33        1.92256   0.00329   0.02293   0.00000   0.02283   1.94539
   A34        1.91128  -0.00006   0.00217   0.00000   0.00223   1.91351
   A35        1.90646  -0.00003  -0.00736   0.00000  -0.00718   1.89928
   A36        1.90665  -0.00233  -0.00700   0.00000  -0.00734   1.89931
    D1        0.09155  -0.00008   0.18314   0.00000   0.18335   0.27491
    D2       -3.05591   0.00021   0.17124   0.00000   0.17131  -2.88461
    D3        2.20070  -0.00065   0.19468   0.00000   0.19446   2.39516
    D4       -0.94677  -0.00035   0.18278   0.00000   0.18241  -0.76436
    D5       -2.00200   0.00053   0.20261   0.00000   0.20284  -1.79916
    D6        1.13371   0.00082   0.19070   0.00000   0.19079   1.32451
    D7       -0.00689   0.00012  -0.01356   0.00000  -0.01342  -0.02031
    D8       -3.10451   0.00074   0.07424   0.00000   0.07388  -3.03064
    D9        3.12874   0.00045  -0.02566   0.00000  -0.02530   3.10344
   D10        0.03111   0.00106   0.06214   0.00000   0.06200   0.09312
   D11       -0.80132  -0.00010  -0.03173   0.00000  -0.03131  -0.83263
   D12        1.29176  -0.00186  -0.03445   0.00000  -0.03426   1.25750
   D13       -2.87985   0.00558  -0.00001   0.00000   0.00000  -2.87985
   D14        2.38351   0.00055   0.05460   0.00000   0.05493   2.43844
   D15       -1.80660  -0.00121   0.05189   0.00000   0.05198  -1.75462
   D16        0.30498   0.00623   0.08633   0.00000   0.08624   0.39122
   D17        1.05348   0.00061   0.01248   0.00000   0.01273   1.06622
   D18       -3.13989   0.00023   0.00346   0.00000   0.00371  -3.13618
   D19       -1.04440   0.00041   0.00572   0.00000   0.00596  -1.03844
   D20       -3.13519  -0.00082  -0.00519   0.00000  -0.00519  -3.14038
   D21       -1.04537  -0.00120  -0.01421   0.00000  -0.01422  -1.05959
   D22        1.05011  -0.00103  -0.01195   0.00000  -0.01197   1.03815
   D23       -1.07822   0.00092   0.00561   0.00000   0.00538  -1.07284
   D24        1.01160   0.00054  -0.00341   0.00000  -0.00365   1.00795
   D25        3.10708   0.00071  -0.00115   0.00000  -0.00140   3.10569
   D26       -2.36092  -0.00325  -0.00954   0.00000  -0.00952  -2.37043
   D27        0.78541  -0.00248   0.00000   0.00000   0.00000   0.78541
   D28        1.84025   0.00203   0.03305   0.00000   0.03304   1.87329
   D29       -1.29661   0.00281   0.04259   0.00000   0.04255  -1.25406
   D30       -0.21884   0.00028   0.01803   0.00000   0.01790  -0.20094
   D31        2.92748   0.00106   0.02757   0.00000   0.02741   2.95489
   D32        0.01455   0.00040   0.02915   0.00000   0.02882   0.04337
   D33        3.13065  -0.00036  -0.02191   0.00000  -0.02146   3.10919
   D34       -3.12220   0.00118   0.03890   0.00000   0.03845  -3.08375
   D35       -0.00611   0.00042  -0.01216   0.00000  -0.01183  -0.01793
   D36        0.07583   0.00036   0.15174   0.00000   0.15194   0.22777
   D37        2.16826  -0.00030   0.14770   0.00000   0.14779   2.31604
   D38       -2.01411   0.00122   0.16061   0.00000   0.16107  -1.85304
   D39       -3.09101  -0.00043   0.10117   0.00000   0.10087  -2.99014
   D40       -0.99859  -0.00108   0.09713   0.00000   0.09672  -0.90187
   D41        1.10223   0.00044   0.11005   0.00000   0.11001   1.21223
         Item               Value     Threshold  Converged?
 Maximum Force            0.021679     0.000450     NO 
 RMS     Force            0.004203     0.000300     NO 
 Maximum Displacement     0.450479     0.001800     NO 
 RMS     Displacement     0.104095     0.001200     NO 
 Predicted change in Energy=-3.324153D-03
 GradGradGradGradGradGradGradGradGradGradGradGradGradGradGradGradGradGrad

                          Input orientation:                          
 ---------------------------------------------------------------------
 Center     Atomic      Atomic             Coordinates (Angstroms)
 Number     Number       Type             X           Y           Z
 ---------------------------------------------------------------------
      1          1           0        1.904171    1.196352    0.734711
      2          6           0        1.974506    2.152378    0.215364
      3          1           0        1.236928    2.850419    0.626565
      4          1           0        1.738569    1.997529   -0.843540
      5          6           0        3.398226    2.681390    0.346224
      6          8           0        4.335820    1.975811    0.695986
      7          7           0        3.558112    3.998072    0.023285
      8          1           0        2.760214    4.532475   -0.292009
      9          6           0        4.876843    4.630905   -0.038364
     10          1           0        5.418595    4.352727    0.873968
     11          6           0        5.688972    4.175689   -1.252298
     12          1           0        5.172826    4.441271   -2.179444
     13          1           0        6.664650    4.667291   -1.255033
     14          1           0        5.828228    3.093220   -1.210040
     15          6           0        4.712893    6.160956   -0.051685
     16          8           0        5.354449    6.874296   -0.811380
     17          7           0        3.818037    6.645825    0.854310
     18          1           0        3.367939    5.991213    1.478819
     19          6           0        3.558191    8.065264    1.016801
     20          1           0        4.003040    8.581216    0.165073
     21          1           0        2.480595    8.257182    1.041367
     22          1           0        4.007595    8.452419    1.939021
 ---------------------------------------------------------------------
                    Distance matrix (angstroms):
                    1          2          3          4          5
     1  H    0.000000
     2  C    1.090254   0.000000
     3  H    1.786853   1.095613   0.000000
     4  H    1.777690   1.095865   1.772081   0.000000
     5  C    2.142068   1.524453   2.185948   2.153524   0.000000
     6  O    2.553815   2.416190   3.220696   3.019325   1.224441
     7  N    3.330358   2.439527   2.658750   2.839771   1.365103
     8  H    3.593978   2.557269   2.448161   2.788171   2.059348
     9  C    4.607664   3.825053   4.106244   4.175134   2.476858
    10  H    4.725809   4.139691   4.450222   4.694612   2.674654
    11  C    5.210505   4.477173   5.010705   4.529586   3.167921
    12  H    5.450312   4.604714   5.088791   4.421611   3.553223
    13  H    6.218413   5.521260   6.025081   5.618117   4.144558
    14  H    4.772670   4.215226   4.950970   4.249726   2.914871
    15  C    5.758006   4.861973   4.847888   5.177622   3.740864
    16  O    6.821573   5.897010   5.934075   6.071119   4.769415
    17  N    5.777018   4.898768   4.595552   5.367825   4.018848
    18  H    5.068234   4.274883   3.890004   4.898746   3.498373
    19  C    7.070877   6.173539   5.721464   6.602219   5.427832
    20  H    7.698438   6.741471   6.380155   7.034918   5.933512
    21  H    7.090954   6.181185   5.563440   6.579266   5.693394
    22  H    7.650181   6.840685   6.386043   7.386253   6.017733
                    6          7          8          9         10
     6  O    0.000000
     7  N    2.268677   0.000000
     8  H    3.161518   1.010761   0.000000
     9  C    2.807400   1.464011   2.134043   0.000000
    10  H    2.617977   2.076256   2.908402   1.096917   0.000000
    11  C    3.235165   2.489824   3.102752   1.529841   2.150687
    12  H    3.879068   2.766901   3.064543   2.169745   3.064566
[...]
    13  H    6.235272   5.449057   5.854087   5.545075   4.131385
    14  H    4.821463   4.103639   4.735030   4.049741   2.894651
    15  C    5.704912   4.895402   4.828042   5.399228   3.751668
    16  O    6.788221   5.914119   5.847718   6.280907   4.784406
    17  N    5.676679   4.981873   4.707144   5.689052   4.026037
    18  H    4.911321   4.337824   4.055307   5.172814   3.469286
    19  C    6.955896   6.273487   5.849881   6.988724   5.437406
    20  H    7.659329   6.886547   6.508100   7.486765   5.979956
    21  H    7.005654   6.321077   5.721954   7.036688   5.730218
    22  H    7.437540   6.875577   6.501210   7.680825   5.975492
                    6          7          8          9         10
     6  O    0.000000
     7  N    2.281120   0.000000
     8  H    3.140817   1.013809   0.000000
     9  C    2.806467   1.470328   2.116515   0.000000
    10  H    2.541922   2.059379   2.943529   1.096094   0.000000
    11  C    3.290503   2.502420   2.925957   1.530034   2.152659
    12  H    3.961433   2.788315   2.827492   2.176088   3.070347
    13  H    4.098498   3.437607   3.886042   2.164946   2.503109
    14  H    2.749665   2.753834   3.311632   2.157046   2.462819
    15  C    4.251292   2.458921   2.642405   1.543171   2.155287
    16  O    5.233341   3.505300   3.555107   2.427024   3.046592
    17  N    4.635526   2.782126   2.871969   2.443995   2.780162
    18  H    4.095264   2.423022   2.630330   2.518210   2.677661
    19  C    6.074178   4.184259   4.105909   3.828335   4.137600
    20  H    6.589701   4.649949   4.526090   4.047098   4.458094
    21  H    6.523896   4.504636   4.217331   4.463265   4.889566
    22  H    6.471799   4.836729   4.918067   4.419085   4.473653
                   11         12         13         14         15
    11  C    0.000000
    12  H    1.095110   0.000000
    13  H    1.092636   1.764757   0.000000
    14  H    1.092982   1.786365   1.782069   0.000000
    15  C    2.534946   2.806640   2.752390   3.479322   0.000000
    16  O    2.784471   2.843293   2.630991   3.859366   1.224300
    17  N    3.760365   4.024287   4.070650   4.581362   1.365263
    18  H    4.004269   4.359023   4.482876   4.635622   2.039970
    19  C    5.005542   5.150067   5.156000   5.917350   2.474662
    20  H    4.955214   4.998601   4.935692   5.967025   2.522259
    21  H    5.649054   5.648069   5.938383   6.535756   3.209693
    22  H    5.672782   5.973085   5.731539   6.528596   3.182909
                   16         17         18         19         20
    16  O    0.000000
    17  N    2.283441   0.000000
    18  H    3.157919   1.010718   0.000000
    19  C    2.839063   1.451290   2.138705   0.000000
    20  H    2.375349   2.060034   2.977711   1.090943   0.000000
    21  H    3.608944   2.112600   2.529431   1.096593   1.782554
    22  H    3.571324   2.112464   2.548758   1.096662   1.781227
                   21         22
    21  H    0.000000
    22  H    1.782240   0.000000
 Stoichiometry    C6H12N2O2
 Framework group  C1[X(C6H12N2O2)]
 Deg. of freedom    60
 Full point group                 C1      NOp   1
 Largest Abelian subgroup         C1      NOp   1
 Largest concise Abelian subgroup C1      NOp   1
                         Standard orientation:                         
 ---------------------------------------------------------------------
 Center     Atomic      Atomic             Coordinates (Angstroms)
 Number     Number       Type             X           Y           Z
 ---------------------------------------------------------------------
      1          1           0        3.791365   -1.738960   -0.082233
      2          6           0        3.053640   -1.252080   -0.723708
      3          1           0        2.495535   -2.011815   -1.280427
      4          1           0        3.597899   -0.626630   -1.441303
      5          6           0        2.164387   -0.367548    0.137923
      6          8           0        2.585225    0.235184    1.114238
      7          7           0        0.840407   -0.309883   -0.250320
      8          1           0        0.633837   -0.627469   -1.190680
      9          6           0       -0.045184    0.739323    0.275759
     10          1           0        0.106489    0.741336    1.361307
     11          6           0        0.280782    2.129033   -0.275109
     12          1           0        0.163017    2.155184   -1.363554
     13          1           0       -0.400728    2.871036    0.147774
     14          1           0        1.308562    2.393533   -0.013735
     15          6           0       -1.513487    0.358421   -0.007750
     16          8           0       -2.331079    1.174001   -0.414300
     17          7           0       -1.818103   -0.942891    0.271067
     18          1           0       -1.068961   -1.539158    0.594801
     19          6           0       -3.156611   -1.486628    0.133266
     20          1           0       -3.793926   -0.690625   -0.254507
     21          1           0       -3.172426   -2.332279   -0.564690
     22          1           0       -3.551115   -1.821346    1.100219
 ---------------------------------------------------------------------
 Rotational constants (GHZ):      2.2103892      0.7380368      0.6118093

 **********************************************************************

            Population analysis using the SCF density.

 **********************************************************************

 Orbital symmetries:
       Occupied  (A) (A) (A) (A) (A) (A) (A) (A) (A) (A) (A) (A)
                 (A) (A) (A) (A) (A) (A) (A) (A) (A) (A) (A) (A)
                 (A) (A) (A) (A) (A) (A) (A) (A) (A) (A) (A) (A)
                 (A) (A) (A)
       Virtual   (A) (A) (A) (A) (A) (A) (A) (A) (A) (A) (A) (A)
                 (A) (A) (A) (A) (A) (A) (A) (A) (A) (A) (A) (A)
                 (A) (A) (A) (A) (A) (A) (A) (A) (A) (A) (A) (A)
                 (A) (A) (A) (A) (A) (A) (A) (A) (A) (A) (A) (A)
                 (A) (A) (A) (A) (A) (A) (A) (A) (A) (A) (A) (A)
                 (A) (A) (A) (A) (A) (A) (A) (A) (A) (A) (A) (A)
                 (A) (A) (A) (A) (A) (A) (A) (A) (A) (A) (A) (A)
                 (A) (A) (A) (A) (A) (A) (A) (A) (A) (A) (A) (A)
                 (A) (A) (A) (A) (A) (A) (A) (A) (A) (A) (A) (A)
                 (A) (A) (A) (A) (A) (A) (A) (A) (A) (A) (A) (A)
                 (A) (A) (A) (A) (A) (A) (A) (A) (A) (A) (A) (A)
                 (A) (A) (A)
 The electronic state is 1-A.
 Alpha  occ. eigenvalues --  -19.11865 -19.11405 -14.36848 -14.36415 -10.29493
 Alpha  occ. eigenvalues --  -10.28734 -10.23532 -10.22119 -10.19934 -10.17292
 Alpha  occ. eigenvalues --   -1.03921  -1.03230  -0.93416  -0.91598  -0.77872
 Alpha  occ. eigenvalues --   -0.73121  -0.71431  -0.64006  -0.58848  -0.58231
 Alpha  occ. eigenvalues --   -0.53588  -0.48253  -0.48048  -0.46290  -0.45416
 Alpha  occ. eigenvalues --   -0.44756  -0.42187  -0.41809  -0.40350  -0.40124
 Alpha  occ. eigenvalues --   -0.39177  -0.37963  -0.36624  -0.36465  -0.34882
 Alpha  occ. eigenvalues --   -0.27051  -0.25796  -0.25442  -0.24667
 Alpha virt. eigenvalues --    0.01358   0.02363   0.07039   0.09337   0.12065
 Alpha virt. eigenvalues --    0.12601   0.12832   0.14586   0.15588   0.15867
 Alpha virt. eigenvalues --    0.16542   0.17371   0.17679   0.18397   0.19651
 Alpha virt. eigenvalues --    0.21042   0.24180   0.24561   0.26939   0.31360
 Alpha virt. eigenvalues --    0.35051   0.36947   0.39912   0.50212   0.51418
 Alpha virt. eigenvalues --    0.51494   0.52643   0.53659   0.54568   0.55618
 Alpha virt. eigenvalues --    0.56825   0.60614   0.63046   0.63518   0.65462
 Alpha virt. eigenvalues --    0.67175   0.68239   0.69757   0.70912   0.74062
 Alpha virt. eigenvalues --    0.75303   0.76307   0.78304   0.81851   0.83364
 Alpha virt. eigenvalues --    0.84075   0.85783   0.86236   0.88175   0.88311
 Alpha virt. eigenvalues --    0.88706   0.89828   0.90693   0.91945   0.92824
 Alpha virt. eigenvalues --    0.93754   0.94598   0.96200   0.96391   0.97404
 Alpha virt. eigenvalues --    1.03897   1.05721   1.07534   1.13011   1.16408
 Alpha virt. eigenvalues --    1.17484   1.24838   1.29601   1.29939   1.33902
 Alpha virt. eigenvalues --    1.35979   1.38547   1.41824   1.43535   1.44744
 Alpha virt. eigenvalues --    1.49743   1.53451   1.63435   1.64792   1.70749
 Alpha virt. eigenvalues --    1.75184   1.75804   1.77228   1.79889   1.80725
 Alpha virt. eigenvalues --    1.82729   1.84040   1.86157   1.87189   1.90379
 Alpha virt. eigenvalues --    1.92226   1.93439   1.97143   1.97627   2.01291
 Alpha virt. eigenvalues --    2.03866   2.04917   2.07100   2.11310   2.17880
 Alpha virt. eigenvalues --    2.18513   2.22702   2.24786   2.27686   2.28272
 Alpha virt. eigenvalues --    2.30653   2.30750   2.35865   2.38308   2.40310
 Alpha virt. eigenvalues --    2.42299   2.47608   2.53078   2.55370   2.63297
 Alpha virt. eigenvalues --    2.65553   2.67286   2.70903   2.73437   2.84950
 Alpha virt. eigenvalues --    2.92312   2.97036   3.01279   3.11505   3.15235
 Alpha virt. eigenvalues --    3.94451   3.95311   4.04819   4.10244   4.16504
 Alpha virt. eigenvalues --    4.22904   4.25685   4.43979   4.48495   4.61468
          Condensed to atoms (all electrons):
              1          2          3          4          5          6
     1  H    0.508438   0.359075  -0.024723  -0.021433  -0.018721   0.002955
     2  C    0.359075   5.322760   0.343024   0.361620   0.348877  -0.077941
     3  H   -0.024723   0.343024   0.572440  -0.026525  -0.025558   0.002770
     4  H   -0.021433   0.361620  -0.026525   0.522199  -0.020986  -0.000251
     5  C   -0.018721   0.348877  -0.025558  -0.020986   4.325554   0.587662
     6  O    0.002955  -0.077941   0.002770  -0.000251   0.587662   8.055466
     7  N    0.003726  -0.123701   0.006729   0.000560   0.245586  -0.099715
     8  H    0.000042   0.001907   0.000789  -0.000110  -0.017877   0.003345
     9  C   -0.000161   0.007266  -0.000011  -0.000202  -0.019217   0.007852
    10  H    0.000013   0.000558  -0.000052  -0.000013  -0.004610   0.011590
    11  C   -0.000003  -0.000560   0.000024   0.000140  -0.003383  -0.004875
    12  H    0.000001   0.000018  -0.000005  -0.000010  -0.000125   0.000017
    13  H    0.000000   0.000004   0.000000  -0.000002  -0.000034  -0.000034
    14  H    0.000002   0.000113  -0.000006  -0.000022   0.004981   0.006673
    15  C    0.000002  -0.000082  -0.000020  -0.000003   0.003619   0.000532
    16  O    0.000000   0.000000   0.000000   0.000000  -0.000082  -0.000001
    17  N    0.000000  -0.000024  -0.000001   0.000000   0.000292   0.000004
    18  H   -0.000007   0.000013   0.000036   0.000002   0.000233  -0.000069
    19  C    0.000000   0.000000   0.000000   0.000000   0.000014   0.000000
    20  H    0.000000   0.000000   0.000000   0.000000   0.000001   0.000000
    21  H    0.000000   0.000000   0.000000   0.000000  -0.000002   0.000000
    22  H    0.000000   0.000000   0.000000   0.000000   0.000001   0.000000
              7          8          9         10         11         12
     1  H    0.003726   0.000042  -0.000161   0.000013  -0.000003   0.000001
     2  C   -0.123701   0.001907   0.007266   0.000558  -0.000560   0.000018
     3  H    0.006729   0.000789  -0.000011  -0.000052   0.000024  -0.000005
     4  H    0.000560  -0.000110  -0.000202  -0.000013   0.000140  -0.000010
     5  C    0.245586  -0.017877  -0.019217  -0.004610  -0.003383  -0.000125
     6  O   -0.099715   0.003345   0.007852   0.011590  -0.004875   0.000017
     7  N    7.201309   0.290105   0.214223  -0.045542  -0.056667  -0.002252
     8  H    0.290105   0.426102  -0.039397   0.005755   0.000081   0.002817
     9  C    0.214223  -0.039397   5.141239   0.369439   0.360735  -0.034170
    10  H   -0.045542   0.005755   0.369439   0.539785  -0.039397   0.004925
    11  C   -0.056667   0.000081   0.360735  -0.039397   5.104634   0.374883
    12  H   -0.002252   0.002817  -0.034170   0.004925   0.374883   0.568959
    13  H    0.004756  -0.000078  -0.025676  -0.000612   0.366403  -0.024942
    14  H   -0.007056  -0.000216  -0.027103  -0.003885   0.363331  -0.030558
    15  C   -0.030700  -0.000047   0.301688  -0.029475  -0.036698  -0.005382
    16  O    0.000649   0.000101  -0.085100   0.000686   0.005286   0.002152
    17  N   -0.003845   0.003915  -0.130258  -0.000748   0.005380   0.000072
    18  H    0.016218  -0.000799  -0.001839  -0.000455   0.000458  -0.000012
    19  C    0.000082  -0.000170   0.005841  -0.000209  -0.000131  -0.000003
    20  H   -0.000048  -0.000011   0.001271  -0.000025  -0.000024  -0.000003
    21  H    0.000017  -0.000043  -0.000016  -0.000006   0.000006   0.000000
    22  H   -0.000002   0.000010  -0.000237   0.000026  -0.000002   0.000000
             13         14         15         16         17         18
     1  H    0.000000   0.000002   0.000002   0.000000   0.000000  -0.000007
     2  C    0.000004   0.000113  -0.000082   0.000000  -0.000024   0.000013
     3  H    0.000000  -0.000006  -0.000020   0.000000  -0.000001   0.000036
     4  H   -0.000002  -0.000022  -0.000003   0.000000   0.000000   0.000002
     5  C   -0.000034   0.004981   0.003619  -0.000082   0.000292   0.000233
     6  O   -0.000034   0.006673   0.000532  -0.000001   0.000004  -0.000069
     7  N    0.004756  -0.007056  -0.030700   0.000649  -0.003845   0.016218
     8  H   -0.000078  -0.000216  -0.000047   0.000101   0.003915  -0.000799
     9  C   -0.025676  -0.027103   0.301688  -0.085100  -0.130258  -0.001839
    10  H   -0.000612  -0.003885  -0.029475   0.000686  -0.000748  -0.000455
    11  C    0.366403   0.363331  -0.036698   0.005286   0.005380   0.000458
    12  H   -0.024942  -0.030558  -0.005382   0.002152   0.000072  -0.000012
    13  H    0.531813  -0.026148  -0.002054   0.005198   0.000150  -0.000045
    14  H   -0.026148   0.548384   0.004809   0.000538  -0.000041  -0.000014
    15  C   -0.002054   0.004809   4.385406   0.594558   0.283778  -0.023812
    16  O    0.005198   0.000538   0.594558   8.069357  -0.095460   0.003384
    17  N    0.000150  -0.000041   0.283778  -0.095460   7.074694   0.300855
    18  H   -0.000045  -0.000014  -0.023812   0.003384   0.300855   0.400531
    19  C   -0.000002   0.000002  -0.024378  -0.008374   0.268474  -0.031170
    20  H   -0.000002   0.000000   0.000003   0.020992  -0.041038   0.003826
    21  H    0.000000   0.000000   0.000804   0.000433  -0.041401  -0.000193
    22  H    0.000000   0.000000   0.001340   0.000469  -0.041739  -0.001281
             19         20         21         22
     1  H    0.000000   0.000000   0.000000   0.000000
     2  C    0.000000   0.000000   0.000000   0.000000
     3  H    0.000000   0.000000   0.000000   0.000000
     4  H    0.000000   0.000000   0.000000   0.000000
     5  C    0.000014   0.000001  -0.000002   0.000001
     6  O    0.000000   0.000000   0.000000   0.000000
     7  N    0.000082  -0.000048   0.000017  -0.000002
     8  H   -0.000170  -0.000011  -0.000043   0.000010
     9  C    0.005841   0.001271  -0.000016  -0.000237
    10  H   -0.000209  -0.000025  -0.000006   0.000026
    11  C   -0.000131  -0.000024   0.000006  -0.000002
    12  H   -0.000003  -0.000003   0.000000   0.000000
    13  H   -0.000002  -0.000002   0.000000   0.000000
    14  H    0.000002   0.000000   0.000000   0.000000
    15  C   -0.024378   0.000003   0.000804   0.001340
    16  O   -0.008374   0.020992   0.000433   0.000469
    17  N    0.268474  -0.041038  -0.041401  -0.041739
    18  H   -0.031170   0.003826  -0.000193  -0.001281
    19  C    4.961772   0.376082   0.380407   0.382067
    20  H    0.376082   0.484029  -0.024842  -0.024629
    21  H    0.380407  -0.024842   0.571220  -0.040831
    22  H    0.382067  -0.024629  -0.040831   0.564516
 Mulliken atomic charges:
              1
     1  H    0.190795
     2  C   -0.542927
     3  H    0.151090
     4  H    0.185037
     5  C    0.593775
     6  O   -0.495980
     7  N   -0.614433
     8  H    0.323778
     9  C   -0.046166
    10  H    0.192253
    11  C   -0.439620
    12  H    0.143619
    13  H    0.171304
    14  H    0.166217
    15  C    0.576113
    16  O   -0.514789
    17  N   -0.583060
    18  H    0.334139
    19  C   -0.310303
    20  H    0.204419
    21  H    0.154447
    22  H    0.160292
 Sum of Mulliken atomic charges =   0.00000
 Mulliken charges with hydrogens summed into heavy atoms:
              1
     2  C   -0.016005
     5  C    0.593775
     6  O   -0.495980
     7  N   -0.290655
     9  C    0.146087
    11  C    0.041520
    15  C    0.576113
    16  O   -0.514789
    17  N   -0.248921
    19  C    0.208855
 Sum of Mulliken charges with hydrogens summed into heavy atoms =   0.00000
 Electronic spatial extent (au):  <R**2>=           1908.9801
 Charge=              0.0000 electrons
 Dipole moment (field-independent basis, Debye):
    X=              0.0840    Y=             -3.7879    Z=             -1.6811  Tot=              4.1451
 Quadrupole moment (field-independent basis, Debye-Ang):
   XX=            -65.9517   YY=            -57.9566   ZZ=            -60.2257
   XY=              4.0427   XZ=             -9.2627   YZ=              0.8121
 Traceless Quadrupole moment (field-independent basis, Debye-Ang):
   XX=             -4.5737   YY=              3.4214   ZZ=              1.1523
   XY=              4.0427   XZ=             -9.2627   YZ=              0.8121
 Octapole moment (field-independent basis, Debye-Ang**2):
  XXX=             -6.3562  YYY=             -5.9480  ZZZ=             -2.6619  XYY=              3.3372
  XXY=            -30.5885  XXZ=            -12.3302  XZZ=             -5.1566  YZZ=             -2.2216
  YYZ=              3.9370  XYZ=             -3.4852
 Hexadecapole moment (field-independent basis, Debye-Ang**3):
 XXXX=          -1675.4714 YYYY=           -569.1736 ZZZZ=           -170.8070 XXXY=             21.1729
 XXXZ=            -51.4525 YYYX=             10.1247 YYYZ=              2.6642 ZZZX=             -1.6063
 ZZZY=             -1.1530 XXYY=           -373.0691 XXZZ=           -326.2913 YYZZ=           -122.8202
 XXYZ=             -3.0332 YYXZ=             -1.0734 ZZXY=             -1.1048
 N-N= 5.500311761486D+02 E-N=-2.255974768400D+03  KE= 4.912325205930D+02
 1\1\GINC-NODE005\FOpt\RB3LYP\6-31G(d)\C6H12N2O2\MANAGER\10-Feb-2017\0\
 \# b3lyp/6-31G* Opt=(ModRedundant, maxcycles=1000, calcfc) geom=nocrow
 d\\Phi Psi fixed scan\\0,1\H,1.8175871476,1.3786225221,0.9808460022\C,
 2.019994568,2.09969564,0.1859465427\H,1.2194854393,2.8460037862,0.1572
 189569\H,2.0200048098,1.5546725585,-0.7655249925\C,3.3964040214,2.7067
 068562,0.4153127646\O,4.3275664624,2.0668450756,0.8812488029\N,3.51376
 8739,4.0406182972,0.0778435164\H,2.7877431568,4.4180791538,-0.52067019
 4\C,4.8400332225,4.6595250686,-0.0630197734\H,5.401011307,4.3704882615
 ,0.8331856741\C,5.5971532952,4.176401568,-1.3017142705\H,5.0502041498,
 4.4279057425,-2.2165140875\H,6.5745715399,4.6614575111,-1.3585367752\H
 ,5.7350051637,3.0935753625,-1.246097167\C,4.6896329699,6.1953463619,-0
 .0663122001\O,5.3036365174,6.908219148,-0.8497166371\N,3.8513581343,6.
 6778180802,0.8972539544\H,3.3846369296,6.0052964077,1.4900753301\C,3.6
 206732397,8.0956267222,1.1042473645\H,4.1906098269,8.6332725726,0.3451
 25018\H,2.5579249964,8.3450217598,0.9999163594\H,3.9603943633,8.412701
 5438,2.0975858112\\Version=EM64L-G09RevA.02\State=1-A\HF=-495.8480633\
 RMSD=7.982e-09\RMSF=7.681e-04\Dipole=-1.5759412,0.3063873,0.2863848\Qu
 adrupole=2.8673723,-3.8757342,1.0083619,-0.0332286,1.0349554,7.2804638
 \PG=C01 [X(C6H12N2O2)]\\@


 TIMES HAVE CHANGED. IN THE BIBLE WHEN AN ASS
 SPOKE IT WAS CONSIDERED A MIRACLE.
 Job cpu time:  0 days  1 hours 46 minutes 18.6 seconds.
 File lengths (MBytes):  RWF=    186 Int=      0 D2E=      0 Chk=      4 Scr=      2
 Normal termination of Gaussian 09 at Fri Feb 10 21:42:52 2017.
