 Entering Gaussian System, Link 0=g09
 Initial command:
 /home/steboss/Software/g09/l1.exe /tmp/Gau-31395.inp -scrdir=/tmp/
 Entering Link 1 = /home/steboss/Software/g09/l1.exe PID=     31397.
  
 Copyright (c) 1988,1990,1992,1993,1995,1998,2003,2009, Gaussian, Inc.
                  All Rights Reserved.
  
 This is part of the Gaussian(R) 09 program.  It is based on
 the Gaussian(R) 03 system (copyright 2003, Gaussian, Inc.),
 the Gaussian(R) 98 system (copyright 1998, Gaussian, Inc.),
 the Gaussian(R) 94 system (copyright 1995, Gaussian, Inc.),
 the Gaussian 92(TM) system (copyright 1992, Gaussian, Inc.),
 the Gaussian 90(TM) system (copyright 1990, Gaussian, Inc.),
 the Gaussian 88(TM) system (copyright 1988, Gaussian, Inc.),
 the Gaussian 86(TM) system (copyright 1986, Carnegie Mellon
 University), and the Gaussian 82(TM) system (copyright 1983,
 Carnegie Mellon University). Gaussian is a federally registered
 trademark of Gaussian, Inc.
  
 This software contains proprietary and confidential information,
 including trade secrets, belonging to Gaussian, Inc.
  
 This software is provided under written license and may be
 used, copied, transmitted, or stored only in accord with that
 written license.
  
 The following legend is applicable only to US Government
 contracts under FAR:
  
                    RESTRICTED RIGHTS LEGEND
  
 Use, reproduction and disclosure by the US Government is
 subject to restrictions as set forth in subparagraphs (a)
 and (c) of the Commercial Computer Software - Restricted
 Rights clause in FAR 52.227-19.
  
 Gaussian, Inc.
 340 Quinnipiac St., Bldg. 40, Wallingford CT 06492
  
  
 ---------------------------------------------------------------
 Warning -- This program may not be used in any manner that
 competes with the business of Gaussian, Inc. or will provide
 assistance to any competitor of Gaussian, Inc.  The licensee
 of this program is prohibited from giving any competitor of
 Gaussian, Inc. access to this program.  By using this program,
 the user acknowledges that Gaussian, Inc. is engaged in the
 business of creating and licensing software in the field of
 computational chemistry and represents and warrants to the
 licensee that it is not a competitor of Gaussian, Inc. and that
 it will not use this program in any manner prohibited above.
 ---------------------------------------------------------------
  

 Cite this work as:
 Gaussian 09, Revision A.02,
 M. J. Frisch, G. W. Trucks, H. B. Schlegel, G. E. Scuseria, 
 M. A. Robb, J. R. Cheeseman, G. Scalmani, V. Barone, B. Mennucci, 
 G. A. Petersson, H. Nakatsuji, M. Caricato, X. Li, H. P. Hratchian, 
 A. F. Izmaylov, J. Bloino, G. Zheng, J. L. Sonnenberg, M. Hada, 
 M. Ehara, K. Toyota, R. Fukuda, J. Hasegawa, M. Ishida, T. Nakajima, 
 Y. Honda, O. Kitao, H. Nakai, T. Vreven, J. A. Montgomery, Jr., 
 J. E. Peralta, F. Ogliaro, M. Bearpark, J. J. Heyd, E. Brothers, 
 K. N. Kudin, V. N. Staroverov, R. Kobayashi, J. Normand, 
 K. Raghavachari, A. Rendell, J. C. Burant, S. S. Iyengar, J. Tomasi, 
 M. Cossi, N. Rega, J. M. Millam, M. Klene, J. E. Knox, J. B. Cross, 
 V. Bakken, C. Adamo, J. Jaramillo, R. Gomperts, R. E. Stratmann, 
 O. Yazyev, A. J. Austin, R. Cammi, C. Pomelli, J. W. Ochterski, 
 R. L. Martin, K. Morokuma, V. G. Zakrzewski, G. A. Voth, 
 P. Salvador, J. J. Dannenberg, S. Dapprich, A. D. Daniels, 
 O. Farkas, J. B. Foresman, J. V. Ortiz, J. Cioslowski, 
 and D. J. Fox, Gaussian, Inc., Wallingford CT, 2009.
 
 ******************************************
 Gaussian 09:  EM64L-G09RevA.02 11-Jun-2009
                10-Feb-2017 
 ******************************************
 %chk=structure_75.chk
 %NProcShared=8
 Will use up to    8 processors via shared memory.
 -------------------------------------------
 # HF/6-31G* Opt=(ModRedundant) geom=nocrowd
 -------------------------------------------
 1/18=120,19=15,38=1/1,3;
 2/9=110,12=1,17=6,18=5,40=1/2;
 3/5=1,6=6,7=1,11=9,16=1,25=1,30=1,71=1/1,2,3;
 4//1;
 5/5=2,38=5/2;
 6/7=2,8=2,9=2,10=2,28=1/1;
 7//1,2,3,16;
 1/18=20,19=15/3(2);
 2/9=110,12=1/2;
 99//99;
 2/9=110,12=1/2;
 3/5=1,6=6,7=1,11=9,16=1,25=1,30=1,71=1/1,2,3;
 4/5=5,16=3/1;
 5/5=2,38=5/2;
 7//1,2,3,16;
 1/18=20,19=15/3(-5);
 2/9=110,12=1/2;
 6/7=2,8=2,9=2,10=2,19=2,28=1/1;
 99/9=1/99;
 ------------------
 Phi Psi fixed scan
 ------------------
 Symbolic Z-matrix:
 Charge =  0 Multiplicity = 1
 H                     1.9702    1.0601    0.5095 
 C                     1.985     2.1203    0.2568 
 H                     1.3772    2.6735    0.9728 
 H                     1.582     2.2609   -0.7462 
 C                     3.4103    2.6754    0.2933 
 O                     4.3566    1.9459    0.5811 
 N                     3.5554    3.9697    0. 
 H                     2.7466    4.529    -0.2306 
 C                     4.8533    4.6139    0. 
 H                     5.4076    4.3155    0.8898 
 C                     5.6613    4.2208   -1.2322 
 H                     5.1233    4.5214   -2.1312 
 H                     6.6305    4.7189   -1.2058 
 H                     5.8085    3.1409   -1.2414 
 C                     4.7127    6.1294    0. 
 O                     4.928     6.7758   -1.0229 
 N                     4.3498    6.6961    1.153 
 H                     4.1839    6.1223    1.9675 
 C                     4.1821    8.1295    1.2823 
 H                     4.3948    8.6084    0.3266 
 H                     3.1567    8.3506    1.5786 
 H                     4.8683    8.5094    2.0392 
 
 The following ModRedundant input section has been read:
 D    5    7    9   15 F                                                       
 D    7    9   15   17 F                                                       

 GradGradGradGradGradGradGradGradGradGradGradGradGradGradGradGradGradGrad
 Berny optimization.
 Initialization pass.
                           ----------------------------
                           !    Initial Parameters    !
                           ! (Angstroms and Degrees)  !
 --------------------------                            --------------------------
 ! Name  Definition              Value          Derivative Info.                !
 --------------------------------------------------------------------------------
 ! R1    R(1,2)                  1.09           estimate D2E/DX2                !
 ! R2    R(2,3)                  1.09           estimate D2E/DX2                !
 ! R3    R(2,4)                  1.09           estimate D2E/DX2                !
 ! R4    R(2,5)                  1.53           estimate D2E/DX2                !
 ! R5    R(5,6)                  1.229          estimate D2E/DX2                !
 ! R6    R(5,7)                  1.335          estimate D2E/DX2                !
 ! R7    R(7,8)                  1.01           estimate D2E/DX2                !
 ! R8    R(7,9)                  1.449          estimate D2E/DX2                !
 ! R9    R(9,10)                 1.09           estimate D2E/DX2                !
 ! R10   R(9,11)                 1.525          estimate D2E/DX2                !
 ! R11   R(9,15)                 1.522          estimate D2E/DX2                !
 ! R12   R(11,12)                1.09           estimate D2E/DX2                !
 ! R13   R(11,13)                1.09           estimate D2E/DX2                !
 ! R14   R(11,14)                1.0899         estimate D2E/DX2                !
 ! R15   R(15,16)                1.229          estimate D2E/DX2                !
 ! R16   R(15,17)                1.335          estimate D2E/DX2                !
 ! R17   R(17,18)                1.01           estimate D2E/DX2                !
 ! R18   R(17,19)                1.449          estimate D2E/DX2                !
 ! R19   R(19,20)                1.0899         estimate D2E/DX2                !
 ! R20   R(19,21)                1.09           estimate D2E/DX2                !
 ! R21   R(19,22)                1.09           estimate D2E/DX2                !
 ! A1    A(1,2,3)              109.4988         estimate D2E/DX2                !
 ! A2    A(1,2,4)              109.4973         estimate D2E/DX2                !
 ! A3    A(1,2,5)              111.1006         estimate D2E/DX2                !
 ! A4    A(3,2,4)              109.4393         estimate D2E/DX2                !
 ! A5    A(3,2,5)              108.6416         estimate D2E/DX2                !
 ! A6    A(4,2,5)              108.6364         estimate D2E/DX2                !
 ! A7    A(2,5,6)              120.4978         estimate D2E/DX2                !
 ! A8    A(2,5,7)              116.5992         estimate D2E/DX2                !
 ! A9    A(6,5,7)              122.903          estimate D2E/DX2                !
 ! A10   A(5,7,8)              119.9988         estimate D2E/DX2                !
 ! A11   A(5,7,9)              121.8962         estimate D2E/DX2                !
 ! A12   A(8,7,9)              118.105          estimate D2E/DX2                !
 ! A13   A(7,9,10)             109.5            estimate D2E/DX2                !
 ! A14   A(7,9,11)             111.0992         estimate D2E/DX2                !
 ! A15   A(7,9,15)             111.0966         estimate D2E/DX2                !
 ! A16   A(10,9,11)            108.6382         estimate D2E/DX2                !
 ! A17   A(10,9,15)            108.6373         estimate D2E/DX2                !
 ! A18   A(11,9,15)            107.7947         estimate D2E/DX2                !
 ! A19   A(9,11,12)            109.5007         estimate D2E/DX2                !
 ! A20   A(9,11,13)            109.4959         estimate D2E/DX2                !
 ! A21   A(9,11,14)            109.4978         estimate D2E/DX2                !
 ! A22   A(12,11,13)           109.441          estimate D2E/DX2                !
 ! A23   A(12,11,14)           109.4482         estimate D2E/DX2                !
 ! A24   A(13,11,14)           109.4436         estimate D2E/DX2                !
 ! A25   A(9,15,16)            120.4983         estimate D2E/DX2                !
 ! A26   A(9,15,17)            116.6018         estimate D2E/DX2                !
 ! A27   A(16,15,17)           122.8999         estimate D2E/DX2                !
 ! A28   A(15,17,18)           119.9973         estimate D2E/DX2                !
 ! A29   A(15,17,19)           121.9018         estimate D2E/DX2                !
 ! A30   A(18,17,19)           118.1009         estimate D2E/DX2                !
 ! A31   A(17,19,20)           109.5017         estimate D2E/DX2                !
 ! A32   A(17,19,21)           109.4995         estimate D2E/DX2                !
 ! A33   A(17,19,22)           109.5054         estimate D2E/DX2                !
 ! A34   A(20,19,21)           109.4395         estimate D2E/DX2                !
 ! A35   A(20,19,22)           109.4443         estimate D2E/DX2                !
 ! A36   A(21,19,22)           109.4369         estimate D2E/DX2                !
 ! D1    D(1,2,5,6)             -0.0011         estimate D2E/DX2                !
 ! D2    D(1,2,5,7)           -179.9967         estimate D2E/DX2                !
 ! D3    D(3,2,5,6)            120.5137         estimate D2E/DX2                !
 ! D4    D(3,2,5,7)            -59.482          estimate D2E/DX2                !
 ! D5    D(4,2,5,6)           -120.5106         estimate D2E/DX2                !
 ! D6    D(4,2,5,7)             59.4937         estimate D2E/DX2                !
 ! D7    D(2,5,7,8)             -0.006          estimate D2E/DX2                !
 ! D8    D(2,5,7,9)            179.9978         estimate D2E/DX2                !
 ! D9    D(6,5,7,8)            179.9985         estimate D2E/DX2                !
 ! D10   D(6,5,7,9)              0.0022         estimate D2E/DX2                !
 ! D11   D(5,7,9,10)           -45.0032         estimate D2E/DX2                !
 ! D12   D(5,7,9,11)            74.9994         estimate D2E/DX2                !
 ! D13   D(5,7,9,15)          -165.003          Frozen                          !
 ! D14   D(8,7,9,10)           135.0006         estimate D2E/DX2                !
 ! D15   D(8,7,9,11)          -104.9969         estimate D2E/DX2                !
 ! D16   D(8,7,9,15)            15.0007         estimate D2E/DX2                !
 ! D17   D(7,9,11,12)           60.0024         estimate D2E/DX2                !
 ! D18   D(7,9,11,13)          179.9986         estimate D2E/DX2                !
 ! D19   D(7,9,11,14)          -60.0038         estimate D2E/DX2                !
 ! D20   D(10,9,11,12)        -179.4843         estimate D2E/DX2                !
 ! D21   D(10,9,11,13)         -59.4881         estimate D2E/DX2                !
 ! D22   D(10,9,11,14)          60.5095         estimate D2E/DX2                !
 ! D23   D(15,9,11,12)         -61.938          estimate D2E/DX2                !
 ! D24   D(15,9,11,13)          58.0582         estimate D2E/DX2                !
 ! D25   D(15,9,11,14)         178.0558         estimate D2E/DX2                !
 ! D26   D(7,9,15,16)         -105.0004         estimate D2E/DX2                !
 ! D27   D(7,9,15,17)           74.9976         Frozen                          !
 ! D28   D(10,9,15,16)         134.4885         estimate D2E/DX2                !
 ! D29   D(10,9,15,17)         -45.5135         estimate D2E/DX2                !
 ! D30   D(11,9,15,16)          16.9416         estimate D2E/DX2                !
 ! D31   D(11,9,15,17)        -163.0604         estimate D2E/DX2                !
 ! D32   D(9,15,17,18)           0.0053         estimate D2E/DX2                !
 ! D33   D(9,15,17,19)         179.9963         estimate D2E/DX2                !
 ! D34   D(16,15,17,18)       -179.9968         estimate D2E/DX2                !
 ! D35   D(16,15,17,19)         -0.0058         estimate D2E/DX2                !
 ! D36   D(15,17,19,20)          0.0081         estimate D2E/DX2                !
 ! D37   D(15,17,19,21)        120.0052         estimate D2E/DX2                !
 ! D38   D(15,17,19,22)       -119.9986         estimate D2E/DX2                !
 ! D39   D(18,17,19,20)        179.9991         estimate D2E/DX2                !
 ! D40   D(18,17,19,21)        -60.0037         estimate D2E/DX2                !
 ! D41   D(18,17,19,22)         59.9925         estimate D2E/DX2                !
 --------------------------------------------------------------------------------
 Trust Radius=3.00D-01 FncErr=1.00D-07 GrdErr=1.00D-07
 Number of steps in this run= 108 maximum allowed number of steps= 132.
 GradGradGradGradGradGradGradGradGradGradGradGradGradGradGradGradGradGrad

                          Input orientation:                          
 ---------------------------------------------------------------------
 Center     Atomic      Atomic             Coordinates (Angstroms)
 Number     Number       Type             X           Y           Z
 ---------------------------------------------------------------------
      1          1           0        1.970200    1.060100    0.509500
      2          6           0        1.985000    2.120300    0.256800
      3          1           0        1.377200    2.673500    0.972800
      4          1           0        1.582000    2.260900   -0.746200
      5          6           0        3.410300    2.675400    0.293300
      6          8           0        4.356600    1.945900    0.581100
      7          7           0        3.555400    3.969700    0.000000
      8          1           0        2.746600    4.529000   -0.230600
      9          6           0        4.853300    4.613900    0.000000
     10          1           0        5.407600    4.315500    0.889800
     11          6           0        5.661300    4.220800   -1.232200
     12          1           0        5.123300    4.521400   -2.131200
     13          1           0        6.630500    4.718900   -1.205800
     14          1           0        5.808500    3.140900   -1.241400
     15          6           0        4.712700    6.129400    0.000000
     16          8           0        4.928000    6.775800   -1.022900
     17          7           0        4.349800    6.696100    1.153000
     18          1           0        4.183900    6.122300    1.967500
     19          6           0        4.182100    8.129500    1.282300
     20          1           0        4.394800    8.608400    0.326600
     21          1           0        3.156700    8.350600    1.578600
     22          1           0        4.868300    8.509400    2.039200
 ---------------------------------------------------------------------
                    Distance matrix (angstroms):
                    1          2          3          4          5
     1  H    0.000000
     2  C    1.090000   0.000000
     3  H    1.780268   1.090003   0.000000
     4  H    1.780282   1.090040   1.779647   0.000000
     5  C    2.174816   1.530016   2.143646   2.143607   0.000000
     6  O    2.546502   2.400015   3.091869   3.091821   1.229017
     7  N    3.352346   2.439751   2.714964   2.714981   1.335025
     8  H    3.630952   2.572825   2.601213   2.601233   2.037352
     9  C    4.604492   3.809348   4.098141   4.098149   2.434349
    10  H    4.749524   4.115068   4.352836   4.640376   2.652348
    11  C    5.162147   4.488252   5.060600   4.551713   3.127685
    12  H    5.375494   4.617007   5.204115   4.423674   3.495752
    13  H    6.168263   5.520198   6.043767   5.633857   4.097912
    14  H    4.704033   4.231475   4.975697   4.345449   2.885023
    15  C    5.786078   4.855839   4.900525   5.032235   3.703024
    16  O    6.615592   5.654428   5.780992   5.626420   4.566079
    17  N    6.151511   5.228135   5.005011   5.562255   4.217555
    18  H    5.714202   4.876234   4.556448   5.389291   3.909287
    19  C    7.447559   6.479922   6.142572   6.731701   5.596517
    20  H    7.930257   6.921521   6.689284   7.025205   6.014220
    21  H    7.463387   6.475853   5.980224   6.705880   5.824449
    22  H    8.138245   7.232632   6.883511   7.589596   6.261748
                    6          7          8          9         10
     6  O    0.000000
     7  N    2.252857   0.000000
     8  H    3.150137   1.010025   0.000000
     9  C    2.775358   1.448978   2.120983   0.000000
    10  H    2.610537   2.083739   2.895134   1.089970   0.000000
    11  C    3.188333   2.452791   3.097364   1.525027   2.139209
    12  H    3.818062   2.702720   3.043196   2.150225   3.041326
    13  H    4.006640   3.386959   4.008959   2.150214   2.459625
    14  H    2.618691   2.702673   3.510523   2.150165   2.466256
    15  C    4.238650   2.450234   2.545586   1.522008   2.136554
    16  O    5.121255   3.287028   3.230225   2.392847   3.153017
    17  N    4.784508   3.064920   3.030004   2.432792   2.618296
    18  H    4.403890   2.983246   3.071820   2.567961   2.433805
    19  C    6.225676   4.397838   4.160905   3.801874   4.025233
    20  H    6.667468   4.725336   4.434923   4.033971   4.446566
    21  H    6.592037   4.673674   4.248060   4.396971   4.671512
    22  H    6.742954   5.146933   5.049474   4.396986   4.381867
                   11         12         13         14         15
    11  C    0.000000
    12  H    1.089957   0.000000
    13  H    1.090023   1.779613   0.000000
    14  H    1.089925   1.779613   1.779617   0.000000
    15  C    2.461892   2.701161   2.668599   3.416575   0.000000
    16  O    2.666376   2.519681   2.676340   3.746401   1.229029
    17  N    3.679174   4.014174   3.830777   4.527737   1.335011
    18  H    4.004559   4.499411   4.245611   4.671735   2.037336
    19  C    4.877364   5.055317   4.880317   5.822402   2.434385
    20  H    4.825444   4.824423   4.740761   5.860949   2.520549
    21  H    5.588279   5.682685   5.745382   6.490410   3.137968
    22  H    5.451880   5.775933   5.291811   6.361376   3.137985
                   16         17         18         19         20
    16  O    0.000000
    17  N    2.252822   0.000000
    18  H    3.150117   1.010039   0.000000
    19  C    2.775395   1.448957   2.120932   0.000000
    20  H    2.337493   2.083711   2.986256   1.089931   0.000000
    21  H    3.519276   2.083745   2.484291   1.090011   1.779566
    22  H    3.519288   2.083807   2.484309   1.089996   1.779607
                   21         22
    21  H    0.000000
    22  H    1.779591   0.000000
 Stoichiometry    C6H12N2O2
 Framework group  C1[X(C6H12N2O2)]
 Deg. of freedom    60
 Full point group                 C1      NOp   1
 Largest Abelian subgroup         C1      NOp   1
 Largest concise Abelian subgroup C1      NOp   1
                         Standard orientation:                         
 ---------------------------------------------------------------------
 Center     Atomic      Atomic             Coordinates (Angstroms)
 Number     Number       Type             X           Y           Z
 ---------------------------------------------------------------------
      1          1           0       -4.102698   -1.308344    0.282177
      2          6           0       -3.090232   -1.308801    0.685925
      3          1           0       -2.669252   -2.311457    0.611345
      4          1           0       -3.115504   -1.002833    1.731837
      5          6           0       -2.189445   -0.341593   -0.084817
      6          8           0       -2.635987    0.311487   -1.025333
      7          7           0       -0.920197   -0.255499    0.320015
      8          1           0       -0.599618   -0.813028    1.098822
      9          6           0        0.032041    0.623837   -0.327710
     10          1           0       -0.063089    0.529596   -1.409423
     11          6           0       -0.213491    2.078644    0.058244
     12          1           0       -0.112623    2.190697    1.137723
     13          1           0        0.515581    2.715838   -0.442343
     14          1           0       -1.218986    2.370612   -0.244527
     15          6           0        1.459167    0.272254    0.067525
     16          8           0        2.078379    0.977543    0.861033
     17          7           0        1.980967   -0.823274   -0.489070
     18          1           0        1.432275   -1.371121   -1.136357
     19          6           0        3.329472   -1.263859   -0.194288
     20          1           0        3.790247   -0.575940    0.514516
     21          1           0        3.299131   -2.263932    0.238213
     22          1           0        3.914944   -1.283809   -1.113481
 ---------------------------------------------------------------------
 Rotational constants (GHZ):      2.3653027      0.7123573      0.6167906
 Standard basis: 6-31G(d) (6D, 7F)
 There are   174 symmetry adapted basis functions of A   symmetry.
 Integral buffers will be    131072 words long.
 Raffenetti 1 integral format.
 Two-electron integral symmetry is turned on.
   174 basis functions,   328 primitive gaussians,   174 cartesian basis functions
    39 alpha electrons       39 beta electrons
       nuclear repulsion energy       553.1172635143 Hartrees.
 NAtoms=   22 NActive=   22 NUniq=   22 SFac= 7.50D-01 NAtFMM=   80 NAOKFM=F Big=F
 One-electron integrals computed using PRISM.
 NBasis=   174 RedAO= T  NBF=   174
 NBsUse=   174 1.00D-06 NBFU=   174
 Harris functional with IExCor=  205 diagonalized for initial guess.
 ExpMin= 1.61D-01 ExpMax= 5.48D+03 ExpMxC= 8.25D+02 IAcc=1 IRadAn=         1 AccDes= 0.00D+00
 HarFok:  IExCor=  205 AccDes= 0.00D+00 IRadAn=         1 IDoV= 1
 ScaDFX=  1.000000  1.000000  1.000000  1.000000
 FoFCou: FMM=F IPFlag=           0 FMFlag=      100000 FMFlg1=           0
         NFxFlg=           0 DoJE=T BraDBF=F KetDBF=T FulRan=T
         Omega=  0.000000  0.000000  1.000000  0.000000  0.000000 ICntrl=     500 IOpCl=  0
         NMat0=    1 NMatS0=    1 NMatT0=    0 NMatD0=    1 NMtDS0=    0 NMtDT0=    0
         I1Cent=           4 NGrid=           0.
 Petite list used in FoFCou.
 Initial guess orbital symmetries:
       Occupied  (A) (A) (A) (A) (A) (A) (A) (A) (A) (A) (A) (A)
                 (A) (A) (A) (A) (A) (A) (A) (A) (A) (A) (A) (A)
                 (A) (A) (A) (A) (A) (A) (A) (A) (A) (A) (A) (A)
                 (A) (A) (A)
       Virtual   (A) (A) (A) (A) (A) (A) (A) (A) (A) (A) (A) (A)
                 (A) (A) (A) (A) (A) (A) (A) (A) (A) (A) (A) (A)
                 (A) (A) (A) (A) (A) (A) (A) (A) (A) (A) (A) (A)
                 (A) (A) (A) (A) (A) (A) (A) (A) (A) (A) (A) (A)
                 (A) (A) (A) (A) (A) (A) (A) (A) (A) (A) (A) (A)
                 (A) (A) (A) (A) (A) (A) (A) (A) (A) (A) (A) (A)
                 (A) (A) (A) (A) (A) (A) (A) (A) (A) (A) (A) (A)
                 (A) (A) (A) (A) (A) (A) (A) (A) (A) (A) (A) (A)
                 (A) (A) (A) (A) (A) (A) (A) (A) (A) (A) (A) (A)
                 (A) (A) (A) (A) (A) (A) (A) (A) (A) (A) (A) (A)
                 (A) (A) (A) (A) (A) (A) (A) (A) (A) (A) (A) (A)
                 (A) (A) (A)
 The electronic state of the initial guess is 1-A.
 Requested convergence on RMS density matrix=1.00D-08 within 128 cycles.
 Requested convergence on MAX density matrix=1.00D-06.
 Requested convergence on             energy=1.00D-06.
 No special actions if energy rises.
 Integral accuracy reduced to 1.0D-05 until final iterations.
 Initial convergence to 1.0D-05 achieved.  Increase integral accuracy.
 SCF Done:  E(RHF) =  -492.845471230     A.U. after   15 cycles
             Convg  =    0.5101D-08             -V/T =  2.0020

 **********************************************************************

            Population analysis using the SCF density.

 **********************************************************************

 Orbital symmetries:
       Occupied  (A) (A) (A) (A) (A) (A) (A) (A) (A) (A) (A) (A)
                 (A) (A) (A) (A) (A) (A) (A) (A) (A) (A) (A) (A)
                 (A) (A) (A) (A) (A) (A) (A) (A) (A) (A) (A) (A)
                 (A) (A) (A)
       Virtual   (A) (A) (A) (A) (A) (A) (A) (A) (A) (A) (A) (A)
                 (A) (A) (A) (A) (A) (A) (A) (A) (A) (A) (A) (A)
                 (A) (A) (A) (A) (A) (A) (A) (A) (A) (A) (A) (A)
                 (A) (A) (A) (A) (A) (A) (A) (A) (A) (A) (A) (A)
                 (A) (A) (A) (A) (A) (A) (A) (A) (A) (A) (A) (A)
                 (A) (A) (A) (A) (A) (A) (A) (A) (A) (A) (A) (A)
                 (A) (A) (A) (A) (A) (A) (A) (A) (A) (A) (A) (A)
                 (A) (A) (A) (A) (A) (A) (A) (A) (A) (A) (A) (A)
                 (A) (A) (A) (A) (A) (A) (A) (A) (A) (A) (A) (A)
                 (A) (A) (A) (A) (A) (A) (A) (A) (A) (A) (A) (A)
                 (A) (A) (A) (A) (A) (A) (A) (A) (A) (A) (A) (A)
                 (A) (A) (A)
 The electronic state is 1-A.
 Alpha  occ. eigenvalues --  -20.52657 -20.52178 -15.60273 -15.60187 -11.35491
 Alpha  occ. eigenvalues --  -11.35441 -11.28166 -11.26746 -11.24138 -11.20397
 Alpha  occ. eigenvalues --   -1.38589  -1.37603  -1.25173  -1.23887  -1.05605
 Alpha  occ. eigenvalues --   -0.99091  -0.96743  -0.87436  -0.80336  -0.79597
 Alpha  occ. eigenvalues --   -0.73836  -0.67216  -0.65829  -0.65167  -0.63103
 Alpha  occ. eigenvalues --   -0.62251  -0.59624  -0.58350  -0.56770  -0.56140
 Alpha  occ. eigenvalues --   -0.55524  -0.53298  -0.52032  -0.50999  -0.49077
 Alpha  occ. eigenvalues --   -0.42579  -0.41582  -0.40148  -0.38867
 Alpha virt. eigenvalues --    0.18179   0.19647   0.21400   0.22055   0.25991
 Alpha virt. eigenvalues --    0.27259   0.27785   0.30001   0.31026   0.31691
 Alpha virt. eigenvalues --    0.31880   0.32955   0.33558   0.34982   0.36521
 Alpha virt. eigenvalues --    0.39274   0.41097   0.43422   0.46346   0.50793
 Alpha virt. eigenvalues --    0.52723   0.57877   0.61162   0.71206   0.71716
 Alpha virt. eigenvalues --    0.72760   0.74260   0.75196   0.77142   0.78817
 Alpha virt. eigenvalues --    0.79888   0.83440   0.84887   0.87054   0.88816
 Alpha virt. eigenvalues --    0.91480   0.94279   0.94590   0.98089   0.98691
 Alpha virt. eigenvalues --    1.00178   1.01070   1.01827   1.07424   1.09374
 Alpha virt. eigenvalues --    1.10492   1.11651   1.13585   1.14454   1.14755
 Alpha virt. eigenvalues --    1.16467   1.17226   1.18117   1.19053   1.19186
 Alpha virt. eigenvalues --    1.20420   1.21107   1.21559   1.24266   1.25388
 Alpha virt. eigenvalues --    1.27103   1.32811   1.37664   1.40235   1.40695
 Alpha virt. eigenvalues --    1.45005   1.54333   1.55792   1.58744   1.61172
 Alpha virt. eigenvalues --    1.62426   1.63185   1.68624   1.71882   1.76095
 Alpha virt. eigenvalues --    1.77729   1.84379   1.88081   1.89659   1.96685
 Alpha virt. eigenvalues --    2.03915   2.06878   2.07023   2.12120   2.12916
 Alpha virt. eigenvalues --    2.14570   2.16097   2.16914   2.18862   2.21548
 Alpha virt. eigenvalues --    2.23032   2.24557   2.28050   2.31400   2.35417
 Alpha virt. eigenvalues --    2.36633   2.38789   2.40962   2.46250   2.49497
 Alpha virt. eigenvalues --    2.51250   2.56349   2.58459   2.62108   2.62866
 Alpha virt. eigenvalues --    2.64926   2.65143   2.70520   2.73183   2.73612
 Alpha virt. eigenvalues --    2.77065   2.80025   2.88217   2.94881   2.98666
 Alpha virt. eigenvalues --    3.00958   3.03302   3.09786   3.12649   3.26968
 Alpha virt. eigenvalues --    3.28311   3.34601   3.38751   3.52973   3.57102
 Alpha virt. eigenvalues --    4.39371   4.41270   4.45953   4.51711   4.62676
 Alpha virt. eigenvalues --    4.65018   4.71814   4.84996   4.86858   5.05059
          Condensed to atoms (all electrons):
              1          2          3          4          5          6
     1  H    0.451760   0.385766  -0.018696  -0.018045  -0.029991   0.003563
     2  C    0.385766   5.249736   0.373401   0.375404   0.377393  -0.067766
     3  H   -0.018696   0.373401   0.520050  -0.024334  -0.035417   0.001305
     4  H   -0.018045   0.375404  -0.024334   0.509906  -0.035788   0.001159
     5  C   -0.029991   0.377393  -0.035417  -0.035788   4.187673   0.594869
     6  O    0.003563  -0.067766   0.001305   0.001159   0.594869   8.184597
     7  N    0.003802  -0.122408   0.003648   0.003702   0.238978  -0.106852
     8  H   -0.000011  -0.000997   0.000668   0.000503  -0.018740   0.002272
     9  C   -0.000079   0.004552  -0.000220  -0.000171  -0.025509   0.012224
    10  H    0.000000   0.000178  -0.000013  -0.000005  -0.002450   0.004589
    11  C    0.000005  -0.000365   0.000003   0.000051  -0.003029  -0.006389
    12  H    0.000000  -0.000017   0.000000  -0.000001   0.000134   0.000005
    13  H    0.000000   0.000004   0.000000   0.000000   0.000077   0.000035
    14  H    0.000000   0.000161  -0.000001  -0.000027   0.002226   0.006032
    15  C    0.000000   0.000024  -0.000008  -0.000010   0.003986   0.000550
    16  O    0.000000   0.000000   0.000000   0.000000  -0.000101  -0.000001
    17  N    0.000000  -0.000010   0.000000   0.000000  -0.000084   0.000000
    18  H    0.000000   0.000001   0.000002   0.000000  -0.000002  -0.000015
    19  C    0.000000   0.000000   0.000000   0.000000   0.000004   0.000000
    20  H    0.000000   0.000000   0.000000   0.000000   0.000000   0.000000
    21  H    0.000000   0.000000   0.000000   0.000000   0.000000   0.000000
    22  H    0.000000   0.000000   0.000000   0.000000   0.000000   0.000000
              7          8          9         10         11         12
     1  H    0.003802  -0.000011  -0.000079   0.000000   0.000005   0.000000
     2  C   -0.122408  -0.000997   0.004552   0.000178  -0.000365  -0.000017
     3  H    0.003648   0.000668  -0.000220  -0.000013   0.000003   0.000000
     4  H    0.003702   0.000503  -0.000171  -0.000005   0.000051  -0.000001
     5  C    0.238978  -0.018740  -0.025509  -0.002450  -0.003029   0.000134
     6  O   -0.106852   0.002272   0.012224   0.004589  -0.006389   0.000005
     7  N    7.438587   0.321799   0.157443  -0.042457  -0.066666   0.000185
     8  H    0.321799   0.320201  -0.025996   0.002750   0.002674   0.000444
     9  C    0.157443  -0.025996   5.092722   0.409072   0.359485  -0.035584
    10  H   -0.042457   0.002750   0.409072   0.496872  -0.041200   0.004123
    11  C   -0.066666   0.002674   0.359485  -0.041200   5.116214   0.389385
    12  H    0.000185   0.000444  -0.035584   0.004123   0.389385   0.508729
    13  H    0.004586  -0.000081  -0.038865   0.000186   0.389543  -0.019699
    14  H   -0.005261  -0.000142  -0.032878  -0.003671   0.386790  -0.025822
    15  C   -0.031849  -0.004375   0.347944  -0.044103  -0.059364  -0.005951
    16  O    0.000165   0.000691  -0.080609   0.001718  -0.002327   0.003447
    17  N    0.001662   0.002516  -0.122009   0.002343   0.004237   0.000113
    18  H    0.002244   0.000073  -0.000312   0.000311   0.000131  -0.000006
    19  C   -0.000159  -0.000083   0.004175  -0.000168  -0.000112  -0.000002
    20  H   -0.000015  -0.000009   0.000600  -0.000021  -0.000011  -0.000003
    21  H    0.000022  -0.000010  -0.000069  -0.000003   0.000000   0.000000
    22  H   -0.000002   0.000002  -0.000102  -0.000002   0.000004   0.000000
             13         14         15         16         17         18
     1  H    0.000000   0.000000   0.000000   0.000000   0.000000   0.000000
     2  C    0.000004   0.000161   0.000024   0.000000  -0.000010   0.000001
     3  H    0.000000  -0.000001  -0.000008   0.000000   0.000000   0.000002
     4  H    0.000000  -0.000027  -0.000010   0.000000   0.000000   0.000000
     5  C    0.000077   0.002226   0.003986  -0.000101  -0.000084  -0.000002
     6  O    0.000035   0.006032   0.000550  -0.000001   0.000000  -0.000015
     7  N    0.004586  -0.005261  -0.031849   0.000165   0.001662   0.002244
     8  H   -0.000081  -0.000142  -0.004375   0.000691   0.002516   0.000073
     9  C   -0.038865  -0.032878   0.347944  -0.080609  -0.122009  -0.000312
    10  H    0.000186  -0.003671  -0.044103   0.001718   0.002343   0.000311
    11  C    0.389543   0.386790  -0.059364  -0.002327   0.004237   0.000131
    12  H   -0.019699  -0.025822  -0.005951   0.003447   0.000113  -0.000006
    13  H    0.520655  -0.023348  -0.001696   0.000001  -0.000055  -0.000016
    14  H   -0.023348   0.493111   0.005143   0.000586  -0.000044  -0.000008
    15  C   -0.001696   0.005143   4.217161   0.588559   0.287908  -0.021326
    16  O    0.000001   0.000586   0.588559   8.203053  -0.097129   0.002299
    17  N   -0.000055  -0.000044   0.287908  -0.097129   7.322359   0.325671
    18  H   -0.000016  -0.000008  -0.021326   0.002299   0.325671   0.320285
    19  C   -0.000002   0.000002  -0.025747  -0.004758   0.184529  -0.022171
    20  H   -0.000001   0.000000  -0.001612   0.010459  -0.031827   0.002278
    21  H    0.000000   0.000000   0.000996   0.000384  -0.047973  -0.001046
    22  H    0.000000   0.000000   0.000759   0.000375  -0.047157  -0.001008
             19         20         21         22
     1  H    0.000000   0.000000   0.000000   0.000000
     2  C    0.000000   0.000000   0.000000   0.000000
     3  H    0.000000   0.000000   0.000000   0.000000
     4  H    0.000000   0.000000   0.000000   0.000000
     5  C    0.000004   0.000000   0.000000   0.000000
     6  O    0.000000   0.000000   0.000000   0.000000
     7  N   -0.000159  -0.000015   0.000022  -0.000002
     8  H   -0.000083  -0.000009  -0.000010   0.000002
     9  C    0.004175   0.000600  -0.000069  -0.000102
    10  H   -0.000168  -0.000021  -0.000003  -0.000002
    11  C   -0.000112  -0.000011   0.000000   0.000004
    12  H   -0.000002  -0.000003   0.000000   0.000000
    13  H   -0.000002  -0.000001   0.000000   0.000000
    14  H    0.000002   0.000000   0.000000   0.000000
    15  C   -0.025747  -0.001612   0.000996   0.000759
    16  O   -0.004758   0.010459   0.000384   0.000375
    17  N    0.184529  -0.031827  -0.047973  -0.047157
    18  H   -0.022171   0.002278  -0.001046  -0.001008
    19  C    4.957635   0.396206   0.402060   0.403216
    20  H    0.396206   0.429540  -0.022579  -0.022008
    21  H    0.402060  -0.022579   0.535276  -0.036046
    22  H    0.403216  -0.022008  -0.036046   0.526940
 Mulliken atomic charges:
              1
     1  H    0.221926
     2  C   -0.575057
     3  H    0.179611
     4  H    0.187655
     5  C    0.745772
     6  O   -0.630175
     7  N   -0.801154
     8  H    0.395848
     9  C   -0.025815
    10  H    0.211953
    11  C   -0.469062
    12  H    0.180518
    13  H    0.168678
    14  H    0.197153
    15  C    0.743010
    16  O   -0.626811
    17  N   -0.785050
    18  H    0.392612
    19  C   -0.294624
    20  H    0.239001
    21  H    0.168986
    22  H    0.175029
 Sum of Mulliken atomic charges =   0.00000
 Mulliken charges with hydrogens summed into heavy atoms:
              1
     2  C    0.014134
     5  C    0.745772
     6  O   -0.630175
     7  N   -0.405306
     9  C    0.186138
    11  C    0.077286
    15  C    0.743010
    16  O   -0.626811
    17  N   -0.392439
    19  C    0.288392
 Sum of Mulliken charges with hydrogens summed into heavy atoms =   0.00000
 Electronic spatial extent (au):  <R**2>=           1916.4792
 Charge=              0.0000 electrons
 Dipole moment (field-independent basis, Debye):
    X=              1.0937    Y=             -4.6880    Z=              0.4414  Tot=              4.8341
 Quadrupole moment (field-independent basis, Debye-Ang):
   XX=            -65.9452   YY=            -58.6557   ZZ=            -61.9779
   XY=             -2.0834   XZ=            -12.4830   YZ=             -1.2939
 Traceless Quadrupole moment (field-independent basis, Debye-Ang):
   XX=             -3.7523   YY=              3.5372   ZZ=              0.2150
   XY=             -2.0834   XZ=            -12.4830   YZ=             -1.2939
 Octapole moment (field-independent basis, Debye-Ang**2):
  XXX=             21.7377  YYY=             -6.7416  ZZZ=              0.9204  XYY=             -2.0988
  XXY=            -31.6409  XXZ=             11.0551  XZZ=              4.6403  YZZ=             -5.8830
  YYZ=             -4.6557  XYZ=             -4.6608
 Hexadecapole moment (field-independent basis, Debye-Ang**3):
 XXXX=          -1714.2277 YYYY=           -518.1401 ZZZZ=           -188.3649 XXXY=             -5.3171
 XXXZ=            -61.7739 YYYX=             -8.4165 YYYZ=              0.6588 ZZZX=             -7.9218
 ZZZY=              3.8194 XXYY=           -375.2929 XXZZ=           -349.7617 YYZZ=           -117.4682
 XXYZ=             -0.1640 YYXZ=             -5.4858 ZZXY=             -4.3938
 N-N= 5.531172635143D+02 E-N=-2.261326572389D+03  KE= 4.918436265122D+02
 Calling FoFJK, ICntrl=      2127 FMM=F ISym2X=0 I1Cent= 0 IOpClX= 0 NMat=1 NMatS=1 NMatT=0.
 ***** Axes restored to original set *****
 -------------------------------------------------------------------
 Center     Atomic                   Forces (Hartrees/Bohr)
 Number     Number              X              Y              Z
 -------------------------------------------------------------------
      1        1           0.004226142    0.008453602   -0.001533374
      2        6           0.005688206    0.007779726   -0.001454273
      3        1          -0.001870531   -0.002714414   -0.004044191
      4        1          -0.002667470   -0.000712210    0.004427977
      5        6           0.022561456   -0.055062061    0.015267250
      6        8          -0.030762230    0.030254972   -0.009098460
      7        7          -0.014708839    0.025705816    0.002740856
      8        1           0.010346160   -0.010652628    0.001713312
      9        6           0.017088912   -0.004266664   -0.009281420
     10        1          -0.006096986   -0.000693874   -0.001837485
     11        6           0.002794517   -0.007362452   -0.002786012
     12        1           0.005800822   -0.001030337    0.004430133
     13        1          -0.004132085   -0.003256358   -0.003341863
     14        1           0.000132298    0.006095327    0.000276634
     15        6           0.004351550    0.020783354   -0.041262837
     16        8          -0.009275225   -0.019984905    0.037986866
     17        7          -0.004870961   -0.001000932    0.013662639
     18        1           0.003547555    0.006736819   -0.013191322
     19        6          -0.001190014    0.003753161    0.002927800
     20        1          -0.001551673   -0.006172356    0.008235530
     21        1           0.004480574    0.002221945   -0.000673037
     22        1          -0.003892178    0.001124470   -0.003164723
 -------------------------------------------------------------------
 Cartesian Forces:  Max     0.055062061 RMS     0.013715097

 GradGradGradGradGradGradGradGradGradGradGradGradGradGradGradGradGradGrad
 Berny optimization.
 Internal  Forces:  Max     0.043774689 RMS     0.008098990
 Search for a local minimum.
 Step number   1 out of a maximum of  108
 All quantities printed in internal units (Hartrees-Bohrs-Radians)
 Mixed Optimization -- RFO/linear search
 Second derivative matrix not updated -- first step.
     Eigenvalues ---    0.00369   0.00435   0.00999   0.01044   0.01269
     Eigenvalues ---    0.01422   0.01660   0.02551   0.02551   0.03503
     Eigenvalues ---    0.05232   0.05841   0.05844   0.05844   0.07165
     Eigenvalues ---    0.07463   0.07685   0.07686   0.15421   0.16000
     Eigenvalues ---    0.16000   0.16000   0.16000   0.16000   0.16000
     Eigenvalues ---    0.16000   0.16000   0.16000   0.16000   0.16000
     Eigenvalues ---    0.16180   0.22000   0.22000   0.25000   0.25000
     Eigenvalues ---    0.25000   0.25000   0.29422   0.29887   0.30174
     Eigenvalues ---    0.34808   0.34810   0.34811   0.34812   0.34813
     Eigenvalues ---    0.34813   0.34816   0.34818   0.34821   0.34821
     Eigenvalues ---    0.38379   0.38382   0.45966   0.45968   0.58334
     Eigenvalues ---    0.58338   0.91492   0.914971000.000001000.00000
     Eigenvalues --- 1000.000001000.000001000.000001000.000001000.00000
     Eigenvalues --- 1000.000001000.000001000.000001000.000001000.00000
     Eigenvalues --- 1000.000001000.000001000.000001000.000001000.00000
     Eigenvalues --- 1000.000001000.000001000.000001000.000001000.00000
     Eigenvalues --- 1000.000001000.000001000.000001000.000001000.00000
     Eigenvalues --- 1000.000001000.000001000.000001000.000001000.00000
     Eigenvalues --- 1000.000001000.000001000.000001000.000001000.00000
     Eigenvalues --- 1000.000001000.000001000.00000
 RFO step:  Lambda=-1.42256416D-02 EMin= 3.68895939D-03
 Linear search not attempted -- first point.
 Iteration  1 RMS(Cart)=  0.09250601 RMS(Int)=  0.00240241
 Iteration  2 RMS(Cart)=  0.00397093 RMS(Int)=  0.00049488
 Iteration  3 RMS(Cart)=  0.00000731 RMS(Int)=  0.00049486
 Iteration  4 RMS(Cart)=  0.00000001 RMS(Int)=  0.00049486
 Iteration  1 RMS(Cart)=  0.00044300 RMS(Int)=  0.00011394
 Iteration  2 RMS(Cart)=  0.00023610 RMS(Int)=  0.00012725
 Iteration  3 RMS(Cart)=  0.00012600 RMS(Int)=  0.00014353
 Iteration  4 RMS(Cart)=  0.00006739 RMS(Int)=  0.00015423
 Iteration  5 RMS(Cart)=  0.00003619 RMS(Int)=  0.00016050
 Iteration  6 RMS(Cart)=  0.00001956 RMS(Int)=  0.00016408
 Iteration  7 RMS(Cart)=  0.00001067 RMS(Int)=  0.00016609
 Iteration  8 RMS(Cart)=  0.00000591 RMS(Int)=  0.00016723
 Iteration  9 RMS(Cart)=  0.00000334 RMS(Int)=  0.00016788
 Iteration 10 RMS(Cart)=  0.00000194 RMS(Int)=  0.00016825
 Iteration 11 RMS(Cart)=  0.00000116 RMS(Int)=  0.00016847
 Iteration 12 RMS(Cart)=  0.00000071 RMS(Int)=  0.00016859
 Variable       Old X    -DE/DX   Delta X   Delta X   Delta X     New X
                                 (Linear)    (Quad)   (Total)
    R1        2.05980  -0.00864   0.00000  -0.02383  -0.02383   2.03597
    R2        2.05981  -0.00299   0.00000  -0.00825  -0.00825   2.05155
    R3        2.05988  -0.00318   0.00000  -0.00878  -0.00878   2.05110
    R4        2.89131  -0.00959   0.00000  -0.03110  -0.03110   2.86021
    R5        2.32251  -0.04377   0.00000  -0.04711  -0.04711   2.27540
    R6        2.52283   0.01272   0.00000   0.02129   0.02129   2.54413
    R7        1.90867  -0.01457   0.00000  -0.03075  -0.03075   1.87792
    R8        2.73817   0.00508   0.00000   0.01276   0.01276   2.75094
    R9        2.05975  -0.00441   0.00000  -0.01217  -0.01217   2.04757
   R10        2.88188   0.00501   0.00000   0.01602   0.01602   2.89790
   R11        2.87618   0.00821   0.00000   0.02597   0.02597   2.90215
   R12        2.05972  -0.00680   0.00000  -0.01877  -0.01877   2.04095
   R13        2.05984  -0.00524   0.00000  -0.01447  -0.01447   2.04537
   R14        2.05966  -0.00602   0.00000  -0.01662  -0.01662   2.04304
   R15        2.32253  -0.04375   0.00000  -0.04709  -0.04709   2.27544
   R16        2.52281   0.01051   0.00000   0.01758   0.01758   2.54039
   R17        1.90870  -0.01505   0.00000  -0.03175  -0.03175   1.87694
   R18        2.73813   0.00182   0.00000   0.00457   0.00457   2.74271
   R19        2.05967  -0.01024   0.00000  -0.02824  -0.02824   2.03143
   R20        2.05982  -0.00395   0.00000  -0.01089  -0.01089   2.04893
   R21        2.05979  -0.00426   0.00000  -0.01175  -0.01175   2.04805
    A1        1.91111   0.00037   0.00000   0.00005   0.00044   1.91155
    A2        1.91109   0.00042   0.00000  -0.00009   0.00027   1.91136
    A3        1.93907  -0.00813   0.00000  -0.04891  -0.04853   1.89054
    A4        1.91008  -0.00470   0.00000  -0.02220  -0.02301   1.88707
    A5        1.89615   0.00617   0.00000   0.03661   0.03638   1.93253
    A6        1.89606   0.00592   0.00000   0.03496   0.03472   1.93078
    A7        2.10308   0.00888   0.00000   0.03360   0.03353   2.13661
    A8        2.03504  -0.00612   0.00000  -0.02315  -0.02322   2.01182
    A9        2.14506  -0.00276   0.00000  -0.01045  -0.01052   2.13455
   A10        2.09437  -0.00393   0.00000  -0.02051  -0.02121   2.07316
   A11        2.12749   0.00282   0.00000   0.01202   0.01127   2.13876
   A12        2.06132   0.00112   0.00000   0.00849   0.00768   2.06900
   A13        1.91114  -0.00031   0.00000  -0.03143  -0.03252   1.87862
   A14        1.93905   0.00394   0.00000   0.02391   0.02549   1.96453
   A15        1.93900  -0.01243   0.00000  -0.06432  -0.06598   1.87302
   A16        1.89609  -0.00318   0.00000   0.00067   0.00038   1.89647
   A17        1.89608  -0.00076   0.00000   0.00256  -0.00027   1.89581
   A18        1.88137   0.01293   0.00000   0.07075   0.07157   1.95294
   A19        1.91115   0.00242   0.00000   0.01441   0.01433   1.92548
   A20        1.91106   0.00405   0.00000   0.02172   0.02165   1.93271
   A21        1.91110  -0.00056   0.00000  -0.00219  -0.00220   1.90889
   A22        1.91011  -0.00355   0.00000  -0.02242  -0.02255   1.88756
   A23        1.91023  -0.00047   0.00000   0.00033   0.00031   1.91054
   A24        1.91015  -0.00190   0.00000  -0.01188  -0.01188   1.89827
   A25        2.10309   0.00864   0.00000   0.03269   0.03269   2.13578
   A26        2.03509  -0.00875   0.00000  -0.03312  -0.03312   2.00197
   A27        2.14501   0.00011   0.00000   0.00043   0.00043   2.14544
   A28        2.09435  -0.00652   0.00000  -0.03104  -0.03105   2.06329
   A29        2.12759   0.00869   0.00000   0.03711   0.03710   2.16469
   A30        2.06125  -0.00217   0.00000  -0.00607  -0.00608   2.05517
   A31        1.91117  -0.00441   0.00000  -0.02775  -0.02758   1.88358
   A32        1.91113   0.00457   0.00000   0.02768   0.02751   1.93863
   A33        1.91123   0.00406   0.00000   0.02428   0.02409   1.93532
   A34        1.91008  -0.00054   0.00000  -0.00504  -0.00486   1.90522
   A35        1.91016  -0.00052   0.00000  -0.00594  -0.00579   1.90437
   A36        1.91003  -0.00316   0.00000  -0.01325  -0.01374   1.89630
    D1       -0.00002  -0.00031   0.00000  -0.01039  -0.01049  -0.01051
    D2       -3.14154   0.00026   0.00000   0.01067   0.01080  -3.13074
    D3        2.10336  -0.00089   0.00000  -0.01693  -0.01753   2.08583
    D4       -1.03816  -0.00032   0.00000   0.00413   0.00376  -1.03439
    D5       -2.10331   0.00038   0.00000  -0.00262  -0.00226  -2.10557
    D6        1.03836   0.00095   0.00000   0.01844   0.01903   1.05739
    D7       -0.00010   0.00058   0.00000  -0.02219  -0.02135  -0.02145
    D8        3.14155   0.00090   0.00000   0.05242   0.05193  -3.08970
    D9        3.14157   0.00116   0.00000  -0.00058  -0.00009   3.14148
   D10        0.00004   0.00148   0.00000   0.07403   0.07319   0.07323
   D11       -0.78545  -0.00105   0.00000  -0.05787  -0.05672  -0.84218
   D12        1.30899  -0.00272   0.00000  -0.06236  -0.06181   1.24718
   D13       -2.87985   0.00795   0.00000   0.00000   0.00000  -2.87985
   D14        2.35620  -0.00073   0.00000   0.01538   0.01639   2.37260
   D15       -1.83254  -0.00240   0.00000   0.01089   0.01130  -1.82124
   D16        0.26181   0.00827   0.00000   0.07325   0.07311   0.33492
   D17        1.04724  -0.00113   0.00000   0.00830   0.00892   1.05616
   D18        3.14157  -0.00152   0.00000   0.00298   0.00367  -3.13795
   D19       -1.04726  -0.00170   0.00000   0.00040   0.00104  -1.04622
   D20       -3.13259  -0.00113   0.00000  -0.01537  -0.01546   3.13513
   D21       -1.03826  -0.00152   0.00000  -0.02069  -0.02071  -1.05898
   D22        1.05609  -0.00171   0.00000  -0.02327  -0.02334   1.03275
   D23       -1.08102   0.00334   0.00000   0.02678   0.02617  -1.05486
   D24        1.01331   0.00296   0.00000   0.02146   0.02091   1.03422
   D25        3.10766   0.00277   0.00000   0.01888   0.01828   3.12595
   D26       -1.83260  -0.00424   0.00000  -0.00012   0.00019  -1.83242
   D27        1.30895  -0.00486   0.00000   0.00000   0.00000   1.30895
   D28        2.34727   0.00432   0.00000   0.07693   0.07715   2.42442
   D29       -0.79436   0.00370   0.00000   0.07705   0.07697  -0.71739
   D30        0.29569   0.00141   0.00000   0.03600   0.03515   0.33084
   D31       -2.84594   0.00079   0.00000   0.03612   0.03496  -2.81098
   D32        0.00009   0.00064   0.00000   0.00886   0.00898   0.00907
   D33        3.14153   0.00038   0.00000   0.00058   0.00077  -3.14089
   D34       -3.14154   0.00000   0.00000   0.00898   0.00879  -3.13275
   D35       -0.00010  -0.00026   0.00000   0.00071   0.00058   0.00048
   D36        0.00014   0.00003   0.00000   0.00318   0.00322   0.00336
   D37        2.09449  -0.00053   0.00000  -0.00304  -0.00328   2.09121
   D38       -2.09437   0.00089   0.00000   0.01259   0.01287  -2.08150
   D39        3.14158  -0.00022   0.00000  -0.00494  -0.00495   3.13662
   D40       -1.04726  -0.00078   0.00000  -0.01116  -0.01145  -1.05871
   D41        1.04707   0.00064   0.00000   0.00447   0.00469   1.05176
         Item               Value     Threshold  Converged?
 Maximum Force            0.043775     0.000450     NO 
 RMS     Force            0.008064     0.000300     NO 
 Maximum Displacement     0.284853     0.001800     NO 
 RMS     Displacement     0.093362     0.001200     NO 
 Predicted change in Energy=-7.651438D-03
 GradGradGradGradGradGradGradGradGradGradGradGradGradGradGradGradGradGrad

                          Input orientation:                          
 ---------------------------------------------------------------------
 Center     Atomic      Atomic             Coordinates (Angstroms)
 Number     Number       Type             X           Y           Z
 ---------------------------------------------------------------------
      1          1           0        1.967105    1.179034    0.551459
      2          6           0        1.981018    2.218744    0.269365
      3          1           0        1.355059    2.787717    0.949842
      4          1           0        1.577168    2.328101   -0.732148
      5          6           0        3.412579    2.707197    0.323256
      6          8           0        4.326260    1.993718    0.648774
      7          7           0        3.589785    4.003579    0.006242
      8          1           0        2.798410    4.544679   -0.255438
      9          6           0        4.906259    4.621906   -0.054795
     10          1           0        5.438036    4.351907    0.849832
     11          6           0        5.722844    4.149077   -1.263618
     12          1           0        5.212684    4.399514   -2.182025
     13          1           0        6.695636    4.623394   -1.278170
     14          1           0        5.858991    3.078016   -1.207625
     15          6           0        4.696698    6.143259   -0.064912
     16          8           0        4.829226    6.805668   -1.061674
     17          7           0        4.354977    6.671244    1.123213
     18          1           0        4.272381    6.060594    1.902189
     19          6           0        4.107692    8.084402    1.343052
     20          1           0        4.244062    8.593728    0.406258
     21          1           0        3.096413    8.252994    1.695870
     22          1           0        4.800818    8.489227    2.071252
 ---------------------------------------------------------------------
                    Distance matrix (angstroms):
                    1          2          3          4          5
     1  H    0.000000
     2  C    1.077389   0.000000
     3  H    1.766683   1.085635   0.000000
     4  H    1.766368   1.085395   1.757745   0.000000
     5  C    2.115834   1.513558   2.152320   2.150890   0.000000
     6  O    2.497757   2.386367   3.090164   3.094554   1.204087
     7  N    3.302788   2.417230   2.713430   2.720859   1.346293
     8  H    3.559455   2.520619   2.573496   2.575248   2.021986
     9  C    4.567224   3.799645   4.121234   4.099170   2.457664
    10  H    4.712060   4.103450   4.373487   4.637321   2.661733
    11  C    5.120667   4.480790   5.082347   4.559061   3.151905
    12  H    5.327027   4.605295   5.223769   4.428304   3.518629
    13  H    6.129451   5.514058   6.070874   5.636065   4.124905
    14  H    4.674108   4.237750   5.002433   4.372924   2.909645
    15  C    5.698607   4.784190   4.843133   4.973138   3.688652
    16  O    6.515592   5.560920   5.679786   5.543742   4.552184
    17  N    6.016079   5.117567   4.910331   5.479186   4.152314
    18  H    5.564926   4.761961   4.486587   5.304282   3.804939
    19  C    7.272747   6.330995   5.982181   6.621557   5.517019
    20  H    7.757790   6.766131   6.507810   6.904084   5.945544
    21  H    7.254373   6.300095   5.784300   6.580861   5.721878
    22  H    7.986152   7.107534   6.755594   7.497363   6.197949
                    6          7          8          9         10
     6  O    0.000000
     7  N    2.234901   0.000000
     8  H    3.107945   0.993750   0.000000
     9  C    2.781866   1.455733   2.118785   0.000000
    10  H    2.614866   2.061312   2.868171   1.083530   0.000000
    11  C    3.202070   2.486695   3.118531   1.533503   2.142178
    12  H    3.819296   2.753013   3.092172   2.160663   3.040593
    13  H    4.030168   3.417630   4.029956   2.167607   2.486696
    14  H    2.640299   2.734856   3.524899   2.149491   2.456243
    15  C    4.226731   2.410093   2.489027   1.535751   2.143660
    16  O    5.131614   3.244744   3.144249   2.405941   3.169455
    17  N    4.701613   2.991585   2.974199   2.427221   2.574311
    18  H    4.255988   2.879560   3.020918   2.510261   2.320736
    19  C    6.134022   4.325322   4.098663   3.818451   3.993069
    20  H    6.604975   4.653768   4.350006   4.052955   4.428925
    21  H    6.464323   4.599542   4.200954   4.418730   4.627900
    22  H    6.666355   5.084478   4.998259   4.414450   4.360657
                   11         12         13         14         15
    11  C    0.000000
    12  H    1.080025   0.000000
    13  H    1.082365   1.751063   0.000000
    14  H    1.081130   1.764519   1.758734   0.000000
    15  C    2.542957   2.790888   2.788859   3.471661   0.000000
    16  O    2.810126   2.681754   2.879700   3.870027   1.204111
    17  N    3.732205   4.101344   3.929252   4.539400   1.344315
    18  H    3.972414   4.508233   4.248811   4.591737   2.014042
    19  C    4.989011   5.217814   5.054388   5.885313   2.469277
    20  H    4.972947   5.022834   4.960954   5.969564   2.536076
    21  H    5.700776   5.862251   5.913825   6.545420   3.179976
    22  H    5.550531   5.914876   5.454689   6.414980   3.174525
                   16         17         18         19         20
    16  O    0.000000
    17  N    2.239802   0.000000
    18  H    3.106396   0.993236   0.000000
    19  C    2.817531   1.451377   2.106076   0.000000
    20  H    2.386294   2.054817   2.942003   1.074985   0.000000
    21  H    3.563908   2.100917   2.496415   1.084246   1.759630
    22  H    3.556740   2.098241   2.491202   1.083781   1.758722
                   21         22
    21  H    0.000000
    22  H    1.761169   0.000000
 Stoichiometry    C6H12N2O2
 Framework group  C1[X(C6H12N2O2)]
 Deg. of freedom    60
 Full point group                 C1      NOp   1
 Largest Abelian subgroup         C1      NOp   1
 Largest concise Abelian subgroup C1      NOp   1
                         Standard orientation:                         
 ---------------------------------------------------------------------
 Center     Atomic      Atomic             Coordinates (Angstroms)
 Number     Number       Type             X           Y           Z
 ---------------------------------------------------------------------
      1          1           0       -3.979578   -1.384033    0.308489
      2          6           0       -2.985135   -1.353845    0.721936
      3          1           0       -2.547497   -2.346757    0.687273
      4          1           0       -3.033615   -1.042365    1.760547
      5          6           0       -2.161886   -0.376990   -0.089775
      6          8           0       -2.612992    0.218907   -1.033829
      7          7           0       -0.881225   -0.240104    0.302237
      8          1           0       -0.563814   -0.757310    1.089186
      9          6           0        0.033422    0.702406   -0.325660
     10          1           0       -0.048124    0.573909   -1.398449
     11          6           0       -0.294664    2.159914    0.020259
     12          1           0       -0.227599    2.316529    1.086762
     13          1           0        0.399789    2.834351   -0.463872
     14          1           0       -1.295831    2.391577   -0.315655
     15          6           0        1.455488    0.317102    0.107699
     16          8           0        2.072979    0.947755    0.926762
     17          7           0        1.950974   -0.775584   -0.498696
     18          1           0        1.383441   -1.238309   -1.169748
     19          6           0        3.272070   -1.318631   -0.241208
     20          1           0        3.745610   -0.699633    0.499194
     21          1           0        3.210024   -2.334933    0.131444
     22          1           0        3.873280   -1.316234   -1.142941
 ---------------------------------------------------------------------
 Rotational constants (GHZ):      2.2452440      0.7313446      0.6270178
 Standard basis: 6-31G(d) (6D, 7F)
 There are   174 symmetry adapted basis functions of A   symmetry.
 Integral buffers will be    131072 words long.
 Raffenetti 1 integral format.
 Two-electron integral symmetry is turned on.
   174 basis functions,   328 primitive gaussians,   174 cartesian basis functions
    39 alpha electrons       39 beta electrons
       nuclear repulsion energy       553.9954220130 Hartrees.
 NAtoms=   22 NActive=   22 NUniq=   22 SFac= 7.50D-01 NAtFMM=   80 NAOKFM=F Big=F
 One-electron integrals computed using PRISM.
 NBasis=   174 RedAO= T  NBF=   174
 NBsUse=   174 1.00D-06 NBFU=   174
 Initial guess read from the read-write file.
 B after Tr=     0.000000    0.000000    0.000000
         Rot=    1.000000    0.000000    0.000000    0.000000 Ang=   0.00 deg.
 Initial guess orbital symmetries:
       Occupied  (A) (A) (A) (A) (A) (A) (A) (A) (A) (A) (A) (A)
                 (A) (A) (A) (A) (A) (A) (A) (A) (A) (A) (A) (A)
                 (A) (A) (A) (A) (A) (A) (A) (A) (A) (A) (A) (A)
                 (A) (A) (A)
       Virtual   (A) (A) (A) (A) (A) (A) (A) (A) (A) (A) (A) (A)
                 (A) (A) (A) (A) (A) (A) (A) (A) (A) (A) (A) (A)
                 (A) (A) (A) (A) (A) (A) (A) (A) (A) (A) (A) (A)
                 (A) (A) (A) (A) (A) (A) (A) (A) (A) (A) (A) (A)
                 (A) (A) (A) (A) (A) (A) (A) (A) (A) (A) (A) (A)
                 (A) (A) (A) (A) (A) (A) (A) (A) (A) (A) (A) (A)
                 (A) (A) (A) (A) (A) (A) (A) (A) (A) (A) (A) (A)
                 (A) (A) (A) (A) (A) (A) (A) (A) (A) (A) (A) (A)
                 (A) (A) (A) (A) (A) (A) (A) (A) (A) (A) (A) (A)
                 (A) (A) (A) (A) (A) (A) (A) (A) (A) (A) (A) (A)
                 (A) (A) (A) (A) (A) (A) (A) (A) (A) (A) (A) (A)
                 (A) (A) (A)
 Harris functional with IExCor=  205 diagonalized for initial guess.
 ExpMin= 1.61D-01 ExpMax= 5.48D+03 ExpMxC= 8.25D+02 IAcc=1 IRadAn=         1 AccDes= 0.00D+00
 HarFok:  IExCor=  205 AccDes= 0.00D+00 IRadAn=         1 IDoV= 1
 ScaDFX=  1.000000  1.000000  1.000000  1.000000
 FoFCou: FMM=F IPFlag=           0 FMFlag=      100000 FMFlg1=           0
         NFxFlg=           0 DoJE=T BraDBF=F KetDBF=T FulRan=T
         Omega=  0.000000  0.000000  1.000000  0.000000  0.000000 ICntrl=     500 IOpCl=  0
         NMat0=    1 NMatS0=    1 NMatT0=    0 NMatD0=    1 NMtDS0=    0 NMtDT0=    0
         I1Cent=           4 NGrid=           0.
 Petite list used in FoFCou.
 Requested convergence on RMS density matrix=1.00D-08 within 128 cycles.
 Requested convergence on MAX density matrix=1.00D-06.
 Requested convergence on             energy=1.00D-06.
 No special actions if energy rises.
 Integral accuracy reduced to 1.0D-05 until final iterations.
 Initial convergence to 1.0D-05 achieved.  Increase integral accuracy.
 SCF Done:  E(RHF) =  -492.852599572     A.U. after   14 cycles
             Convg  =    0.5916D-08             -V/T =  2.0015
 Calling FoFJK, ICntrl=      2127 FMM=F ISym2X=0 I1Cent= 0 IOpClX= 0 NMat=1 NMatS=1 NMatT=0.
 ***** Axes restored to original set *****
 -------------------------------------------------------------------
 Center     Atomic                   Forces (Hartrees/Bohr)
 Number     Number              X              Y              Z
 -------------------------------------------------------------------
      1        1          -0.001020542   -0.001613613    0.000373172
      2        6           0.000589939    0.000896589   -0.000813543
      3        1           0.000024612   -0.000122301   -0.000158399
      4        1          -0.000180366   -0.000110195    0.000170046
      5        6           0.003972355   -0.010079789    0.006421072
      6        8          -0.004331003    0.002550930   -0.001734379
      7        7          -0.000239365    0.008132816   -0.000034697
      8        1          -0.000497335   -0.000285485   -0.003032406
      9        6           0.003859402   -0.000595169   -0.005259064
     10        1          -0.000515268   -0.000225783    0.000222338
     11        6          -0.003943688    0.002154136    0.003426151
     12        1          -0.000600389    0.000802599   -0.001418881
     13        1           0.000812283    0.001033808    0.000638847
     14        1          -0.000219781   -0.000125295    0.000477130
     15        6           0.006245025    0.004571008   -0.008956200
     16        8          -0.001436789   -0.005634270    0.003380218
     17        7          -0.003604595    0.002898414    0.008320324
     18        1           0.000126615   -0.001237607    0.000784825
     19        6           0.000604385   -0.003633273   -0.001203215
     20        1           0.000136473    0.001697586   -0.001520288
     21        1          -0.000325410   -0.000620330   -0.000150387
     22        1           0.000543443   -0.000454776    0.000067337
 -------------------------------------------------------------------
 Cartesian Forces:  Max     0.010079789 RMS     0.003134238

 GradGradGradGradGradGradGradGradGradGradGradGradGradGradGradGradGradGrad
 Berny optimization.
 Using GEDIIS/GDIIS optimizer.
 Internal  Forces:  Max     0.009291075 RMS     0.001828059
 Search for a local minimum.
 Step number   2 out of a maximum of  108
 All quantities printed in internal units (Hartrees-Bohrs-Radians)
 Mixed Optimization -- RFO/linear search
 Update second derivatives using D2CorX and points    1    2
 DE= -7.13D-03 DEPred=-7.65D-03 R= 9.32D-01
 SS=  1.41D+00  RLast= 2.81D-01 DXNew= 5.0454D-01 8.4340D-01
 Trust test= 9.32D-01 RLast= 2.81D-01 DXMaxT set to 5.05D-01
 Use linear search instead of GDIIS.
     Eigenvalues ---    0.00369   0.00435   0.00980   0.01044   0.01247
     Eigenvalues ---    0.01394   0.01651   0.02551   0.02557   0.03616
     Eigenvalues ---    0.04987   0.05682   0.05763   0.06012   0.07140
     Eigenvalues ---    0.07337   0.07443   0.07759   0.15081   0.15866
     Eigenvalues ---    0.15975   0.16000   0.16000   0.16000   0.16000
     Eigenvalues ---    0.16000   0.16000   0.16000   0.16000   0.16335
     Eigenvalues ---    0.17587   0.21985   0.22361   0.24334   0.24996
     Eigenvalues ---    0.25000   0.25612   0.29356   0.30015   0.31089
     Eigenvalues ---    0.34738   0.34809   0.34811   0.34812   0.34813
     Eigenvalues ---    0.34814   0.34815   0.34819   0.34819   0.35970
     Eigenvalues ---    0.38249   0.38741   0.45964   0.46463   0.56275
     Eigenvalues ---    0.58360   0.85036   0.915051000.000001000.00000
     Eigenvalues --- 1000.000001000.000001000.000001000.000001000.00000
     Eigenvalues --- 1000.000001000.000001000.000001000.000001000.00000
     Eigenvalues --- 1000.000001000.000001000.000001000.000001000.00000
     Eigenvalues --- 1000.000001000.000001000.000001000.000001000.00000
     Eigenvalues --- 1000.000001000.000001000.000001000.000001000.00000
     Eigenvalues --- 1000.000001000.000001000.000001000.000001000.00000
     Eigenvalues --- 1000.000001000.000001000.000001000.000001000.00000
     Eigenvalues --- 1000.000001000.000001000.00000
 RFO step:  Lambda=-1.46666115D-03 EMin= 3.68891317D-03
 Quartic linear search produced a step of  0.00321.
 Iteration  1 RMS(Cart)=  0.03724052 RMS(Int)=  0.00092299
 Iteration  2 RMS(Cart)=  0.00129715 RMS(Int)=  0.00021001
 Iteration  3 RMS(Cart)=  0.00000138 RMS(Int)=  0.00021001
 Iteration  4 RMS(Cart)=  0.00000000 RMS(Int)=  0.00021001
 Iteration  1 RMS(Cart)=  0.00003923 RMS(Int)=  0.00001129
 Iteration  2 RMS(Cart)=  0.00002190 RMS(Int)=  0.00001255
 Iteration  3 RMS(Cart)=  0.00001241 RMS(Int)=  0.00001427
 Iteration  4 RMS(Cart)=  0.00000716 RMS(Int)=  0.00001554
 Iteration  5 RMS(Cart)=  0.00000422 RMS(Int)=  0.00001637
 Iteration  6 RMS(Cart)=  0.00000254 RMS(Int)=  0.00001691
 Iteration  7 RMS(Cart)=  0.00000156 RMS(Int)=  0.00001726
 Iteration  8 RMS(Cart)=  0.00000098 RMS(Int)=  0.00001748
 Variable       Old X    -DE/DX   Delta X   Delta X   Delta X     New X
                                 (Linear)    (Quad)   (Total)
    R1        2.03597   0.00167  -0.00008   0.00276   0.00268   2.03865
    R2        2.05155  -0.00018  -0.00003  -0.00121  -0.00123   2.05032
    R3        2.05110  -0.00010  -0.00003  -0.00103  -0.00106   2.05004
    R4        2.86021   0.00088  -0.00010   0.00034   0.00024   2.86045
    R5        2.27540  -0.00527  -0.00015  -0.00976  -0.00991   2.26548
    R6        2.54413   0.00929   0.00007   0.01772   0.01779   2.56191
    R7        1.87792   0.00104  -0.00010  -0.00035  -0.00045   1.87746
    R8        2.75094   0.00184   0.00004   0.00586   0.00590   2.75684
    R9        2.04757  -0.00001  -0.00004  -0.00106  -0.00110   2.04647
   R10        2.89790  -0.00576   0.00005  -0.01784  -0.01779   2.88011
   R11        2.90215  -0.00271   0.00008  -0.00675  -0.00666   2.89549
   R12        2.04095   0.00168  -0.00006   0.00321   0.00315   2.04410
   R13        2.04537   0.00117  -0.00005   0.00214   0.00209   2.04747
   R14        2.04304   0.00012  -0.00005  -0.00106  -0.00111   2.04193
   R15        2.27544  -0.00606  -0.00015  -0.01062  -0.01077   2.26467
   R16        2.54039   0.00568   0.00006   0.01121   0.01127   2.55166
   R17        1.87694   0.00137  -0.00010   0.00027   0.00017   1.87712
   R18        2.74271  -0.00352   0.00001  -0.00876  -0.00875   2.73396
   R19        2.03143   0.00215  -0.00009   0.00376   0.00367   2.03509
   R20        2.04893   0.00016  -0.00003  -0.00047  -0.00050   2.04842
   R21        2.04805   0.00022  -0.00004  -0.00036  -0.00039   2.04766
    A1        1.91155  -0.00056   0.00000  -0.00296  -0.00297   1.90859
    A2        1.91136  -0.00060   0.00000  -0.00257  -0.00258   1.90878
    A3        1.89054   0.00144  -0.00016   0.00567   0.00551   1.89605
    A4        1.88707  -0.00021  -0.00007  -0.00484  -0.00491   1.88215
    A5        1.93253  -0.00020   0.00012   0.00122   0.00134   1.93387
    A6        1.93078   0.00011   0.00011   0.00334   0.00344   1.93422
    A7        2.13661  -0.00043   0.00011   0.00125   0.00126   2.13788
    A8        2.01182  -0.00051  -0.00007  -0.00383  -0.00400   2.00782
    A9        2.13455   0.00095  -0.00003   0.00307   0.00294   2.13749
   A10        2.07316  -0.00007  -0.00007  -0.00424  -0.00523   2.06794
   A11        2.13876   0.00024   0.00004   0.00089   0.00001   2.13877
   A12        2.06900  -0.00018   0.00002  -0.00164  -0.00254   2.06646
   A13        1.87862  -0.00089  -0.00010  -0.00109  -0.00129   1.87733
   A14        1.96453   0.00099   0.00008   0.00326   0.00333   1.96786
   A15        1.87302   0.00058  -0.00021  -0.00566  -0.00592   1.86710
   A16        1.89647   0.00113   0.00000   0.01190   0.01191   1.90838
   A17        1.89581  -0.00021   0.00000   0.00429   0.00432   1.90012
   A18        1.95294  -0.00162   0.00023  -0.01240  -0.01217   1.94077
   A19        1.92548   0.00030   0.00005   0.00357   0.00361   1.92909
   A20        1.93271  -0.00123   0.00007  -0.00717  -0.00711   1.92561
   A21        1.90889  -0.00048  -0.00001  -0.00238  -0.00240   1.90650
   A22        1.88756   0.00030  -0.00007  -0.00155  -0.00162   1.88594
   A23        1.91054   0.00041   0.00000   0.00517   0.00517   1.91571
   A24        1.89827   0.00074  -0.00004   0.00250   0.00245   1.90072
   A25        2.13578  -0.00163   0.00010  -0.00372  -0.00424   2.13154
   A26        2.00197  -0.00258  -0.00011  -0.01308  -0.01383   1.98814
   A27        2.14544   0.00421   0.00000   0.01679   0.01611   2.16155
   A28        2.06329   0.00058  -0.00010  -0.00084  -0.00093   2.06236
   A29        2.16469  -0.00216   0.00012  -0.00664  -0.00652   2.15817
   A30        2.05517   0.00158  -0.00002   0.00748   0.00746   2.06263
   A31        1.88358   0.00145  -0.00009   0.00752   0.00744   1.89102
   A32        1.93863  -0.00101   0.00009  -0.00435  -0.00427   1.93436
   A33        1.93532  -0.00097   0.00008  -0.00448  -0.00441   1.93091
   A34        1.90522  -0.00010  -0.00002  -0.00017  -0.00018   1.90503
   A35        1.90437  -0.00014  -0.00002  -0.00062  -0.00063   1.90374
   A36        1.89630   0.00078  -0.00004   0.00218   0.00212   1.89841
    D1       -0.01051   0.00027  -0.00003   0.01963   0.01959   0.00908
    D2       -3.13074  -0.00012   0.00003  -0.00624  -0.00619  -3.13693
    D3        2.08583   0.00037  -0.00006   0.02030   0.02024   2.10608
    D4       -1.03439  -0.00002   0.00001  -0.00556  -0.00555  -1.03994
    D5       -2.10557   0.00004  -0.00001   0.01722   0.01721  -2.08836
    D6        1.05739  -0.00035   0.00006  -0.00864  -0.00858   1.04881
    D7       -0.02145   0.00018  -0.00007  -0.02033  -0.02033  -0.04178
    D8       -3.08970   0.00046   0.00017   0.06043   0.06054  -3.02916
    D9        3.14148  -0.00018   0.00000  -0.04614  -0.04609   3.09539
   D10        0.07323   0.00009   0.00023   0.03462   0.03478   0.10802
   D11       -0.84218   0.00072  -0.00018   0.00154   0.00135  -0.84082
   D12        1.24718   0.00212  -0.00020   0.01753   0.01733   1.26450
   D13       -2.87985   0.00112   0.00000   0.00000   0.00000  -2.87984
   D14        2.37260   0.00099   0.00005   0.08222   0.08227   2.45486
   D15       -1.82124   0.00240   0.00004   0.09821   0.09824  -1.72299
   D16        0.33492   0.00140   0.00023   0.08068   0.08092   0.41584
   D17        1.05616   0.00027   0.00003   0.00688   0.00691   1.06307
   D18       -3.13795   0.00005   0.00001   0.00265   0.00266  -3.13529
   D19       -1.04622  -0.00011   0.00000  -0.00023  -0.00022  -1.04645
   D20        3.13513   0.00052  -0.00005   0.01543   0.01540  -3.13265
   D21       -1.05898   0.00030  -0.00007   0.01120   0.01115  -1.04783
   D22        1.03275   0.00014  -0.00007   0.00832   0.00827   1.04102
   D23       -1.05486  -0.00001   0.00008   0.02089   0.02095  -1.03390
   D24        1.03422  -0.00023   0.00007   0.01666   0.01671   1.05092
   D25        3.12595  -0.00039   0.00006   0.01378   0.01382   3.13977
   D26       -1.83242   0.00009   0.00000   0.06478   0.06449  -1.76792
   D27        1.30895  -0.00108   0.00000   0.00000   0.00000   1.30896
   D28        2.42442   0.00094   0.00025   0.06686   0.06693   2.49136
   D29       -0.71739  -0.00023   0.00025   0.00208   0.00245  -0.71495
   D30        0.33084   0.00068   0.00011   0.05694   0.05689   0.38773
   D31       -2.81098  -0.00048   0.00011  -0.00785  -0.00759  -2.81857
   D32        0.00907   0.00068   0.00003   0.03655   0.03686   0.04594
   D33       -3.14089   0.00069   0.00000   0.03636   0.03665  -3.10423
   D34       -3.13275  -0.00050   0.00003  -0.02864  -0.02890   3.12154
   D35        0.00048  -0.00049   0.00000  -0.02883  -0.02911  -0.02863
   D36        0.00336  -0.00002   0.00001  -0.00086  -0.00085   0.00251
   D37        2.09121   0.00017  -0.00001   0.00108   0.00106   2.09226
   D38       -2.08150  -0.00018   0.00004  -0.00214  -0.00209  -2.08360
   D39        3.13662  -0.00002  -0.00002  -0.00108  -0.00110   3.13553
   D40       -1.05871   0.00017  -0.00004   0.00085   0.00081  -1.05791
   D41        1.05176  -0.00018   0.00002  -0.00237  -0.00234   1.04942
         Item               Value     Threshold  Converged?
 Maximum Force            0.009291     0.000450     NO 
 RMS     Force            0.001832     0.000300     NO 
 Maximum Displacement     0.140403     0.001800     NO 
 RMS     Displacement     0.037170     0.001200     NO 
 Predicted change in Energy=-7.713717D-04
 GradGradGradGradGradGradGradGradGradGradGradGradGradGradGradGradGradGrad

                          Input orientation:                          
 ---------------------------------------------------------------------
 Center     Atomic      Atomic             Coordinates (Angstroms)
 Number     Number       Type             X           Y           Z
 ---------------------------------------------------------------------
      1          1           0        1.950196    1.186790    0.544703
      2          6           0        1.981739    2.224821    0.252597
      3          1           0        1.323055    2.799410    0.895378
      4          1           0        1.621050    2.323050   -0.765794
      5          6           0        3.408668    2.716586    0.367832
      6          8           0        4.307551    2.007326    0.723051
      7          7           0        3.596025    4.017230    0.034424
      8          1           0        2.816193    4.540215   -0.290252
      9          6           0        4.920377    4.623714   -0.046393
     10          1           0        5.458190    4.355427    0.854470
     11          6           0        5.709483    4.156114   -1.263563
     12          1           0        5.192983    4.422728   -2.175816
     13          1           0        6.686318    4.624499   -1.281536
     14          1           0        5.836111    3.084102   -1.215360
     15          6           0        4.716505    6.142159   -0.068160
     16          8           0        4.777460    6.778932   -1.081565
     17          7           0        4.388494    6.667598    1.131664
     18          1           0        4.346679    6.058016    1.914836
     19          6           0        4.104596    8.070547    1.341943
     20          1           0        4.200354    8.580912    0.398478
     21          1           0        3.097932    8.207705    1.719867
     22          1           0        4.804139    8.499822    2.049397
 ---------------------------------------------------------------------
                    Distance matrix (angstroms):
                    1          2          3          4          5
     1  H    0.000000
     2  C    1.078809   0.000000
     3  H    1.765453   1.084982   0.000000
     4  H    1.765454   1.084834   1.753628   0.000000
     5  C    2.121014   1.513684   2.152893   2.153034   0.000000
     6  O    2.502441   2.382863   3.092623   3.087657   1.198841
     7  N    3.313688   2.422034   2.718589   2.722337   1.355706
     8  H    3.562662   2.520327   2.581779   2.563265   2.027245
     9  C    4.580810   3.805217   4.141950   4.086092   2.468599
    10  H    4.737324   4.121583   4.418394   4.634593   2.668924
    11  C    5.120445   4.463711   5.073700   4.508124   3.166613
    12  H    5.328056   4.586946   5.200359   4.376701   3.544692
    13  H    6.130566   5.499553   6.069143   5.587449   4.135642
    14  H    4.668827   4.213009   4.990385   4.306744   2.921308
    15  C    5.708218   4.788253   4.859823   4.965292   3.692570
    16  O    6.473811   5.507810   5.628305   5.469691   4.525152
    17  N    6.027361   5.128694   4.941218   5.489461   4.141738
    18  H    5.599039   4.800975   4.560714   5.344604   3.799768
    19  C    7.256938   6.313930   5.976728   6.606381   5.486174
    20  H    7.730307   6.733753   6.477000   6.867982   5.917603
    21  H    7.210517   6.260485   5.751489   6.556588   5.663651
    22  H    7.993093   7.111264   6.778230   7.497324   6.182299
                    6          7          8          9         10
     6  O    0.000000
     7  N    2.240578   0.000000
     8  H    3.109092   0.993512   0.000000
     9  C    2.795189   1.458856   2.119913   0.000000
    10  H    2.618171   2.062647   2.885252   1.082947   0.000000
    11  C    3.244894   2.484102   3.076686   1.524087   2.142181
    12  H    3.875768   2.756784   3.036162   2.156189   3.042613
    13  H    4.065279   3.413273   3.995949   2.155023   2.478552
    14  H    2.693209   2.729591   3.477929   2.139031   2.458309
    15  C    4.229669   2.404438   2.495342   1.532225   2.143304
    16  O    5.123053   3.204406   3.079707   2.395198   3.175689
    17  N    4.678852   2.975970   3.003287   2.418302   2.562659
    18  H    4.222555   2.874759   3.083589   2.496552   2.293173
    19  C    6.098104   4.289246   4.097229   3.804424   3.983964
    20  H    6.582467   4.617894   4.326371   4.046698   4.432246
    21  H    6.395429   4.544106   4.191710   4.391580   4.599976
    22  H    6.645171   5.060957   5.010427   4.407955   4.362527
                   11         12         13         14         15
    11  C    0.000000
    12  H    1.081693   0.000000
    13  H    1.083473   1.752283   0.000000
    14  H    1.080541   1.768618   1.760697   0.000000
    15  C    2.521779   2.761464   2.766900   3.452723   0.000000
    16  O    2.789438   2.630920   2.885361   3.845830   1.198410
    17  N    3.713446   4.077507   3.908681   4.521677   1.350279
    18  H    3.946731   4.485959   4.212562   4.567351   2.018941
    19  C    4.968613   5.183223   5.042140   5.865371   2.466071
    20  H    4.961723   4.990270   4.965448   5.957776   2.536076
    21  H    5.668901   5.821652   5.892733   6.508801   3.175421
    22  H    5.537432   5.884413   5.445718   6.407310   3.170221
                   16         17         18         19         20
    16  O    0.000000
    17  N    2.249905   0.000000
    18  H    3.111866   0.993327   0.000000
[...]
    12  H    5.395294   4.496496   4.889867   4.283125   3.547588
    13  H    6.161169   5.422721   5.903141   5.447278   4.118166
    14  H    4.727582   4.099844   4.804030   4.024112   2.906658
    15  C    5.684871   4.812629   4.779749   5.165475   3.691282
    16  O    6.500301   5.540160   5.476621   5.702390   4.548086
    17  N    5.985671   5.223359   5.024245   5.795419   4.159486
    18  H    5.449082   4.817874   4.629327   5.539914   3.755895
    19  C    7.177807   6.386601   6.012407   6.940353   5.481660
    20  H    7.963541   7.125152   6.826909   7.581219   6.136379
    21  H    7.141850   6.299882   5.772892   6.801811   5.623318
    22  H    7.588407   6.904313   6.503036   7.576123   5.996954
                    6          7          8          9         10
     6  O    0.000000
     7  N    2.248903   0.000000
     8  H    3.092641   0.997826   0.000000
     9  C    2.783087   1.459918   2.094317   0.000000
    10  H    2.539807   2.050196   2.916703   1.081182   0.000000
    11  C    3.296423   2.491751   2.897745   1.524400   2.143298
    12  H    3.958535   2.771661   2.798807   2.159905   3.045612
    13  H    4.095612   3.420611   3.854923   2.157341   2.486614
    14  H    2.780602   2.744723   3.280114   2.145858   2.462903
    15  C    4.201240   2.403109   2.567154   1.532248   2.145352
    16  O    5.133681   3.227712   3.106010   2.397950   3.172873
    17  N    4.625211   2.987530   3.220624   2.429975   2.577305
    18  H    4.128076   2.814435   3.234996   2.518982   2.369144
    19  C    6.034248   4.264711   4.274050   3.799088   4.009675
    20  H    6.636977   4.861200   4.856911   4.140199   4.395356
    21  H    6.355818   4.384361   4.158463   4.213902   4.613097
    22  H    6.448980   4.909384   5.030431   4.490083   4.476733
                   11         12         13         14         15
    11  C    0.000000
    12  H    1.082690   0.000000
    13  H    1.084025   1.750473   0.000000
    14  H    1.082679   1.769298   1.759472   0.000000
    15  C    2.524384   2.768044   2.771634   3.459734   0.000000
    16  O    2.787679   2.641787   2.869495   3.849495   1.200631
    17  N    3.720833   4.087133   3.913406   4.537554   1.349233
    18  H    3.984153   4.496695   4.285294   4.613939   2.017260
    19  C    4.955064   5.152347   5.040552   5.863445   2.442485
    20  H    5.039496   5.179751   4.925286   6.031595   2.666585
    21  H    5.353952   5.366994   5.588967   6.264200   2.868754
    22  H    5.748809   6.069620   5.801103   6.584607   3.305220
                   16         17         18         19         20
    16  O    0.000000
    17  N    2.241532   0.000000
    18  H    3.102512   0.994146   0.000000
    19  C    2.773759   1.446797   2.110993   0.000000
    20  H    2.614611   2.075591   2.919075   1.079913   0.000000
    21  H    3.014267   2.109750   2.693292   1.085370   1.755975
    22  H    3.795820   2.066975   2.323692   1.081920   1.759915
                   21         22
    21  H    0.000000
    22  H    1.763884   0.000000
 Stoichiometry    C6H12N2O2
 Framework group  C1[X(C6H12N2O2)]
 Deg. of freedom    60
 Full point group                 C1      NOp   1
 Largest Abelian subgroup         C1      NOp   1
 Largest concise Abelian subgroup C1      NOp   1
                         Standard orientation:                         
 ---------------------------------------------------------------------
 Center     Atomic      Atomic             Coordinates (Angstroms)
 Number     Number       Type             X           Y           Z
 ---------------------------------------------------------------------
      1          1           0       -3.904794   -1.536435    0.299451
      2          6           0       -3.051656   -1.157633    0.843000
      3          1           0       -2.534709   -1.975080    1.332619
      4          1           0       -3.405767   -0.472670    1.607925
      5          6           0       -2.150160   -0.410877   -0.115908
      6          8           0       -2.540217    0.016087   -1.165076
      7          7           0       -0.855074   -0.272674    0.295907
      8          1           0       -0.681299   -0.437086    1.264633
      9          6           0        0.035229    0.686700   -0.350872
     10          1           0       -0.066356    0.533314   -1.416286
     11          6           0       -0.294681    2.135724   -0.011338
     12          1           0       -0.198851    2.311665    1.052654
     13          1           0        0.385656    2.808601   -0.520739
     14          1           0       -1.305205    2.362225   -0.327143
     15          6           0        1.462022    0.324895    0.074740
     16          8           0        2.066660    0.962202    0.893134
     17          7           0        1.973346   -0.768258   -0.528578
     18          1           0        1.362607   -1.326200   -1.079963
     19          6           0        3.255834   -1.318015   -0.146200
     20          1           0        3.985063   -0.524286   -0.079632
     21          1           0        3.212757   -1.824519    0.812772
     22          1           0        3.571919   -2.024070   -0.902591
 ---------------------------------------------------------------------
 Rotational constants (GHZ):      2.2746352      0.7252442      0.6356315

 **********************************************************************

            Population analysis using the SCF density.

 **********************************************************************

 Orbital symmetries:
       Occupied  (A) (A) (A) (A) (A) (A) (A) (A) (A) (A) (A) (A)
                 (A) (A) (A) (A) (A) (A) (A) (A) (A) (A) (A) (A)
                 (A) (A) (A) (A) (A) (A) (A) (A) (A) (A) (A) (A)
                 (A) (A) (A)
       Virtual   (A) (A) (A) (A) (A) (A) (A) (A) (A) (A) (A) (A)
                 (A) (A) (A) (A) (A) (A) (A) (A) (A) (A) (A) (A)
                 (A) (A) (A) (A) (A) (A) (A) (A) (A) (A) (A) (A)
                 (A) (A) (A) (A) (A) (A) (A) (A) (A) (A) (A) (A)
                 (A) (A) (A) (A) (A) (A) (A) (A) (A) (A) (A) (A)
                 (A) (A) (A) (A) (A) (A) (A) (A) (A) (A) (A) (A)
                 (A) (A) (A) (A) (A) (A) (A) (A) (A) (A) (A) (A)
                 (A) (A) (A) (A) (A) (A) (A) (A) (A) (A) (A) (A)
                 (A) (A) (A) (A) (A) (A) (A) (A) (A) (A) (A) (A)
                 (A) (A) (A) (A) (A) (A) (A) (A) (A) (A) (A) (A)
                 (A) (A) (A) (A) (A) (A) (A) (A) (A) (A) (A) (A)
                 (A) (A) (A)
 The electronic state is 1-A.
 Alpha  occ. eigenvalues --  -20.53332 -20.53016 -15.59379 -15.58802 -11.35610
 Alpha  occ. eigenvalues --  -11.34777 -11.27915 -11.26072 -11.23919 -11.21184
 Alpha  occ. eigenvalues --   -1.40257  -1.39637  -1.24935  -1.23120  -1.05452
 Alpha  occ. eigenvalues --   -0.99544  -0.96495  -0.87702  -0.79594  -0.79064
 Alpha  occ. eigenvalues --   -0.73133  -0.67495  -0.65828  -0.65351  -0.62887
 Alpha  occ. eigenvalues --   -0.62247  -0.60306  -0.59150  -0.57772  -0.56581
 Alpha  occ. eigenvalues --   -0.55559  -0.53406  -0.52622  -0.51965  -0.50402
 Alpha  occ. eigenvalues --   -0.42944  -0.42556  -0.40214  -0.38810
 Alpha virt. eigenvalues --    0.19250   0.19323   0.21854   0.22871   0.26303
 Alpha virt. eigenvalues --    0.27352   0.27800   0.30086   0.30987   0.31551
 Alpha virt. eigenvalues --    0.32735   0.33103   0.33660   0.34873   0.37364
 Alpha virt. eigenvalues --    0.39922   0.41673   0.43474   0.45013   0.50653
 Alpha virt. eigenvalues --    0.52873   0.56933   0.61638   0.71423   0.71610
 Alpha virt. eigenvalues --    0.73592   0.74496   0.75301   0.76931   0.79109
 Alpha virt. eigenvalues --    0.80042   0.83847   0.84150   0.86935   0.88156
 Alpha virt. eigenvalues --    0.90277   0.96170   0.97130   0.98577   0.99411
 Alpha virt. eigenvalues --    1.00411   1.02817   1.03822   1.08341   1.09033
 Alpha virt. eigenvalues --    1.10124   1.11932   1.13013   1.14949   1.15828
 Alpha virt. eigenvalues --    1.16644   1.18484   1.18879   1.19417   1.20264
 Alpha virt. eigenvalues --    1.21056   1.22029   1.22257   1.24632   1.24729
 Alpha virt. eigenvalues --    1.26112   1.33300   1.36093   1.37298   1.40653
 Alpha virt. eigenvalues --    1.43998   1.51445   1.53841   1.55725   1.63956
 Alpha virt. eigenvalues --    1.65421   1.66843   1.70688   1.71510   1.74297
 Alpha virt. eigenvalues --    1.76445   1.82492   1.90838   1.94576   1.96897
 Alpha virt. eigenvalues --    2.00766   2.06135   2.06561   2.10586   2.12595
 Alpha virt. eigenvalues --    2.15209   2.16018   2.17424   2.19171   2.21074
 Alpha virt. eigenvalues --    2.23410   2.27302   2.29163   2.29936   2.33242
 Alpha virt. eigenvalues --    2.36775   2.37921   2.40770   2.47776   2.50078
 Alpha virt. eigenvalues --    2.52232   2.54617   2.57375   2.60598   2.62513
 Alpha virt. eigenvalues --    2.68019   2.69135   2.70209   2.75714   2.77446
 Alpha virt. eigenvalues --    2.79406   2.83032   2.88936   2.92754   2.98657
 Alpha virt. eigenvalues --    3.02436   3.02845   3.11045   3.11894   3.27691
 Alpha virt. eigenvalues --    3.30427   3.37300   3.40554   3.53102   3.55324
 Alpha virt. eigenvalues --    4.37899   4.39395   4.47601   4.53545   4.62690
 Alpha virt. eigenvalues --    4.67920   4.72286   4.86404   4.89761   5.03849
          Condensed to atoms (all electrons):
              1          2          3          4          5          6
     1  H    0.460495   0.384125  -0.020328  -0.017311  -0.031900   0.003331
     2  C    0.384125   5.265141   0.376810   0.375801   0.374520  -0.069645
     3  H   -0.020328   0.376810   0.514379  -0.024520  -0.036422   0.001975
     4  H   -0.017311   0.375801  -0.024520   0.494439  -0.028045   0.000294
     5  C   -0.031900   0.374520  -0.036422  -0.028045   4.149881   0.611732
     6  O    0.003331  -0.069645   0.001975   0.000294   0.611732   8.136020
     7  N    0.004231  -0.121909   0.005123   0.000895   0.260315  -0.107056
     8  H    0.000074  -0.000040   0.000020   0.000079  -0.020969   0.002414
     9  C   -0.000113   0.005155   0.000020  -0.000288  -0.025301   0.009431
    10  H    0.000003   0.000243  -0.000024  -0.000009  -0.003780   0.005697
    11  C    0.000001  -0.000387   0.000005   0.000126  -0.002137  -0.003641
    12  H    0.000000  -0.000019  -0.000001  -0.000006  -0.000081   0.000015
    13  H    0.000000   0.000003   0.000000  -0.000001   0.000019  -0.000026
    14  H    0.000001   0.000095  -0.000001  -0.000030   0.002946   0.003865
    15  C    0.000001  -0.000063  -0.000011  -0.000003   0.003455   0.000308
    16  O    0.000000  -0.000001   0.000000   0.000000  -0.000109  -0.000001
    17  N    0.000000  -0.000005  -0.000001   0.000000  -0.000033   0.000006
    18  H    0.000000  -0.000001   0.000002   0.000000   0.000097  -0.000030
    19  C    0.000000   0.000000   0.000000   0.000000   0.000004   0.000000
    20  H    0.000000   0.000000   0.000000   0.000000   0.000000   0.000000
    21  H    0.000000   0.000000   0.000000   0.000000  -0.000001   0.000000
    22  H    0.000000   0.000000   0.000000   0.000000   0.000000   0.000000
              7          8          9         10         11         12
     1  H    0.004231   0.000074  -0.000113   0.000003   0.000001   0.000000
     2  C   -0.121909  -0.000040   0.005155   0.000243  -0.000387  -0.000019
     3  H    0.005123   0.000020   0.000020  -0.000024   0.000005  -0.000001
     4  H    0.000895   0.000079  -0.000288  -0.000009   0.000126  -0.000006
     5  C    0.260315  -0.020969  -0.025301  -0.003780  -0.002137  -0.000081
     6  O   -0.107056   0.002414   0.009431   0.005697  -0.003641   0.000015
     7  N    7.420421   0.319565   0.173222  -0.040299  -0.062373  -0.000719
     8  H    0.319565   0.334668  -0.027193   0.003761   0.001479   0.001689
     9  C    0.173222  -0.027193   5.095310   0.407380   0.352624  -0.034926
    10  H   -0.040299   0.003761   0.407380   0.479517  -0.037001   0.003874
    11  C   -0.062373   0.001479   0.352624  -0.037001   5.108260   0.389341
    12  H   -0.000719   0.001689  -0.034926   0.003874   0.389341   0.512499
    13  H    0.004320  -0.000070  -0.035068  -0.000294   0.389270  -0.022170
    14  H   -0.004911  -0.000260  -0.034615  -0.003696   0.391261  -0.026443
    15  C   -0.047411  -0.004280   0.367878  -0.042357  -0.054216  -0.005517
    16  O   -0.000756   0.001727  -0.078472   0.001816   0.003828   0.003993
    17  N    0.002378   0.000958  -0.124732   0.003229   0.004045   0.000116
    18  H    0.003661  -0.000065  -0.001644   0.000011   0.000206  -0.000008
    19  C   -0.000296  -0.000045   0.004914  -0.000091  -0.000123  -0.000003
    20  H   -0.000009  -0.000002   0.000070  -0.000021   0.000003  -0.000001
    21  H    0.000051   0.000009  -0.000089   0.000006  -0.000001   0.000000
    22  H   -0.000004  -0.000001  -0.000001  -0.000015   0.000001   0.000000
             13         14         15         16         17         18
     1  H    0.000000   0.000001   0.000001   0.000000   0.000000   0.000000
     2  C    0.000003   0.000095  -0.000063  -0.000001  -0.000005  -0.000001
     3  H    0.000000  -0.000001  -0.000011   0.000000  -0.000001   0.000002
     4  H   -0.000001  -0.000030  -0.000003   0.000000   0.000000   0.000000
     5  C    0.000019   0.002946   0.003455  -0.000109  -0.000033   0.000097
     6  O   -0.000026   0.003865   0.000308  -0.000001   0.000006  -0.000030
     7  N    0.004320  -0.004911  -0.047411  -0.000756   0.002378   0.003661
     8  H   -0.000070  -0.000260  -0.004280   0.001727   0.000958  -0.000065
     9  C   -0.035068  -0.034615   0.367878  -0.078472  -0.124732  -0.001644
    10  H   -0.000294  -0.003696  -0.042357   0.001816   0.003229   0.000011
    11  C    0.389270   0.391261  -0.054216   0.003828   0.004045   0.000206
    12  H   -0.022170  -0.026443  -0.005517   0.003993   0.000116  -0.000008
    13  H    0.513983  -0.024175  -0.001887   0.000494  -0.000041  -0.000021
    14  H   -0.024175   0.500557   0.004586   0.000270  -0.000035  -0.000008
    15  C   -0.001887   0.004586   4.186870   0.605128   0.290195  -0.022156
    16  O    0.000494   0.000270   0.605128   8.156783  -0.104607   0.002485
    17  N   -0.000041  -0.000035   0.290195  -0.104607   7.308162   0.328477
    18  H   -0.000021  -0.000008  -0.022156   0.002485   0.328477   0.320037
    19  C   -0.000003   0.000001  -0.029224   0.007203   0.201422  -0.023387
    20  H    0.000000   0.000000  -0.003703   0.003953  -0.038361   0.002592
    21  H    0.000000   0.000000  -0.002295   0.001205  -0.048806   0.001085
    22  H    0.000000   0.000000   0.004047   0.000330  -0.038218  -0.004091
             19         20         21         22
     1  H    0.000000   0.000000   0.000000   0.000000
     2  C    0.000000   0.000000   0.000000   0.000000
     3  H    0.000000   0.000000   0.000000   0.000000
     4  H    0.000000   0.000000   0.000000   0.000000
     5  C    0.000004   0.000000  -0.000001   0.000000
     6  O    0.000000   0.000000   0.000000   0.000000
     7  N   -0.000296  -0.000009   0.000051  -0.000004
     8  H   -0.000045  -0.000002   0.000009  -0.000001
     9  C    0.004914   0.000070  -0.000089  -0.000001
    10  H   -0.000091  -0.000021   0.000006  -0.000015
    11  C   -0.000123   0.000003  -0.000001   0.000001
    12  H   -0.000003  -0.000001   0.000000   0.000000
    13  H   -0.000003   0.000000   0.000000   0.000000
    14  H    0.000001   0.000000   0.000000   0.000000
    15  C   -0.029224  -0.003703  -0.002295   0.004047
    16  O    0.007203   0.003953   0.001205   0.000330
    17  N    0.201422  -0.038361  -0.048806  -0.038218
    18  H   -0.023387   0.002592   0.001085  -0.004091
    19  C    4.907101   0.403700   0.405034   0.398652
    20  H    0.403700   0.482234  -0.033037  -0.023850
    21  H    0.405034  -0.033037   0.537544  -0.033067
    22  H    0.398652  -0.023850  -0.033067   0.524956
 Mulliken atomic charges:
              1
     1  H    0.217388
     2  C   -0.589824
     3  H    0.182975
     4  H    0.198578
     5  C    0.745808
     6  O   -0.594689
     7  N   -0.808440
     8  H    0.386481
     9  C   -0.053562
    10  H    0.222049
    11  C   -0.480569
    12  H    0.178366
    13  H    0.175667
    14  H    0.190591
    15  C    0.750652
    16  O   -0.605271
    17  N   -0.784151
    18  H    0.392758
    19  C   -0.274859
    20  H    0.206432
    21  H    0.172359
    22  H    0.171260
 Sum of Mulliken atomic charges =   0.00000
 Mulliken charges with hydrogens summed into heavy atoms:
              1
     2  C    0.009117
     5  C    0.745808
     6  O   -0.594689
     7  N   -0.421960
     9  C    0.168488
    11  C    0.064055
    15  C    0.750652
    16  O   -0.605271
    17  N   -0.391393
    19  C    0.275192
 Sum of Mulliken charges with hydrogens summed into heavy atoms =   0.00000
 Electronic spatial extent (au):  <R**2>=           1887.7169
 Charge=              0.0000 electrons
 Dipole moment (field-independent basis, Debye):
    X=              0.0944    Y=             -3.1809    Z=              1.0255  Tot=              3.3435
 Quadrupole moment (field-independent basis, Debye-Ang):
   XX=            -64.7589   YY=            -58.2068   ZZ=            -62.3493
   XY=             -4.0502   XZ=            -13.0337   YZ=             -1.7487
 Traceless Quadrupole moment (field-independent basis, Debye-Ang):
   XX=             -2.9872   YY=              3.5649   ZZ=             -0.5776
   XY=             -4.0502   XZ=            -13.0337   YZ=             -1.7487
 Octapole moment (field-independent basis, Debye-Ang**2):
  XXX=             12.8201  YYY=             -5.1095  ZZZ=              3.7831  XYY=             -1.5929
  XXY=            -26.0280  XXZ=             11.9266  XZZ=              2.6894  YZZ=             -5.1794
  YYZ=             -5.9208  XYZ=             -3.1110
 Hexadecapole moment (field-independent basis, Debye-Ang**3):
 XXXX=          -1657.5068 YYYY=           -514.1182 ZZZZ=           -215.8775 XXXY=            -16.7431
 XXXZ=            -65.7018 YYYX=             -5.8069 YYYZ=              2.7160 ZZZX=             -7.3587
 ZZZY=              3.0870 XXYY=           -353.8532 XXZZ=           -350.8519 YYZZ=           -117.8459
 XXYZ=             -4.0215 YYXZ=             -7.0008 ZZXY=             -6.8958
 N-N= 5.544897867551D+02 E-N=-2.264231050935D+03  KE= 4.921220792161D+02
 1\1\GINC-RODAN\FOpt\RHF\6-31G(d)\C6H12N2O2\STEBOSS\10-Feb-2017\0\\# HF
 /6-31G* Opt=(ModRedundant) geom=nocrowd\\Phi Psi fixed scan\\0,1\H,1.9
 421334606,1.2811107208,0.891311564\C,2.0397248833,2.1671193113,0.28119
 1816\H,1.2741660163,2.8857418848,0.5507870047\H,1.8934192744,1.8885248
 034,-0.7583560398\C,3.4328464538,2.7319746331,0.4543778631\O,4.3479769
 131,2.0736758872,0.8598104718\N,3.5668383224,4.0518363276,0.1288746133
 \H,2.8322967458,4.4468686273,-0.418898782\C,4.8878202372,4.6414219767,
 -0.0679937996\H,5.4898810736,4.3408374466,0.7782486179\C,5.5613148397,
 4.1887466495,-1.3584529049\H,4.9741918096,4.4802750117,-2.2201461917\H
 ,6.5400582686,4.6446189313,-1.4551554999\H,5.6811572129,3.1127710145,-
 1.3480527337\C,4.7038811543,6.1623030555,-0.0384543614\O,4.7271515937,
 6.8291513162,-1.0365963414\N,4.4997148997,6.6846839838,1.1886823903\H,
 4.3456281078,6.0568501127,1.9439360431\C,4.181253489,8.0834602869,1.37
 63775256\H,4.8589078833,8.6906373221,0.7947143461\H,3.1659103221,8.315
 0449672,1.070642032\H,4.2978270389,8.3300457297,2.4233523666\\Version=
 EM64L-G09RevA.02\State=1-A\HF=-492.8550285\RMSD=6.024e-09\RMSF=6.745e-
 04\Dipole=-1.1221059,0.2977383,0.6185069\Quadrupole=4.406809,-5.084927
 ,0.678118,3.009472,0.878624,8.8335702\PG=C01 [X(C6H12N2O2)]\\@


 IF IT'S NOT TRUE, IT'S WELL INVENTED -- DANTE
 Job cpu time:  0 days  0 hours 23 minutes 43.6 seconds.
 File lengths (MBytes):  RWF=     25 Int=      0 D2E=      0 Chk=      3 Scr=      1
 Normal termination of Gaussian 09 at Fri Feb 10 07:24:05 2017.
