 Entering Gaussian System, Link 0=g09
 Initial command:
 /home/steboss/Software/g09/l1.exe /home/steboss/projects/phi_psi_scan/alanine/MP2/195/5359/Gau-26035.inp -scrdir=/home/steboss/projects/phi_psi_scan/alanine/MP2/195/5359/
 Entering Link 1 = /home/steboss/Software/g09/l1.exe PID=     26037.
  
 Copyright (c) 1988,1990,1992,1993,1995,1998,2003,2009, Gaussian, Inc.
                  All Rights Reserved.
  
 This is part of the Gaussian(R) 09 program.  It is based on
 the Gaussian(R) 03 system (copyright 2003, Gaussian, Inc.),
 the Gaussian(R) 98 system (copyright 1998, Gaussian, Inc.),
 the Gaussian(R) 94 system (copyright 1995, Gaussian, Inc.),
 the Gaussian 92(TM) system (copyright 1992, Gaussian, Inc.),
 the Gaussian 90(TM) system (copyright 1990, Gaussian, Inc.),
 the Gaussian 88(TM) system (copyright 1988, Gaussian, Inc.),
 the Gaussian 86(TM) system (copyright 1986, Carnegie Mellon
 University), and the Gaussian 82(TM) system (copyright 1983,
 Carnegie Mellon University). Gaussian is a federally registered
 trademark of Gaussian, Inc.
  
 This software contains proprietary and confidential information,
 including trade secrets, belonging to Gaussian, Inc.
  
 This software is provided under written license and may be
 used, copied, transmitted, or stored only in accord with that
 written license.
  
 The following legend is applicable only to US Government
 contracts under FAR:
  
                    RESTRICTED RIGHTS LEGEND
  
 Use, reproduction and disclosure by the US Government is
 subject to restrictions as set forth in subparagraphs (a)
 and (c) of the Commercial Computer Software - Restricted
 Rights clause in FAR 52.227-19.
  
 Gaussian, Inc.
 340 Quinnipiac St., Bldg. 40, Wallingford CT 06492
  
  
 ---------------------------------------------------------------
 Warning -- This program may not be used in any manner that
 competes with the business of Gaussian, Inc. or will provide
 assistance to any competitor of Gaussian, Inc.  The licensee
 of this program is prohibited from giving any competitor of
 Gaussian, Inc. access to this program.  By using this program,
 the user acknowledges that Gaussian, Inc. is engaged in the
 business of creating and licensing software in the field of
 computational chemistry and represents and warrants to the
 licensee that it is not a competitor of Gaussian, Inc. and that
 it will not use this program in any manner prohibited above.
 ---------------------------------------------------------------
  

 Cite this work as:
 Gaussian 09, Revision A.02,
 M. J. Frisch, G. W. Trucks, H. B. Schlegel, G. E. Scuseria, 
 M. A. Robb, J. R. Cheeseman, G. Scalmani, V. Barone, B. Mennucci, 
 G. A. Petersson, H. Nakatsuji, M. Caricato, X. Li, H. P. Hratchian, 
 A. F. Izmaylov, J. Bloino, G. Zheng, J. L. Sonnenberg, M. Hada, 
 M. Ehara, K. Toyota, R. Fukuda, J. Hasegawa, M. Ishida, T. Nakajima, 
 Y. Honda, O. Kitao, H. Nakai, T. Vreven, J. A. Montgomery, Jr., 
 J. E. Peralta, F. Ogliaro, M. Bearpark, J. J. Heyd, E. Brothers, 
 K. N. Kudin, V. N. Staroverov, R. Kobayashi, J. Normand, 
 K. Raghavachari, A. Rendell, J. C. Burant, S. S. Iyengar, J. Tomasi, 
 M. Cossi, N. Rega, J. M. Millam, M. Klene, J. E. Knox, J. B. Cross, 
 V. Bakken, C. Adamo, J. Jaramillo, R. Gomperts, R. E. Stratmann, 
 O. Yazyev, A. J. Austin, R. Cammi, C. Pomelli, J. W. Ochterski, 
 R. L. Martin, K. Morokuma, V. G. Zakrzewski, G. A. Voth, 
 P. Salvador, J. J. Dannenberg, S. Dapprich, A. D. Daniels, 
 O. Farkas, J. B. Foresman, J. V. Ortiz, J. Cioslowski, 
 and D. J. Fox, Gaussian, Inc., Wallingford CT, 2009.
 
 ******************************************
 Gaussian 09:  EM64L-G09RevA.02 11-Jun-2009
                13-Feb-2017 
 ******************************************
 %chk=structure_240.chk
 %NProcShared=8
 Will use up to    8 processors via shared memory.
 -------------------
 #SP MP2/aug-cc-pVDZ
 -------------------
 1/38=1/1;
 2/12=2,17=6,18=5,40=1/2;
 3/5=16,7=10,11=9,16=1,25=1,30=1/1,2,3;
 4//1;
 5/5=2,38=5/2;
 8/10=1/1;
 9/16=-3/6;
 6/7=2,8=2,9=2,10=2/1;
 99/5=1,9=1/99;
 -------------------------------
 Single Point calculation at MP2
 -------------------------------
 Symbolic Z-matrix:
 Charge =  0 Multiplicity = 1
 H                    -4.005    -0.7795    1.1774 
 C                    -3.2154   -1.2212    0.5637 
 H                    -3.6977   -1.704    -0.2934 
 H                    -2.6882   -1.9816    1.1477 
 C                    -2.3095   -0.107     0.0572 
 O                    -2.7596    0.9212   -0.4342 
 N                    -0.9645   -0.3404    0.2055 
 H                    -0.6762   -1.3062    0.3119 
 C                     0.0363    0.5143   -0.4439 
 H                    -0.2027    0.6006   -1.5136 
 C                     0.0522    1.9207    0.1658 
 H                     0.2664    1.885     1.2405 
 H                     0.7942    2.5547   -0.3349 
 H                    -0.9299    2.3758    0.0313 
 C                     1.3584   -0.2785   -0.3613 
 O                     1.4096   -1.4164   -0.8233 
 N                     2.3906    0.3006    0.3064 
 H                     2.2789    1.2421    0.6504 
 C                     3.6852   -0.3435    0.452 
 H                     3.5915   -1.3586    0.0647 
 H                     4.4617    0.186    -0.1131 
 H                     3.9799   -0.3827    1.5065 
 
                          Input orientation:                          
 ---------------------------------------------------------------------
 Center     Atomic      Atomic             Coordinates (Angstroms)
 Number     Number       Type             X           Y           Z
 ---------------------------------------------------------------------
      1          1           0       -4.005000   -0.779500    1.177400
      2          6           0       -3.215400   -1.221200    0.563700
      3          1           0       -3.697700   -1.704000   -0.293400
      4          1           0       -2.688200   -1.981600    1.147700
      5          6           0       -2.309500   -0.107000    0.057200
      6          8           0       -2.759600    0.921200   -0.434200
      7          7           0       -0.964500   -0.340400    0.205500
      8          1           0       -0.676200   -1.306200    0.311900
      9          6           0        0.036300    0.514300   -0.443900
     10          1           0       -0.202700    0.600600   -1.513600
     11          6           0        0.052200    1.920700    0.165800
     12          1           0        0.266400    1.885000    1.240500
     13          1           0        0.794200    2.554700   -0.334900
     14          1           0       -0.929900    2.375800    0.031300
     15          6           0        1.358400   -0.278500   -0.361300
     16          8           0        1.409600   -1.416400   -0.823300
     17          7           0        2.390600    0.300600    0.306400
     18          1           0        2.278900    1.242100    0.650400
     19          6           0        3.685200   -0.343500    0.452000
     20          1           0        3.591500   -1.358600    0.064700
     21          1           0        4.461700    0.186000   -0.113100
     22          1           0        3.979900   -0.382700    1.506500
 ---------------------------------------------------------------------
                    Distance matrix (angstroms):
                    1          2          3          4          5
     1  H    0.000000
     2  C    1.093250   0.000000
     3  H    1.764196   1.095596   0.000000
     4  H    1.783224   1.094168   1.781270   0.000000
     5  C    2.140520   1.522708   2.144861   2.201529   0.000000
     6  O    2.653423   2.406956   2.791331   3.306623   1.225259
     7  N    3.222117   2.443495   3.094946   2.559770   1.373133
     8  H    3.479571   2.553070   3.107104   2.280980   2.042210
     9  C    4.542536   3.821096   4.345833   4.023134   2.477881
    10  H    4.858358   4.087847   4.360630   4.464077   2.721528
    11  C    4.977478   4.550502   5.235558   4.868456   3.114641
    12  H    5.034719   4.714814   5.563080   4.867121   3.464610
    13  H    6.036246   5.580483   6.189945   5.907896   4.107474
    14  H    4.552549   4.294807   4.940740   4.829586   2.840469
    15  C    5.602201   4.760667   5.253647   4.642478   3.695679
    16  O    5.807438   4.832442   5.142764   4.582167   4.039989
    17  N    6.544384   5.814578   6.437824   5.631202   4.724318
    18  H    6.622084   6.021852   6.729785   5.942359   4.819271
    19  C    7.736632   6.957091   7.544123   6.617220   6.012340
    20  H    7.699368   6.826549   7.306160   6.402785   6.032277
    21  H    8.618735   7.834292   8.377375   7.576884   6.779676
    22  H    8.001524   7.305087   7.995687   6.866497   6.460111
                    6          7          8          9         10
     6  O    0.000000
     7  N    2.285440   0.000000
     8  H    3.139830   1.013512   0.000000
     9  C    2.825371   1.467594   2.095975   0.000000
    10  H    2.793855   2.102647   2.681891   1.099467   0.000000
    11  C    3.043882   2.479481   3.311313   1.532954   2.151284
    12  H    3.590293   2.745678   3.454642   2.183797   3.074867
    13  H    3.912503   3.430257   4.181743   2.179341   2.490311
    14  H    2.383349   2.722000   3.701381   2.150474   2.463102
    15  C    4.289816   2.391852   2.376755   1.543795   2.130175
    16  O    4.795623   2.802241   2.377264   2.399479   2.672885
    17  N    5.240057   3.417273   3.462239   2.480191   3.182390
    18  H    5.163895   3.636191   3.916763   2.599315   3.354513
    19  C    6.627236   4.656230   4.468582   3.853950   4.457653
    20  H    6.766303   4.670513   4.275174   4.050417   4.552521
    21  H    7.265728   5.460975   5.367057   4.449874   4.887732
    22  H    7.133536   5.112874   4.894812   4.490061   5.251859
                   11         12         13         14         15
    11  C    0.000000
    12  H    1.096420   0.000000
    13  H    1.096914   1.791356   0.000000
    14  H    1.090746   1.770362   1.771617   0.000000
    15  C    2.611604   2.904989   2.888952   3.526437   0.000000
    16  O    3.735919   4.057760   4.048072   4.537001   1.229179
    17  N    2.848264   2.809821   2.835617   3.925284   1.358903
    18  H    2.377715   2.193558   2.213158   3.459040   2.045258
    19  C    4.290361   4.156457   4.168532   5.373149   2.465701
    20  H    4.826041   4.791632   4.826850   5.864292   2.516908
    21  H    4.746647   4.724339   4.371555   5.821119   3.147671
    22  H    4.746573   4.359278   4.708265   5.821656   3.220527
                   16         17         18         19         20
    16  O    0.000000
    17  N    2.277427   0.000000
    18  H    3.161502   1.008581   0.000000
    19  C    2.820613   1.453291   2.128654   0.000000
    20  H    2.356390   2.062407   2.971465   1.090509   0.000000
    21  H    3.519572   2.116263   2.542223   1.096659   1.781755
    22  H    3.619799   2.105472   2.503255   1.095607   1.783822
                   21         22
    21  H    0.000000
    22  H    1.782878   0.000000
 Stoichiometry    C6H12N2O2
 Framework group  C1[X(C6H12N2O2)]
 Deg. of freedom    60
 Full point group                 C1      NOp   1
 Largest Abelian subgroup         C1      NOp   1
 Largest concise Abelian subgroup C1      NOp   1
                         Standard orientation:                         
 ---------------------------------------------------------------------
 Center     Atomic      Atomic             Coordinates (Angstroms)
 Number     Number       Type             X           Y           Z
 ---------------------------------------------------------------------
      1          1           0       -4.004987   -0.779489    1.177404
      2          6           0       -3.215389   -1.221192    0.563704
      3          1           0       -3.697690   -1.703991   -0.293396
      4          1           0       -2.688191   -1.981594    1.147704
      5          6           0       -2.309485   -0.106995    0.057204
      6          8           0       -2.759582    0.921206   -0.434196
      7          7           0       -0.964486   -0.340399    0.205504
      8          1           0       -0.676189   -1.306200    0.311904
      9          6           0        0.036317    0.514297   -0.443896
     10          1           0       -0.202683    0.600598   -1.513596
     11          6           0        0.052222    1.920697    0.165804
     12          1           0        0.266422    1.884997    1.240504
     13          1           0        0.794224    2.554695   -0.334896
     14          1           0       -0.929877    2.375800    0.031304
     15          6           0        1.358414   -0.278507   -0.361296
     16          8           0        1.409611   -1.416407   -0.823296
     17          7           0        2.390616    0.300590    0.306404
     18          1           0        2.278919    1.242090    0.650404
     19          6           0        3.685214   -0.343515    0.452004
     20          1           0        3.591511   -1.358614    0.064704
     21          1           0        4.461716    0.185983   -0.113096
     22          1           0        3.979914   -0.382716    1.506504
 ---------------------------------------------------------------------
 Rotational constants (GHZ):      2.7932699      0.6743200      0.5884662
 Standard basis: Aug-CC-pVDZ (5D, 7F)
 There are   338 symmetry adapted basis functions of A   symmetry.
 Integral buffers will be    131072 words long.
 Raffenetti 1 integral format.
 Two-electron integral symmetry is turned on.
   338 basis functions,   562 primitive gaussians,   358 cartesian basis functions
    39 alpha electrons       39 beta electrons
       nuclear repulsion energy       549.7896493810 Hartrees.
 NAtoms=   22 NActive=   22 NUniq=   22 SFac= 7.50D-01 NAtFMM=   80 NAOKFM=F Big=F
 One-electron integrals computed using PRISM.
 NBasis=   338 RedAO= T  NBF=   338
 NBsUse=   338 1.00D-06 NBFU=   338
 Harris functional with IExCor=  205 diagonalized for initial guess.
 ExpMin= 2.97D-02 ExpMax= 1.17D+04 ExpMxC= 4.01D+02 IAcc=3 IRadAn=         0 AccDes= 0.00D+00
 HarFok:  IExCor=  205 AccDes= 0.00D+00 IRadAn=         0 IDoV= 1
 ScaDFX=  1.000000  1.000000  1.000000  1.000000
 FoFCou: FMM=F IPFlag=           0 FMFlag=      100000 FMFlg1=           0
         NFxFlg=           0 DoJE=T BraDBF=F KetDBF=T FulRan=T
         Omega=  0.000000  0.000000  1.000000  0.000000  0.000000 ICntrl=     500 IOpCl=  0
         NMat0=    1 NMatS0=    1 NMatT0=    0 NMatD0=    1 NMtDS0=    0 NMtDT0=    0
         I1Cent=           4 NGrid=           0.
 Petite list used in FoFCou.
 Initial guess orbital symmetries:
       Occupied  (A) (A) (A) (A) (A) (A) (A) (A) (A) (A) (A) (A)
                 (A) (A) (A) (A) (A) (A) (A) (A) (A) (A) (A) (A)
                 (A) (A) (A) (A) (A) (A) (A) (A) (A) (A) (A) (A)
                 (A) (A) (A)
       Virtual   (A) (A) (A) (A) (A) (A) (A) (A) (A) (A) (A) (A)
                 (A) (A) (A) (A) (A) (A) (A) (A) (A) (A) (A) (A)
                 (A) (A) (A) (A) (A) (A) (A) (A) (A) (A) (A) (A)
                 (A) (A) (A) (A) (A) (A) (A) (A) (A) (A) (A) (A)
                 (A) (A) (A) (A) (A) (A) (A) (A) (A) (A) (A) (A)
                 (A) (A) (A) (A) (A) (A) (A) (A) (A) (A) (A) (A)
                 (A) (A) (A) (A) (A) (A) (A) (A) (A) (A) (A) (A)
                 (A) (A) (A) (A) (A) (A) (A) (A) (A) (A) (A) (A)
                 (A) (A) (A) (A) (A) (A) (A) (A) (A) (A) (A) (A)
                 (A) (A) (A) (A) (A) (A) (A) (A) (A) (A) (A) (A)
                 (A) (A) (A) (A) (A) (A) (A) (A) (A) (A) (A) (A)
                 (A) (A) (A) (A) (A) (A) (A) (A) (A) (A) (A) (A)
                 (A) (A) (A) (A) (A) (A) (A) (A) (A) (A) (A) (A)
                 (A) (A) (A) (A) (A) (A) (A) (A) (A) (A) (A) (A)
                 (A) (A) (A) (A) (A) (A) (A) (A) (A) (A) (A) (A)
                 (A) (A) (A) (A) (A) (A) (A) (A) (A) (A) (A) (A)
                 (A) (A) (A) (A) (A) (A) (A) (A) (A) (A) (A) (A)
                 (A) (A) (A) (A) (A) (A) (A) (A) (A) (A) (A) (A)
                 (A) (A) (A) (A) (A) (A) (A) (A) (A) (A) (A) (A)
                 (A) (A) (A) (A) (A) (A) (A) (A) (A) (A) (A) (A)
                 (A) (A) (A) (A) (A) (A) (A) (A) (A) (A) (A) (A)
                 (A) (A) (A) (A) (A) (A) (A) (A) (A) (A) (A) (A)
                 (A) (A) (A) (A) (A) (A) (A) (A) (A) (A) (A) (A)
                 (A) (A) (A) (A) (A) (A) (A) (A) (A) (A) (A) (A)
                 (A) (A) (A) (A) (A) (A) (A) (A) (A) (A) (A)
 The electronic state of the initial guess is 1-A.
 Requested convergence on RMS density matrix=1.00D-08 within 128 cycles.
 Requested convergence on MAX density matrix=1.00D-06.
 Requested convergence on             energy=1.00D-06.
 No special actions if energy rises.
 Initial convergence to 1.0D-05 achieved.  Increase integral accuracy.
 SCF Done:  E(RHF) =  -492.921060161     A.U. after   14 cycles
             Convg  =    0.7319D-08             -V/T =  2.0017
 ExpMin= 2.97D-02 ExpMax= 1.17D+04 ExpMxC= 4.01D+02 IAcc=3 IRadAn=         5 AccDes= 0.00D+00
 HarFok:  IExCor=  205 AccDes= 0.00D+00 IRadAn=         5 IDoV=-2
 ScaDFX=  1.000000  1.000000  1.000000  1.000000
 Range of M.O.s used for correlation:    11   338
 NBasis=   338 NAE=    39 NBE=    39 NFC=    10 NFV=     0
 NROrb=    328 NOA=    29 NOB=    29 NVA=   299 NVB=   299

 **** Warning!!: The largest alpha MO coefficient is  0.73507854D+02

 Disk-based method using OVN memory for 29 occupieds at a time.
 Estimated scratch disk usage=  1373430234 words.
 Actual    scratch disk usage=  1360072366 words.
 JobTyp=1 Pass  1:  I=   1 to  29 NPSUse=  8 ParTrn=T ParDer=T DoDerP=F.
 Spin components of T(2) and E(2):
     alpha-alpha T2 =       0.6799934456D-01 E2=     -0.2059749610D+00
     alpha-beta  T2 =       0.3766025969D+00 E2=     -0.1190282629D+01
     beta-beta   T2 =       0.6799934456D-01 E2=     -0.2059749610D+00
 ANorm=    0.1229878566D+01
 E2 =    -0.1602232551D+01 EUMP2 =    -0.49452329271218D+03

 **********************************************************************

            Population analysis using the SCF density.

 **********************************************************************

 Orbital symmetries:
       Occupied  (A) (A) (A) (A) (A) (A) (A) (A) (A) (A) (A) (A)
                 (A) (A) (A) (A) (A) (A) (A) (A) (A) (A) (A) (A)
                 (A) (A) (A) (A) (A) (A) (A) (A) (A) (A) (A) (A)
                 (A) (A) (A)
       Virtual   (A) (A) (A) (A) (A) (A) (A) (A) (A) (A) (A) (A)
                 (A) (A) (A) (A) (A) (A) (A) (A) (A) (A) (A) (A)
                 (A) (A) (A) (A) (A) (A) (A) (A) (A) (A) (A) (A)
                 (A) (A) (A) (A) (A) (A) (A) (A) (A) (A) (A) (A)
                 (A) (A) (A) (A) (A) (A) (A) (A) (A) (A) (A) (A)
                 (A) (A) (A) (A) (A) (A) (A) (A) (A) (A) (A) (A)
                 (A) (A) (A) (A) (A) (A) (A) (A) (A) (A) (A) (A)
                 (A) (A) (A) (A) (A) (A) (A) (A) (A) (A) (A) (A)
                 (A) (A) (A) (A) (A) (A) (A) (A) (A) (A) (A) (A)
                 (A) (A) (A) (A) (A) (A) (A) (A) (A) (A) (A) (A)
                 (A) (A) (A) (A) (A) (A) (A) (A) (A) (A) (A) (A)
                 (A) (A) (A) (A) (A) (A) (A) (A) (A) (A) (A) (A)
                 (A) (A) (A) (A) (A) (A) (A) (A) (A) (A) (A) (A)
                 (A) (A) (A) (A) (A) (A) (A) (A) (A) (A) (A) (A)
                 (A) (A) (A) (A) (A) (A) (A) (A) (A) (A) (A) (A)
                 (A) (A) (A) (A) (A) (A) (A) (A) (A) (A) (A) (A)
                 (A) (A) (A) (A) (A) (A) (A) (A) (A) (A) (A) (A)
                 (A) (A) (A) (A) (A) (A) (A) (A) (A) (A) (A) (A)
                 (A) (A) (A) (A) (A) (A) (A) (A) (A) (A) (A) (A)
                 (A) (A) (A) (A) (A) (A) (A) (A) (A) (A) (A) (A)
                 (A) (A) (A) (A) (A) (A) (A) (A) (A) (A) (A) (A)
                 (A) (A) (A) (A) (A) (A) (A) (A) (A) (A) (A) (A)
                 (A) (A) (A) (A) (A) (A) (A) (A) (A) (A) (A) (A)
                 (A) (A) (A) (A) (A) (A) (A) (A) (A) (A) (A) (A)
                 (A) (A) (A) (A) (A) (A) (A) (A) (A) (A) (A)
 The electronic state is 1-A.
 Alpha  occ. eigenvalues --  -20.53818 -20.53180 -15.60761 -15.59548 -11.36999
 Alpha  occ. eigenvalues --  -11.36271 -11.29609 -11.27604 -11.24542 -11.23576
 Alpha  occ. eigenvalues --   -1.39499  -1.38350  -1.24490  -1.23605  -1.05687
 Alpha  occ. eigenvalues --   -0.99235  -0.96016  -0.89242  -0.80140  -0.77989
 Alpha  occ. eigenvalues --   -0.73027  -0.67781  -0.66632  -0.65373  -0.62625
 Alpha  occ. eigenvalues --   -0.61919  -0.59273  -0.58730  -0.56580  -0.56001
 Alpha  occ. eigenvalues --   -0.55669  -0.54399  -0.54017  -0.52661  -0.49599
 Alpha  occ. eigenvalues --   -0.43438  -0.42084  -0.40385  -0.39755
 Alpha virt. eigenvalues --    0.02811   0.03771   0.04383   0.04580   0.05786
 Alpha virt. eigenvalues --    0.06014   0.06166   0.06985   0.07103   0.07945
 Alpha virt. eigenvalues --    0.09222   0.09642   0.11323   0.11752   0.13025
 Alpha virt. eigenvalues --    0.13262   0.14168   0.14419   0.14781   0.15048
 Alpha virt. eigenvalues --    0.15680   0.16082   0.16404   0.16657   0.16911
 Alpha virt. eigenvalues --    0.17509   0.18288   0.18430   0.19016   0.19189
 Alpha virt. eigenvalues --    0.19720   0.19875   0.20395   0.21239   0.22298
 Alpha virt. eigenvalues --    0.23005   0.23632   0.24902   0.25489   0.25942
 Alpha virt. eigenvalues --    0.26842   0.27642   0.28709   0.29577   0.30379
 Alpha virt. eigenvalues --    0.31707   0.31987   0.32205   0.32457   0.33751
 Alpha virt. eigenvalues --    0.34206   0.35118   0.35672   0.35725   0.36312
 Alpha virt. eigenvalues --    0.37024   0.37760   0.38231   0.39372   0.39675
 Alpha virt. eigenvalues --    0.39699   0.40585   0.41316   0.42445   0.42960
 Alpha virt. eigenvalues --    0.43213   0.44350   0.44482   0.44828   0.45096
 Alpha virt. eigenvalues --    0.46429   0.46759   0.47237   0.48255   0.48988
 Alpha virt. eigenvalues --    0.49142   0.50646   0.50968   0.51877   0.52284
 Alpha virt. eigenvalues --    0.52939   0.53187   0.53976   0.54678   0.55577
 Alpha virt. eigenvalues --    0.56222   0.57032   0.57286   0.57415   0.58261
 Alpha virt. eigenvalues --    0.60371   0.61228   0.61458   0.61923   0.62329
 Alpha virt. eigenvalues --    0.62787   0.63465   0.63614   0.63749   0.64663
 Alpha virt. eigenvalues --    0.65313   0.65592   0.67808   0.68444   0.69079
 Alpha virt. eigenvalues --    0.69452   0.70166   0.70883   0.71286   0.72058
 Alpha virt. eigenvalues --    0.72859   0.73528   0.73593   0.74385   0.75100
 Alpha virt. eigenvalues --    0.76237   0.76890   0.77654   0.78364   0.79477
 Alpha virt. eigenvalues --    0.80387   0.81533   0.81737   0.82366   0.83164
 Alpha virt. eigenvalues --    0.84764   0.85430   0.85590   0.87672   0.88055
 Alpha virt. eigenvalues --    0.89018   0.89692   0.90341   0.91971   0.92514
 Alpha virt. eigenvalues --    0.93550   0.94673   0.96433   0.97655   0.99314
 Alpha virt. eigenvalues --    0.99996   1.00467   1.03241   1.03732   1.05069
 Alpha virt. eigenvalues --    1.06143   1.06970   1.08158   1.08894   1.09927
 Alpha virt. eigenvalues --    1.12040   1.13408   1.14111   1.14778   1.16598
 Alpha virt. eigenvalues --    1.17920   1.18808   1.19553   1.20123   1.21779
 Alpha virt. eigenvalues --    1.22474   1.25158   1.26467   1.30008   1.31190
 Alpha virt. eigenvalues --    1.31814   1.32954   1.34965   1.36862   1.38155
 Alpha virt. eigenvalues --    1.39255   1.43648   1.44080   1.44959   1.47224
 Alpha virt. eigenvalues --    1.47595   1.48580   1.53135   1.53463   1.54137
 Alpha virt. eigenvalues --    1.55467   1.57075   1.58366   1.60320   1.63740
 Alpha virt. eigenvalues --    1.67049   1.68684   1.69828   1.72309   1.72692
 Alpha virt. eigenvalues --    1.74441   1.76491   1.76863   1.79089   1.79910
 Alpha virt. eigenvalues --    1.81015   1.82220   1.84782   1.86795   1.87475
 Alpha virt. eigenvalues --    1.88728   1.89708   1.90927   1.92444   1.94314
 Alpha virt. eigenvalues --    1.94713   1.97617   1.97723   1.99992   2.01752
 Alpha virt. eigenvalues --    2.02635   2.03831   2.06322   2.07058   2.08440
 Alpha virt. eigenvalues --    2.10127   2.11854   2.12714   2.16179   2.17104
 Alpha virt. eigenvalues --    2.17950   2.18497   2.21515   2.21842   2.23617
 Alpha virt. eigenvalues --    2.24613   2.25483   2.28402   2.29228   2.30343
 Alpha virt. eigenvalues --    2.31826   2.32513   2.33738   2.34284   2.35356
 Alpha virt. eigenvalues --    2.36954   2.38322   2.40719   2.41967   2.43225
 Alpha virt. eigenvalues --    2.44410   2.45860   2.47998   2.50224   2.50563
 Alpha virt. eigenvalues --    2.54631   2.55481   2.56886   2.57977   2.61653
 Alpha virt. eigenvalues --    2.62565   2.64046   2.65788   2.67943   2.68350
 Alpha virt. eigenvalues --    2.71518   2.73115   2.73976   2.76213   2.76889
 Alpha virt. eigenvalues --    2.80347   2.81991   2.84584   2.87395   2.89116
 Alpha virt. eigenvalues --    2.89572   2.92221   2.95016   2.96523   2.99775
 Alpha virt. eigenvalues --    3.00345   3.02765   3.04357   3.06158   3.07812
 Alpha virt. eigenvalues --    3.09429   3.11266   3.14109   3.19403   3.24161
 Alpha virt. eigenvalues --    3.26677   3.32504   3.42576   3.48777   3.53685
 Alpha virt. eigenvalues --    3.63802   3.65375   3.77063   3.83681   3.84319
 Alpha virt. eigenvalues --    3.85399   3.86794   3.90860   3.96477   4.02769
 Alpha virt. eigenvalues --    4.03302   4.15267   4.22915   4.27210
          Condensed to atoms (all electrons):
              1          2          3          4          5          6
     1  H    0.744107   0.406688  -0.045927  -0.094496  -0.106507   0.027027
     2  C    0.406688   4.542331   0.324787   0.334292   0.150159  -0.052069
     3  H   -0.045927   0.324787   0.729757  -0.065763  -0.054020   0.014874
     4  H   -0.094496   0.334292  -0.065763   1.058975   0.090683  -0.009543
     5  C   -0.106507   0.150159  -0.054020   0.090683   5.381741   0.226786
     6  O    0.027027  -0.052069   0.014874  -0.009543   0.226786   8.714129
     7  N    0.051356  -0.068260   0.038919  -0.183237   0.083693  -0.120574
     8  H   -0.006792  -0.063446  -0.005773   0.011844  -0.082262   0.008547
     9  C   -0.002929   0.076364  -0.000245  -0.003212  -0.105925   0.048515
    10  H    0.000558  -0.003335  -0.001871   0.001279   0.034818  -0.006745
    11  C    0.001341  -0.036765   0.002231  -0.014840  -0.070351   0.021677
    12  H   -0.001005  -0.006792   0.000419  -0.001001   0.018969  -0.000423
    13  H   -0.000018  -0.003561   0.000135  -0.001843  -0.076312   0.012780
    14  H    0.000753   0.012825  -0.000574   0.002315   0.081225  -0.016809
    15  C   -0.002045  -0.003177   0.001697   0.006865  -0.053383  -0.015932
    16  O    0.000402   0.000762  -0.000284   0.000433  -0.003416   0.001726
    17  N    0.000051  -0.006952   0.000065  -0.002181  -0.004714   0.002841
    18  H    0.000029   0.000736  -0.000070   0.000413   0.006051  -0.001308
    19  C   -0.000116  -0.001717   0.000017  -0.000007  -0.002128   0.000272
    20  H   -0.000017  -0.000207   0.000022  -0.000221  -0.002543   0.000207
    21  H   -0.000004   0.000054   0.000014   0.000047   0.001537  -0.000092
    22  H   -0.000010   0.000068   0.000002   0.000119  -0.000266   0.000019
              7          8          9         10         11         12
     1  H    0.051356  -0.006792  -0.002929   0.000558   0.001341  -0.001005
     2  C   -0.068260  -0.063446   0.076364  -0.003335  -0.036765  -0.006792
     3  H    0.038919  -0.005773  -0.000245  -0.001871   0.002231   0.000419
     4  H   -0.183237   0.011844  -0.003212   0.001279  -0.014840  -0.001001
     5  C    0.083693  -0.082262  -0.105925   0.034818  -0.070351   0.018969
     6  O   -0.120574   0.008547   0.048515  -0.006745   0.021677  -0.000423
     7  N    7.506931   0.334653  -0.457454  -0.026367   0.061427  -0.015316
     8  H    0.334653   0.961434  -0.155343   0.025832   0.018605   0.002800
     9  C   -0.457454  -0.155343   7.040255   0.063104   0.115396  -0.096012
    10  H   -0.026367   0.025832   0.063104   1.118480   0.007972   0.066668
    11  C    0.061427   0.018605   0.115396   0.007972   4.360212   0.335373
    12  H   -0.015316   0.002800  -0.096012   0.066668   0.335373   1.133014
    13  H    0.088417   0.006209  -0.198025  -0.087341   0.262693  -0.171435
    14  H   -0.054489  -0.006878   0.135020  -0.026085   0.291937  -0.244100
    15  C    0.127658  -0.019962  -0.362005  -0.217434  -0.189087  -0.130546
    16  O   -0.022582   0.029226   0.018040   0.022478   0.026839   0.006804
    17  N    0.072084   0.009726  -0.142389   0.066357   0.072764   0.039555
    18  H    0.006187  -0.003179  -0.003980  -0.002982  -0.012889   0.015699
    19  C    0.010182   0.002564  -0.057263   0.004147  -0.007175  -0.000266
    20  H   -0.003371   0.000738  -0.025196  -0.000173  -0.001998  -0.000395
    21  H    0.003637   0.001290  -0.023458  -0.003208   0.007786  -0.001770
    22  H   -0.002463  -0.002810   0.027515   0.001383  -0.000101  -0.001159
             13         14         15         16         17         18
     1  H   -0.000018   0.000753  -0.002045   0.000402   0.000051   0.000029
     2  C   -0.003561   0.012825  -0.003177   0.000762  -0.006952   0.000736
     3  H    0.000135  -0.000574   0.001697  -0.000284   0.000065  -0.000070
     4  H   -0.001843   0.002315   0.006865   0.000433  -0.002181   0.000413
     5  C   -0.076312   0.081225  -0.053383  -0.003416  -0.004714   0.006051
     6  O    0.012780  -0.016809  -0.015932   0.001726   0.002841  -0.001308
     7  N    0.088417  -0.054489   0.127658  -0.022582   0.072084   0.006187
     8  H    0.006209  -0.006878  -0.019962   0.029226   0.009726  -0.003179
     9  C   -0.198025   0.135020  -0.362005   0.018040  -0.142389  -0.003980
    10  H   -0.087341  -0.026085  -0.217434   0.022478   0.066357  -0.002982
    11  C    0.262693   0.291937  -0.189087   0.026839   0.072764  -0.012889
    12  H   -0.171435  -0.244100  -0.130546   0.006804   0.039555   0.015699
    13  H    1.337930  -0.275661   0.124255  -0.000807  -0.006914   0.007314
    14  H   -0.275661   1.265419   0.027772  -0.001040  -0.020906   0.001512
    15  C    0.124255   0.027772   5.517531   0.130027   0.116543  -0.067304
    16  O   -0.000807  -0.001040   0.130027   8.823743  -0.140859   0.017145
    17  N   -0.006914  -0.020906   0.116543  -0.140859   7.135202   0.265680
    18  H    0.007314   0.001512  -0.067304   0.017145   0.265680   1.011642
    19  C    0.006109   0.001904  -0.075947  -0.003202   0.246382  -0.118319
    20  H    0.001378   0.000294   0.022255  -0.005663  -0.036061  -0.003683
    21  H    0.000183   0.001210   0.006661   0.006855  -0.006118  -0.001529
    22  H   -0.001839   0.000910  -0.036248   0.010511  -0.061721   0.008497
             19         20         21         22
     1  H   -0.000116  -0.000017  -0.000004  -0.000010
     2  C   -0.001717  -0.000207   0.000054   0.000068
     3  H    0.000017   0.000022   0.000014   0.000002
     4  H   -0.000007  -0.000221   0.000047   0.000119
     5  C   -0.002128  -0.002543   0.001537  -0.000266
     6  O    0.000272   0.000207  -0.000092   0.000019
     7  N    0.010182  -0.003371   0.003637  -0.002463
     8  H    0.002564   0.000738   0.001290  -0.002810
     9  C   -0.057263  -0.025196  -0.023458   0.027515
    10  H    0.004147  -0.000173  -0.003208   0.001383
    11  C   -0.007175  -0.001998   0.007786  -0.000101
    12  H   -0.000266  -0.000395  -0.001770  -0.001159
    13  H    0.006109   0.001378   0.000183  -0.001839
    14  H    0.001904   0.000294   0.001210   0.000910
    15  C   -0.075947   0.022255   0.006661  -0.036248
    16  O   -0.003202  -0.005663   0.006855   0.010511
    17  N    0.246382  -0.036061  -0.006118  -0.061721
    18  H   -0.118319  -0.003683  -0.001529   0.008497
    19  C    4.118462   0.492470   0.311051   0.340300
    20  H    0.492470   0.950513  -0.109214  -0.133412
    21  H    0.311051  -0.109214   1.033136  -0.147132
    22  H    0.340300  -0.133412  -0.147132   1.111035
 Mulliken atomic charges:
              1
     1  H    0.027551
     2  C    0.397217
     3  H    0.061588
     4  H   -0.130921
     5  C    0.486165
     6  O   -0.855905
     7  N   -0.431033
     8  H   -0.067023
     9  C    0.109228
    10  H   -0.037533
    11  C    0.746954
    12  H    0.050919
    13  H   -0.023646
    14  H   -0.176554
    15  C    1.091804
    16  O   -0.917138
    17  N   -0.598435
    18  H   -0.125661
    19  C    0.732279
    20  H   -0.145724
    21  H   -0.080933
    22  H   -0.113200
 Sum of Mulliken atomic charges =   0.00000
 Mulliken charges with hydrogens summed into heavy atoms:
              1
     2  C    0.355435
     5  C    0.486165
     6  O   -0.855905
     7  N   -0.498056
     9  C    0.071696
    11  C    0.597674
    15  C    1.091804
    16  O   -0.917138
    17  N   -0.724096
    19  C    0.392422
 Sum of Mulliken charges with hydrogens summed into heavy atoms =   0.00000
 Electronic spatial extent (au):  <R**2>=           1967.2100
 Charge=              0.0000 electrons
 Dipole moment (field-independent basis, Debye):
    X=              2.6582    Y=              0.4006    Z=              2.6069  Tot=              3.7447
 Quadrupole moment (field-independent basis, Debye-Ang):
   XX=            -58.8147   YY=            -63.1218   ZZ=            -62.4270
   XY=             13.6708   XZ=             -0.0635   YZ=             -2.0359
 Traceless Quadrupole moment (field-independent basis, Debye-Ang):
   XX=              2.6398   YY=             -1.6673   ZZ=             -0.9725
   XY=             13.6708   XZ=             -0.0635   YZ=             -2.0359
 Octapole moment (field-independent basis, Debye-Ang**2):
  XXX=             44.9185  YYY=              3.2570  ZZZ=             -1.1877  XYY=             -0.5718
  XXY=            -21.3073  XXZ=             20.0700  XZZ=             -0.6939  YZZ=              2.4196
  YYZ=              6.7754  XYZ=             -5.8071
 Hexadecapole moment (field-independent basis, Debye-Ang**3):
 XXXX=          -1865.0236 YYYY=           -469.6026 ZZZZ=           -162.7061 XXXY=             74.6183
 XXXZ=            -18.9997 YYYX=             14.5690 YYYZ=             -6.6352 ZZZX=              6.9053
 ZZZY=             -0.6079 XXYY=           -409.4581 XXZZ=           -348.2089 YYZZ=           -108.1430
 XXYZ=              8.3151 YYXZ=              6.5331 ZZXY=              6.1275
 N-N= 5.497896493810D+02 E-N=-2.254694323797D+03  KE= 4.920750843341D+02
 1\1\GINC-NODE010\SP\RMP2-FC\Aug-CC-pVDZ\C6H12N2O2\MANAGER\13-Feb-2017\
 0\\#SP MP2/aug-cc-pVDZ\\Single Point calculation at MP2\\0,1\H,0,-4.00
 5,-0.7795,1.1774\C,0,-3.2154,-1.2212,0.5637\H,0,-3.6977,-1.704,-0.2934
 \H,0,-2.6882,-1.9816,1.1477\C,0,-2.3095,-0.107,0.0572\O,0,-2.7596,0.92
 12,-0.4342\N,0,-0.9645,-0.3404,0.2055\H,0,-0.6762,-1.3062,0.3119\C,0,0
 .0363,0.5143,-0.4439\H,0,-0.2027,0.6006,-1.5136\C,0,0.0522,1.9207,0.16
 58\H,0,0.2664,1.885,1.2405\H,0,0.7942,2.5547,-0.3349\H,0,-0.9299,2.375
 8,0.0313\C,0,1.3584,-0.2785,-0.3613\O,0,1.4096,-1.4164,-0.8233\N,0,2.3
 906,0.3006,0.3064\H,0,2.2789,1.2421,0.6504\C,0,3.6852,-0.3435,0.452\H,
 0,3.5915,-1.3586,0.0647\H,0,4.4617,0.186,-0.1131\H,0,3.9799,-0.3827,1.
 5065\\Version=EM64L-G09RevA.02\State=1-A\HF=-492.9210602\MP2=-494.5232
 927\RMSD=7.319e-09\PG=C01 [X(C6H12N2O2)]\\@


      HUMANKIND PERIODICALLY GOES THROUGH A SPEEDUP OF ITS AFFAIRS, 
      THEREBY EXPERIENCING THE RACE BETWEEN THE RENEWABLE VITALITY
      OF THE LIVING, AND THE BECKONING VITIATION OF DECADENCE.
      IN THIS PERIODIC RACE, ANY PAUSE BECOMES A LUXURY.
      ONLY THEN CAN ONE REFLECT THAT ALL IS PERMITTED;
      ALL IS POSSIBLE.

                              -- THE APOCRYPHA OF MUAD'DIB
                                 CHILDREN OF DUNE, BY FRANK HERBERT
 Job cpu time:  0 days 13 hours 36 minutes 27.5 seconds.
 File lengths (MBytes):  RWF=  10493 Int=      0 D2E=      0 Chk=      7 Scr=      2
 Normal termination of Gaussian 09 at Mon Feb 13 03:16:29 2017.
