 Entering Gaussian System, Link 0=g09
 Initial command:
 /home/steboss/Software/g09/l1.exe /home/steboss/projects/phi_psi_scan/alanine/MP2/195/5355/Gau-21663.inp -scrdir=/home/steboss/projects/phi_psi_scan/alanine/MP2/195/5355/
 Entering Link 1 = /home/steboss/Software/g09/l1.exe PID=     21665.
  
 Copyright (c) 1988,1990,1992,1993,1995,1998,2003,2009, Gaussian, Inc.
                  All Rights Reserved.
  
 This is part of the Gaussian(R) 09 program.  It is based on
 the Gaussian(R) 03 system (copyright 2003, Gaussian, Inc.),
 the Gaussian(R) 98 system (copyright 1998, Gaussian, Inc.),
 the Gaussian(R) 94 system (copyright 1995, Gaussian, Inc.),
 the Gaussian 92(TM) system (copyright 1992, Gaussian, Inc.),
 the Gaussian 90(TM) system (copyright 1990, Gaussian, Inc.),
 the Gaussian 88(TM) system (copyright 1988, Gaussian, Inc.),
 the Gaussian 86(TM) system (copyright 1986, Carnegie Mellon
 University), and the Gaussian 82(TM) system (copyright 1983,
 Carnegie Mellon University). Gaussian is a federally registered
 trademark of Gaussian, Inc.
  
 This software contains proprietary and confidential information,
 including trade secrets, belonging to Gaussian, Inc.
  
 This software is provided under written license and may be
 used, copied, transmitted, or stored only in accord with that
 written license.
  
 The following legend is applicable only to US Government
 contracts under FAR:
  
                    RESTRICTED RIGHTS LEGEND
  
 Use, reproduction and disclosure by the US Government is
 subject to restrictions as set forth in subparagraphs (a)
 and (c) of the Commercial Computer Software - Restricted
 Rights clause in FAR 52.227-19.
  
 Gaussian, Inc.
 340 Quinnipiac St., Bldg. 40, Wallingford CT 06492
  
  
 ---------------------------------------------------------------
 Warning -- This program may not be used in any manner that
 competes with the business of Gaussian, Inc. or will provide
 assistance to any competitor of Gaussian, Inc.  The licensee
 of this program is prohibited from giving any competitor of
 Gaussian, Inc. access to this program.  By using this program,
 the user acknowledges that Gaussian, Inc. is engaged in the
 business of creating and licensing software in the field of
 computational chemistry and represents and warrants to the
 licensee that it is not a competitor of Gaussian, Inc. and that
 it will not use this program in any manner prohibited above.
 ---------------------------------------------------------------
  

 Cite this work as:
 Gaussian 09, Revision A.02,
 M. J. Frisch, G. W. Trucks, H. B. Schlegel, G. E. Scuseria, 
 M. A. Robb, J. R. Cheeseman, G. Scalmani, V. Barone, B. Mennucci, 
 G. A. Petersson, H. Nakatsuji, M. Caricato, X. Li, H. P. Hratchian, 
 A. F. Izmaylov, J. Bloino, G. Zheng, J. L. Sonnenberg, M. Hada, 
 M. Ehara, K. Toyota, R. Fukuda, J. Hasegawa, M. Ishida, T. Nakajima, 
 Y. Honda, O. Kitao, H. Nakai, T. Vreven, J. A. Montgomery, Jr., 
 J. E. Peralta, F. Ogliaro, M. Bearpark, J. J. Heyd, E. Brothers, 
 K. N. Kudin, V. N. Staroverov, R. Kobayashi, J. Normand, 
 K. Raghavachari, A. Rendell, J. C. Burant, S. S. Iyengar, J. Tomasi, 
 M. Cossi, N. Rega, J. M. Millam, M. Klene, J. E. Knox, J. B. Cross, 
 V. Bakken, C. Adamo, J. Jaramillo, R. Gomperts, R. E. Stratmann, 
 O. Yazyev, A. J. Austin, R. Cammi, C. Pomelli, J. W. Ochterski, 
 R. L. Martin, K. Morokuma, V. G. Zakrzewski, G. A. Voth, 
 P. Salvador, J. J. Dannenberg, S. Dapprich, A. D. Daniels, 
 O. Farkas, J. B. Foresman, J. V. Ortiz, J. Cioslowski, 
 and D. J. Fox, Gaussian, Inc., Wallingford CT, 2009.
 
 ******************************************
 Gaussian 09:  EM64L-G09RevA.02 11-Jun-2009
                13-Feb-2017 
 ******************************************
 %chk=structure_180.chk
 %NProcShared=8
 Will use up to    8 processors via shared memory.
 -------------------
 #SP MP2/aug-cc-pVDZ
 -------------------
 1/38=1/1;
 2/12=2,17=6,18=5,40=1/2;
 3/5=16,7=10,11=9,16=1,25=1,30=1/1,2,3;
 4//1;
 5/5=2,38=5/2;
 8/10=1/1;
 9/16=-3/6;
 6/7=2,8=2,9=2,10=2/1;
 99/5=1,9=1/99;
 -------------------------------
 Single Point calculation at MP2
 -------------------------------
 Symbolic Z-matrix:
 Charge =  0 Multiplicity = 1
 H                    -4.1039   -0.7326    0.8398 
 C                    -3.3667   -1.1352    0.1381 
 H                    -3.8992   -1.3863   -0.7845 
 H                    -2.9339   -2.0469    0.5611 
 C                    -2.3388   -0.0551   -0.1675 
 O                    -2.6581    1.0288   -0.6498 
 N                    -1.0495   -0.3718    0.1364 
 H                    -0.777    -1.3055    0.4234 
 C                     0.0577    0.5165   -0.1581 
 H                    -0.0349    0.8704   -1.195 
 C                     0.0669    1.744     0.7743 
 H                     0.2111    1.4358    1.815 
 H                     0.8598    2.4526    0.5086 
 H                    -0.8923    2.2572    0.6809 
 C                     1.3417   -0.3275   -0.029 
 O                     1.302    -1.514     0.2907 
 N                     2.5011    0.3391   -0.2712 
 H                     2.4501    1.3066   -0.5559 
 C                     3.8063   -0.2974   -0.2094 
 H                     3.6571   -1.3174    0.1458 
 H                     4.2811   -0.3287   -1.1973 
 H                     4.4667    0.2342    0.4848 
 
                          Input orientation:                          
 ---------------------------------------------------------------------
 Center     Atomic      Atomic             Coordinates (Angstroms)
 Number     Number       Type             X           Y           Z
 ---------------------------------------------------------------------
      1          1           0       -4.103900   -0.732600    0.839800
      2          6           0       -3.366700   -1.135200    0.138100
      3          1           0       -3.899200   -1.386300   -0.784500
      4          1           0       -2.933900   -2.046900    0.561100
      5          6           0       -2.338800   -0.055100   -0.167500
      6          8           0       -2.658100    1.028800   -0.649800
      7          7           0       -1.049500   -0.371800    0.136400
      8          1           0       -0.777000   -1.305500    0.423400
      9          6           0        0.057700    0.516500   -0.158100
     10          1           0       -0.034900    0.870400   -1.195000
     11          6           0        0.066900    1.744000    0.774300
     12          1           0        0.211100    1.435800    1.815000
     13          1           0        0.859800    2.452600    0.508600
     14          1           0       -0.892300    2.257200    0.680900
     15          6           0        1.341700   -0.327500   -0.029000
     16          8           0        1.302000   -1.514000    0.290700
     17          7           0        2.501100    0.339100   -0.271200
     18          1           0        2.450100    1.306600   -0.555900
     19          6           0        3.806300   -0.297400   -0.209400
     20          1           0        3.657100   -1.317400    0.145800
     21          1           0        4.281100   -0.328700   -1.197300
     22          1           0        4.466700    0.234200    0.484800
 ---------------------------------------------------------------------
                    Distance matrix (angstroms):
                    1          2          3          4          5
     1  H    0.000000
     2  C    1.094501   0.000000
     3  H    1.762832   1.094440   0.000000
     4  H    1.781561   1.094277   1.782929   0.000000
     5  C    2.142251   1.522033   2.141875   2.202787   0.000000
     6  O    2.722458   2.409522   2.718673   3.316968   1.228578
     7  N    3.155045   2.439713   3.161970   2.556813   1.361965
     8  H    3.401451   2.610928   3.348684   2.284919   2.086117
     9  C    4.458135   3.813445   4.435097   4.004740   2.463743
    10  H    4.823565   4.111019   4.493776   4.471994   2.687054
    11  C    4.851125   4.525942   5.287588   4.839543   3.148196
    12  H    4.926682   4.714095   5.622830   4.857210   3.557398
    13  H    5.907073   5.556337   6.249587   5.885611   4.120281
    14  H    4.390732   4.233871   4.946103   4.765266   2.856375
    15  C    5.529329   4.780098   5.399895   4.645999   3.693165
    16  O    5.489613   4.686527   5.312706   4.277844   3.948894
    17  N    6.782985   6.064006   6.648633   5.993742   4.857034
    18  H    7.004372   6.346588   6.900549   6.440583   4.993861
    19  C    7.991338   7.230117   7.803280   7.006049   6.150018
    20  H    7.813882   7.026167   7.613664   6.644240   6.135338
    21  H    8.638353   7.805292   8.258706   7.622362   6.705104
    22  H    8.632260   7.959750   8.615418   7.744554   6.842808
                    6          7          8          9         10
     6  O    0.000000
     7  N    2.273188   0.000000
     8  H    3.184219   1.014111   0.000000
     9  C    2.807096   1.449724   2.086756   0.000000
    10  H    2.683936   2.084490   2.811489   1.099537   0.000000
    11  C    3.156770   2.475858   3.183512   1.541496   2.156776
    12  H    3.804365   2.770240   3.229182   2.182147   3.072506
    13  H    3.967961   3.429460   4.099962   2.199167   2.491204
    14  H    2.529383   2.689393   3.573854   2.153243   2.485427
    15  C    4.268881   2.397323   2.376981   1.541966   2.165536
    16  O    4.799246   2.618775   2.093639   2.423352   3.111265
    17  N    5.218847   3.643937   3.732709   2.452441   2.750815
    18  H    5.116610   3.942525   4.265709   2.550702   2.602680
    19  C    6.613715   4.868666   4.735329   3.836283   4.134003
    20  H    6.783759   4.800659   4.442797   4.051077   4.496118
    21  H    7.091901   5.495080   5.400480   4.430734   4.479476
    22  H    7.258201   5.560313   5.465422   4.464560   4.846739
                   11         12         13         14         15
    11  C    0.000000
    12  H    1.094914   0.000000
    13  H    1.096084   1.778026   0.000000
    14  H    1.091862   1.782799   1.771362   0.000000
    15  C    2.561546   2.790666   2.872316   3.489325   0.000000
    16  O    3.517656   3.494978   3.997116   4.380543   1.229458
    17  N    2.998690   3.286196   2.787263   4.012576   1.359126
    18  H    2.764126   3.263584   2.230590   3.688489   2.043638
    19  C    4.372424   4.475225   4.093884   5.421758   2.471377
    20  H    4.759907   4.716063   4.708440   5.810434   2.524190
    21  H    5.093405   5.362118   4.727686   6.081002   3.163068
    22  H    4.660638   4.617727   4.234571   5.731480   3.216383
                   16         17         18         19         20
    16  O    0.000000
    17  N    2.277620   0.000000
    18  H    3.160799   1.009808   0.000000
    19  C    2.828734   1.453444   2.128886   0.000000
    20  H    2.367730   2.062575   2.972307   1.090334   0.000000
    21  H    3.534702   2.114715   2.537353   1.096522   1.780680
    22  H    3.620663   2.108583   2.509935   1.095737   1.782649
                   21         22
    21  H    0.000000
    22  H    1.783470   0.000000
 Stoichiometry    C6H12N2O2
 Framework group  C1[X(C6H12N2O2)]
 Deg. of freedom    60
 Full point group                 C1      NOp   1
 Largest Abelian subgroup         C1      NOp   1
 Largest concise Abelian subgroup C1      NOp   1
                         Standard orientation:                         
 ---------------------------------------------------------------------
 Center     Atomic      Atomic             Coordinates (Angstroms)
 Number     Number       Type             X           Y           Z
 ---------------------------------------------------------------------
      1          1           0       -4.103891   -0.732638    0.839791
      2          6           0       -3.366688   -1.135233    0.138091
      3          1           0       -3.899186   -1.386336   -0.784509
      4          1           0       -2.933882   -2.046930    0.561091
      5          6           0       -2.338796   -0.055125   -0.167509
      6          8           0       -2.658103    1.028772   -0.649809
      7          7           0       -1.049494   -0.371816    0.136391
      8          1           0       -0.776987   -1.305514    0.423391
      9          6           0        0.057700    0.516491   -0.158109
     10          1           0       -0.034902    0.870391   -1.195009
     11          6           0        0.066892    1.743991    0.774291
     12          1           0        0.211094    1.435793    1.814991
     13          1           0        0.859787    2.452597    0.508591
     14          1           0       -0.892312    2.257185    0.680891
     15          6           0        1.341706   -0.327500   -0.029009
     16          8           0        1.302015   -1.514000    0.290691
     17          7           0        2.501101    0.339109   -0.271209
     18          1           0        2.450095    1.306608   -0.555909
     19          6           0        3.806306   -0.297382   -0.209409
     20          1           0        3.657113   -1.317383    0.145791
     21          1           0        4.281106   -0.328679   -1.197309
     22          1           0        4.466702    0.234222    0.484791
 ---------------------------------------------------------------------
 Rotational constants (GHZ):      3.0135035      0.6570884      0.5727121
 Standard basis: Aug-CC-pVDZ (5D, 7F)
 There are   338 symmetry adapted basis functions of A   symmetry.
 Integral buffers will be    131072 words long.
 Raffenetti 1 integral format.
 Two-electron integral symmetry is turned on.
   338 basis functions,   562 primitive gaussians,   358 cartesian basis functions
    39 alpha electrons       39 beta electrons
       nuclear repulsion energy       549.2068764682 Hartrees.
 NAtoms=   22 NActive=   22 NUniq=   22 SFac= 7.50D-01 NAtFMM=   80 NAOKFM=F Big=F
 One-electron integrals computed using PRISM.
 NBasis=   338 RedAO= T  NBF=   338
 NBsUse=   338 1.00D-06 NBFU=   338
 Harris functional with IExCor=  205 diagonalized for initial guess.
 ExpMin= 2.97D-02 ExpMax= 1.17D+04 ExpMxC= 4.01D+02 IAcc=3 IRadAn=         0 AccDes= 0.00D+00
 HarFok:  IExCor=  205 AccDes= 0.00D+00 IRadAn=         0 IDoV= 1
 ScaDFX=  1.000000  1.000000  1.000000  1.000000
 FoFCou: FMM=F IPFlag=           0 FMFlag=      100000 FMFlg1=           0
         NFxFlg=           0 DoJE=T BraDBF=F KetDBF=T FulRan=T
         Omega=  0.000000  0.000000  1.000000  0.000000  0.000000 ICntrl=     500 IOpCl=  0
         NMat0=    1 NMatS0=    1 NMatT0=    0 NMatD0=    1 NMtDS0=    0 NMtDT0=    0
         I1Cent=           4 NGrid=           0.
 Petite list used in FoFCou.
 Initial guess orbital symmetries:
       Occupied  (A) (A) (A) (A) (A) (A) (A) (A) (A) (A) (A) (A)
                 (A) (A) (A) (A) (A) (A) (A) (A) (A) (A) (A) (A)
                 (A) (A) (A) (A) (A) (A) (A) (A) (A) (A) (A) (A)
                 (A) (A) (A)
       Virtual   (A) (A) (A) (A) (A) (A) (A) (A) (A) (A) (A) (A)
                 (A) (A) (A) (A) (A) (A) (A) (A) (A) (A) (A) (A)
                 (A) (A) (A) (A) (A) (A) (A) (A) (A) (A) (A) (A)
                 (A) (A) (A) (A) (A) (A) (A) (A) (A) (A) (A) (A)
                 (A) (A) (A) (A) (A) (A) (A) (A) (A) (A) (A) (A)
                 (A) (A) (A) (A) (A) (A) (A) (A) (A) (A) (A) (A)
                 (A) (A) (A) (A) (A) (A) (A) (A) (A) (A) (A) (A)
                 (A) (A) (A) (A) (A) (A) (A) (A) (A) (A) (A) (A)
                 (A) (A) (A) (A) (A) (A) (A) (A) (A) (A) (A) (A)
                 (A) (A) (A) (A) (A) (A) (A) (A) (A) (A) (A) (A)
                 (A) (A) (A) (A) (A) (A) (A) (A) (A) (A) (A) (A)
                 (A) (A) (A) (A) (A) (A) (A) (A) (A) (A) (A) (A)
                 (A) (A) (A) (A) (A) (A) (A) (A) (A) (A) (A) (A)
                 (A) (A) (A) (A) (A) (A) (A) (A) (A) (A) (A) (A)
                 (A) (A) (A) (A) (A) (A) (A) (A) (A) (A) (A) (A)
                 (A) (A) (A) (A) (A) (A) (A) (A) (A) (A) (A) (A)
                 (A) (A) (A) (A) (A) (A) (A) (A) (A) (A) (A) (A)
                 (A) (A) (A) (A) (A) (A) (A) (A) (A) (A) (A) (A)
                 (A) (A) (A) (A) (A) (A) (A) (A) (A) (A) (A) (A)
                 (A) (A) (A) (A) (A) (A) (A) (A) (A) (A) (A) (A)
                 (A) (A) (A) (A) (A) (A) (A) (A) (A) (A) (A) (A)
                 (A) (A) (A) (A) (A) (A) (A) (A) (A) (A) (A) (A)
                 (A) (A) (A) (A) (A) (A) (A) (A) (A) (A) (A) (A)
                 (A) (A) (A) (A) (A) (A) (A) (A) (A) (A) (A) (A)
                 (A) (A) (A) (A) (A) (A) (A) (A) (A) (A) (A)
 The electronic state of the initial guess is 1-A.
 Requested convergence on RMS density matrix=1.00D-08 within 128 cycles.
 Requested convergence on MAX density matrix=1.00D-06.
 Requested convergence on             energy=1.00D-06.
 No special actions if energy rises.
 Initial convergence to 1.0D-05 achieved.  Increase integral accuracy.
 SCF Done:  E(RHF) =  -492.927713251     A.U. after   14 cycles
             Convg  =    0.7448D-08             -V/T =  2.0017
 ExpMin= 2.97D-02 ExpMax= 1.17D+04 ExpMxC= 4.01D+02 IAcc=3 IRadAn=         5 AccDes= 0.00D+00
 HarFok:  IExCor=  205 AccDes= 0.00D+00 IRadAn=         5 IDoV=-2
 ScaDFX=  1.000000  1.000000  1.000000  1.000000
 Range of M.O.s used for correlation:    11   338
 NBasis=   338 NAE=    39 NBE=    39 NFC=    10 NFV=     0
 NROrb=    328 NOA=    29 NOB=    29 NVA=   299 NVB=   299

 **** Warning!!: The largest alpha MO coefficient is  0.79177501D+02

 Disk-based method using OVN memory for 29 occupieds at a time.
 Estimated scratch disk usage=  1370647822 words.
 Actual    scratch disk usage=  1357651758 words.
 JobTyp=1 Pass  1:  I=   1 to  29 NPSUse=  8 ParTrn=T ParDer=T DoDerP=F.
 Spin components of T(2) and E(2):
     alpha-alpha T2 =       0.6787365156D-01 E2=     -0.2058671047D+00
     alpha-beta  T2 =       0.3756232248D+00 E2=     -0.1189018878D+01
     beta-beta   T2 =       0.6787365156D-01 E2=     -0.2058671047D+00
 ANorm=    0.1229378106D+01
 E2 =    -0.1600753088D+01 EUMP2 =    -0.49452846633863D+03

 **********************************************************************

            Population analysis using the SCF density.

 **********************************************************************

 Orbital symmetries:
       Occupied  (A) (A) (A) (A) (A) (A) (A) (A) (A) (A) (A) (A)
                 (A) (A) (A) (A) (A) (A) (A) (A) (A) (A) (A) (A)
                 (A) (A) (A) (A) (A) (A) (A) (A) (A) (A) (A) (A)
                 (A) (A) (A)
       Virtual   (A) (A) (A) (A) (A) (A) (A) (A) (A) (A) (A) (A)
                 (A) (A) (A) (A) (A) (A) (A) (A) (A) (A) (A) (A)
                 (A) (A) (A) (A) (A) (A) (A) (A) (A) (A) (A) (A)
                 (A) (A) (A) (A) (A) (A) (A) (A) (A) (A) (A) (A)
                 (A) (A) (A) (A) (A) (A) (A) (A) (A) (A) (A) (A)
                 (A) (A) (A) (A) (A) (A) (A) (A) (A) (A) (A) (A)
                 (A) (A) (A) (A) (A) (A) (A) (A) (A) (A) (A) (A)
                 (A) (A) (A) (A) (A) (A) (A) (A) (A) (A) (A) (A)
                 (A) (A) (A) (A) (A) (A) (A) (A) (A) (A) (A) (A)
                 (A) (A) (A) (A) (A) (A) (A) (A) (A) (A) (A) (A)
                 (A) (A) (A) (A) (A) (A) (A) (A) (A) (A) (A) (A)
                 (A) (A) (A) (A) (A) (A) (A) (A) (A) (A) (A) (A)
                 (A) (A) (A) (A) (A) (A) (A) (A) (A) (A) (A) (A)
                 (A) (A) (A) (A) (A) (A) (A) (A) (A) (A) (A) (A)
                 (A) (A) (A) (A) (A) (A) (A) (A) (A) (A) (A) (A)
                 (A) (A) (A) (A) (A) (A) (A) (A) (A) (A) (A) (A)
                 (A) (A) (A) (A) (A) (A) (A) (A) (A) (A) (A) (A)
                 (A) (A) (A) (A) (A) (A) (A) (A) (A) (A) (A) (A)
                 (A) (A) (A) (A) (A) (A) (A) (A) (A) (A) (A) (A)
                 (A) (A) (A) (A) (A) (A) (A) (A) (A) (A) (A) (A)
                 (A) (A) (A) (A) (A) (A) (A) (A) (A) (A) (A) (A)
                 (A) (A) (A) (A) (A) (A) (A) (A) (A) (A) (A) (A)
                 (A) (A) (A) (A) (A) (A) (A) (A) (A) (A) (A) (A)
                 (A) (A) (A) (A) (A) (A) (A) (A) (A) (A) (A) (A)
                 (A) (A) (A) (A) (A) (A) (A) (A) (A) (A) (A)
 The electronic state is 1-A.
 Alpha  occ. eigenvalues --  -20.54543 -20.52287 -15.60740 -15.58715 -11.37332
 Alpha  occ. eigenvalues --  -11.35702 -11.29618 -11.27746 -11.24115 -11.23716
 Alpha  occ. eigenvalues --   -1.40033  -1.37613  -1.24605  -1.23394  -1.05569
 Alpha  occ. eigenvalues --   -0.98967  -0.96170  -0.88852  -0.80742  -0.78024
 Alpha  occ. eigenvalues --   -0.73068  -0.67656  -0.66000  -0.65063  -0.63105
 Alpha  occ. eigenvalues --   -0.61677  -0.59813  -0.58658  -0.56615  -0.56348
 Alpha  occ. eigenvalues --   -0.55614  -0.54557  -0.53158  -0.52350  -0.49240
 Alpha  occ. eigenvalues --   -0.43704  -0.41863  -0.40880  -0.38706
 Alpha virt. eigenvalues --    0.02787   0.03970   0.04285   0.04452   0.05811
 Alpha virt. eigenvalues --    0.06064   0.06425   0.06860   0.07378   0.08018
 Alpha virt. eigenvalues --    0.09200   0.09731   0.11086   0.12215   0.13001
 Alpha virt. eigenvalues --    0.13725   0.14183   0.14395   0.14941   0.14963
 Alpha virt. eigenvalues --    0.15182   0.15494   0.16257   0.16712   0.17252
 Alpha virt. eigenvalues --    0.17847   0.18497   0.18773   0.19210   0.19273
 Alpha virt. eigenvalues --    0.19531   0.20571   0.21037   0.21274   0.22016
 Alpha virt. eigenvalues --    0.23965   0.24270   0.24712   0.24915   0.26458
 Alpha virt. eigenvalues --    0.27355   0.28821   0.29466   0.29897   0.30660
 Alpha virt. eigenvalues --    0.31249   0.31585   0.32306   0.32500   0.33288
 Alpha virt. eigenvalues --    0.34198   0.34453   0.35812   0.36086   0.36441
 Alpha virt. eigenvalues --    0.37160   0.37665   0.38425   0.39043   0.40427
 Alpha virt. eigenvalues --    0.41200   0.41332   0.41664   0.42667   0.42865
 Alpha virt. eigenvalues --    0.43665   0.44402   0.44871   0.45154   0.45734
 Alpha virt. eigenvalues --    0.46127   0.46977   0.47481   0.47729   0.48403
 Alpha virt. eigenvalues --    0.49534   0.50313   0.51222   0.51465   0.51774
 Alpha virt. eigenvalues --    0.52551   0.53700   0.53889   0.54690   0.55649
 Alpha virt. eigenvalues --    0.55893   0.56700   0.57730   0.58263   0.59120
 Alpha virt. eigenvalues --    0.59866   0.60295   0.60853   0.61127   0.62154
 Alpha virt. eigenvalues --    0.62748   0.63598   0.64244   0.64578   0.64794
 Alpha virt. eigenvalues --    0.65395   0.66613   0.66921   0.68111   0.68821
 Alpha virt. eigenvalues --    0.69518   0.70465   0.70962   0.71517   0.71815
 Alpha virt. eigenvalues --    0.72122   0.73124   0.73743   0.73876   0.75180
 Alpha virt. eigenvalues --    0.75945   0.76751   0.78341   0.78799   0.79361
 Alpha virt. eigenvalues --    0.80532   0.81146   0.81816   0.82323   0.84114
 Alpha virt. eigenvalues --    0.84398   0.84585   0.85798   0.87340   0.87886
 Alpha virt. eigenvalues --    0.89694   0.90322   0.91760   0.92284   0.93686
 Alpha virt. eigenvalues --    0.94278   0.95032   0.96353   0.97320   0.99243
 Alpha virt. eigenvalues --    0.99985   1.01402   1.03058   1.04167   1.04967
 Alpha virt. eigenvalues --    1.05484   1.07701   1.08669   1.09768   1.11475
 Alpha virt. eigenvalues --    1.12381   1.12863   1.13537   1.14980   1.15647
 Alpha virt. eigenvalues --    1.16594   1.18168   1.19051   1.20261   1.21473
 Alpha virt. eigenvalues --    1.21968   1.24249   1.25181   1.26673   1.30425
 Alpha virt. eigenvalues --    1.31494   1.32205   1.34649   1.34933   1.36538
 Alpha virt. eigenvalues --    1.39753   1.41014   1.41959   1.43698   1.46189
 Alpha virt. eigenvalues --    1.48895   1.51270   1.51580   1.53812   1.54945
 Alpha virt. eigenvalues --    1.55486   1.57907   1.59001   1.61224   1.63450
 Alpha virt. eigenvalues --    1.66648   1.68226   1.69855   1.71813   1.73931
 Alpha virt. eigenvalues --    1.74926   1.76036   1.77636   1.79129   1.81967
 Alpha virt. eigenvalues --    1.83428   1.84715   1.86135   1.87049   1.88296
 Alpha virt. eigenvalues --    1.89069   1.89431   1.89816   1.91409   1.91914
 Alpha virt. eigenvalues --    1.94766   1.97046   1.97892   2.00830   2.00897
 Alpha virt. eigenvalues --    2.01817   2.04703   2.06355   2.06852   2.08064
 Alpha virt. eigenvalues --    2.09846   2.10260   2.11916   2.14990   2.16073
 Alpha virt. eigenvalues --    2.17001   2.17917   2.19453   2.21043   2.22007
 Alpha virt. eigenvalues --    2.23125   2.24712   2.26542   2.29628   2.30550
 Alpha virt. eigenvalues --    2.30951   2.31770   2.34254   2.34381   2.36220
 Alpha virt. eigenvalues --    2.38059   2.39563   2.40978   2.41492   2.43567
 Alpha virt. eigenvalues --    2.44902   2.45685   2.49648   2.51144   2.51442
 Alpha virt. eigenvalues --    2.52820   2.55492   2.57617   2.59494   2.61124
 Alpha virt. eigenvalues --    2.62632   2.64253   2.65218   2.65967   2.66898
 Alpha virt. eigenvalues --    2.71035   2.73535   2.75088   2.78095   2.79264
 Alpha virt. eigenvalues --    2.80047   2.81572   2.84612   2.85774   2.88289
 Alpha virt. eigenvalues --    2.88880   2.92190   2.94242   2.96036   2.97422
 Alpha virt. eigenvalues --    3.00417   3.01927   3.04138   3.05770   3.06873
 Alpha virt. eigenvalues --    3.09124   3.14497   3.18859   3.20615   3.22708
 Alpha virt. eigenvalues --    3.26636   3.34316   3.42482   3.48345   3.57287
 Alpha virt. eigenvalues --    3.61393   3.70113   3.77307   3.80978   3.83420
 Alpha virt. eigenvalues --    3.85118   3.88207   3.96772   4.01707   4.04622
 Alpha virt. eigenvalues --    4.07918   4.11628   4.21832   4.22518
          Condensed to atoms (all electrons):
              1          2          3          4          5          6
     1  H    0.728905   0.384280  -0.051110  -0.077495  -0.099270   0.021215
     2  C    0.384280   4.555536   0.371137   0.339785   0.146218  -0.052310
     3  H   -0.051110   0.371137   0.734132  -0.072783  -0.095815   0.021297
     4  H   -0.077495   0.339785  -0.072783   1.089961   0.120717  -0.011392
     5  C   -0.099270   0.146218  -0.095815   0.120717   5.531314   0.218788
     6  O    0.021215  -0.052310   0.021297  -0.011392   0.218788   8.734625
     7  N    0.044296  -0.076352   0.059512  -0.214109   0.028830  -0.112669
     8  H   -0.003391  -0.058032  -0.006499   0.002302  -0.134177  -0.005373
     9  C    0.005591   0.028514  -0.015234   0.004819  -0.139278   0.021895
    10  H    0.000264   0.004598  -0.001810   0.002084   0.082399   0.002470
    11  C   -0.000513  -0.016342   0.000597  -0.007879  -0.042267   0.008183
    12  H   -0.000226   0.007724   0.000230   0.001775   0.056450  -0.005998
    13  H    0.000603  -0.001062  -0.000147  -0.001941  -0.056989   0.009287
    14  H   -0.000712   0.004959  -0.001051   0.002993   0.022408   0.016498
    15  C   -0.002373  -0.015671   0.011607  -0.023326  -0.126541   0.006911
    16  O    0.000177   0.005138   0.000116   0.002247  -0.007174   0.000077
    17  N   -0.000274   0.002735  -0.000050   0.002608   0.011137   0.003306
    18  H   -0.000077  -0.001496  -0.000086  -0.000109  -0.001156  -0.000216
    19  C    0.000039   0.001966   0.000078   0.000203  -0.003188   0.001433
    20  H    0.000015   0.000422   0.000040   0.000040  -0.000186   0.000160
    21  H    0.000009   0.000073  -0.000001  -0.000010   0.000531   0.000012
    22  H   -0.000008   0.000024   0.000006  -0.000003  -0.000280   0.000040
              7          8          9         10         11         12
     1  H    0.044296  -0.003391   0.005591   0.000264  -0.000513  -0.000226
     2  C   -0.076352  -0.058032   0.028514   0.004598  -0.016342   0.007724
     3  H    0.059512  -0.006499  -0.015234  -0.001810   0.000597   0.000230
     4  H   -0.214109   0.002302   0.004819   0.002084  -0.007879   0.001775
     5  C    0.028830  -0.134177  -0.139278   0.082399  -0.042267   0.056450
     6  O   -0.112669  -0.005373   0.021895   0.002470   0.008183  -0.005998
     7  N    7.663680   0.312681  -0.703061  -0.168451   0.125447  -0.074772
     8  H    0.312681   0.958544   0.074437   0.010972   0.001724  -0.002835
     9  C   -0.703061   0.074437   7.739321   0.210102  -0.135349   0.059625
    10  H   -0.168451   0.010972   0.210102   1.216580   0.024471   0.076830
    11  C    0.125447   0.001724  -0.135349   0.024471   4.327688   0.293906
    12  H   -0.074772  -0.002835   0.059625   0.076830   0.293906   1.095004
    13  H    0.088547   0.007359  -0.238588  -0.087228   0.305839  -0.141873
    14  H   -0.020767  -0.011407   0.022143  -0.020061   0.381410  -0.171714
    15  C    0.382510  -0.122755  -0.941045  -0.223018   0.026336  -0.160232
    16  O   -0.036263   0.058352   0.053128  -0.009385   0.012018   0.003804
    17  N   -0.037045   0.002012   0.034688  -0.023739  -0.018500   0.001171
    18  H    0.008254   0.004168  -0.112953   0.020925   0.006499   0.005149
    19  C   -0.003422  -0.010618  -0.013368  -0.008563   0.002993  -0.011864
    20  H   -0.003562  -0.001537   0.034551   0.001470  -0.011372  -0.002135
    21  H    0.001755  -0.000152   0.023505  -0.000627  -0.004974   0.000507
    22  H    0.002569  -0.000288  -0.053835  -0.003259   0.023388  -0.001162
             13         14         15         16         17         18
     1  H    0.000603  -0.000712  -0.002373   0.000177  -0.000274  -0.000077
     2  C   -0.001062   0.004959  -0.015671   0.005138   0.002735  -0.001496
     3  H   -0.000147  -0.001051   0.011607   0.000116  -0.000050  -0.000086
     4  H   -0.001941   0.002993  -0.023326   0.002247   0.002608  -0.000109
     5  C   -0.056989   0.022408  -0.126541  -0.007174   0.011137  -0.001156
     6  O    0.009287   0.016498   0.006911   0.000077   0.003306  -0.000216
     7  N    0.088547  -0.020767   0.382510  -0.036263  -0.037045   0.008254
     8  H    0.007359  -0.011407  -0.122755   0.058352   0.002012   0.004168
     9  C   -0.238588   0.022143  -0.941045   0.053128   0.034688  -0.112953
    10  H   -0.087228  -0.020061  -0.223018  -0.009385  -0.023739   0.020925
    11  C    0.305839   0.381410   0.026336   0.012018  -0.018500   0.006499
    12  H   -0.141873  -0.171714  -0.160232   0.003804   0.001171   0.005149
    13  H    1.254890  -0.167257   0.193837  -0.005927  -0.058509   0.010207
    14  H   -0.167257   0.965892  -0.000889   0.000502   0.025124  -0.001989
    15  C    0.193837  -0.000889   5.640559   0.249862   0.100801   0.039795
    16  O   -0.005927   0.000502   0.249862   8.721978  -0.195793   0.006963
    17  N   -0.058509   0.025124   0.100801  -0.195793   7.238555   0.222929
    18  H    0.010207  -0.001989   0.039795   0.006963   0.222929   1.028123
    19  C    0.002231   0.006556  -0.143962   0.003014   0.323602  -0.133783
    20  H    0.001998  -0.000072  -0.037536  -0.001944  -0.019167  -0.003378
    21  H   -0.000410  -0.000368  -0.031547   0.008569  -0.011134   0.005096
    22  H    0.001269   0.001552   0.014341   0.011616  -0.077276   0.008734
             19         20         21         22
     1  H    0.000039   0.000015   0.000009  -0.000008
     2  C    0.001966   0.000422   0.000073   0.000024
     3  H    0.000078   0.000040  -0.000001   0.000006
     4  H    0.000203   0.000040  -0.000010  -0.000003
     5  C   -0.003188  -0.000186   0.000531  -0.000280
     6  O    0.001433   0.000160   0.000012   0.000040
     7  N   -0.003422  -0.003562   0.001755   0.002569
     8  H   -0.010618  -0.001537  -0.000152  -0.000288
     9  C   -0.013368   0.034551   0.023505  -0.053835
    10  H   -0.008563   0.001470  -0.000627  -0.003259
    11  C    0.002993  -0.011372  -0.004974   0.023388
    12  H   -0.011864  -0.002135   0.000507  -0.001162
    13  H    0.002231   0.001998  -0.000410   0.001269
    14  H    0.006556  -0.000072  -0.000368   0.001552
    15  C   -0.143962  -0.037536  -0.031547   0.014341
    16  O    0.003014  -0.001944   0.008569   0.011616
    17  N    0.323602  -0.019167  -0.011134  -0.077276
    18  H   -0.133783  -0.003378   0.005096   0.008734
    19  C    4.139074   0.473222   0.324052   0.358659
    20  H    0.473222   0.958584  -0.112227  -0.134939
    21  H    0.324052  -0.112227   1.025924  -0.141660
    22  H    0.358659  -0.134939  -0.141660   1.095831
 Mulliken atomic charges:
              1
     1  H    0.050057
     2  C    0.368155
     3  H    0.045834
     4  H   -0.160486
     5  C    0.487529
     6  O   -0.878238
     7  N   -0.267609
     8  H   -0.075488
     9  C    0.040391
    10  H   -0.107025
    11  C    0.696698
    12  H   -0.029365
    13  H   -0.116136
    14  H   -0.053752
    15  C    1.162337
    16  O   -0.881073
    17  N   -0.527182
    18  H   -0.111600
    19  C    0.691646
    20  H   -0.142448
    21  H   -0.086922
    22  H   -0.105320
 Sum of Mulliken atomic charges =   0.00000
 Mulliken charges with hydrogens summed into heavy atoms:
              1
     2  C    0.303559
     5  C    0.487529
     6  O   -0.878238
     7  N   -0.343097
     9  C   -0.066635
    11  C    0.497445
    15  C    1.162337
    16  O   -0.881073
    17  N   -0.638782
    19  C    0.356955
 Sum of Mulliken charges with hydrogens summed into heavy atoms =   0.00000
 Electronic spatial extent (au):  <R**2>=           2000.6073
 Charge=              0.0000 electrons
 Dipole moment (field-independent basis, Debye):
    X=              3.0922    Y=              0.3745    Z=              0.3558  Tot=              3.1350
 Quadrupole moment (field-independent basis, Debye-Ang):
   XX=            -56.3331   YY=            -64.5532   ZZ=            -61.8738
   XY=             14.2054   XZ=             -6.2846   YZ=              1.7448
 Traceless Quadrupole moment (field-independent basis, Debye-Ang):
   XX=              4.5869   YY=             -3.6332   ZZ=             -0.9538
   XY=             14.2054   XZ=             -6.2846   YZ=              1.7448
 Octapole moment (field-independent basis, Debye-Ang**2):
  XXX=             44.6877  YYY=              4.6287  ZZZ=             -1.7151  XYY=              3.1058
  XXY=            -21.2931  XXZ=              6.8212  XZZ=              2.3696  YZZ=             -1.3236
  YYZ=             -0.1831  XYZ=             -6.2557
 Hexadecapole moment (field-independent basis, Debye-Ang**3):
 XXXX=          -1904.5450 YYYY=           -450.4824 ZZZZ=           -142.6331 XXXY=             75.2283
 XXXZ=            -44.4745 YYYX=             22.1448 YYYZ=             -6.0427 ZZZX=              0.4479
 ZZZY=             -1.7726 XXYY=           -424.3759 XXZZ=           -363.8273 YYZZ=           -100.6204
 XXYZ=             15.6824 YYXZ=            -10.9434 ZZXY=              4.1361
 N-N= 5.492068764682D+02 E-N=-2.253626734995D+03  KE= 4.920887331067D+02
 1\1\GINC-NODE005\SP\RMP2-FC\Aug-CC-pVDZ\C6H12N2O2\MANAGER\13-Feb-2017\
 0\\#SP MP2/aug-cc-pVDZ\\Single Point calculation at MP2\\0,1\H,0,-4.10
 39,-0.7326,0.8398\C,0,-3.3667,-1.1352,0.1381\H,0,-3.8992,-1.3863,-0.78
 45\H,0,-2.9339,-2.0469,0.5611\C,0,-2.3388,-0.0551,-0.1675\O,0,-2.6581,
 1.0288,-0.6498\N,0,-1.0495,-0.3718,0.1364\H,0,-0.777,-1.3055,0.4234\C,
 0,0.0577,0.5165,-0.1581\H,0,-0.0349,0.8704,-1.195\C,0,0.0669,1.744,0.7
 743\H,0,0.2111,1.4358,1.815\H,0,0.8598,2.4526,0.5086\H,0,-0.8923,2.257
 2,0.6809\C,0,1.3417,-0.3275,-0.029\O,0,1.302,-1.514,0.2907\N,0,2.5011,
 0.3391,-0.2712\H,0,2.4501,1.3066,-0.5559\C,0,3.8063,-0.2974,-0.2094\H,
 0,3.6571,-1.3174,0.1458\H,0,4.2811,-0.3287,-1.1973\H,0,4.4667,0.2342,0
 .4848\\Version=EM64L-G09RevA.02\State=1-A\HF=-492.9277133\MP2=-494.528
 4663\RMSD=7.448e-09\PG=C01 [X(C6H12N2O2)]\\@


 THE ... SCIENTISTS WERE WRONG ... THE MOST PERSISTENT PRINCIPLES 
 OF THE UNIVERSE WERE ACCIDENT AND ERROR.

                          -- FRANK HERBERT IN DUNE
 Job cpu time:  0 days 15 hours 45 minutes 50.1 seconds.
 File lengths (MBytes):  RWF=  10475 Int=      0 D2E=      0 Chk=      7 Scr=      2
 Normal termination of Gaussian 09 at Mon Feb 13 03:05:54 2017.
