 Entering Gaussian System, Link 0=g09
 Initial command:
 /home/steboss/Software/g09/l1.exe /home/steboss/projects/phi_psi_scan/alanine/MP2/120/5208/Gau-15360.inp -scrdir=/home/steboss/projects/phi_psi_scan/alanine/MP2/120/5208/
 Entering Link 1 = /home/steboss/Software/g09/l1.exe PID=     15362.
  
 Copyright (c) 1988,1990,1992,1993,1995,1998,2003,2009, Gaussian, Inc.
                  All Rights Reserved.
  
 This is part of the Gaussian(R) 09 program.  It is based on
 the Gaussian(R) 03 system (copyright 2003, Gaussian, Inc.),
 the Gaussian(R) 98 system (copyright 1998, Gaussian, Inc.),
 the Gaussian(R) 94 system (copyright 1995, Gaussian, Inc.),
 the Gaussian 92(TM) system (copyright 1992, Gaussian, Inc.),
 the Gaussian 90(TM) system (copyright 1990, Gaussian, Inc.),
 the Gaussian 88(TM) system (copyright 1988, Gaussian, Inc.),
 the Gaussian 86(TM) system (copyright 1986, Carnegie Mellon
 University), and the Gaussian 82(TM) system (copyright 1983,
 Carnegie Mellon University). Gaussian is a federally registered
 trademark of Gaussian, Inc.
  
 This software contains proprietary and confidential information,
 including trade secrets, belonging to Gaussian, Inc.
  
 This software is provided under written license and may be
 used, copied, transmitted, or stored only in accord with that
 written license.
  
 The following legend is applicable only to US Government
 contracts under FAR:
  
                    RESTRICTED RIGHTS LEGEND
  
 Use, reproduction and disclosure by the US Government is
 subject to restrictions as set forth in subparagraphs (a)
 and (c) of the Commercial Computer Software - Restricted
 Rights clause in FAR 52.227-19.
  
 Gaussian, Inc.
 340 Quinnipiac St., Bldg. 40, Wallingford CT 06492
  
  
 ---------------------------------------------------------------
 Warning -- This program may not be used in any manner that
 competes with the business of Gaussian, Inc. or will provide
 assistance to any competitor of Gaussian, Inc.  The licensee
 of this program is prohibited from giving any competitor of
 Gaussian, Inc. access to this program.  By using this program,
 the user acknowledges that Gaussian, Inc. is engaged in the
 business of creating and licensing software in the field of
 computational chemistry and represents and warrants to the
 licensee that it is not a competitor of Gaussian, Inc. and that
 it will not use this program in any manner prohibited above.
 ---------------------------------------------------------------
  

 Cite this work as:
 Gaussian 09, Revision A.02,
 M. J. Frisch, G. W. Trucks, H. B. Schlegel, G. E. Scuseria, 
 M. A. Robb, J. R. Cheeseman, G. Scalmani, V. Barone, B. Mennucci, 
 G. A. Petersson, H. Nakatsuji, M. Caricato, X. Li, H. P. Hratchian, 
 A. F. Izmaylov, J. Bloino, G. Zheng, J. L. Sonnenberg, M. Hada, 
 M. Ehara, K. Toyota, R. Fukuda, J. Hasegawa, M. Ishida, T. Nakajima, 
 Y. Honda, O. Kitao, H. Nakai, T. Vreven, J. A. Montgomery, Jr., 
 J. E. Peralta, F. Ogliaro, M. Bearpark, J. J. Heyd, E. Brothers, 
 K. N. Kudin, V. N. Staroverov, R. Kobayashi, J. Normand, 
 K. Raghavachari, A. Rendell, J. C. Burant, S. S. Iyengar, J. Tomasi, 
 M. Cossi, N. Rega, J. M. Millam, M. Klene, J. E. Knox, J. B. Cross, 
 V. Bakken, C. Adamo, J. Jaramillo, R. Gomperts, R. E. Stratmann, 
 O. Yazyev, A. J. Austin, R. Cammi, C. Pomelli, J. W. Ochterski, 
 R. L. Martin, K. Morokuma, V. G. Zakrzewski, G. A. Voth, 
 P. Salvador, J. J. Dannenberg, S. Dapprich, A. D. Daniels, 
 O. Farkas, J. B. Foresman, J. V. Ortiz, J. Cioslowski, 
 and D. J. Fox, Gaussian, Inc., Wallingford CT, 2009.
 
 ******************************************
 Gaussian 09:  EM64L-G09RevA.02 11-Jun-2009
                12-Feb-2017 
 ******************************************
 %chk=structure_135.chk
 %NProcShared=8
 Will use up to    8 processors via shared memory.
 -------------------
 #SP MP2/aug-cc-pVDZ
 -------------------
 1/38=1/1;
 2/12=2,17=6,18=5,40=1/2;
 3/5=16,7=10,11=9,16=1,25=1,30=1/1,2,3;
 4//1;
 5/5=2,38=5/2;
 8/10=1/1;
 9/16=-3/6;
 6/7=2,8=2,9=2,10=2/1;
 99/5=1,9=1/99;
 -------------------------------
 Single Point calculation at MP2
 -------------------------------
 Symbolic Z-matrix:
 Charge =  0 Multiplicity = 1
 H                    -4.1165   -1.2115   -0.0124 
 C                    -3.0524   -1.444    -0.0773 
 H                    -2.867    -2.0598   -0.9643 
 H                    -2.7689   -2.0276    0.8069 
 C                    -2.2683   -0.1351   -0.094 
 O                    -2.7421    0.9048    0.3379 
 N                    -1.015    -0.2556   -0.6556 
 H                    -0.7413   -1.212    -0.8414 
 C                     0.1294    0.6471   -0.5209 
 H                     0.4257    0.9708   -1.5312 
 C                    -0.1093    1.9044    0.3303 
 H                    -0.3661    1.6338    1.3561 
 H                     0.8175    2.4903    0.3419 
 H                    -0.9167    2.5132   -0.0744 
 C                     1.2942   -0.1501    0.1078 
 O                     1.1221   -0.9025    1.0582 
 N                     2.5043    0.0438   -0.4938 
 H                     2.5605    0.6958   -1.2633 
 C                     3.7359   -0.5326    0.0184 
 H                     3.4627   -1.2224    0.8181 
 H                     4.2648   -1.0821   -0.7682 
 H                     4.4037    0.2377    0.4231 
 
                          Input orientation:                          
 ---------------------------------------------------------------------
 Center     Atomic      Atomic             Coordinates (Angstroms)
 Number     Number       Type             X           Y           Z
 ---------------------------------------------------------------------
      1          1           0       -4.116500   -1.211500   -0.012400
      2          6           0       -3.052400   -1.444000   -0.077300
      3          1           0       -2.867000   -2.059800   -0.964300
      4          1           0       -2.768900   -2.027600    0.806900
      5          6           0       -2.268300   -0.135100   -0.094000
      6          8           0       -2.742100    0.904800    0.337900
      7          7           0       -1.015000   -0.255600   -0.655600
      8          1           0       -0.741300   -1.212000   -0.841400
      9          6           0        0.129400    0.647100   -0.520900
     10          1           0        0.425700    0.970800   -1.531200
     11          6           0       -0.109300    1.904400    0.330300
     12          1           0       -0.366100    1.633800    1.356100
     13          1           0        0.817500    2.490300    0.341900
     14          1           0       -0.916700    2.513200   -0.074400
     15          6           0        1.294200   -0.150100    0.107800
     16          8           0        1.122100   -0.902500    1.058200
     17          7           0        2.504300    0.043800   -0.493800
     18          1           0        2.560500    0.695800   -1.263300
     19          6           0        3.735900   -0.532600    0.018400
     20          1           0        3.462700   -1.222400    0.818100
     21          1           0        4.264800   -1.082100   -0.768200
     22          1           0        4.403700    0.237700    0.423100
 ---------------------------------------------------------------------
                    Distance matrix (angstroms):
                    1          2          3          4          5
     1  H    0.000000
     2  C    1.091136   0.000000
     3  H    1.785211   1.095606   0.000000
     4  H    1.775753   1.096709   1.774207   0.000000
     5  C    2.140359   1.525880   2.195526   2.154943   0.000000
     6  O    2.547629   2.405315   3.240398   2.969789   1.221645
     7  N    3.308588   2.428523   2.603908   2.890511   1.378650
     8  H    3.475517   2.445170   2.291827   2.737382   2.012473
     9  C    4.662685   3.833188   4.062305   4.161396   2.557938
    10  H    5.263152   4.476859   4.510852   4.966144   3.247491
    11  C    5.087625   4.476579   4.999578   4.770875   3.000145
    12  H    4.902451   4.329399   5.028065   4.413719   2.974922
    13  H    6.178447   5.534489   5.998759   5.787047   4.074911
    14  H    4.910800   4.496738   5.050537   4.982590   2.973331
    15  C    5.515133   4.538873   4.702333   4.530180   3.568242
    16  O    5.355800   4.359935   4.619823   4.058187   3.662141
    17  N    6.755925   5.767490   5.787691   5.812844   4.792656
    18  H    7.055840   6.122907   6.094300   6.332862   5.037357
    19  C    7.881754   6.849878   6.848089   6.720802   6.018393
    20  H    7.624574   6.580074   6.628974   6.283416   5.904109
    21  H    8.416304   7.358650   7.201175   7.269652   6.635718
    22  H    8.653534   7.659761   7.750256   7.531605   6.702384
                    6          7          8          9         10
     6  O    0.000000
     7  N    2.305742   0.000000
     8  H    3.142418   1.011995   0.000000
     9  C    3.008232   1.463784   2.077761   0.000000
    10  H    3.678702   2.084790   2.569500   1.101491   0.000000
    11  C    2.816184   2.541238   3.388843   1.536985   2.150120
    12  H    2.685805   2.835109   3.615019   2.177665   3.066434
    13  H    3.896739   3.448627   4.187730   2.148323   2.443541
    14  H    2.467595   2.830850   3.807384   2.185410   2.510638
    15  C    4.178215   2.434402   2.484325   1.545170   2.167263
    16  O    4.326339   2.814744   2.678905   2.424927   3.270966
    17  N    5.381241   3.535717   3.497396   2.450481   2.501221
    18  H    5.543022   3.749488   3.836611   2.542396   2.169047
    19  C    6.643243   4.806460   4.609356   3.832673   3.952075
    20  H    6.576862   4.812098   4.519697   4.049548   4.421844
    21  H    7.366673   5.345285   5.008320   4.489190   4.419871
    22  H    7.177377   5.547004   5.492869   4.396406   4.492350
                   11         12         13         14         15
    11  C    0.000000
    12  H    1.091529   0.000000
    13  H    1.096527   1.778511   0.000000
    14  H    1.089181   1.767154   1.783614   0.000000
    15  C    2.498057   2.738092   2.693280   3.466186   0.000000
    16  O    3.150376   2.955723   3.480942   4.136000   1.224330
    17  N    3.312383   3.766885   3.086916   4.239938   1.365233
    18  H    3.335882   4.038080   2.972364   4.099676   2.049141
    19  C    4.563093   4.827953   4.214218   5.561672   2.473095
    20  H    4.772212   4.806977   4.583447   5.824981   2.521259
    21  H    5.409125   5.773560   5.087066   6.344721   3.234264
    22  H    4.811826   5.056736   4.235756   5.807931   3.149412
                   16         17         18         19         20
    16  O    0.000000
    17  N    2.283564   0.000000
    18  H    3.164320   1.010145   0.000000
    19  C    2.837245   1.453074   2.129152   0.000000
    20  H    2.374530   2.059824   2.970805   1.090863   0.000000
    21  H    3.639307   2.107678   2.512109   1.095639   1.783086
    22  H    3.531615   2.118023   2.539919   1.096860   1.781403
                   21         22
    21  H    0.000000
    22  H    1.783357   0.000000
 Stoichiometry    C6H12N2O2
 Framework group  C1[X(C6H12N2O2)]
 Deg. of freedom    60
 Full point group                 C1      NOp   1
 Largest Abelian subgroup         C1      NOp   1
 Largest concise Abelian subgroup C1      NOp   1
                         Standard orientation:                         
 ---------------------------------------------------------------------
 Center     Atomic      Atomic             Coordinates (Angstroms)
 Number     Number       Type             X           Y           Z
 ---------------------------------------------------------------------
      1          1           0       -4.116510   -1.211489   -0.012396
      2          6           0       -3.052411   -1.443992   -0.077296
      3          1           0       -2.867013   -2.059793   -0.964296
      4          1           0       -2.768913   -2.027593    0.806904
      5          6           0       -2.268307   -0.135095   -0.093996
      6          8           0       -2.742103    0.904807    0.337904
      7          7           0       -1.015007   -0.255599   -0.655596
      8          1           0       -0.741310   -1.212000   -0.841396
      9          6           0        0.129396    0.647097   -0.520896
     10          1           0        0.425697    0.970796   -1.531196
     11          6           0       -0.109300    1.904398    0.330304
     12          1           0       -0.366101    1.633799    1.356104
     13          1           0        0.817502    2.490295    0.341904
     14          1           0       -0.916698    2.513201   -0.074396
     15          6           0        1.294193   -0.150107    0.107804
     16          8           0        1.122091   -0.902506    1.058204
     17          7           0        2.504294    0.043789   -0.493796
     18          1           0        2.560496    0.695789   -1.263296
     19          6           0        3.735892   -0.532615    0.018404
     20          1           0        3.462689   -1.222414    0.818104
     21          1           0        4.264790   -1.082117   -0.768196
     22          1           0        4.403694    0.237683    0.423104
 ---------------------------------------------------------------------
 Rotational constants (GHZ):      2.8246127      0.6829678      0.6078011
 Standard basis: Aug-CC-pVDZ (5D, 7F)
 There are   338 symmetry adapted basis functions of A   symmetry.
 Integral buffers will be    131072 words long.
 Raffenetti 1 integral format.
 Two-electron integral symmetry is turned on.
   338 basis functions,   562 primitive gaussians,   358 cartesian basis functions
    39 alpha electrons       39 beta electrons
       nuclear repulsion energy       551.1547114262 Hartrees.
 NAtoms=   22 NActive=   22 NUniq=   22 SFac= 7.50D-01 NAtFMM=   80 NAOKFM=F Big=F
 One-electron integrals computed using PRISM.
 NBasis=   338 RedAO= T  NBF=   338
 NBsUse=   338 1.00D-06 NBFU=   338
 Harris functional with IExCor=  205 diagonalized for initial guess.
 ExpMin= 2.97D-02 ExpMax= 1.17D+04 ExpMxC= 4.01D+02 IAcc=3 IRadAn=         0 AccDes= 0.00D+00
 HarFok:  IExCor=  205 AccDes= 0.00D+00 IRadAn=         0 IDoV= 1
 ScaDFX=  1.000000  1.000000  1.000000  1.000000
 FoFCou: FMM=F IPFlag=           0 FMFlag=      100000 FMFlg1=           0
         NFxFlg=           0 DoJE=T BraDBF=F KetDBF=T FulRan=T
         Omega=  0.000000  0.000000  1.000000  0.000000  0.000000 ICntrl=     500 IOpCl=  0
         NMat0=    1 NMatS0=    1 NMatT0=    0 NMatD0=    1 NMtDS0=    0 NMtDT0=    0
         I1Cent=           4 NGrid=           0.
 Petite list used in FoFCou.
 Initial guess orbital symmetries:
       Occupied  (A) (A) (A) (A) (A) (A) (A) (A) (A) (A) (A) (A)
                 (A) (A) (A) (A) (A) (A) (A) (A) (A) (A) (A) (A)
                 (A) (A) (A) (A) (A) (A) (A) (A) (A) (A) (A) (A)
                 (A) (A) (A)
       Virtual   (A) (A) (A) (A) (A) (A) (A) (A) (A) (A) (A) (A)
                 (A) (A) (A) (A) (A) (A) (A) (A) (A) (A) (A) (A)
                 (A) (A) (A) (A) (A) (A) (A) (A) (A) (A) (A) (A)
                 (A) (A) (A) (A) (A) (A) (A) (A) (A) (A) (A) (A)
                 (A) (A) (A) (A) (A) (A) (A) (A) (A) (A) (A) (A)
                 (A) (A) (A) (A) (A) (A) (A) (A) (A) (A) (A) (A)
                 (A) (A) (A) (A) (A) (A) (A) (A) (A) (A) (A) (A)
                 (A) (A) (A) (A) (A) (A) (A) (A) (A) (A) (A) (A)
                 (A) (A) (A) (A) (A) (A) (A) (A) (A) (A) (A) (A)
                 (A) (A) (A) (A) (A) (A) (A) (A) (A) (A) (A) (A)
                 (A) (A) (A) (A) (A) (A) (A) (A) (A) (A) (A) (A)
                 (A) (A) (A) (A) (A) (A) (A) (A) (A) (A) (A) (A)
                 (A) (A) (A) (A) (A) (A) (A) (A) (A) (A) (A) (A)
                 (A) (A) (A) (A) (A) (A) (A) (A) (A) (A) (A) (A)
                 (A) (A) (A) (A) (A) (A) (A) (A) (A) (A) (A) (A)
                 (A) (A) (A) (A) (A) (A) (A) (A) (A) (A) (A) (A)
                 (A) (A) (A) (A) (A) (A) (A) (A) (A) (A) (A) (A)
                 (A) (A) (A) (A) (A) (A) (A) (A) (A) (A) (A) (A)
                 (A) (A) (A) (A) (A) (A) (A) (A) (A) (A) (A) (A)
                 (A) (A) (A) (A) (A) (A) (A) (A) (A) (A) (A) (A)
                 (A) (A) (A) (A) (A) (A) (A) (A) (A) (A) (A) (A)
                 (A) (A) (A) (A) (A) (A) (A) (A) (A) (A) (A) (A)
                 (A) (A) (A) (A) (A) (A) (A) (A) (A) (A) (A) (A)
                 (A) (A) (A) (A) (A) (A) (A) (A) (A) (A) (A) (A)
                 (A) (A) (A) (A) (A) (A) (A) (A) (A) (A) (A)
 The electronic state of the initial guess is 1-A.
 Requested convergence on RMS density matrix=1.00D-08 within 128 cycles.
 Requested convergence on MAX density matrix=1.00D-06.
 Requested convergence on             energy=1.00D-06.
 No special actions if energy rises.
 Initial convergence to 1.0D-05 achieved.  Increase integral accuracy.
 SCF Done:  E(RHF) =  -492.914313292     A.U. after   14 cycles
             Convg  =    0.6694D-08             -V/T =  2.0017
 ExpMin= 2.97D-02 ExpMax= 1.17D+04 ExpMxC= 4.01D+02 IAcc=3 IRadAn=         5 AccDes= 0.00D+00
 HarFok:  IExCor=  205 AccDes= 0.00D+00 IRadAn=         5 IDoV=-2
 ScaDFX=  1.000000  1.000000  1.000000  1.000000
 Range of M.O.s used for correlation:    11   338
 NBasis=   338 NAE=    39 NBE=    39 NFC=    10 NFV=     0
 NROrb=    328 NOA=    29 NOB=    29 NVA=   299 NVB=   299

 **** Warning!!: The largest alpha MO coefficient is  0.78471576D+02

 Disk-based method using OVN memory for 29 occupieds at a time.
 Estimated scratch disk usage=  1371998302 words.
 Actual    scratch disk usage=  1358862062 words.
 JobTyp=1 Pass  1:  I=   1 to  29 NPSUse=  8 ParTrn=T ParDer=T DoDerP=F.
 Spin components of T(2) and E(2):
     alpha-alpha T2 =       0.6787096485D-01 E2=     -0.2055882503D+00
     alpha-beta  T2 =       0.3766156140D+00 E2=     -0.1190091163D+01
     beta-beta   T2 =       0.6787096485D-01 E2=     -0.2055882503D+00
 ANorm=    0.1229779470D+01
 E2 =    -0.1601267663D+01 EUMP2 =    -0.49451558095495D+03

 **********************************************************************

            Population analysis using the SCF density.

 **********************************************************************

 Orbital symmetries:
       Occupied  (A) (A) (A) (A) (A) (A) (A) (A) (A) (A) (A) (A)
                 (A) (A) (A) (A) (A) (A) (A) (A) (A) (A) (A) (A)
                 (A) (A) (A) (A) (A) (A) (A) (A) (A) (A) (A) (A)
                 (A) (A) (A)
       Virtual   (A) (A) (A) (A) (A) (A) (A) (A) (A) (A) (A) (A)
                 (A) (A) (A) (A) (A) (A) (A) (A) (A) (A) (A) (A)
                 (A) (A) (A) (A) (A) (A) (A) (A) (A) (A) (A) (A)
                 (A) (A) (A) (A) (A) (A) (A) (A) (A) (A) (A) (A)
                 (A) (A) (A) (A) (A) (A) (A) (A) (A) (A) (A) (A)
                 (A) (A) (A) (A) (A) (A) (A) (A) (A) (A) (A) (A)
                 (A) (A) (A) (A) (A) (A) (A) (A) (A) (A) (A) (A)
                 (A) (A) (A) (A) (A) (A) (A) (A) (A) (A) (A) (A)
                 (A) (A) (A) (A) (A) (A) (A) (A) (A) (A) (A) (A)
                 (A) (A) (A) (A) (A) (A) (A) (A) (A) (A) (A) (A)
                 (A) (A) (A) (A) (A) (A) (A) (A) (A) (A) (A) (A)
                 (A) (A) (A) (A) (A) (A) (A) (A) (A) (A) (A) (A)
                 (A) (A) (A) (A) (A) (A) (A) (A) (A) (A) (A) (A)
                 (A) (A) (A) (A) (A) (A) (A) (A) (A) (A) (A) (A)
                 (A) (A) (A) (A) (A) (A) (A) (A) (A) (A) (A) (A)
                 (A) (A) (A) (A) (A) (A) (A) (A) (A) (A) (A) (A)
                 (A) (A) (A) (A) (A) (A) (A) (A) (A) (A) (A) (A)
                 (A) (A) (A) (A) (A) (A) (A) (A) (A) (A) (A) (A)
                 (A) (A) (A) (A) (A) (A) (A) (A) (A) (A) (A) (A)
                 (A) (A) (A) (A) (A) (A) (A) (A) (A) (A) (A) (A)
                 (A) (A) (A) (A) (A) (A) (A) (A) (A) (A) (A) (A)
                 (A) (A) (A) (A) (A) (A) (A) (A) (A) (A) (A) (A)
                 (A) (A) (A) (A) (A) (A) (A) (A) (A) (A) (A) (A)
                 (A) (A) (A) (A) (A) (A) (A) (A) (A) (A) (A) (A)
                 (A) (A) (A) (A) (A) (A) (A) (A) (A) (A) (A)
 The electronic state is 1-A.
 Alpha  occ. eigenvalues --  -20.53851 -20.52579 -15.60709 -15.59298 -11.36653
 Alpha  occ. eigenvalues --  -11.36019 -11.30010 -11.27611 -11.24065 -11.23002
 Alpha  occ. eigenvalues --   -1.39385  -1.37857  -1.24343  -1.23392  -1.05645
 Alpha  occ. eigenvalues --   -0.98710  -0.96252  -0.88280  -0.80236  -0.76550
 Alpha  occ. eigenvalues --   -0.72857  -0.68937  -0.66381  -0.63579  -0.63111
 Alpha  occ. eigenvalues --   -0.61971  -0.59752  -0.58441  -0.56415  -0.55526
 Alpha  occ. eigenvalues --   -0.55248  -0.53628  -0.52572  -0.51924  -0.50318
 Alpha  occ. eigenvalues --   -0.43730  -0.41197  -0.40173  -0.39265
 Alpha virt. eigenvalues --    0.02443   0.03855   0.04142   0.04505   0.05843
 Alpha virt. eigenvalues --    0.06060   0.06331   0.06662   0.07835   0.08001
 Alpha virt. eigenvalues --    0.08655   0.08930   0.11072   0.11947   0.12977
 Alpha virt. eigenvalues --    0.13559   0.13910   0.14646   0.14778   0.15093
 Alpha virt. eigenvalues --    0.15445   0.15975   0.16102   0.16460   0.17025
 Alpha virt. eigenvalues --    0.18056   0.18124   0.18577   0.19143   0.19840
 Alpha virt. eigenvalues --    0.19948   0.20387   0.20977   0.21716   0.22079
 Alpha virt. eigenvalues --    0.23432   0.23782   0.24274   0.24786   0.26026
 Alpha virt. eigenvalues --    0.27851   0.27975   0.29505   0.29827   0.30570
 Alpha virt. eigenvalues --    0.30867   0.31701   0.32426   0.32697   0.33561
 Alpha virt. eigenvalues --    0.34230   0.35170   0.35590   0.36279   0.36722
 Alpha virt. eigenvalues --    0.37085   0.37848   0.38851   0.39500   0.39727
 Alpha virt. eigenvalues --    0.39808   0.40166   0.40689   0.42702   0.43172
 Alpha virt. eigenvalues --    0.43621   0.44518   0.44650   0.45054   0.46214
 Alpha virt. eigenvalues --    0.47033   0.47322   0.47717   0.49120   0.49654
 Alpha virt. eigenvalues --    0.50357   0.50809   0.51432   0.52378   0.52410
 Alpha virt. eigenvalues --    0.53363   0.53515   0.54351   0.55112   0.55528
 Alpha virt. eigenvalues --    0.56550   0.57178   0.57346   0.58279   0.59092
 Alpha virt. eigenvalues --    0.59889   0.60169   0.61143   0.61187   0.62171
 Alpha virt. eigenvalues --    0.62679   0.62962   0.63935   0.64650   0.65193
 Alpha virt. eigenvalues --    0.65705   0.66047   0.67223   0.67818   0.68123
 Alpha virt. eigenvalues --    0.69358   0.69509   0.70392   0.71402   0.71568
 Alpha virt. eigenvalues --    0.71969   0.72770   0.73165   0.74127   0.74279
 Alpha virt. eigenvalues --    0.74762   0.75859   0.76937   0.77624   0.78895
 Alpha virt. eigenvalues --    0.79537   0.80558   0.81293   0.82116   0.82767
 Alpha virt. eigenvalues --    0.84222   0.84519   0.86193   0.86850   0.88035
 Alpha virt. eigenvalues --    0.88806   0.91148   0.91849   0.92153   0.93622
 Alpha virt. eigenvalues --    0.94534   0.96046   0.96199   0.97640   0.99515
 Alpha virt. eigenvalues --    1.00408   1.01387   1.01817   1.03381   1.04071
 Alpha virt. eigenvalues --    1.05858   1.07631   1.07975   1.09004   1.10956
 Alpha virt. eigenvalues --    1.11394   1.12325   1.13147   1.14195   1.15100
 Alpha virt. eigenvalues --    1.17030   1.18628   1.18896   1.19729   1.21705
 Alpha virt. eigenvalues --    1.23182   1.24860   1.25462   1.27055   1.29126
 Alpha virt. eigenvalues --    1.30435   1.33264   1.33999   1.37447   1.38567
 Alpha virt. eigenvalues --    1.40873   1.42454   1.43427   1.46412   1.47596
 Alpha virt. eigenvalues --    1.50677   1.52586   1.53170   1.53588   1.55193
 Alpha virt. eigenvalues --    1.56166   1.58571   1.59978   1.60802   1.63976
 Alpha virt. eigenvalues --    1.66704   1.68194   1.69348   1.71339   1.73280
 Alpha virt. eigenvalues --    1.74076   1.75296   1.76005   1.77894   1.79542
 Alpha virt. eigenvalues --    1.80782   1.82364   1.83392   1.85872   1.87687
 Alpha virt. eigenvalues --    1.88913   1.89678   1.90775   1.93761   1.94920
 Alpha virt. eigenvalues --    1.95149   1.96111   1.96805   1.99247   2.01516
 Alpha virt. eigenvalues --    2.02840   2.04496   2.05920   2.06351   2.07292
 Alpha virt. eigenvalues --    2.09590   2.11857   2.12391   2.16139   2.16746
 Alpha virt. eigenvalues --    2.18084   2.19454   2.21387   2.22201   2.22950
 Alpha virt. eigenvalues --    2.24519   2.25537   2.27343   2.28843   2.29827
 Alpha virt. eigenvalues --    2.30292   2.31707   2.34929   2.36454   2.37796
 Alpha virt. eigenvalues --    2.37983   2.39583   2.41989   2.43039   2.44267
 Alpha virt. eigenvalues --    2.46209   2.46879   2.47878   2.51635   2.53131
 Alpha virt. eigenvalues --    2.53824   2.56536   2.56917   2.58971   2.62372
 Alpha virt. eigenvalues --    2.63532   2.63996   2.65936   2.67405   2.70684
 Alpha virt. eigenvalues --    2.71889   2.72987   2.74704   2.76772   2.78701
 Alpha virt. eigenvalues --    2.80043   2.81958   2.86218   2.86858   2.87584
 Alpha virt. eigenvalues --    2.91731   2.92394   2.95084   2.97425   2.98548
 Alpha virt. eigenvalues --    3.00849   3.02872   3.04656   3.06260   3.08113
 Alpha virt. eigenvalues --    3.10576   3.12370   3.14899   3.20955   3.23959
 Alpha virt. eigenvalues --    3.26186   3.33014   3.40431   3.44766   3.49830
 Alpha virt. eigenvalues --    3.59407   3.64953   3.75677   3.83649   3.84157
 Alpha virt. eigenvalues --    3.86071   3.88477   3.93662   3.96875   4.03931
 Alpha virt. eigenvalues --    4.07429   4.15007   4.20960   4.30094
          Condensed to atoms (all electrons):
              1          2          3          4          5          6
     1  H    0.849159   0.361416  -0.107817  -0.076080  -0.021934   0.025495
     2  C    0.361416   4.515924   0.338137   0.358667   0.214558  -0.026060
     3  H   -0.107817   0.338137   0.950640  -0.066679   0.034722  -0.004048
     4  H   -0.076080   0.358667  -0.066679   0.745381  -0.059956   0.013781
     5  C   -0.021934   0.214558   0.034722  -0.059956   5.261723   0.191417
     6  O    0.025495  -0.026060  -0.004048   0.013781   0.191417   8.688076
     7  N    0.031845  -0.001279  -0.093353   0.013876   0.276837  -0.149340
     8  H   -0.009554  -0.067841   0.025538  -0.005564  -0.158329   0.007878
     9  C    0.002483   0.018332  -0.031767   0.002935  -0.445326   0.099128
    10  H   -0.001306  -0.002043   0.001658   0.000630   0.012233   0.006321
    11  C    0.001615  -0.004411  -0.000563  -0.000786   0.040916  -0.031048
    12  H   -0.000843   0.000586   0.001214  -0.000463   0.007681   0.008220
    13  H   -0.000262  -0.003571  -0.000227   0.000166  -0.042376   0.003672
    14  H    0.001926   0.011449  -0.000585  -0.000109   0.078230  -0.052816
    15  C   -0.001837  -0.027316  -0.006127   0.006100  -0.012043   0.013493
    16  O   -0.000679   0.006292   0.001227  -0.000409  -0.006748   0.000180
    17  N   -0.000743  -0.004554   0.000091  -0.000129  -0.025293   0.003680
    18  H    0.000052  -0.000478  -0.000047  -0.000109   0.005134   0.000005
    19  C   -0.000193  -0.001785  -0.000068   0.000021  -0.006951   0.001154
    20  H    0.000025   0.000142  -0.000112   0.000107  -0.001077  -0.000022
    21  H   -0.000001  -0.000003   0.000042  -0.000004  -0.000003   0.000037
    22  H    0.000002   0.000072   0.000025  -0.000011   0.001125   0.000052
              7          8          9         10         11         12
     1  H    0.031845  -0.009554   0.002483  -0.001306   0.001615  -0.000843
     2  C   -0.001279  -0.067841   0.018332  -0.002043  -0.004411   0.000586
     3  H   -0.093353   0.025538  -0.031767   0.001658  -0.000563   0.001214
     4  H    0.013876  -0.005564   0.002935   0.000630  -0.000786  -0.000463
     5  C    0.276837  -0.158329  -0.445326   0.012233   0.040916   0.007681
     6  O   -0.149340   0.007878   0.099128   0.006321  -0.031048   0.008220
     7  N    7.569739   0.304657  -0.532032  -0.242769   0.034164  -0.078239
     8  H    0.304657   0.970586  -0.067584   0.040405  -0.032286  -0.000412
     9  C   -0.532032  -0.067584   8.406976  -0.052740  -0.075432   0.048996
    10  H   -0.242769   0.040405  -0.052740   1.531085   0.049985   0.082046
    11  C    0.034164  -0.032286  -0.075432   0.049985   4.434732   0.366504
    12  H   -0.078239  -0.000412   0.048996   0.082046   0.366504   1.015782
    13  H    0.064564  -0.002792  -0.073414  -0.069335   0.326666  -0.162818
    14  H    0.046949  -0.004690  -0.110495  -0.047480   0.245374  -0.207576
    15  C    0.253771   0.019535  -0.975434  -0.059425  -0.108635  -0.144767
    16  O   -0.024954   0.009716   0.050744  -0.007157   0.004467   0.033007
    17  N   -0.007647   0.009962   0.026528  -0.014527   0.061490   0.012985
    18  H    0.000826  -0.000178  -0.052787   0.015686  -0.012596   0.001668
    19  C    0.011980   0.002928  -0.111377  -0.001912  -0.004153  -0.008728
    20  H   -0.000023   0.001070   0.014579   0.005106  -0.019223  -0.002253
    21  H    0.001261  -0.002649  -0.025349  -0.003522   0.009544   0.000381
    22  H    0.001576   0.000891   0.007223  -0.002459   0.002679  -0.001589
             13         14         15         16         17         18
     1  H   -0.000262   0.001926  -0.001837  -0.000679  -0.000743   0.000052
     2  C   -0.003571   0.011449  -0.027316   0.006292  -0.004554  -0.000478
     3  H   -0.000227  -0.000585  -0.006127   0.001227   0.000091  -0.000047
     4  H    0.000166  -0.000109   0.006100  -0.000409  -0.000129  -0.000109
     5  C   -0.042376   0.078230  -0.012043  -0.006748  -0.025293   0.005134
     6  O    0.003672  -0.052816   0.013493   0.000180   0.003680   0.000005
     7  N    0.064564   0.046949   0.253771  -0.024954  -0.007647   0.000826
     8  H   -0.002792  -0.004690   0.019535   0.009716   0.009962  -0.000178
     9  C   -0.073414  -0.110495  -0.975434   0.050744   0.026528  -0.052787
    10  H   -0.069335  -0.047480  -0.059425  -0.007157  -0.014527   0.015686
    11  C    0.326666   0.245374  -0.108635   0.004467   0.061490  -0.012596
    12  H   -0.162818  -0.207576  -0.144767   0.033007   0.012985   0.001668
    13  H    1.307794  -0.208933   0.005429  -0.011470  -0.008161  -0.004019
    14  H   -0.208933   1.127963   0.083829  -0.002637  -0.004051  -0.002602
    15  C    0.005429   0.083829   5.587823   0.212448   0.092997  -0.032818
    16  O   -0.011470  -0.002637   0.212448   8.736826  -0.189235   0.015544
    17  N   -0.008161  -0.004051   0.092997  -0.189235   7.207895   0.254683
    18  H   -0.004019  -0.002602  -0.032818   0.015544   0.254683   1.012346
    19  C   -0.004343   0.003656  -0.041929   0.012392   0.211794  -0.103109
    20  H   -0.000264  -0.000279   0.011940   0.008395  -0.046101  -0.000156
    21  H   -0.000438   0.000624  -0.011737   0.014113  -0.118039   0.014493
    22  H    0.000433   0.000673  -0.032454   0.008391   0.011608  -0.001784
             19         20         21         22
     1  H   -0.000193   0.000025  -0.000001   0.000002
     2  C   -0.001785   0.000142  -0.000003   0.000072
     3  H   -0.000068  -0.000112   0.000042   0.000025
     4  H    0.000021   0.000107  -0.000004  -0.000011
     5  C   -0.006951  -0.001077  -0.000003   0.001125
     6  O    0.001154  -0.000022   0.000037   0.000052
     7  N    0.011980  -0.000023   0.001261   0.001576
     8  H    0.002928   0.001070  -0.002649   0.000891
     9  C   -0.111377   0.014579  -0.025349   0.007223
    10  H   -0.001912   0.005106  -0.003522  -0.002459
    11  C   -0.004153  -0.019223   0.009544   0.002679
    12  H   -0.008728  -0.002253   0.000381  -0.001589
    13  H   -0.004343  -0.000264  -0.000438   0.000433
    14  H    0.003656  -0.000279   0.000624   0.000673
    15  C   -0.041929   0.011940  -0.011737  -0.032454
    16  O    0.012392   0.008395   0.014113   0.008391
    17  N    0.211794  -0.046101  -0.118039   0.011608
    18  H   -0.103109  -0.000156   0.014493  -0.001784
    19  C    4.134721   0.467853   0.396572   0.312015
    20  H    0.467853   0.942965  -0.131608  -0.100356
    21  H    0.396572  -0.131608   1.127888  -0.150709
    22  H    0.312015  -0.100356  -0.150709   1.032641
 Mulliken atomic charges:
              1
     1  H   -0.052767
     2  C    0.313768
     3  H   -0.041900
     4  H    0.068638
     5  C    0.655460
     6  O   -0.799257
     7  N   -0.482408
     8  H   -0.041287
     9  C   -0.124190
    10  H   -0.240480
    11  C    0.710997
    12  H    0.028619
    13  H   -0.116301
    14  H    0.041580
    15  C    1.167154
    16  O   -0.870454
    17  N   -0.475232
    18  H   -0.109756
    19  C    0.729462
    20  H   -0.150708
    21  H   -0.120894
    22  H   -0.090043
 Sum of Mulliken atomic charges =   0.00000
 Mulliken charges with hydrogens summed into heavy atoms:
              1
     2  C    0.287738
     5  C    0.655460
     6  O   -0.799257
     7  N   -0.523695
     9  C   -0.364669
    11  C    0.664894
    15  C    1.167154
    16  O   -0.870454
    17  N   -0.584988
    19  C    0.367817
 Sum of Mulliken charges with hydrogens summed into heavy atoms =   0.00000
 Electronic spatial extent (au):  <R**2>=           1930.9775
 Charge=              0.0000 electrons
 Dipole moment (field-independent basis, Debye):
    X=              3.6751    Y=             -0.7961    Z=             -3.6296  Tot=              5.2263
 Quadrupole moment (field-independent basis, Debye-Ang):
   XX=            -58.1204   YY=            -60.5095   ZZ=            -62.7768
   XY=             10.8908   XZ=             -1.9811   YZ=              1.0275
 Traceless Quadrupole moment (field-independent basis, Debye-Ang):
   XX=              2.3485   YY=             -0.0406   ZZ=             -2.3079
   XY=             10.8908   XZ=             -1.9811   YZ=              1.0275
 Octapole moment (field-independent basis, Debye-Ang**2):
  XXX=             53.6531  YYY=             -2.5573  ZZZ=             -2.6920  XYY=              1.2110
  XXY=            -24.9774  XXZ=            -12.3013  XZZ=              2.2175  YZZ=              2.8360
  YYZ=             -4.6287  XYZ=              1.7918
 Hexadecapole moment (field-independent basis, Debye-Ang**3):
 XXXX=          -1816.7727 YYYY=           -450.8035 ZZZZ=           -179.6049 XXXY=             60.6843
 XXXZ=              7.5676 YYYX=              1.6930 YYYZ=              0.6418 ZZZX=            -14.2966
 ZZZY=             -2.1313 XXYY=           -394.4609 XXZZ=           -343.8975 YYZZ=           -101.5833
 XXYZ=            -12.5016 YYXZ=             -1.7105 ZZXY=              7.1530
 N-N= 5.511547114262D+02 E-N=-2.257613644653D+03  KE= 4.920650888280D+02
 1\1\GINC-NODE002\SP\RMP2-FC\Aug-CC-pVDZ\C6H12N2O2\STEBOSS\12-Feb-2017\
 0\\#SP MP2/aug-cc-pVDZ\\Single Point calculation at MP2\\0,1\H,0,-4.11
 65,-1.2115,-0.0124\C,0,-3.0524,-1.444,-0.0773\H,0,-2.867,-2.0598,-0.96
 43\H,0,-2.7689,-2.0276,0.8069\C,0,-2.2683,-0.1351,-0.094\O,0,-2.7421,0
 .9048,0.3379\N,0,-1.015,-0.2556,-0.6556\H,0,-0.7413,-1.212,-0.8414\C,0
 ,0.1294,0.6471,-0.5209\H,0,0.4257,0.9708,-1.5312\C,0,-0.1093,1.9044,0.
 3303\H,0,-0.3661,1.6338,1.3561\H,0,0.8175,2.4903,0.3419\H,0,-0.9167,2.
 5132,-0.0744\C,0,1.2942,-0.1501,0.1078\O,0,1.1221,-0.9025,1.0582\N,0,2
 .5043,0.0438,-0.4938\H,0,2.5605,0.6958,-1.2633\C,0,3.7359,-0.5326,0.01
 84\H,0,3.4627,-1.2224,0.8181\H,0,4.2648,-1.0821,-0.7682\H,0,4.4037,0.2
 377,0.4231\\Version=EM64L-G09RevA.02\State=1-A\HF=-492.9143133\MP2=-49
 4.515581\RMSD=6.694e-09\PG=C01 [X(C6H12N2O2)]\\@


 THE MOST BEAUTIFUL EXPERIENCE WE CAN HAVE IS THE MYSTERIOUS.
 IT IS THE FUNDAMENTAL EMOTION WHICH STANDS AT AT THE CRADLE 
 OF TRUE ART AND TRUE SCIENCE.

                                    -- ALBERT EINSTEIN
 Job cpu time:  0 days  9 hours 32 minutes 28.3 seconds.
 File lengths (MBytes):  RWF=  10484 Int=      0 D2E=      0 Chk=      7 Scr=      2
 Normal termination of Gaussian 09 at Sun Feb 12 16:19:03 2017.
