 Entering Gaussian System, Link 0=g09
 Initial command:
 /home/steboss/Software/g09/l1.exe /home/steboss/projects/phi_psi_scan/alanine/MP2/195/5363/Gau-17415.inp -scrdir=/home/steboss/projects/phi_psi_scan/alanine/MP2/195/5363/
 Entering Link 1 = /home/steboss/Software/g09/l1.exe PID=     17417.
  
 Copyright (c) 1988,1990,1992,1993,1995,1998,2003,2009, Gaussian, Inc.
                  All Rights Reserved.
  
 This is part of the Gaussian(R) 09 program.  It is based on
 the Gaussian(R) 03 system (copyright 2003, Gaussian, Inc.),
 the Gaussian(R) 98 system (copyright 1998, Gaussian, Inc.),
 the Gaussian(R) 94 system (copyright 1995, Gaussian, Inc.),
 the Gaussian 92(TM) system (copyright 1992, Gaussian, Inc.),
 the Gaussian 90(TM) system (copyright 1990, Gaussian, Inc.),
 the Gaussian 88(TM) system (copyright 1988, Gaussian, Inc.),
 the Gaussian 86(TM) system (copyright 1986, Carnegie Mellon
 University), and the Gaussian 82(TM) system (copyright 1983,
 Carnegie Mellon University). Gaussian is a federally registered
 trademark of Gaussian, Inc.
  
 This software contains proprietary and confidential information,
 including trade secrets, belonging to Gaussian, Inc.
  
 This software is provided under written license and may be
 used, copied, transmitted, or stored only in accord with that
 written license.
  
 The following legend is applicable only to US Government
 contracts under FAR:
  
                    RESTRICTED RIGHTS LEGEND
  
 Use, reproduction and disclosure by the US Government is
 subject to restrictions as set forth in subparagraphs (a)
 and (c) of the Commercial Computer Software - Restricted
 Rights clause in FAR 52.227-19.
  
 Gaussian, Inc.
 340 Quinnipiac St., Bldg. 40, Wallingford CT 06492
  
  
 ---------------------------------------------------------------
 Warning -- This program may not be used in any manner that
 competes with the business of Gaussian, Inc. or will provide
 assistance to any competitor of Gaussian, Inc.  The licensee
 of this program is prohibited from giving any competitor of
 Gaussian, Inc. access to this program.  By using this program,
 the user acknowledges that Gaussian, Inc. is engaged in the
 business of creating and licensing software in the field of
 computational chemistry and represents and warrants to the
 licensee that it is not a competitor of Gaussian, Inc. and that
 it will not use this program in any manner prohibited above.
 ---------------------------------------------------------------
  

 Cite this work as:
 Gaussian 09, Revision A.02,
 M. J. Frisch, G. W. Trucks, H. B. Schlegel, G. E. Scuseria, 
 M. A. Robb, J. R. Cheeseman, G. Scalmani, V. Barone, B. Mennucci, 
 G. A. Petersson, H. Nakatsuji, M. Caricato, X. Li, H. P. Hratchian, 
 A. F. Izmaylov, J. Bloino, G. Zheng, J. L. Sonnenberg, M. Hada, 
 M. Ehara, K. Toyota, R. Fukuda, J. Hasegawa, M. Ishida, T. Nakajima, 
 Y. Honda, O. Kitao, H. Nakai, T. Vreven, J. A. Montgomery, Jr., 
 J. E. Peralta, F. Ogliaro, M. Bearpark, J. J. Heyd, E. Brothers, 
 K. N. Kudin, V. N. Staroverov, R. Kobayashi, J. Normand, 
 K. Raghavachari, A. Rendell, J. C. Burant, S. S. Iyengar, J. Tomasi, 
 M. Cossi, N. Rega, J. M. Millam, M. Klene, J. E. Knox, J. B. Cross, 
 V. Bakken, C. Adamo, J. Jaramillo, R. Gomperts, R. E. Stratmann, 
 O. Yazyev, A. J. Austin, R. Cammi, C. Pomelli, J. W. Ochterski, 
 R. L. Martin, K. Morokuma, V. G. Zakrzewski, G. A. Voth, 
 P. Salvador, J. J. Dannenberg, S. Dapprich, A. D. Daniels, 
 O. Farkas, J. B. Foresman, J. V. Ortiz, J. Cioslowski, 
 and D. J. Fox, Gaussian, Inc., Wallingford CT, 2009.
 
 ******************************************
 Gaussian 09:  EM64L-G09RevA.02 11-Jun-2009
                13-Feb-2017 
 ******************************************
 %chk=structure_300.chk
 %NProcShared=8
 Will use up to    8 processors via shared memory.
 -------------------
 #SP MP2/aug-cc-pVDZ
 -------------------
 1/38=1/1;
 2/12=2,17=6,18=5,40=1/2;
 3/5=16,7=10,11=9,16=1,25=1,30=1/1,2,3;
 4//1;
 5/5=2,38=5/2;
 8/10=1/1;
 9/16=-3/6;
 6/7=2,8=2,9=2,10=2/1;
 99/5=1,9=1/99;
 -------------------------------
 Single Point calculation at MP2
 -------------------------------
 Symbolic Z-matrix:
 Charge =  0 Multiplicity = 1
 H                     3.809    -1.4514   -0.7651 
 C                     3.0452   -1.5357    0.0129 
 H                     3.565    -1.6665    0.9679 
 H                     2.4339   -2.4229   -0.1808 
 C                     2.2505   -0.2375    0.0594 
 O                     2.7966    0.856     0.1299 
 N                     0.8874   -0.3806    0.0148 
 H                     0.5003   -1.3079    0.1215 
 C                    -0.0193    0.7596    0.2117 
 H                     0.2721    1.291     1.1228 
 C                     0.0216    1.7463   -0.9668 
 H                    -0.2382    1.2591   -1.9139 
 H                    -0.6834    2.5667   -0.7936 
 H                     1.0289    2.157    -1.0559 
 C                    -1.4374    0.2277    0.4779 
 O                    -2.0389    0.4716    1.5143 
 N                    -1.9614   -0.5353   -0.533 
 H                    -1.4534   -0.5851   -1.4052 
 C                    -3.3215   -1.0471   -0.4959 
 H                    -3.6714   -0.974     0.5345 
 H                    -3.9931   -0.4624   -1.1374 
 H                    -3.3477   -2.0937   -0.8172 
 
                          Input orientation:                          
 ---------------------------------------------------------------------
 Center     Atomic      Atomic             Coordinates (Angstroms)
 Number     Number       Type             X           Y           Z
 ---------------------------------------------------------------------
      1          1           0        3.809000   -1.451400   -0.765100
      2          6           0        3.045200   -1.535700    0.012900
      3          1           0        3.565000   -1.666500    0.967900
      4          1           0        2.433900   -2.422900   -0.180800
      5          6           0        2.250500   -0.237500    0.059400
      6          8           0        2.796600    0.856000    0.129900
      7          7           0        0.887400   -0.380600    0.014800
      8          1           0        0.500300   -1.307900    0.121500
      9          6           0       -0.019300    0.759600    0.211700
     10          1           0        0.272100    1.291000    1.122800
     11          6           0        0.021600    1.746300   -0.966800
     12          1           0       -0.238200    1.259100   -1.913900
     13          1           0       -0.683400    2.566700   -0.793600
     14          1           0        1.028900    2.157000   -1.055900
     15          6           0       -1.437400    0.227700    0.477900
     16          8           0       -2.038900    0.471600    1.514300
     17          7           0       -1.961400   -0.535300   -0.533000
     18          1           0       -1.453400   -0.585100   -1.405200
     19          6           0       -3.321500   -1.047100   -0.495900
     20          1           0       -3.671400   -0.974000    0.534500
     21          1           0       -3.993100   -0.462400   -1.137400
     22          1           0       -3.347700   -2.093700   -0.817200
 ---------------------------------------------------------------------
                    Distance matrix (angstroms):
                    1          2          3          4          5
     1  H    0.000000
     2  C    1.093518   0.000000
     3  H    1.763262   1.095137   0.000000
     4  H    1.782167   1.094683   1.780741   0.000000
     5  C    2.140625   1.522837   2.143671   2.206197   0.000000
     6  O    2.673962   2.407430   2.766892   3.313498   1.224311
     7  N    3.207897   2.447521   3.119532   2.569224   1.371316
     8  H    3.428432   2.557382   3.199590   2.252425   2.052514
     9  C    4.527531   3.833938   4.393746   4.037394   2.483827
    10  H    4.857426   4.112444   4.428769   4.490635   2.716836
    11  C    4.960884   4.568752   5.286393   4.880493   3.155399
    12  H    5.004636   4.722730   5.597163   4.868355   3.511033
    13  H    6.027238   5.602016   6.250741   5.915166   4.147158
    14  H    4.564435   4.340948   5.014651   4.869837   2.910297
    15  C    5.647047   4.839371   5.371415   4.737777   3.740610
    16  O    6.564414   5.668468   6.022767   5.590835   4.584595
    17  N    5.847275   5.134671   5.837243   4.796430   4.263769
    18  H    5.371504   4.811658   5.655561   4.470768   3.998094
    19  C    7.147024   6.405660   7.067549   5.925938   5.657826
    20  H    7.607447   6.760199   7.282368   6.315509   5.986406
    21  H    7.873341   7.211992   7.937696   6.787118   6.361246
    22  H    7.185654   6.470672   7.152238   5.825828   5.962696
                    6          7          8          9         10
     6  O    0.000000
     7  N    2.277602   0.000000
     8  H    3.155238   1.010503   0.000000
     9  C    2.818737   1.470010   2.133700   0.000000
    10  H    2.747394   2.097738   2.794451   1.094259   0.000000
    11  C    3.113842   2.497369   3.277451   1.537567   2.153248
    12  H    3.680981   2.770465   3.358232   2.194446   3.079443
    13  H    3.986195   3.436204   4.153442   2.171927   2.492585
    14  H    2.494692   2.757868   3.697461   2.158300   2.463623
    15  C    4.294487   2.447281   2.497953   1.537787   2.113976
    16  O    5.044441   3.396760   3.399125   2.420433   2.483024
    17  N    5.001371   2.905112   2.661813   2.450122   3.326495
    18  H    4.742974   2.745463   2.582672   2.545432   3.589970
    19  C    6.437745   4.291838   3.880123   3.830064   4.582670
    20  H    6.734065   4.626540   4.205370   4.055540   4.585577
    21  H    7.031661   5.015330   4.742398   4.370863   5.135645
    22  H    6.881145   4.643599   4.038037   4.503133   5.321912
                   11         12         13         14         15
    11  C    0.000000
    12  H    1.096293   0.000000
    13  H    1.095481   1.778509   0.000000
    14  H    1.091452   1.774241   1.780064   0.000000
    15  C    2.553818   2.867503   2.766975   3.486743   0.000000
    16  O    3.467907   3.951611   3.399004   4.342568   1.222871
    17  N    3.053878   2.845378   3.365056   4.057561   1.370644
    18  H    2.793429   2.266398   3.301636   3.715230   2.051089
    19  C    4.381911   4.103172   4.484166   5.431928   2.474517
    20  H    4.826198   4.771610   4.819601   5.867312   2.537330
    21  H    4.585333   4.203069   4.499751   5.664661   3.101134
    22  H    5.110789   4.702447   5.368275   6.105740   3.273443
                   16         17         18         19         20
    16  O    0.000000
    17  N    2.282825   0.000000
    18  H    3.159574   1.010582   0.000000
    19  C    2.827086   1.453681   2.128396   0.000000
    20  H    2.390570   2.063035   2.972071   1.090641   0.000000
    21  H    3.423853   2.120948   2.556726   1.097471   1.777772
    22  H    3.705349   2.105043   2.491985   1.095122   1.784826
                   21         22
    21  H    0.000000
    22  H    1.783314   0.000000
 Stoichiometry    C6H12N2O2
 Framework group  C1[X(C6H12N2O2)]
 Deg. of freedom    60
 Full point group                 C1      NOp   1
 Largest Abelian subgroup         C1      NOp   1
 Largest concise Abelian subgroup C1      NOp   1
                         Standard orientation:                         
 ---------------------------------------------------------------------
 Center     Atomic      Atomic             Coordinates (Angstroms)
 Number     Number       Type             X           Y           Z
 ---------------------------------------------------------------------
      1          1           0        3.809008   -1.451361   -0.765087
      2          6           0        3.045209   -1.535667    0.012913
      3          1           0        3.565010   -1.666463    0.967913
      4          1           0        2.433916   -2.422871   -0.180787
      5          6           0        2.250499   -0.237473    0.059413
      6          8           0        2.796591    0.856032    0.129913
      7          7           0        0.887400   -0.380583    0.014813
      8          1           0        0.500307   -1.307886    0.121513
      9          6           0       -0.019308    0.759610    0.211713
     10          1           0        0.272088    1.291012    1.122813
     11          6           0        0.021584    1.746310   -0.966787
     12          1           0       -0.238212    1.259108   -1.913887
     13          1           0       -0.683422    2.566705   -0.793587
     14          1           0        1.028881    2.157018   -1.055887
     15          6           0       -1.437404    0.227699    0.477913
     16          8           0       -2.038906    0.471595    1.514313
     17          7           0       -1.961398   -0.535305   -0.532987
     18          1           0       -1.453398   -0.585101   -1.405187
     19          6           0       -3.321495   -1.047115   -0.495887
     20          1           0       -3.671395   -0.974018    0.534513
     21          1           0       -3.993099   -0.462420   -1.137387
     22          1           0       -3.347687   -2.093715   -0.817187
 ---------------------------------------------------------------------
 Rotational constants (GHZ):      2.3922654      0.6877653      0.6278511
 Standard basis: Aug-CC-pVDZ (5D, 7F)
 There are   338 symmetry adapted basis functions of A   symmetry.
 Integral buffers will be    131072 words long.
 Raffenetti 1 integral format.
 Two-electron integral symmetry is turned on.
   338 basis functions,   562 primitive gaussians,   358 cartesian basis functions
    39 alpha electrons       39 beta electrons
       nuclear repulsion energy       549.5246135130 Hartrees.
 NAtoms=   22 NActive=   22 NUniq=   22 SFac= 7.50D-01 NAtFMM=   80 NAOKFM=F Big=F
 One-electron integrals computed using PRISM.
 NBasis=   338 RedAO= T  NBF=   338
 NBsUse=   338 1.00D-06 NBFU=   338
 Harris functional with IExCor=  205 diagonalized for initial guess.
 ExpMin= 2.97D-02 ExpMax= 1.17D+04 ExpMxC= 4.01D+02 IAcc=3 IRadAn=         0 AccDes= 0.00D+00
 HarFok:  IExCor=  205 AccDes= 0.00D+00 IRadAn=         0 IDoV= 1
 ScaDFX=  1.000000  1.000000  1.000000  1.000000
 FoFCou: FMM=F IPFlag=           0 FMFlag=      100000 FMFlg1=           0
         NFxFlg=           0 DoJE=T BraDBF=F KetDBF=T FulRan=T
         Omega=  0.000000  0.000000  1.000000  0.000000  0.000000 ICntrl=     500 IOpCl=  0
         NMat0=    1 NMatS0=    1 NMatT0=    0 NMatD0=    1 NMtDS0=    0 NMtDT0=    0
         I1Cent=           4 NGrid=           0.
 Petite list used in FoFCou.
 Initial guess orbital symmetries:
       Occupied  (A) (A) (A) (A) (A) (A) (A) (A) (A) (A) (A) (A)
                 (A) (A) (A) (A) (A) (A) (A) (A) (A) (A) (A) (A)
                 (A) (A) (A) (A) (A) (A) (A) (A) (A) (A) (A) (A)
                 (A) (A) (A)
       Virtual   (A) (A) (A) (A) (A) (A) (A) (A) (A) (A) (A) (A)
                 (A) (A) (A) (A) (A) (A) (A) (A) (A) (A) (A) (A)
                 (A) (A) (A) (A) (A) (A) (A) (A) (A) (A) (A) (A)
                 (A) (A) (A) (A) (A) (A) (A) (A) (A) (A) (A) (A)
                 (A) (A) (A) (A) (A) (A) (A) (A) (A) (A) (A) (A)
                 (A) (A) (A) (A) (A) (A) (A) (A) (A) (A) (A) (A)
                 (A) (A) (A) (A) (A) (A) (A) (A) (A) (A) (A) (A)
                 (A) (A) (A) (A) (A) (A) (A) (A) (A) (A) (A) (A)
                 (A) (A) (A) (A) (A) (A) (A) (A) (A) (A) (A) (A)
                 (A) (A) (A) (A) (A) (A) (A) (A) (A) (A) (A) (A)
                 (A) (A) (A) (A) (A) (A) (A) (A) (A) (A) (A) (A)
                 (A) (A) (A) (A) (A) (A) (A) (A) (A) (A) (A) (A)
                 (A) (A) (A) (A) (A) (A) (A) (A) (A) (A) (A) (A)
                 (A) (A) (A) (A) (A) (A) (A) (A) (A) (A) (A) (A)
                 (A) (A) (A) (A) (A) (A) (A) (A) (A) (A) (A) (A)
                 (A) (A) (A) (A) (A) (A) (A) (A) (A) (A) (A) (A)
                 (A) (A) (A) (A) (A) (A) (A) (A) (A) (A) (A) (A)
                 (A) (A) (A) (A) (A) (A) (A) (A) (A) (A) (A) (A)
                 (A) (A) (A) (A) (A) (A) (A) (A) (A) (A) (A) (A)
                 (A) (A) (A) (A) (A) (A) (A) (A) (A) (A) (A) (A)
                 (A) (A) (A) (A) (A) (A) (A) (A) (A) (A) (A) (A)
                 (A) (A) (A) (A) (A) (A) (A) (A) (A) (A) (A) (A)
                 (A) (A) (A) (A) (A) (A) (A) (A) (A) (A) (A) (A)
                 (A) (A) (A) (A) (A) (A) (A) (A) (A) (A) (A) (A)
                 (A) (A) (A) (A) (A) (A) (A) (A) (A) (A) (A)
 The electronic state of the initial guess is 1-A.
 Requested convergence on RMS density matrix=1.00D-08 within 128 cycles.
 Requested convergence on MAX density matrix=1.00D-06.
 Requested convergence on             energy=1.00D-06.
 No special actions if energy rises.
 Initial convergence to 1.0D-05 achieved.  Increase integral accuracy.
 SCF Done:  E(RHF) =  -492.919218341     A.U. after   14 cycles
             Convg  =    0.6821D-08             -V/T =  2.0017
 ExpMin= 2.97D-02 ExpMax= 1.17D+04 ExpMxC= 4.01D+02 IAcc=3 IRadAn=         5 AccDes= 0.00D+00
 HarFok:  IExCor=  205 AccDes= 0.00D+00 IRadAn=         5 IDoV=-2
 ScaDFX=  1.000000  1.000000  1.000000  1.000000
 Range of M.O.s used for correlation:    11   338
 NBasis=   338 NAE=    39 NBE=    39 NFC=    10 NFV=     0
 NROrb=    328 NOA=    29 NOB=    29 NVA=   299 NVB=   299

 **** Warning!!: The largest alpha MO coefficient is  0.65321618D+02

 Disk-based method using OVN memory for 29 occupieds at a time.
 Estimated scratch disk usage=  1378563493 words.
 Actual    scratch disk usage=  1365430206 words.
 JobTyp=1 Pass  1:  I=   1 to  29 NPSUse=  8 ParTrn=T ParDer=T DoDerP=F.
 Spin components of T(2) and E(2):
     alpha-alpha T2 =       0.6794447855D-01 E2=     -0.2057052337D+00
     alpha-beta  T2 =       0.3769417608D+00 E2=     -0.1190331239D+01
     beta-beta   T2 =       0.6794447855D-01 E2=     -0.2057052337D+00
 ANorm=    0.1229971836D+01
 E2 =    -0.1601741706D+01 EUMP2 =    -0.49452096004714D+03

 **********************************************************************

            Population analysis using the SCF density.

 **********************************************************************

 Orbital symmetries:
       Occupied  (A) (A) (A) (A) (A) (A) (A) (A) (A) (A) (A) (A)
                 (A) (A) (A) (A) (A) (A) (A) (A) (A) (A) (A) (A)
                 (A) (A) (A) (A) (A) (A) (A) (A) (A) (A) (A) (A)
                 (A) (A) (A)
       Virtual   (A) (A) (A) (A) (A) (A) (A) (A) (A) (A) (A) (A)
                 (A) (A) (A) (A) (A) (A) (A) (A) (A) (A) (A) (A)
                 (A) (A) (A) (A) (A) (A) (A) (A) (A) (A) (A) (A)
                 (A) (A) (A) (A) (A) (A) (A) (A) (A) (A) (A) (A)
                 (A) (A) (A) (A) (A) (A) (A) (A) (A) (A) (A) (A)
                 (A) (A) (A) (A) (A) (A) (A) (A) (A) (A) (A) (A)
                 (A) (A) (A) (A) (A) (A) (A) (A) (A) (A) (A) (A)
                 (A) (A) (A) (A) (A) (A) (A) (A) (A) (A) (A) (A)
                 (A) (A) (A) (A) (A) (A) (A) (A) (A) (A) (A) (A)
                 (A) (A) (A) (A) (A) (A) (A) (A) (A) (A) (A) (A)
                 (A) (A) (A) (A) (A) (A) (A) (A) (A) (A) (A) (A)
                 (A) (A) (A) (A) (A) (A) (A) (A) (A) (A) (A) (A)
                 (A) (A) (A) (A) (A) (A) (A) (A) (A) (A) (A) (A)
                 (A) (A) (A) (A) (A) (A) (A) (A) (A) (A) (A) (A)
                 (A) (A) (A) (A) (A) (A) (A) (A) (A) (A) (A) (A)
                 (A) (A) (A) (A) (A) (A) (A) (A) (A) (A) (A) (A)
                 (A) (A) (A) (A) (A) (A) (A) (A) (A) (A) (A) (A)
                 (A) (A) (A) (A) (A) (A) (A) (A) (A) (A) (A) (A)
                 (A) (A) (A) (A) (A) (A) (A) (A) (A) (A) (A) (A)
                 (A) (A) (A) (A) (A) (A) (A) (A) (A) (A) (A) (A)
                 (A) (A) (A) (A) (A) (A) (A) (A) (A) (A) (A) (A)
                 (A) (A) (A) (A) (A) (A) (A) (A) (A) (A) (A) (A)
                 (A) (A) (A) (A) (A) (A) (A) (A) (A) (A) (A) (A)
                 (A) (A) (A) (A) (A) (A) (A) (A) (A) (A) (A) (A)
                 (A) (A) (A) (A) (A) (A) (A) (A) (A) (A) (A)
 The electronic state is 1-A.
 Alpha  occ. eigenvalues --  -20.54121 -20.53524 -15.60557 -15.60492 -11.36882
 Alpha  occ. eigenvalues --  -11.36834 -11.29470 -11.27623 -11.25285 -11.23594
 Alpha  occ. eigenvalues --   -1.39529  -1.38843  -1.25317  -1.23198  -1.05926
 Alpha  occ. eigenvalues --   -0.99652  -0.96285  -0.88835  -0.79950  -0.79196
 Alpha  occ. eigenvalues --   -0.73413  -0.68047  -0.66925  -0.64265  -0.63031
 Alpha  occ. eigenvalues --   -0.62354  -0.59617  -0.59365  -0.57309  -0.57057
 Alpha  occ. eigenvalues --   -0.55639  -0.54869  -0.53252  -0.52088  -0.49936
 Alpha  occ. eigenvalues --   -0.44139  -0.42236  -0.40488  -0.39815
 Alpha virt. eigenvalues --    0.02250   0.03650   0.04250   0.04786   0.05573
 Alpha virt. eigenvalues --    0.06043   0.06218   0.06762   0.07264   0.08127
 Alpha virt. eigenvalues --    0.08262   0.09171   0.11071   0.12113   0.12569
 Alpha virt. eigenvalues --    0.13312   0.13969   0.14362   0.14524   0.15105
 Alpha virt. eigenvalues --    0.15230   0.15799   0.16236   0.17185   0.17452
 Alpha virt. eigenvalues --    0.17569   0.17617   0.18226   0.18768   0.19370
 Alpha virt. eigenvalues --    0.19789   0.20048   0.20369   0.20683   0.21483
 Alpha virt. eigenvalues --    0.23315   0.23986   0.24673   0.25352   0.26215
 Alpha virt. eigenvalues --    0.26420   0.27247   0.28514   0.29415   0.30718
 Alpha virt. eigenvalues --    0.31415   0.31678   0.32573   0.33031   0.33519
 Alpha virt. eigenvalues --    0.34543   0.35221   0.35477   0.35655   0.35948
 Alpha virt. eigenvalues --    0.36576   0.37319   0.38182   0.38787   0.40288
 Alpha virt. eigenvalues --    0.40554   0.41286   0.42142   0.42243   0.42607
 Alpha virt. eigenvalues --    0.43236   0.43848   0.44350   0.44640   0.45170
 Alpha virt. eigenvalues --    0.45966   0.46578   0.46845   0.47665   0.47876
 Alpha virt. eigenvalues --    0.48150   0.49599   0.50531   0.51237   0.51771
 Alpha virt. eigenvalues --    0.52714   0.53925   0.54743   0.54983   0.55576
 Alpha virt. eigenvalues --    0.56216   0.56780   0.57582   0.58242   0.58599
 Alpha virt. eigenvalues --    0.59329   0.60035   0.60618   0.60875   0.61868
 Alpha virt. eigenvalues --    0.62511   0.63003   0.63734   0.64498   0.65127
 Alpha virt. eigenvalues --    0.65254   0.65639   0.67236   0.67424   0.68241
 Alpha virt. eigenvalues --    0.68817   0.69103   0.69442   0.71368   0.71574
 Alpha virt. eigenvalues --    0.72069   0.73132   0.73729   0.74399   0.75375
 Alpha virt. eigenvalues --    0.75972   0.76852   0.77397   0.78427   0.79682
 Alpha virt. eigenvalues --    0.80380   0.80830   0.81329   0.82074   0.82793
 Alpha virt. eigenvalues --    0.84214   0.85067   0.86568   0.86728   0.87951
 Alpha virt. eigenvalues --    0.88661   0.89946   0.90667   0.91354   0.93271
 Alpha virt. eigenvalues --    0.94338   0.95215   0.96332   0.96997   0.98686
 Alpha virt. eigenvalues --    0.99046   1.00405   1.01067   1.03116   1.04779
 Alpha virt. eigenvalues --    1.05565   1.06645   1.07816   1.08931   1.10885
 Alpha virt. eigenvalues --    1.12130   1.12827   1.13572   1.15492   1.16749
 Alpha virt. eigenvalues --    1.17738   1.18296   1.18892   1.19100   1.20643
 Alpha virt. eigenvalues --    1.22624   1.23556   1.25840   1.27359   1.28742
 Alpha virt. eigenvalues --    1.31413   1.33300   1.34185   1.35270   1.35788
 Alpha virt. eigenvalues --    1.38591   1.39683   1.40386   1.43593   1.46001
 Alpha virt. eigenvalues --    1.47779   1.48744   1.49224   1.51152   1.53783
 Alpha virt. eigenvalues --    1.54780   1.58137   1.59103   1.60223   1.64255
 Alpha virt. eigenvalues --    1.66224   1.69200   1.69858   1.70929   1.72801
 Alpha virt. eigenvalues --    1.73782   1.75914   1.76747   1.78488   1.80803
 Alpha virt. eigenvalues --    1.81944   1.84380   1.86169   1.86416   1.87838
 Alpha virt. eigenvalues --    1.88681   1.89909   1.90911   1.91935   1.93323
 Alpha virt. eigenvalues --    1.94912   1.96457   1.97178   1.98116   1.99282
 Alpha virt. eigenvalues --    2.02003   2.04372   2.05431   2.07457   2.09161
 Alpha virt. eigenvalues --    2.10197   2.11235   2.13050   2.14190   2.15753
 Alpha virt. eigenvalues --    2.17286   2.18082   2.19639   2.21473   2.23571
 Alpha virt. eigenvalues --    2.24366   2.25874   2.27121   2.28903   2.30009
 Alpha virt. eigenvalues --    2.31189   2.32565   2.33839   2.34211   2.35729
 Alpha virt. eigenvalues --    2.38076   2.39675   2.40209   2.41662   2.43489
 Alpha virt. eigenvalues --    2.45863   2.46480   2.49395   2.49772   2.50687
 Alpha virt. eigenvalues --    2.54280   2.55741   2.56872   2.58102   2.61182
 Alpha virt. eigenvalues --    2.61566   2.64761   2.65528   2.66603   2.67946
 Alpha virt. eigenvalues --    2.71850   2.72904   2.74418   2.76699   2.77792
 Alpha virt. eigenvalues --    2.78991   2.81854   2.85077   2.86080   2.88251
 Alpha virt. eigenvalues --    2.89638   2.91664   2.92273   2.94448   2.97516
 Alpha virt. eigenvalues --    2.98867   2.99203   3.03780   3.04676   3.08040
 Alpha virt. eigenvalues --    3.10964   3.13180   3.16657   3.20963   3.25018
 Alpha virt. eigenvalues --    3.26880   3.30698   3.43273   3.44821   3.54207
 Alpha virt. eigenvalues --    3.59105   3.65196   3.76968   3.81425   3.82642
 Alpha virt. eigenvalues --    3.85176   3.87039   3.93778   3.96767   4.00303
 Alpha virt. eigenvalues --    4.03583   4.11255   4.21049   4.28858
          Condensed to atoms (all electrons):
              1          2          3          4          5          6
     1  H    0.729829   0.387781  -0.047153  -0.082855  -0.091099   0.024185
     2  C    0.387781   4.549131   0.329771   0.345745   0.133189  -0.034215
     3  H   -0.047153   0.329771   0.725977  -0.073269  -0.081071   0.017455
     4  H   -0.082855   0.345745  -0.073269   1.098199   0.120418  -0.010492
     5  C   -0.091099   0.133189  -0.081071   0.120418   5.703065   0.231682
     6  O    0.024185  -0.034215   0.017455  -0.010492   0.231682   8.701414
     7  N    0.044488  -0.107635   0.073951  -0.228897  -0.019860  -0.124482
     8  H   -0.006065  -0.074065  -0.004714   0.008925  -0.100356  -0.003167
     9  C    0.001561   0.127882  -0.005895   0.008471  -0.114067   0.044635
    10  H   -0.000081  -0.002783  -0.002903   0.000754  -0.037866   0.001988
    11  C    0.001179  -0.028589   0.002375  -0.015793  -0.113683   0.019716
    12  H   -0.000579   0.005394   0.000304   0.000249  -0.008657  -0.001050
    13  H    0.000210  -0.001414   0.000139  -0.001476  -0.040667   0.008368
    14  H    0.000809   0.002437  -0.000716   0.001052   0.033487   0.001044
    15  C   -0.004611  -0.029934   0.013187  -0.009048  -0.146734  -0.016704
    16  O    0.000035  -0.000639  -0.000102  -0.000424   0.010026   0.000389
    17  N    0.000557   0.003348   0.000178  -0.000110  -0.027915  -0.000784
    18  H    0.000303  -0.000561  -0.000152  -0.000551   0.003319  -0.000319
    19  C    0.000189  -0.000690   0.000167  -0.000235   0.001878  -0.000627
    20  H   -0.000030   0.000122   0.000002   0.000181  -0.001185   0.000124
    21  H    0.000012   0.000118   0.000021   0.000144  -0.000017  -0.000085
    22  H    0.000037   0.000026   0.000025  -0.000316   0.001115   0.000039
              7          8          9         10         11         12
     1  H    0.044488  -0.006065   0.001561  -0.000081   0.001179  -0.000579
     2  C   -0.107635  -0.074065   0.127882  -0.002783  -0.028589   0.005394
     3  H    0.073951  -0.004714  -0.005895  -0.002903   0.002375   0.000304
     4  H   -0.228897   0.008925   0.008471   0.000754  -0.015793   0.000249
     5  C   -0.019860  -0.100356  -0.114067  -0.037866  -0.113683  -0.008657
     6  O   -0.124482  -0.003167   0.044635   0.001988   0.019716  -0.001050
     7  N    7.932942   0.325703  -1.007144  -0.091323   0.217937  -0.065483
     8  H    0.325703   1.021076  -0.128910   0.023118   0.002327  -0.008320
     9  C   -1.007144  -0.128910   8.863152  -0.289865  -0.459034  -0.144123
    10  H   -0.091323   0.023118  -0.289865   1.340798   0.051998   0.078550
    11  C    0.217937   0.002327  -0.459034   0.051998   4.456676   0.350851
    12  H   -0.065483  -0.008320  -0.144123   0.078550   0.350851   1.212253
    13  H    0.114134   0.005506  -0.249890  -0.070252   0.412392  -0.130367
    14  H   -0.043571  -0.005641   0.164533  -0.027541   0.264962  -0.208244
    15  C    0.116193   0.039660  -0.705108   0.178507   0.026222   0.071551
    16  O   -0.000645  -0.006951   0.028577   0.016082   0.011032  -0.006520
    17  N    0.034304  -0.005016  -0.218449   0.023287   0.083895  -0.034307
    18  H   -0.014005  -0.000118   0.039851  -0.005691  -0.027571   0.001523
    19  C    0.002290   0.001490  -0.095599   0.013133  -0.001588   0.003599
    20  H   -0.002893   0.000070   0.033409   0.005721  -0.010717   0.003654
    21  H   -0.001085  -0.003355  -0.018456  -0.001878   0.014799  -0.001257
    22  H    0.005947   0.001098  -0.004670  -0.000655  -0.001211  -0.002695
             13         14         15         16         17         18
     1  H    0.000210   0.000809  -0.004611   0.000035   0.000557   0.000303
     2  C   -0.001414   0.002437  -0.029934  -0.000639   0.003348  -0.000561
     3  H    0.000139  -0.000716   0.013187  -0.000102   0.000178  -0.000152
     4  H   -0.001476   0.001052  -0.009048  -0.000424  -0.000110  -0.000551
     5  C   -0.040667   0.033487  -0.146734   0.010026  -0.027915   0.003319
     6  O    0.008368   0.001044  -0.016704   0.000389  -0.000784  -0.000319
     7  N    0.114134  -0.043571   0.116193  -0.000645   0.034304  -0.014005
     8  H    0.005506  -0.005641   0.039660  -0.006951  -0.005016  -0.000118
     9  C   -0.249890   0.164533  -0.705108   0.028577  -0.218449   0.039851
    10  H   -0.070252  -0.027541   0.178507   0.016082   0.023287  -0.005691
    11  C    0.412392   0.264962   0.026222   0.011032   0.083895  -0.027571
    12  H   -0.130367  -0.208244   0.071551  -0.006520  -0.034307   0.001523
    13  H    1.150006  -0.180342  -0.012540   0.008878   0.025681   0.000148
    14  H   -0.180342   1.027090  -0.003645  -0.000714   0.018762  -0.001199
    15  C   -0.012540  -0.003645   5.479442   0.186030   0.203762  -0.121291
    16  O    0.008878  -0.000714   0.186030   8.688491  -0.115416   0.008111
    17  N    0.025681   0.018762   0.203762  -0.115416   7.122024   0.292381
    18  H    0.000148  -0.001199  -0.121291   0.008111   0.292381   1.006148
    19  C   -0.001885   0.004645  -0.032140  -0.013596   0.244038  -0.107649
    20  H   -0.002601  -0.000359  -0.007498  -0.019031  -0.021541  -0.008713
    21  H    0.001107   0.001121  -0.016522   0.005155   0.006877  -0.007203
    22  H    0.000095   0.000322  -0.030670   0.009741  -0.070980   0.021349
             19         20         21         22
     1  H    0.000189  -0.000030   0.000012   0.000037
     2  C   -0.000690   0.000122   0.000118   0.000026
     3  H    0.000167   0.000002   0.000021   0.000025
     4  H   -0.000235   0.000181   0.000144  -0.000316
     5  C    0.001878  -0.001185  -0.000017   0.001115
     6  O   -0.000627   0.000124  -0.000085   0.000039
     7  N    0.002290  -0.002893  -0.001085   0.005947
     8  H    0.001490   0.000070  -0.003355   0.001098
     9  C   -0.095599   0.033409  -0.018456  -0.004670
    10  H    0.013133   0.005721  -0.001878  -0.000655
    11  C   -0.001588  -0.010717   0.014799  -0.001211
    12  H    0.003599   0.003654  -0.001257  -0.002695
    13  H   -0.001885  -0.002601   0.001107   0.000095
    14  H    0.004645  -0.000359   0.001121   0.000322
    15  C   -0.032140  -0.007498  -0.016522  -0.030670
    16  O   -0.013596  -0.019031   0.005155   0.009741
    17  N    0.244038  -0.021541   0.006877  -0.070980
    18  H   -0.107649  -0.008713  -0.007203   0.021349
    19  C    4.111597   0.439200   0.327766   0.377598
    20  H    0.439200   0.973678  -0.093432  -0.159086
    21  H    0.327766  -0.093432   1.025041  -0.154999
    22  H    0.377598  -0.159086  -0.154999   1.131420
 Mulliken atomic charges:
              1
     1  H    0.041296
     2  C    0.395580
     3  H    0.052423
     4  H   -0.160673
     5  C    0.544997
     6  O   -0.859115
     7  N   -0.160870
     8  H   -0.082294
     9  C    0.129138
    10  H   -0.203100
    11  C    0.741824
    12  H   -0.116326
    13  H   -0.035232
    14  H   -0.048291
    15  C    0.821892
    16  O   -0.808508
    17  N   -0.564577
    18  H   -0.078108
    19  C    0.726421
    20  H   -0.129076
    21  H   -0.083872
    22  H   -0.123531
 Sum of Mulliken atomic charges =   0.00000
 Mulliken charges with hydrogens summed into heavy atoms:
              1
     2  C    0.328626
     5  C    0.544997
     6  O   -0.859115
     7  N   -0.243164
     9  C   -0.073961
    11  C    0.541975
    15  C    0.821892
    16  O   -0.808508
    17  N   -0.642685
    19  C    0.389943
 Sum of Mulliken charges with hydrogens summed into heavy atoms =   0.00000
 Electronic spatial extent (au):  <R**2>=           1923.6186
 Charge=              0.0000 electrons
 Dipole moment (field-independent basis, Debye):
    X=             -1.0867    Y=             -4.0514    Z=             -3.5558  Tot=              5.4989
 Quadrupole moment (field-independent basis, Debye-Ang):
   XX=            -67.6304   YY=            -58.4827   ZZ=            -64.4125
   XY=             -5.1722   XZ=              7.4281   YZ=             -1.5552
 Traceless Quadrupole moment (field-independent basis, Debye-Ang):
   XX=             -4.1219   YY=              5.0258   ZZ=             -0.9040
   XY=             -5.1722   XZ=              7.4281   YZ=             -1.5552
 Octapole moment (field-independent basis, Debye-Ang**2):
  XXX=            -27.0284  YYY=             -2.8462  ZZZ=             -8.8205  XYY=             -2.8448
  XXY=            -38.6032  XXZ=            -17.8183  XZZ=             10.3081  YZZ=             -4.3448
  YYZ=             -0.6139  XYZ=              0.5333
 Hexadecapole moment (field-independent basis, Debye-Ang**3):
 XXXX=          -1802.1075 YYYY=           -457.6847 ZZZZ=           -258.1504 XXXY=            -49.3962
 XXXZ=             23.0519 YYYX=              0.3256 YYYZ=              4.0335 ZZZX=             21.6253
 ZZZY=              1.2935 XXYY=           -378.0466 XXZZ=           -350.0804 YYZZ=           -121.9501
 XXYZ=            -10.2584 YYXZ=              2.4683 ZZXY=              8.6120
 N-N= 5.495246135130D+02 E-N=-2.253978123861D+03  KE= 4.920696041890D+02
 1\1\GINC-NODE012\SP\RMP2-FC\Aug-CC-pVDZ\C6H12N2O2\MANAGER\13-Feb-2017\
 0\\#SP MP2/aug-cc-pVDZ\\Single Point calculation at MP2\\0,1\H,0,3.809
 ,-1.4514,-0.7651\C,0,3.0452,-1.5357,0.0129\H,0,3.565,-1.6665,0.9679\H,
 0,2.4339,-2.4229,-0.1808\C,0,2.2505,-0.2375,0.0594\O,0,2.7966,0.856,0.
 1299\N,0,0.8874,-0.3806,0.0148\H,0,0.5003,-1.3079,0.1215\C,0,-0.0193,0
 .7596,0.2117\H,0,0.2721,1.291,1.1228\C,0,0.0216,1.7463,-0.9668\H,0,-0.
 2382,1.2591,-1.9139\H,0,-0.6834,2.5667,-0.7936\H,0,1.0289,2.157,-1.055
 9\C,0,-1.4374,0.2277,0.4779\O,0,-2.0389,0.4716,1.5143\N,0,-1.9614,-0.5
 353,-0.533\H,0,-1.4534,-0.5851,-1.4052\C,0,-3.3215,-1.0471,-0.4959\H,0
 ,-3.6714,-0.974,0.5345\H,0,-3.9931,-0.4624,-1.1374\H,0,-3.3477,-2.0937
 ,-0.8172\\Version=EM64L-G09RevA.02\State=1-A\HF=-492.9192183\MP2=-494.
 52096\RMSD=6.821e-09\PG=C01 [X(C6H12N2O2)]\\@


 THE GREAT THING ABOUT BEING IMPERFECT IS THE JOY IT BRINGS OTHERS.
   -- SIGN OUTSIDE LAKE AGASSIZ JR. HIGH SCHOOL, FARGO, N.D.
 Job cpu time:  0 days  8 hours 34 minutes  8.6 seconds.
 File lengths (MBytes):  RWF=  10534 Int=      0 D2E=      0 Chk=      7 Scr=      2
 Normal termination of Gaussian 09 at Mon Feb 13 02:50:39 2017.
