 Entering Gaussian System, Link 0=g09
 Initial command:
 /home/steboss/Software/g09/l1.exe /home/steboss/projects/phi_psi_scan/alanine/MP2/195/5370/Gau-22624.inp -scrdir=/home/steboss/projects/phi_psi_scan/alanine/MP2/195/5370/
 Entering Link 1 = /home/steboss/Software/g09/l1.exe PID=     22626.
  
 Copyright (c) 1988,1990,1992,1993,1995,1998,2003,2009, Gaussian, Inc.
                  All Rights Reserved.
  
 This is part of the Gaussian(R) 09 program.  It is based on
 the Gaussian(R) 03 system (copyright 2003, Gaussian, Inc.),
 the Gaussian(R) 98 system (copyright 1998, Gaussian, Inc.),
 the Gaussian(R) 94 system (copyright 1995, Gaussian, Inc.),
 the Gaussian 92(TM) system (copyright 1992, Gaussian, Inc.),
 the Gaussian 90(TM) system (copyright 1990, Gaussian, Inc.),
 the Gaussian 88(TM) system (copyright 1988, Gaussian, Inc.),
 the Gaussian 86(TM) system (copyright 1986, Carnegie Mellon
 University), and the Gaussian 82(TM) system (copyright 1983,
 Carnegie Mellon University). Gaussian is a federally registered
 trademark of Gaussian, Inc.
  
 This software contains proprietary and confidential information,
 including trade secrets, belonging to Gaussian, Inc.
  
 This software is provided under written license and may be
 used, copied, transmitted, or stored only in accord with that
 written license.
  
 The following legend is applicable only to US Government
 contracts under FAR:
  
                    RESTRICTED RIGHTS LEGEND
  
 Use, reproduction and disclosure by the US Government is
 subject to restrictions as set forth in subparagraphs (a)
 and (c) of the Commercial Computer Software - Restricted
 Rights clause in FAR 52.227-19.
  
 Gaussian, Inc.
 340 Quinnipiac St., Bldg. 40, Wallingford CT 06492
  
  
 ---------------------------------------------------------------
 Warning -- This program may not be used in any manner that
 competes with the business of Gaussian, Inc. or will provide
 assistance to any competitor of Gaussian, Inc.  The licensee
 of this program is prohibited from giving any competitor of
 Gaussian, Inc. access to this program.  By using this program,
 the user acknowledges that Gaussian, Inc. is engaged in the
 business of creating and licensing software in the field of
 computational chemistry and represents and warrants to the
 licensee that it is not a competitor of Gaussian, Inc. and that
 it will not use this program in any manner prohibited above.
 ---------------------------------------------------------------
  

 Cite this work as:
 Gaussian 09, Revision A.02,
 M. J. Frisch, G. W. Trucks, H. B. Schlegel, G. E. Scuseria, 
 M. A. Robb, J. R. Cheeseman, G. Scalmani, V. Barone, B. Mennucci, 
 G. A. Petersson, H. Nakatsuji, M. Caricato, X. Li, H. P. Hratchian, 
 A. F. Izmaylov, J. Bloino, G. Zheng, J. L. Sonnenberg, M. Hada, 
 M. Ehara, K. Toyota, R. Fukuda, J. Hasegawa, M. Ishida, T. Nakajima, 
 Y. Honda, O. Kitao, H. Nakai, T. Vreven, J. A. Montgomery, Jr., 
 J. E. Peralta, F. Ogliaro, M. Bearpark, J. J. Heyd, E. Brothers, 
 K. N. Kudin, V. N. Staroverov, R. Kobayashi, J. Normand, 
 K. Raghavachari, A. Rendell, J. C. Burant, S. S. Iyengar, J. Tomasi, 
 M. Cossi, N. Rega, J. M. Millam, M. Klene, J. E. Knox, J. B. Cross, 
 V. Bakken, C. Adamo, J. Jaramillo, R. Gomperts, R. E. Stratmann, 
 O. Yazyev, A. J. Austin, R. Cammi, C. Pomelli, J. W. Ochterski, 
 R. L. Martin, K. Morokuma, V. G. Zakrzewski, G. A. Voth, 
 P. Salvador, J. J. Dannenberg, S. Dapprich, A. D. Daniels, 
 O. Farkas, J. B. Foresman, J. V. Ortiz, J. Cioslowski, 
 and D. J. Fox, Gaussian, Inc., Wallingford CT, 2009.
 
 ******************************************
 Gaussian 09:  EM64L-G09RevA.02 11-Jun-2009
                13-Feb-2017 
 ******************************************
 %chk=structure_75.chk
 %NProcShared=8
 Will use up to    8 processors via shared memory.
 -------------------
 #SP MP2/aug-cc-pVDZ
 -------------------
 1/38=1/1;
 2/12=2,17=6,18=5,40=1/2;
 3/5=16,7=10,11=9,16=1,25=1,30=1/1,2,3;
 4//1;
 5/5=2,38=5/2;
 8/10=1/1;
 9/16=-3/6;
 6/7=2,8=2,9=2,10=2/1;
 99/5=1,9=1/99;
 -------------------------------
 Single Point calculation at MP2
 -------------------------------
 Symbolic Z-matrix:
 Charge =  0 Multiplicity = 1
 H                     3.7465   -1.8073   -0.2584 
 C                     3.0827   -1.1675   -0.8446 
 H                     2.5386   -1.7778   -1.5726 
 H                     3.7091   -0.4513   -1.3889 
 C                     2.1696   -0.4081    0.107 
 O                     2.5601    0.0316    1.1799 
 N                     0.8668   -0.2686   -0.3158 
 H                     0.6775   -0.4514   -1.2942 
 C                    -0.0393    0.68      0.3472 
 H                     0.0766    0.5037    1.4216 
 C                     0.2914    2.1402    0.0355 
 H                     0.161     2.3446   -1.0307 
 H                    -0.3791    2.8085    0.5855 
 H                     1.3212    2.3534    0.3331 
 C                    -1.4765    0.3285   -0.0896 
 O                    -2.0911    0.9937   -0.9149 
 N                    -1.983    -0.7895    0.5064 
 H                    -1.375    -1.3161    1.1182 
 C                    -3.2853   -1.339     0.1746 
 H                    -3.7975   -0.6089   -0.4533 
 H                    -3.1981   -2.2836   -0.3773 
 H                    -3.8752   -1.5136    1.0811 
 
                          Input orientation:                          
 ---------------------------------------------------------------------
 Center     Atomic      Atomic             Coordinates (Angstroms)
 Number     Number       Type             X           Y           Z
 ---------------------------------------------------------------------
      1          1           0        3.746500   -1.807300   -0.258400
      2          6           0        3.082700   -1.167500   -0.844600
      3          1           0        2.538600   -1.777800   -1.572600
      4          1           0        3.709100   -0.451300   -1.388900
      5          6           0        2.169600   -0.408100    0.107000
      6          8           0        2.560100    0.031600    1.179900
      7          7           0        0.866800   -0.268600   -0.315800
      8          1           0        0.677500   -0.451400   -1.294200
      9          6           0       -0.039300    0.680000    0.347200
     10          1           0        0.076600    0.503700    1.421600
     11          6           0        0.291400    2.140200    0.035500
     12          1           0        0.161000    2.344600   -1.030700
     13          1           0       -0.379100    2.808500    0.585500
     14          1           0        1.321200    2.353400    0.333100
     15          6           0       -1.476500    0.328500   -0.089600
     16          8           0       -2.091100    0.993700   -0.914900
     17          7           0       -1.983000   -0.789500    0.506400
     18          1           0       -1.375000   -1.316100    1.118200
     19          6           0       -3.285300   -1.339000    0.174600
     20          1           0       -3.797500   -0.608900   -0.453300
     21          1           0       -3.198100   -2.283600   -0.377300
     22          1           0       -3.875200   -1.513600    1.081100
 ---------------------------------------------------------------------
                    Distance matrix (angstroms):
                    1          2          3          4          5
     1  H    0.000000
     2  C    1.092522   0.000000
     3  H    1.785221   1.094758   0.000000
     4  H    1.765833   1.096167   1.778600   0.000000
     5  C    2.139601   1.521835   2.198476   2.147008   0.000000
     6  O    2.618741   2.410301   3.294032   2.855193   1.223495
     7  N    3.265511   2.449054   2.579175   3.043615   1.376774
     8  H    3.511425   2.549495   2.302289   3.033079   2.047339
     9  C    4.570087   3.818446   4.046231   4.283035   2.474045
    10  H    4.650945   4.118884   4.497991   4.691054   2.634426
    11  C    5.254222   4.416652   4.794436   4.519454   3.166478
    12  H    5.539904   4.572287   4.789658   4.531487   3.592519
    13  H    6.248068   5.462401   5.848463   5.589090   4.131749
    14  H    4.852152   4.109330   4.709625   4.066164   2.897721
    15  C    5.645340   4.857401   4.770411   5.402473   3.724953
    16  O    6.508008   5.607489   5.435798   5.996251   4.600314
    17  N    5.869242   5.256368   5.073839   6.008872   4.189161
    18  H    5.325980   4.872962   4.771775   5.734239   3.796206
    19  C    7.060666   6.451326   6.096152   7.221785   5.534174
    20  H    7.641079   6.913921   6.539520   7.566322   5.996711
    21  H    6.961930   6.396288   5.881692   7.217345   5.706509
    22  H    7.744084   7.227757   6.946132   8.046800   6.221785
                    6          7          8          9         10
     6  O    0.000000
     7  N    2.279145   0.000000
     8  H    3.146211   1.013172   0.000000
     9  C    2.805475   1.469840   2.118505   0.000000
    10  H    2.539502   2.058986   2.940896   1.094920   0.000000
    11  C    3.301946   2.501362   2.938293   1.529282   2.155353
    12  H    3.999050   2.799652   2.855490   2.170166   3.067542
    13  H    4.086977   3.439935   3.908532   2.168586   2.493758
    14  H    2.764543   2.739057   3.305958   2.156717   2.480978
    15  C    4.241924   2.428734   2.588247   1.542689   2.174061
    16  O    5.191097   3.271314   3.146002   2.429236   3.224633
    17  N    4.665572   3.011430   3.230284   2.441873   2.598444
    18  H    4.159942   2.859944   3.283312   2.522489   2.347523
    19  C    6.087518   4.315806   4.318448   3.826574   4.031492
    20  H    6.595200   4.678718   4.556045   4.052916   4.445422
    21  H    6.398585   4.537336   4.383827   4.391565   4.661410
    22  H    6.618949   5.097835   5.243796   4.479355   4.449962
                   11         12         13         14         15
    11  C    0.000000
    12  H    1.093419   0.000000
    13  H    1.094849   1.766073   0.000000
    14  H    1.092936   1.790556   1.778157   0.000000
    15  C    2.534438   2.762559   2.794718   3.479371   0.000000
    16  O    2.809631   2.628744   2.911296   3.879443   1.225294
    17  N    3.738688   4.096583   3.940096   4.563506   1.364435
    18  H    3.986871   4.514177   4.276437   4.620726   2.042986
    19  C    4.991690   5.186390   5.081003   5.905826   2.474291
    20  H    4.951321   4.972552   4.944005   5.966132   2.529434
    21  H    5.649515   5.755929   5.899426   6.513871   3.141615
    22  H    5.639511   5.969616   5.581118   6.520411   3.243090
                   16         17         18         19         20
    16  O    0.000000
    17  N    2.282889   0.000000
    18  H    3.159347   1.010579   0.000000
    19  C    2.838065   1.451905   2.130763   0.000000
    20  H    2.386043   2.060595   2.972919   1.090712   0.000000
    21  H    3.500737   2.118898   2.548778   1.097482   1.780359
    22  H    3.667912   2.105949   2.508263   1.095541   1.782948
                   21         22
    21  H    0.000000
    22  H    1.782777   0.000000
 Stoichiometry    C6H12N2O2
 Framework group  C1[X(C6H12N2O2)]
 Deg. of freedom    60
 Full point group                 C1      NOp   1
 Largest Abelian subgroup         C1      NOp   1
 Largest concise Abelian subgroup C1      NOp   1
                         Standard orientation:                         
 ---------------------------------------------------------------------
 Center     Atomic      Atomic             Coordinates (Angstroms)
 Number     Number       Type             X           Y           Z
 ---------------------------------------------------------------------
      1          1           0        3.746508   -1.807294   -0.258386
      2          6           0        3.082706   -1.167497   -0.844586
      3          1           0        2.538608   -1.777798   -1.572586
      4          1           0        3.709104   -0.451295   -1.388886
      5          6           0        2.169604   -0.408099    0.107014
      6          8           0        2.560102    0.031602    1.179914
      7          7           0        0.866803   -0.268604   -0.315786
      8          1           0        0.677504   -0.451404   -1.294186
      9          6           0       -0.039300    0.679993    0.347214
     10          1           0        0.076601    0.503694    1.421614
     11          6           0        0.291396    2.140195    0.035514
     12          1           0        0.160995    2.344594   -1.030686
     13          1           0       -0.379106    2.808492    0.585514
     14          1           0        1.321195    2.353398    0.333114
     15          6           0       -1.476498    0.328489   -0.089586
     16          8           0       -2.091101    0.993687   -0.914886
     17          7           0       -1.982995   -0.789513    0.506414
     18          1           0       -1.374993   -1.316111    1.118214
     19          6           0       -3.285293   -1.339017    0.174614
     20          1           0       -3.797495   -0.608919   -0.453286
     21          1           0       -3.198090   -2.283617   -0.377286
     22          1           0       -3.875193   -1.513619    1.081114
 ---------------------------------------------------------------------
 Rotational constants (GHZ):      2.2314355      0.7116386      0.6240136
 Standard basis: Aug-CC-pVDZ (5D, 7F)
 There are   338 symmetry adapted basis functions of A   symmetry.
 Integral buffers will be    131072 words long.
 Raffenetti 1 integral format.
 Two-electron integral symmetry is turned on.
   338 basis functions,   562 primitive gaussians,   358 cartesian basis functions
    39 alpha electrons       39 beta electrons
       nuclear repulsion energy       549.1148932338 Hartrees.
 NAtoms=   22 NActive=   22 NUniq=   22 SFac= 7.50D-01 NAtFMM=   80 NAOKFM=F Big=F
 One-electron integrals computed using PRISM.
 NBasis=   338 RedAO= T  NBF=   338
 NBsUse=   338 1.00D-06 NBFU=   338
 Harris functional with IExCor=  205 diagonalized for initial guess.
 ExpMin= 2.97D-02 ExpMax= 1.17D+04 ExpMxC= 4.01D+02 IAcc=3 IRadAn=         0 AccDes= 0.00D+00
 HarFok:  IExCor=  205 AccDes= 0.00D+00 IRadAn=         0 IDoV= 1
 ScaDFX=  1.000000  1.000000  1.000000  1.000000
 FoFCou: FMM=F IPFlag=           0 FMFlag=      100000 FMFlg1=           0
         NFxFlg=           0 DoJE=T BraDBF=F KetDBF=T FulRan=T
         Omega=  0.000000  0.000000  1.000000  0.000000  0.000000 ICntrl=     500 IOpCl=  0
         NMat0=    1 NMatS0=    1 NMatT0=    0 NMatD0=    1 NMtDS0=    0 NMtDT0=    0
         I1Cent=           4 NGrid=           0.
 Petite list used in FoFCou.
 Initial guess orbital symmetries:
       Occupied  (A) (A) (A) (A) (A) (A) (A) (A) (A) (A) (A) (A)
                 (A) (A) (A) (A) (A) (A) (A) (A) (A) (A) (A) (A)
                 (A) (A) (A) (A) (A) (A) (A) (A) (A) (A) (A) (A)
                 (A) (A) (A)
       Virtual   (A) (A) (A) (A) (A) (A) (A) (A) (A) (A) (A) (A)
                 (A) (A) (A) (A) (A) (A) (A) (A) (A) (A) (A) (A)
                 (A) (A) (A) (A) (A) (A) (A) (A) (A) (A) (A) (A)
                 (A) (A) (A) (A) (A) (A) (A) (A) (A) (A) (A) (A)
                 (A) (A) (A) (A) (A) (A) (A) (A) (A) (A) (A) (A)
                 (A) (A) (A) (A) (A) (A) (A) (A) (A) (A) (A) (A)
                 (A) (A) (A) (A) (A) (A) (A) (A) (A) (A) (A) (A)
                 (A) (A) (A) (A) (A) (A) (A) (A) (A) (A) (A) (A)
                 (A) (A) (A) (A) (A) (A) (A) (A) (A) (A) (A) (A)
                 (A) (A) (A) (A) (A) (A) (A) (A) (A) (A) (A) (A)
                 (A) (A) (A) (A) (A) (A) (A) (A) (A) (A) (A) (A)
                 (A) (A) (A) (A) (A) (A) (A) (A) (A) (A) (A) (A)
                 (A) (A) (A) (A) (A) (A) (A) (A) (A) (A) (A) (A)
                 (A) (A) (A) (A) (A) (A) (A) (A) (A) (A) (A) (A)
                 (A) (A) (A) (A) (A) (A) (A) (A) (A) (A) (A) (A)
                 (A) (A) (A) (A) (A) (A) (A) (A) (A) (A) (A) (A)
                 (A) (A) (A) (A) (A) (A) (A) (A) (A) (A) (A) (A)
                 (A) (A) (A) (A) (A) (A) (A) (A) (A) (A) (A) (A)
                 (A) (A) (A) (A) (A) (A) (A) (A) (A) (A) (A) (A)
                 (A) (A) (A) (A) (A) (A) (A) (A) (A) (A) (A) (A)
                 (A) (A) (A) (A) (A) (A) (A) (A) (A) (A) (A) (A)
                 (A) (A) (A) (A) (A) (A) (A) (A) (A) (A) (A) (A)
                 (A) (A) (A) (A) (A) (A) (A) (A) (A) (A) (A) (A)
                 (A) (A) (A) (A) (A) (A) (A) (A) (A) (A) (A) (A)
                 (A) (A) (A) (A) (A) (A) (A) (A) (A) (A) (A)
 The electronic state of the initial guess is 1-A.
 Requested convergence on RMS density matrix=1.00D-08 within 128 cycles.
 Requested convergence on MAX density matrix=1.00D-06.
 Requested convergence on             energy=1.00D-06.
 No special actions if energy rises.
 Initial convergence to 1.0D-05 achieved.  Increase integral accuracy.
 SCF Done:  E(RHF) =  -492.923207635     A.U. after   14 cycles
             Convg  =    0.7791D-08             -V/T =  2.0017
 ExpMin= 2.97D-02 ExpMax= 1.17D+04 ExpMxC= 4.01D+02 IAcc=3 IRadAn=         5 AccDes= 0.00D+00
 HarFok:  IExCor=  205 AccDes= 0.00D+00 IRadAn=         5 IDoV=-2
 ScaDFX=  1.000000  1.000000  1.000000  1.000000
 Range of M.O.s used for correlation:    11   338
 NBasis=   338 NAE=    39 NBE=    39 NFC=    10 NFV=     0
 NROrb=    328 NOA=    29 NOB=    29 NVA=   299 NVB=   299

 **** Warning!!: The largest alpha MO coefficient is  0.71300627D+02

 Disk-based method using OVN memory for 29 occupieds at a time.
 Estimated scratch disk usage=  1374797006 words.
 Actual    scratch disk usage=  1361938030 words.
 JobTyp=1 Pass  1:  I=   1 to  29 NPSUse=  8 ParTrn=T ParDer=T DoDerP=F.
 Spin components of T(2) and E(2):
     alpha-alpha T2 =       0.6786904944D-01 E2=     -0.2055885256D+00
     alpha-beta  T2 =       0.3766526799D+00 E2=     -0.1189916367D+01
     beta-beta   T2 =       0.6786904944D-01 E2=     -0.2055885256D+00
 ANorm=    0.1229792982D+01
 E2 =    -0.1601093418D+01 EUMP2 =    -0.49452430105383D+03

 **********************************************************************

            Population analysis using the SCF density.

 **********************************************************************

 Orbital symmetries:
       Occupied  (A) (A) (A) (A) (A) (A) (A) (A) (A) (A) (A) (A)
                 (A) (A) (A) (A) (A) (A) (A) (A) (A) (A) (A) (A)
                 (A) (A) (A) (A) (A) (A) (A) (A) (A) (A) (A) (A)
                 (A) (A) (A)
       Virtual   (A) (A) (A) (A) (A) (A) (A) (A) (A) (A) (A) (A)
                 (A) (A) (A) (A) (A) (A) (A) (A) (A) (A) (A) (A)
                 (A) (A) (A) (A) (A) (A) (A) (A) (A) (A) (A) (A)
                 (A) (A) (A) (A) (A) (A) (A) (A) (A) (A) (A) (A)
                 (A) (A) (A) (A) (A) (A) (A) (A) (A) (A) (A) (A)
                 (A) (A) (A) (A) (A) (A) (A) (A) (A) (A) (A) (A)
                 (A) (A) (A) (A) (A) (A) (A) (A) (A) (A) (A) (A)
                 (A) (A) (A) (A) (A) (A) (A) (A) (A) (A) (A) (A)
                 (A) (A) (A) (A) (A) (A) (A) (A) (A) (A) (A) (A)
                 (A) (A) (A) (A) (A) (A) (A) (A) (A) (A) (A) (A)
                 (A) (A) (A) (A) (A) (A) (A) (A) (A) (A) (A) (A)
                 (A) (A) (A) (A) (A) (A) (A) (A) (A) (A) (A) (A)
                 (A) (A) (A) (A) (A) (A) (A) (A) (A) (A) (A) (A)
                 (A) (A) (A) (A) (A) (A) (A) (A) (A) (A) (A) (A)
                 (A) (A) (A) (A) (A) (A) (A) (A) (A) (A) (A) (A)
                 (A) (A) (A) (A) (A) (A) (A) (A) (A) (A) (A) (A)
                 (A) (A) (A) (A) (A) (A) (A) (A) (A) (A) (A) (A)
                 (A) (A) (A) (A) (A) (A) (A) (A) (A) (A) (A) (A)
                 (A) (A) (A) (A) (A) (A) (A) (A) (A) (A) (A) (A)
                 (A) (A) (A) (A) (A) (A) (A) (A) (A) (A) (A) (A)
                 (A) (A) (A) (A) (A) (A) (A) (A) (A) (A) (A) (A)
                 (A) (A) (A) (A) (A) (A) (A) (A) (A) (A) (A) (A)
                 (A) (A) (A) (A) (A) (A) (A) (A) (A) (A) (A) (A)
                 (A) (A) (A) (A) (A) (A) (A) (A) (A) (A) (A) (A)
                 (A) (A) (A) (A) (A) (A) (A) (A) (A) (A) (A)
 The electronic state is 1-A.
 Alpha  occ. eigenvalues --  -20.53891 -20.53868 -15.60478 -15.60008 -11.37013
 Alpha  occ. eigenvalues --  -11.36515 -11.29306 -11.27260 -11.25365 -11.22352
 Alpha  occ. eigenvalues --   -1.39454  -1.38903  -1.24911  -1.23203  -1.05442
 Alpha  occ. eigenvalues --   -0.99479  -0.96466  -0.87579  -0.79684  -0.79201
 Alpha  occ. eigenvalues --   -0.73141  -0.67560  -0.65943  -0.65189  -0.62594
 Alpha  occ. eigenvalues --   -0.62088  -0.60393  -0.59102  -0.57629  -0.56343
 Alpha  occ. eigenvalues --   -0.55103  -0.53522  -0.52560  -0.51762  -0.50144
 Alpha  occ. eigenvalues --   -0.43588  -0.43095  -0.40804  -0.39155
 Alpha virt. eigenvalues --    0.02648   0.03641   0.04496   0.04558   0.05581
 Alpha virt. eigenvalues --    0.06006   0.06191   0.06990   0.07331   0.08075
 Alpha virt. eigenvalues --    0.08576   0.09130   0.11194   0.11680   0.12691
 Alpha virt. eigenvalues --    0.13590   0.14181   0.14507   0.15106   0.15197
 Alpha virt. eigenvalues --    0.15623   0.15680   0.16318   0.16656   0.16789
 Alpha virt. eigenvalues --    0.17025   0.17753   0.18081   0.18482   0.18802
 Alpha virt. eigenvalues --    0.19679   0.20396   0.20745   0.21161   0.22569
 Alpha virt. eigenvalues --    0.23021   0.23630   0.24575   0.24995   0.25975
 Alpha virt. eigenvalues --    0.26861   0.27409   0.28383   0.30370   0.30562
 Alpha virt. eigenvalues --    0.31135   0.31681   0.32414   0.32965   0.34100
 Alpha virt. eigenvalues --    0.34393   0.34483   0.35719   0.36042   0.36695
 Alpha virt. eigenvalues --    0.37019   0.37325   0.38265   0.38515   0.39864
 Alpha virt. eigenvalues --    0.40484   0.41025   0.41549   0.41955   0.42811
 Alpha virt. eigenvalues --    0.42961   0.44109   0.44675   0.45103   0.45295
 Alpha virt. eigenvalues --    0.45853   0.46532   0.47638   0.48528   0.48889
 Alpha virt. eigenvalues --    0.49917   0.50551   0.50828   0.51125   0.52613
 Alpha virt. eigenvalues --    0.53254   0.53983   0.54305   0.54760   0.55226
 Alpha virt. eigenvalues --    0.55928   0.56509   0.57089   0.57694   0.58400
 Alpha virt. eigenvalues --    0.58881   0.59571   0.60786   0.60820   0.61762
 Alpha virt. eigenvalues --    0.62219   0.62976   0.63023   0.64258   0.64710
 Alpha virt. eigenvalues --    0.65303   0.66049   0.66504   0.67451   0.67819
 Alpha virt. eigenvalues --    0.68798   0.69935   0.70839   0.71006   0.71713
 Alpha virt. eigenvalues --    0.72175   0.72515   0.73127   0.74397   0.74618
 Alpha virt. eigenvalues --    0.75075   0.75903   0.76360   0.76863   0.78142
 Alpha virt. eigenvalues --    0.79405   0.80846   0.81133   0.82467   0.82843
 Alpha virt. eigenvalues --    0.84487   0.84816   0.86271   0.86969   0.88246
 Alpha virt. eigenvalues --    0.88964   0.89510   0.90670   0.92693   0.93069
 Alpha virt. eigenvalues --    0.94609   0.95383   0.96709   0.97344   0.99797
 Alpha virt. eigenvalues --    1.00143   1.01351   1.01962   1.03997   1.04346
 Alpha virt. eigenvalues --    1.05411   1.06700   1.08067   1.08756   1.11078
 Alpha virt. eigenvalues --    1.11821   1.12624   1.14206   1.14837   1.15179
 Alpha virt. eigenvalues --    1.16666   1.17006   1.18355   1.19096   1.19253
 Alpha virt. eigenvalues --    1.22579   1.23312   1.25797   1.27427   1.28222
 Alpha virt. eigenvalues --    1.28713   1.31674   1.33305   1.34024   1.36673
 Alpha virt. eigenvalues --    1.40026   1.41581   1.42751   1.42903   1.45441
 Alpha virt. eigenvalues --    1.47778   1.50322   1.51040   1.52499   1.53662
 Alpha virt. eigenvalues --    1.57356   1.57770   1.61224   1.62906   1.63467
 Alpha virt. eigenvalues --    1.65985   1.69026   1.70273   1.70747   1.73219
 Alpha virt. eigenvalues --    1.73822   1.75986   1.76314   1.78660   1.79699
 Alpha virt. eigenvalues --    1.81362   1.84041   1.84212   1.85480   1.87513
 Alpha virt. eigenvalues --    1.89207   1.89716   1.90119   1.92030   1.94298
 Alpha virt. eigenvalues --    1.94794   1.95434   1.96413   1.97223   1.99573
 Alpha virt. eigenvalues --    2.02680   2.04238   2.05994   2.07239   2.09146
 Alpha virt. eigenvalues --    2.10216   2.11928   2.13029   2.14698   2.16444
 Alpha virt. eigenvalues --    2.17727   2.19917   2.20845   2.21776   2.22559
 Alpha virt. eigenvalues --    2.23837   2.25956   2.27525   2.27547   2.30216
 Alpha virt. eigenvalues --    2.30865   2.32949   2.34013   2.34954   2.36059
 Alpha virt. eigenvalues --    2.37949   2.38546   2.40110   2.41368   2.43464
 Alpha virt. eigenvalues --    2.44296   2.46611   2.48143   2.49567   2.52418
 Alpha virt. eigenvalues --    2.53164   2.54934   2.57063   2.58234   2.61518
 Alpha virt. eigenvalues --    2.62241   2.63099   2.65253   2.67228   2.71358
 Alpha virt. eigenvalues --    2.72039   2.73885   2.75448   2.78136   2.80845
 Alpha virt. eigenvalues --    2.83155   2.83516   2.85964   2.86319   2.89139
 Alpha virt. eigenvalues --    2.90370   2.92078   2.94185   2.98170   2.98999
 Alpha virt. eigenvalues --    3.00089   3.03390   3.03513   3.05177   3.05485
 Alpha virt. eigenvalues --    3.11525   3.13029   3.15661   3.21412   3.21991
 Alpha virt. eigenvalues --    3.27652   3.35843   3.42420   3.47277   3.51538
 Alpha virt. eigenvalues --    3.62570   3.63911   3.77099   3.83335   3.84628
 Alpha virt. eigenvalues --    3.84816   3.87494   3.90832   3.95990   4.00763
 Alpha virt. eigenvalues --    4.03431   4.07330   4.20975   4.25208
          Condensed to atoms (all electrons):
              1          2          3          4          5          6
     1  H    0.755815   0.402874  -0.093100  -0.049477  -0.091570   0.027527
     2  C    0.402874   4.556132   0.358998   0.328006   0.202399  -0.045241
     3  H   -0.093100   0.358998   1.044781  -0.069888   0.064407  -0.009864
     4  H   -0.049477   0.328006  -0.069888   0.723703  -0.047548   0.014898
     5  C   -0.091570   0.202399   0.064407  -0.047548   5.298653   0.208323
     6  O    0.027527  -0.045241  -0.009864   0.014898   0.208323   8.701722
     7  N    0.047940  -0.046799  -0.189857   0.039266   0.081739  -0.112563
     8  H   -0.005141  -0.052714   0.012304  -0.005229  -0.116644   0.004904
     9  C   -0.004355   0.042447   0.006378   0.009467  -0.045862   0.029373
    10  H    0.000146   0.000699   0.000811  -0.000744   0.048185  -0.028114
    11  C   -0.000555  -0.035489  -0.016799   0.001138  -0.103045   0.039605
    12  H    0.000432  -0.008462  -0.002072  -0.000929   0.021503  -0.005697
    13  H   -0.000304  -0.000152  -0.000596   0.000410  -0.038824   0.008016
    14  H   -0.001257   0.013165   0.003008   0.000759   0.031331   0.015118
    15  C   -0.001861  -0.056624  -0.007538   0.001042  -0.109785  -0.005282
    16  O    0.000147   0.002808   0.000932   0.000122   0.016073   0.000693
    17  N    0.000601   0.014199  -0.000409   0.000330   0.017573  -0.000760
    18  H   -0.000345  -0.003680  -0.000750   0.000001  -0.009100  -0.000546
    19  C    0.000080  -0.000607   0.000703  -0.000157  -0.000059  -0.000691
    20  H    0.000006   0.000235   0.000232   0.000000   0.001544   0.000046
    21  H    0.000079  -0.000371  -0.000203  -0.000046  -0.000980   0.000002
    22  H   -0.000035  -0.000453  -0.000099  -0.000009  -0.002157  -0.000100
              7          8          9         10         11         12
     1  H    0.047940  -0.005141  -0.004355   0.000146  -0.000555   0.000432
     2  C   -0.046799  -0.052714   0.042447   0.000699  -0.035489  -0.008462
     3  H   -0.189857   0.012304   0.006378   0.000811  -0.016799  -0.002072
     4  H    0.039266  -0.005229   0.009467  -0.000744   0.001138  -0.000929
     5  C    0.081739  -0.116644  -0.045862   0.048185  -0.103045   0.021503
     6  O   -0.112563   0.004904   0.029373  -0.028114   0.039605  -0.005697
     7  N    7.327433   0.333501  -0.026440  -0.012859  -0.052498   0.001253
     8  H    0.333501   0.952999  -0.074783  -0.006989   0.026456   0.009251
     9  C   -0.026440  -0.074783   7.015942  -0.249598   0.209029  -0.236097
    10  H   -0.012859  -0.006989  -0.249598   1.546352   0.018067   0.072541
    11  C   -0.052498   0.026456   0.209029   0.018067   4.332978   0.362576
    12  H    0.001253   0.009251  -0.236097   0.072541   0.362576   1.053939
    13  H    0.039087   0.000452  -0.096901  -0.070257   0.216404  -0.097315
    14  H   -0.054187  -0.004528   0.249345  -0.030469   0.288145  -0.209176
    15  C    0.028012   0.035980  -0.851127  -0.045191   0.036929   0.068148
    16  O   -0.006498   0.001398   0.092826  -0.020489  -0.030875  -0.012643
    17  N    0.015081  -0.037013   0.191396  -0.045928  -0.036681  -0.010399
    18  H   -0.002880   0.002917  -0.112059   0.024112   0.012198  -0.000659
    19  C   -0.002963  -0.008724  -0.011742   0.005929  -0.002189   0.001283
    20  H    0.003050  -0.002011   0.011144   0.000315  -0.003189  -0.001042
    21  H    0.001822  -0.000396  -0.000615  -0.000483   0.005084   0.000300
    22  H   -0.005216   0.000500  -0.000053   0.001607   0.001772   0.000645
             13         14         15         16         17         18
     1  H   -0.000304  -0.001257  -0.001861   0.000147   0.000601  -0.000345
     2  C   -0.000152   0.013165  -0.056624   0.002808   0.014199  -0.003680
     3  H   -0.000596   0.003008  -0.007538   0.000932  -0.000409  -0.000750
     4  H    0.000410   0.000759   0.001042   0.000122   0.000330   0.000001
     5  C   -0.038824   0.031331  -0.109785   0.016073   0.017573  -0.009100
     6  O    0.008016   0.015118  -0.005282   0.000693  -0.000760  -0.000546
     7  N    0.039087  -0.054187   0.028012  -0.006498   0.015081  -0.002880
     8  H    0.000452  -0.004528   0.035980   0.001398  -0.037013   0.002917
     9  C   -0.096901   0.249345  -0.851127   0.092826   0.191396  -0.112059
    10  H   -0.070257  -0.030469  -0.045191  -0.020489  -0.045928   0.024112
    11  C    0.216404   0.288145   0.036929  -0.030875  -0.036681   0.012198
    12  H   -0.097315  -0.209176   0.068148  -0.012643  -0.010399  -0.000659
    13  H    1.156847  -0.166204   0.112971   0.002160  -0.015436   0.000623
    14  H   -0.166204   0.992904  -0.126819   0.009831   0.014594   0.000398
    15  C    0.112971  -0.126819   5.666083   0.131928   0.004982   0.008391
    16  O    0.002160   0.009831   0.131928   8.775546  -0.142297   0.004565
    17  N   -0.015436   0.014594   0.004982  -0.142297   7.181432   0.253293
    18  H    0.000623   0.000398   0.008391   0.004565   0.253293   0.991450
    19  C   -0.001682  -0.000168  -0.092021   0.006356   0.260002  -0.100096
    20  H   -0.000188   0.000255  -0.000352  -0.001252  -0.027225   0.004078
    21  H    0.000477   0.000119  -0.021077   0.008542   0.009300   0.000216
    22  H   -0.000549  -0.000097  -0.004973   0.008568  -0.106876   0.008681
             19         20         21         22
     1  H    0.000080   0.000006   0.000079  -0.000035
     2  C   -0.000607   0.000235  -0.000371  -0.000453
     3  H    0.000703   0.000232  -0.000203  -0.000099
     4  H   -0.000157   0.000000  -0.000046  -0.000009
     5  C   -0.000059   0.001544  -0.000980  -0.002157
     6  O   -0.000691   0.000046   0.000002  -0.000100
     7  N   -0.002963   0.003050   0.001822  -0.005216
     8  H   -0.008724  -0.002011  -0.000396   0.000500
     9  C   -0.011742   0.011144  -0.000615  -0.000053
    10  H    0.005929   0.000315  -0.000483   0.001607
    11  C   -0.002189  -0.003189   0.005084   0.001772
    12  H    0.001283  -0.001042   0.000300   0.000645
    13  H   -0.001682  -0.000188   0.000477  -0.000549
    14  H   -0.000168   0.000255   0.000119  -0.000097
    15  C   -0.092021  -0.000352  -0.021077  -0.004973
    16  O    0.006356  -0.001252   0.008542   0.008568
    17  N    0.260002  -0.027225   0.009300  -0.106876
    18  H   -0.100096   0.004078   0.000216   0.008681
    19  C    4.066130   0.447496   0.308778   0.385762
    20  H    0.447496   0.955733  -0.104895  -0.140239
    21  H    0.308778  -0.104895   1.026097  -0.142546
    22  H    0.385762  -0.140239  -0.142546   1.108813
 Mulliken atomic charges:
              1
     1  H    0.012353
     2  C    0.328632
     3  H   -0.101381
     4  H    0.054883
     5  C    0.573843
     6  O   -0.841369
     7  N   -0.405425
     8  H   -0.066489
     9  C   -0.147715
    10  H   -0.207643
    11  C    0.730939
    12  H   -0.007383
    13  H   -0.049038
    14  H   -0.026068
    15  C    1.228182
    16  O   -0.848439
    17  N   -0.539760
    18  H   -0.080809
    19  C    0.738578
    20  H   -0.143743
    21  H   -0.089205
    22  H   -0.112946
 Sum of Mulliken atomic charges =   0.00000
 Mulliken charges with hydrogens summed into heavy atoms:
              1
     2  C    0.294488
     5  C    0.573843
     6  O   -0.841369
     7  N   -0.471914
     9  C   -0.355359
    11  C    0.648451
    15  C    1.228182
    16  O   -0.848439
    17  N   -0.620569
    19  C    0.392685
 Sum of Mulliken charges with hydrogens summed into heavy atoms =   0.00000
 Electronic spatial extent (au):  <R**2>=           1922.9841
 Charge=              0.0000 electrons
 Dipole moment (field-independent basis, Debye):
    X=             -0.2184    Y=             -3.3383    Z=             -0.9899  Tot=              3.4888
 Quadrupole moment (field-independent basis, Debye-Ang):
   XX=            -65.6723   YY=            -59.2063   ZZ=            -63.2877
   XY=              3.8372   XZ=            -13.9226   YZ=              2.0155
 Traceless Quadrupole moment (field-independent basis, Debye-Ang):
   XX=             -2.9502   YY=              3.5158   ZZ=             -0.5656
   XY=              3.8372   XZ=            -13.9226   YZ=              2.0155
 Octapole moment (field-independent basis, Debye-Ang**2):
  XXX=            -12.1455  YYY=             -5.5928  ZZZ=             -3.2050  XYY=              3.7307
  XXY=            -27.9718  XXZ=            -14.2522  XZZ=             -4.3302  YZZ=             -5.7260
  YYZ=              5.2569  XYZ=             -3.0852
 Hexadecapole moment (field-independent basis, Debye-Ang**3):
 XXXX=          -1723.0036 YYYY=           -530.7243 ZZZZ=           -229.3564 XXXY=             15.6182
 XXXZ=            -80.5820 YYYX=              2.8226 YYYZ=              0.5944 ZZZX=            -13.9261
 ZZZY=             -1.5929 XXYY=           -368.3256 XXZZ=           -361.1098 YYZZ=           -123.2812
 XXYZ=              4.5347 YYXZ=             -5.8355 ZZXY=              6.0738
 N-N= 5.491148932338D+02 E-N=-2.253347627950D+03  KE= 4.920732577875D+02
 1\1\GINC-NODE003\SP\RMP2-FC\Aug-CC-pVDZ\C6H12N2O2\STEBOSS\13-Feb-2017\
 0\\#SP MP2/aug-cc-pVDZ\\Single Point calculation at MP2\\0,1\H,0,3.746
 5,-1.8073,-0.2584\C,0,3.0827,-1.1675,-0.8446\H,0,2.5386,-1.7778,-1.572
 6\H,0,3.7091,-0.4513,-1.3889\C,0,2.1696,-0.4081,0.107\O,0,2.5601,0.031
 6,1.1799\N,0,0.8668,-0.2686,-0.3158\H,0,0.6775,-0.4514,-1.2942\C,0,-0.
 0393,0.68,0.3472\H,0,0.0766,0.5037,1.4216\C,0,0.2914,2.1402,0.0355\H,0
 ,0.161,2.3446,-1.0307\H,0,-0.3791,2.8085,0.5855\H,0,1.3212,2.3534,0.33
 31\C,0,-1.4765,0.3285,-0.0896\O,0,-2.0911,0.9937,-0.9149\N,0,-1.983,-0
 .7895,0.5064\H,0,-1.375,-1.3161,1.1182\C,0,-3.2853,-1.339,0.1746\H,0,-
 3.7975,-0.6089,-0.4533\H,0,-3.1981,-2.2836,-0.3773\H,0,-3.8752,-1.5136
 ,1.0811\\Version=EM64L-G09RevA.02\State=1-A\HF=-492.9232076\MP2=-494.5
 243011\RMSD=7.791e-09\PG=C01 [X(C6H12N2O2)]\\@


 RESEARCH IS WHAT I AM DOING WHEN I DON'T KNOW WHAT I AM DOING.
     -- WERNER VON BRAUN
 Job cpu time:  0 days 12 hours  7 minutes 18.0 seconds.
 File lengths (MBytes):  RWF=  10507 Int=      0 D2E=      0 Chk=      7 Scr=      2
 Normal termination of Gaussian 09 at Mon Feb 13 03:42:16 2017.
