 Entering Gaussian System, Link 0=g09
 Initial command:
 /home/steboss/Software/g09/l1.exe /home/steboss/projects/phi_psi_scan/alanine/MP2/195/5350/Gau-19784.inp -scrdir=/home/steboss/projects/phi_psi_scan/alanine/MP2/195/5350/
 Entering Link 1 = /home/steboss/Software/g09/l1.exe PID=     19786.
  
 Copyright (c) 1988,1990,1992,1993,1995,1998,2003,2009, Gaussian, Inc.
                  All Rights Reserved.
  
 This is part of the Gaussian(R) 09 program.  It is based on
 the Gaussian(R) 03 system (copyright 2003, Gaussian, Inc.),
 the Gaussian(R) 98 system (copyright 1998, Gaussian, Inc.),
 the Gaussian(R) 94 system (copyright 1995, Gaussian, Inc.),
 the Gaussian 92(TM) system (copyright 1992, Gaussian, Inc.),
 the Gaussian 90(TM) system (copyright 1990, Gaussian, Inc.),
 the Gaussian 88(TM) system (copyright 1988, Gaussian, Inc.),
 the Gaussian 86(TM) system (copyright 1986, Carnegie Mellon
 University), and the Gaussian 82(TM) system (copyright 1983,
 Carnegie Mellon University). Gaussian is a federally registered
 trademark of Gaussian, Inc.
  
 This software contains proprietary and confidential information,
 including trade secrets, belonging to Gaussian, Inc.
  
 This software is provided under written license and may be
 used, copied, transmitted, or stored only in accord with that
 written license.
  
 The following legend is applicable only to US Government
 contracts under FAR:
  
                    RESTRICTED RIGHTS LEGEND
  
 Use, reproduction and disclosure by the US Government is
 subject to restrictions as set forth in subparagraphs (a)
 and (c) of the Commercial Computer Software - Restricted
 Rights clause in FAR 52.227-19.
  
 Gaussian, Inc.
 340 Quinnipiac St., Bldg. 40, Wallingford CT 06492
  
  
 ---------------------------------------------------------------
 Warning -- This program may not be used in any manner that
 competes with the business of Gaussian, Inc. or will provide
 assistance to any competitor of Gaussian, Inc.  The licensee
 of this program is prohibited from giving any competitor of
 Gaussian, Inc. access to this program.  By using this program,
 the user acknowledges that Gaussian, Inc. is engaged in the
 business of creating and licensing software in the field of
 computational chemistry and represents and warrants to the
 licensee that it is not a competitor of Gaussian, Inc. and that
 it will not use this program in any manner prohibited above.
 ---------------------------------------------------------------
  

 Cite this work as:
 Gaussian 09, Revision A.02,
 M. J. Frisch, G. W. Trucks, H. B. Schlegel, G. E. Scuseria, 
 M. A. Robb, J. R. Cheeseman, G. Scalmani, V. Barone, B. Mennucci, 
 G. A. Petersson, H. Nakatsuji, M. Caricato, X. Li, H. P. Hratchian, 
 A. F. Izmaylov, J. Bloino, G. Zheng, J. L. Sonnenberg, M. Hada, 
 M. Ehara, K. Toyota, R. Fukuda, J. Hasegawa, M. Ishida, T. Nakajima, 
 Y. Honda, O. Kitao, H. Nakai, T. Vreven, J. A. Montgomery, Jr., 
 J. E. Peralta, F. Ogliaro, M. Bearpark, J. J. Heyd, E. Brothers, 
 K. N. Kudin, V. N. Staroverov, R. Kobayashi, J. Normand, 
 K. Raghavachari, A. Rendell, J. C. Burant, S. S. Iyengar, J. Tomasi, 
 M. Cossi, N. Rega, J. M. Millam, M. Klene, J. E. Knox, J. B. Cross, 
 V. Bakken, C. Adamo, J. Jaramillo, R. Gomperts, R. E. Stratmann, 
 O. Yazyev, A. J. Austin, R. Cammi, C. Pomelli, J. W. Ochterski, 
 R. L. Martin, K. Morokuma, V. G. Zakrzewski, G. A. Voth, 
 P. Salvador, J. J. Dannenberg, S. Dapprich, A. D. Daniels, 
 O. Farkas, J. B. Foresman, J. V. Ortiz, J. Cioslowski, 
 and D. J. Fox, Gaussian, Inc., Wallingford CT, 2009.
 
 ******************************************
 Gaussian 09:  EM64L-G09RevA.02 11-Jun-2009
                13-Feb-2017 
 ******************************************
 %chk=structure_120.chk
 %NProcShared=8
 Will use up to    8 processors via shared memory.
 -------------------
 #SP MP2/aug-cc-pVDZ
 -------------------
 1/38=1/1;
 2/12=2,17=6,18=5,40=1/2;
 3/5=16,7=10,11=9,16=1,25=1,30=1/1,2,3;
 4//1;
 5/5=2,38=5/2;
 8/10=1/1;
 9/16=-3/6;
 6/7=2,8=2,9=2,10=2/1;
 99/5=1,9=1/99;
 -------------------------------
 Single Point calculation at MP2
 -------------------------------
 Symbolic Z-matrix:
 Charge =  0 Multiplicity = 1
 H                    -3.7752   -1.7606   -0.4408 
 C                    -3.2414   -1.2388    0.3584 
 H                    -2.7797   -1.9754    1.0231 
 H                    -3.9823   -0.6653    0.9258 
 C                    -2.2451   -0.2742   -0.2685 
 O                    -2.5627    0.5048   -1.1607 
 N                    -0.968    -0.3523    0.2168 
 H                    -0.7815   -0.8707    1.0666 
 C                     0.0501    0.6282   -0.1501 
 H                    -0.0183    0.7648   -1.2342 
 C                    -0.1544    1.9837    0.5436 
 H                    -0.073     1.8647    1.6281 
 H                     0.604     2.705     0.217 
 H                    -1.1415    2.3771    0.2884 
 C                     1.3961    0.0146    0.2574 
 O                     1.6025   -0.31      1.4242 
 N                     2.2916   -0.1718   -0.7491 
 H                     2.0276    0.1054   -1.6836 
 C                     3.6113   -0.7414   -0.5354 
 H                     3.6943   -0.9804    0.5255 
 H                     3.7429   -1.6575   -1.1225 
 H                     4.3993   -0.0296   -0.8076 
 
                          Input orientation:                          
 ---------------------------------------------------------------------
 Center     Atomic      Atomic             Coordinates (Angstroms)
 Number     Number       Type             X           Y           Z
 ---------------------------------------------------------------------
      1          1           0       -3.775200   -1.760600   -0.440800
      2          6           0       -3.241400   -1.238800    0.358400
      3          1           0       -2.779700   -1.975400    1.023100
      4          1           0       -3.982300   -0.665300    0.925800
      5          6           0       -2.245100   -0.274200   -0.268500
      6          8           0       -2.562700    0.504800   -1.160700
      7          7           0       -0.968000   -0.352300    0.216800
      8          1           0       -0.781500   -0.870700    1.066600
      9          6           0        0.050100    0.628200   -0.150100
     10          1           0       -0.018300    0.764800   -1.234200
     11          6           0       -0.154400    1.983700    0.543600
     12          1           0       -0.073000    1.864700    1.628100
     13          1           0        0.604000    2.705000    0.217000
     14          1           0       -1.141500    2.377100    0.288400
     15          6           0        1.396100    0.014600    0.257400
     16          8           0        1.602500   -0.310000    1.424200
     17          7           0        2.291600   -0.171800   -0.749100
     18          1           0        2.027600    0.105400   -1.683600
     19          6           0        3.611300   -0.741400   -0.535400
     20          1           0        3.694300   -0.980400    0.525500
     21          1           0        3.742900   -1.657500   -1.122500
     22          1           0        4.399300   -0.029600   -0.807600
 ---------------------------------------------------------------------
                    Distance matrix (angstroms):
                    1          2          3          4          5
     1  H    0.000000
     2  C    1.093590   0.000000
     3  H    1.783301   1.094337   0.000000
     4  H    1.763567   1.095344   1.781032   0.000000
     5  C    2.140158   1.521864   2.201842   2.144103   0.000000
     6  O    2.668417   2.410070   3.311716   2.781705   1.226267
     7  N    3.208757   2.444234   2.562583   3.112339   1.368430
     8  H    3.467912   2.586146   2.283650   3.210473   2.068920
     9  C    4.519269   3.818145   4.020311   4.369319   2.469066
    10  H    4.595805   4.115721   4.497714   4.735407   2.640215
    11  C    5.300851   4.466360   4.774578   4.670770   3.182553
    12  H    5.579376   4.613308   4.736942   4.709220   3.590265
    13  H    6.289012   5.510050   5.831412   5.735457   4.150749
    14  H    4.958696   4.182011   4.708263   4.211012   2.925314
    15  C    5.511911   4.804958   4.688678   5.462253   3.690300
    16  O    5.873851   5.045985   4.705116   5.618241   4.203634
    17  N    6.278965   5.742746   5.666723   6.512346   4.563234
    18  H    6.220852   5.808528   5.896277   6.597109   4.516920
    19  C    7.457084   6.928621   6.693023   7.733282   5.881066
    20  H    7.572046   6.942523   6.568889   7.693485   6.033708
    21  H    7.549647   7.151840   6.873789   8.053490   6.204755
    22  H    8.363812   7.823172   7.660003   8.582541   6.670720
                    6          7          8          9         10
     6  O    0.000000
     7  N    2.274905   0.000000
     8  H    3.166313   1.012759   0.000000
     9  C    2.804151   1.460316   2.102051   0.000000
    10  H    2.558705   2.062824   2.924212   1.094811   0.000000
    11  C    3.300256   2.495123   2.968903   1.536366   2.159818
    12  H    3.978108   2.776307   2.880914   2.169350   3.066844
    13  H    4.094744   3.437771   3.927730   2.180520   2.501522
    14  H    2.761378   2.735846   3.359077   2.161214   2.485840
    15  C    4.233604   2.392746   2.486062   1.534365   2.188195
    16  O    4.969356   2.840260   2.475019   2.401788   3.293824
    17  N    4.918478   3.404488   3.637193   2.454205   2.539327
    18  H    4.637219   3.576958   4.050607   2.556452   2.196014
    19  C    6.329478   4.656951   4.677586   3.834893   3.991360
    20  H    6.648243   4.714536   4.509724   4.040325   4.463817
    21  H    6.666153   5.068516   5.087377   4.450478   4.475113
    22  H    6.991402   5.473704   5.573218   4.447533   4.508686
                   11         12         13         14         15
    11  C    0.000000
    12  H    1.094042   0.000000
    13  H    1.096409   1.776411   0.000000
    14  H    1.092821   1.788587   1.777466   0.000000
    15  C    2.522561   2.731290   2.804872   3.467244   0.000000
    16  O    3.020466   2.752852   3.397729   4.005007   1.228572
    17  N    3.507160   3.922977   3.472365   4.399940   1.360040
    18  H    3.639994   4.298257   3.520914   4.369508   2.043164
    19  C    4.771887   5.004653   4.635475   5.743936   2.471271
    20  H    4.857850   4.847976   4.819471   5.891857   2.518656
    21  H    5.587770   5.876460   5.538805   6.490454   3.194920
    22  H    5.159002   5.433459   4.788752   6.139535   3.186752
                   16         17         18         19         20
    16  O    0.000000
    17  N    2.284117   0.000000
    18  H    3.164125   1.009864   0.000000
    19  C    2.839263   1.453176   2.131558   0.000000
    20  H    2.373336   2.060584   2.972705   1.090651   0.000000
    21  H    3.589255   2.110214   2.522876   1.096013   1.782338
    22  H    3.589101   2.113301   2.531909   1.096219   1.782751
                   21         22
    21  H    0.000000
    22  H    1.783278   0.000000
 Stoichiometry    C6H12N2O2
 Framework group  C1[X(C6H12N2O2)]
 Deg. of freedom    60
 Full point group                 C1      NOp   1
 Largest Abelian subgroup         C1      NOp   1
 Largest concise Abelian subgroup C1      NOp   1
                         Standard orientation:                         
 ---------------------------------------------------------------------
 Center     Atomic      Atomic             Coordinates (Angstroms)
 Number     Number       Type             X           Y           Z
 ---------------------------------------------------------------------
      1          1           0       -3.775190   -1.760614   -0.440801
      2          6           0       -3.241392   -1.238811    0.358399
      3          1           0       -2.779689   -1.975409    1.023099
      4          1           0       -3.982295   -0.665314    0.925799
      5          6           0       -2.245096   -0.274207   -0.268501
      6          8           0       -2.562700    0.504792   -1.160701
      7          7           0       -0.967996   -0.352302    0.216799
      8          1           0       -0.781494   -0.870701    1.066599
      9          6           0        0.050100    0.628203   -0.150101
     10          1           0       -0.018301    0.764802   -1.234201
     11          6           0       -0.154406    1.983702    0.543599
     12          1           0       -0.073005    1.864702    1.628099
     13          1           0        0.603991    2.705005    0.216999
     14          1           0       -1.141508    2.377098    0.288399
     15          6           0        1.396103    0.014609    0.257399
     16          8           0        1.602504   -0.309991    1.424199
     17          7           0        2.291603   -0.171788   -0.749101
     18          1           0        2.027602    0.105411   -1.683601
     19          6           0        3.611306   -0.741382   -0.535401
     20          1           0        3.694307   -0.980382    0.525499
     21          1           0        3.742910   -1.657481   -1.122501
     22          1           0        4.399303   -0.029579   -0.807601
 ---------------------------------------------------------------------
 Rotational constants (GHZ):      2.5264806      0.6503811      0.6264296
 Standard basis: Aug-CC-pVDZ (5D, 7F)
 There are   338 symmetry adapted basis functions of A   symmetry.
 Integral buffers will be    131072 words long.
 Raffenetti 1 integral format.
 Two-electron integral symmetry is turned on.
   338 basis functions,   562 primitive gaussians,   358 cartesian basis functions
    39 alpha electrons       39 beta electrons
       nuclear repulsion energy       548.3697214484 Hartrees.
 NAtoms=   22 NActive=   22 NUniq=   22 SFac= 7.50D-01 NAtFMM=   80 NAOKFM=F Big=F
 One-electron integrals computed using PRISM.
 NBasis=   338 RedAO= T  NBF=   338
 NBsUse=   338 1.00D-06 NBFU=   338
 Harris functional with IExCor=  205 diagonalized for initial guess.
 ExpMin= 2.97D-02 ExpMax= 1.17D+04 ExpMxC= 4.01D+02 IAcc=3 IRadAn=         0 AccDes= 0.00D+00
 HarFok:  IExCor=  205 AccDes= 0.00D+00 IRadAn=         0 IDoV= 1
 ScaDFX=  1.000000  1.000000  1.000000  1.000000
 FoFCou: FMM=F IPFlag=           0 FMFlag=      100000 FMFlg1=           0
         NFxFlg=           0 DoJE=T BraDBF=F KetDBF=T FulRan=T
         Omega=  0.000000  0.000000  1.000000  0.000000  0.000000 ICntrl=     500 IOpCl=  0
         NMat0=    1 NMatS0=    1 NMatT0=    0 NMatD0=    1 NMtDS0=    0 NMtDT0=    0
         I1Cent=           4 NGrid=           0.
 Petite list used in FoFCou.
 Initial guess orbital symmetries:
       Occupied  (A) (A) (A) (A) (A) (A) (A) (A) (A) (A) (A) (A)
                 (A) (A) (A) (A) (A) (A) (A) (A) (A) (A) (A) (A)
                 (A) (A) (A) (A) (A) (A) (A) (A) (A) (A) (A) (A)
                 (A) (A) (A)
       Virtual   (A) (A) (A) (A) (A) (A) (A) (A) (A) (A) (A) (A)
                 (A) (A) (A) (A) (A) (A) (A) (A) (A) (A) (A) (A)
                 (A) (A) (A) (A) (A) (A) (A) (A) (A) (A) (A) (A)
                 (A) (A) (A) (A) (A) (A) (A) (A) (A) (A) (A) (A)
                 (A) (A) (A) (A) (A) (A) (A) (A) (A) (A) (A) (A)
                 (A) (A) (A) (A) (A) (A) (A) (A) (A) (A) (A) (A)
                 (A) (A) (A) (A) (A) (A) (A) (A) (A) (A) (A) (A)
                 (A) (A) (A) (A) (A) (A) (A) (A) (A) (A) (A) (A)
                 (A) (A) (A) (A) (A) (A) (A) (A) (A) (A) (A) (A)
                 (A) (A) (A) (A) (A) (A) (A) (A) (A) (A) (A) (A)
                 (A) (A) (A) (A) (A) (A) (A) (A) (A) (A) (A) (A)
                 (A) (A) (A) (A) (A) (A) (A) (A) (A) (A) (A) (A)
                 (A) (A) (A) (A) (A) (A) (A) (A) (A) (A) (A) (A)
                 (A) (A) (A) (A) (A) (A) (A) (A) (A) (A) (A) (A)
                 (A) (A) (A) (A) (A) (A) (A) (A) (A) (A) (A) (A)
                 (A) (A) (A) (A) (A) (A) (A) (A) (A) (A) (A) (A)
                 (A) (A) (A) (A) (A) (A) (A) (A) (A) (A) (A) (A)
                 (A) (A) (A) (A) (A) (A) (A) (A) (A) (A) (A) (A)
                 (A) (A) (A) (A) (A) (A) (A) (A) (A) (A) (A) (A)
                 (A) (A) (A) (A) (A) (A) (A) (A) (A) (A) (A) (A)
                 (A) (A) (A) (A) (A) (A) (A) (A) (A) (A) (A) (A)
                 (A) (A) (A) (A) (A) (A) (A) (A) (A) (A) (A) (A)
                 (A) (A) (A) (A) (A) (A) (A) (A) (A) (A) (A) (A)
                 (A) (A) (A) (A) (A) (A) (A) (A) (A) (A) (A) (A)
                 (A) (A) (A) (A) (A) (A) (A) (A) (A) (A) (A)
 The electronic state of the initial guess is 1-A.
 Requested convergence on RMS density matrix=1.00D-08 within 128 cycles.
 Requested convergence on MAX density matrix=1.00D-06.
 Requested convergence on             energy=1.00D-06.
 No special actions if energy rises.
 Initial convergence to 1.0D-05 achieved.  Increase integral accuracy.
 SCF Done:  E(RHF) =  -492.926963771     A.U. after   14 cycles
             Convg  =    0.7988D-08             -V/T =  2.0017
 ExpMin= 2.97D-02 ExpMax= 1.17D+04 ExpMxC= 4.01D+02 IAcc=3 IRadAn=         5 AccDes= 0.00D+00
 HarFok:  IExCor=  205 AccDes= 0.00D+00 IRadAn=         5 IDoV=-2
 ScaDFX=  1.000000  1.000000  1.000000  1.000000
 Range of M.O.s used for correlation:    11   338
 NBasis=   338 NAE=    39 NBE=    39 NFC=    10 NFV=     0
 NROrb=    328 NOA=    29 NOB=    29 NVA=   299 NVB=   299

 **** Warning!!: The largest alpha MO coefficient is  0.57310711D+02

 Disk-based method using OVN memory for 29 occupieds at a time.
 Estimated scratch disk usage=  1370638078 words.
 Actual    scratch disk usage=  1357651758 words.
 JobTyp=1 Pass  1:  I=   1 to  29 NPSUse=  8 ParTrn=T ParDer=T DoDerP=F.
 Spin components of T(2) and E(2):
     alpha-alpha T2 =       0.6783844977D-01 E2=     -0.2056191479D+00
     alpha-beta  T2 =       0.3760826292D+00 E2=     -0.1189455506D+01
     beta-beta   T2 =       0.6783844977D-01 E2=     -0.2056191479D+00
 ANorm=    0.1229536306D+01
 E2 =    -0.1600693802D+01 EUMP2 =    -0.49452765757344D+03

 **********************************************************************

            Population analysis using the SCF density.

 **********************************************************************

 Orbital symmetries:
       Occupied  (A) (A) (A) (A) (A) (A) (A) (A) (A) (A) (A) (A)
                 (A) (A) (A) (A) (A) (A) (A) (A) (A) (A) (A) (A)
                 (A) (A) (A) (A) (A) (A) (A) (A) (A) (A) (A) (A)
                 (A) (A) (A)
       Virtual   (A) (A) (A) (A) (A) (A) (A) (A) (A) (A) (A) (A)
                 (A) (A) (A) (A) (A) (A) (A) (A) (A) (A) (A) (A)
                 (A) (A) (A) (A) (A) (A) (A) (A) (A) (A) (A) (A)
                 (A) (A) (A) (A) (A) (A) (A) (A) (A) (A) (A) (A)
                 (A) (A) (A) (A) (A) (A) (A) (A) (A) (A) (A) (A)
                 (A) (A) (A) (A) (A) (A) (A) (A) (A) (A) (A) (A)
                 (A) (A) (A) (A) (A) (A) (A) (A) (A) (A) (A) (A)
                 (A) (A) (A) (A) (A) (A) (A) (A) (A) (A) (A) (A)
                 (A) (A) (A) (A) (A) (A) (A) (A) (A) (A) (A) (A)
                 (A) (A) (A) (A) (A) (A) (A) (A) (A) (A) (A) (A)
                 (A) (A) (A) (A) (A) (A) (A) (A) (A) (A) (A) (A)
                 (A) (A) (A) (A) (A) (A) (A) (A) (A) (A) (A) (A)
                 (A) (A) (A) (A) (A) (A) (A) (A) (A) (A) (A) (A)
                 (A) (A) (A) (A) (A) (A) (A) (A) (A) (A) (A) (A)
                 (A) (A) (A) (A) (A) (A) (A) (A) (A) (A) (A) (A)
                 (A) (A) (A) (A) (A) (A) (A) (A) (A) (A) (A) (A)
                 (A) (A) (A) (A) (A) (A) (A) (A) (A) (A) (A) (A)
                 (A) (A) (A) (A) (A) (A) (A) (A) (A) (A) (A) (A)
                 (A) (A) (A) (A) (A) (A) (A) (A) (A) (A) (A) (A)
                 (A) (A) (A) (A) (A) (A) (A) (A) (A) (A) (A) (A)
                 (A) (A) (A) (A) (A) (A) (A) (A) (A) (A) (A) (A)
                 (A) (A) (A) (A) (A) (A) (A) (A) (A) (A) (A) (A)
                 (A) (A) (A) (A) (A) (A) (A) (A) (A) (A) (A) (A)
                 (A) (A) (A) (A) (A) (A) (A) (A) (A) (A) (A) (A)
                 (A) (A) (A) (A) (A) (A) (A) (A) (A) (A) (A)
 The electronic state is 1-A.
 Alpha  occ. eigenvalues --  -20.53875 -20.52957 -15.60800 -15.59590 -11.36820
 Alpha  occ. eigenvalues --  -11.36278 -11.29311 -11.27566 -11.24649 -11.23029
 Alpha  occ. eigenvalues --   -1.39446  -1.38218  -1.24447  -1.23672  -1.05449
 Alpha  occ. eigenvalues --   -0.99159  -0.96562  -0.88099  -0.80186  -0.78947
 Alpha  occ. eigenvalues --   -0.73058  -0.67375  -0.66034  -0.64211  -0.63102
 Alpha  occ. eigenvalues --   -0.61959  -0.60361  -0.58545  -0.57319  -0.56560
 Alpha  occ. eigenvalues --   -0.55483  -0.54107  -0.52357  -0.51919  -0.49827
 Alpha  occ. eigenvalues --   -0.43531  -0.42506  -0.40221  -0.39305
 Alpha virt. eigenvalues --    0.02885   0.03748   0.04454   0.04622   0.05633
 Alpha virt. eigenvalues --    0.05984   0.06359   0.07047   0.07479   0.07994
 Alpha virt. eigenvalues --    0.09064   0.09564   0.11204   0.12077   0.12604
 Alpha virt. eigenvalues --    0.13260   0.13848   0.14245   0.14713   0.15112
 Alpha virt. eigenvalues --    0.15303   0.15820   0.16327   0.17033   0.17443
 Alpha virt. eigenvalues --    0.17976   0.18101   0.18519   0.19125   0.19258
 Alpha virt. eigenvalues --    0.19747   0.20078   0.20593   0.21083   0.22279
 Alpha virt. eigenvalues --    0.23085   0.23338   0.24746   0.25870   0.26062
 Alpha virt. eigenvalues --    0.27021   0.27820   0.28303   0.30350   0.30702
 Alpha virt. eigenvalues --    0.31019   0.31723   0.32806   0.33241   0.33589
 Alpha virt. eigenvalues --    0.34428   0.34932   0.35362   0.35831   0.36283
 Alpha virt. eigenvalues --    0.37305   0.38486   0.38725   0.39099   0.39820
 Alpha virt. eigenvalues --    0.40363   0.41272   0.41600   0.42141   0.42744
 Alpha virt. eigenvalues --    0.43110   0.43822   0.44398   0.44668   0.45860
 Alpha virt. eigenvalues --    0.46189   0.46650   0.47687   0.47998   0.49339
 Alpha virt. eigenvalues --    0.49942   0.50529   0.50538   0.51188   0.52146
 Alpha virt. eigenvalues --    0.52566   0.53183   0.54023   0.54987   0.56333
 Alpha virt. eigenvalues --    0.56753   0.57357   0.57565   0.57969   0.58330
 Alpha virt. eigenvalues --    0.58838   0.60182   0.60712   0.61365   0.61521
 Alpha virt. eigenvalues --    0.62163   0.62375   0.62943   0.64197   0.65131
 Alpha virt. eigenvalues --    0.65324   0.66059   0.66731   0.67387   0.68285
 Alpha virt. eigenvalues --    0.69451   0.69785   0.70213   0.71400   0.72036
 Alpha virt. eigenvalues --    0.72475   0.73347   0.73803   0.74318   0.74579
 Alpha virt. eigenvalues --    0.76016   0.76192   0.77121   0.77727   0.78795
 Alpha virt. eigenvalues --    0.79526   0.80181   0.81299   0.81369   0.82728
 Alpha virt. eigenvalues --    0.83506   0.85242   0.85805   0.86500   0.86662
 Alpha virt. eigenvalues --    0.88046   0.89228   0.90802   0.91825   0.92382
 Alpha virt. eigenvalues --    0.94535   0.95982   0.97053   0.98655   0.99190
 Alpha virt. eigenvalues --    0.99498   1.00966   1.02612   1.04009   1.04180
 Alpha virt. eigenvalues --    1.05220   1.07250   1.08176   1.09827   1.10336
 Alpha virt. eigenvalues --    1.11042   1.12500   1.13705   1.14921   1.15941
 Alpha virt. eigenvalues --    1.16570   1.17910   1.18102   1.18856   1.19448
 Alpha virt. eigenvalues --    1.22267   1.22906   1.25583   1.27058   1.29386
 Alpha virt. eigenvalues --    1.31077   1.31826   1.34001   1.34629   1.37977
 Alpha virt. eigenvalues --    1.39015   1.40297   1.43040   1.44397   1.45326
 Alpha virt. eigenvalues --    1.46229   1.49985   1.50781   1.52519   1.53877
 Alpha virt. eigenvalues --    1.56050   1.57030   1.58822   1.61752   1.65049
 Alpha virt. eigenvalues --    1.67274   1.68740   1.71317   1.72900   1.74046
 Alpha virt. eigenvalues --    1.74259   1.75744   1.76555   1.80488   1.81042
 Alpha virt. eigenvalues --    1.82878   1.84033   1.84725   1.86622   1.87577
 Alpha virt. eigenvalues --    1.88075   1.89033   1.89739   1.90556   1.92401
 Alpha virt. eigenvalues --    1.95376   1.95968   1.98300   1.99643   2.01029
 Alpha virt. eigenvalues --    2.01763   2.04128   2.05220   2.08448   2.09296
 Alpha virt. eigenvalues --    2.11582   2.12388   2.14133   2.14976   2.16605
 Alpha virt. eigenvalues --    2.18781   2.19005   2.19886   2.21681   2.22068
 Alpha virt. eigenvalues --    2.24469   2.25418   2.28090   2.28423   2.29925
 Alpha virt. eigenvalues --    2.31323   2.32596   2.34595   2.34797   2.36704
 Alpha virt. eigenvalues --    2.38647   2.39705   2.41832   2.43212   2.44066
 Alpha virt. eigenvalues --    2.45746   2.47101   2.47677   2.49829   2.52432
 Alpha virt. eigenvalues --    2.54829   2.55810   2.56971   2.58704   2.60689
 Alpha virt. eigenvalues --    2.62560   2.63993   2.65105   2.65413   2.71926
 Alpha virt. eigenvalues --    2.72112   2.73318   2.74119   2.77002   2.79347
 Alpha virt. eigenvalues --    2.80459   2.82547   2.85159   2.86234   2.88297
 Alpha virt. eigenvalues --    2.89121   2.93061   2.94015   2.97018   2.98809
 Alpha virt. eigenvalues --    3.01062   3.01736   3.03847   3.05770   3.06272
 Alpha virt. eigenvalues --    3.10339   3.11069   3.19813   3.22130   3.23285
 Alpha virt. eigenvalues --    3.28778   3.31367   3.41262   3.44271   3.50097
 Alpha virt. eigenvalues --    3.60412   3.63679   3.74339   3.83613   3.84136
 Alpha virt. eigenvalues --    3.85001   3.87213   3.91142   3.96649   4.02799
 Alpha virt. eigenvalues --    4.04463   4.13251   4.21660   4.32758
          Condensed to atoms (all electrons):
              1          2          3          4          5          6
     1  H    0.739368   0.395670  -0.091510  -0.051587  -0.092395   0.023164
     2  C    0.395670   4.543348   0.346829   0.343475   0.177721  -0.049034
     3  H   -0.091510   0.346829   1.105315  -0.066204   0.087128  -0.011481
     4  H   -0.051587   0.343475  -0.066204   0.732777  -0.081898   0.019421
     5  C   -0.092395   0.177721   0.087128  -0.081898   5.460401   0.202555
     6  O    0.023164  -0.049034  -0.011481   0.019421   0.202555   8.725430
     7  N    0.061353  -0.049366  -0.226473   0.041103   0.011103  -0.101339
     8  H   -0.004533  -0.054749   0.003420  -0.003555  -0.114257  -0.000224
     9  C   -0.019942  -0.001665   0.024481   0.020221  -0.104892   0.025821
    10  H   -0.002111  -0.005856   0.001927  -0.000560   0.033149  -0.009335
    11  C    0.003210  -0.017389  -0.020822  -0.002341  -0.124040   0.033639
    12  H    0.000493  -0.000978  -0.000400  -0.000861   0.010575  -0.005018
    13  H    0.000028   0.002429  -0.000758   0.000322  -0.027433   0.007562
    14  H   -0.001189   0.004382   0.001545   0.000634   0.020502   0.016014
    15  C    0.006063  -0.003050  -0.006912  -0.001148  -0.003918  -0.012464
    16  O   -0.000087  -0.002918   0.001012  -0.000252  -0.029387   0.002203
    17  N    0.000215   0.001027  -0.000381   0.000161  -0.009298  -0.000846
    18  H   -0.000330  -0.000287  -0.000061   0.000134   0.000971   0.000328
    19  C    0.000021  -0.001189   0.000095  -0.000066  -0.003645   0.000165
    20  H    0.000019   0.000073  -0.000078   0.000007  -0.001295   0.000105
    21  H    0.000017   0.000035  -0.000005  -0.000008  -0.001166   0.000028
    22  H    0.000002  -0.000050   0.000026  -0.000004   0.002302  -0.000064
              7          8          9         10         11         12
     1  H    0.061353  -0.004533  -0.019942  -0.002111   0.003210   0.000493
     2  C   -0.049366  -0.054749  -0.001665  -0.005856  -0.017389  -0.000978
     3  H   -0.226473   0.003420   0.024481   0.001927  -0.020822  -0.000400
     4  H    0.041103  -0.003555   0.020221  -0.000560  -0.002341  -0.000861
     5  C    0.011103  -0.114257  -0.104892   0.033149  -0.124040   0.010575
     6  O   -0.101339  -0.000224   0.025821  -0.009335   0.033639  -0.005018
     7  N    7.470546   0.355073  -0.518355  -0.068829   0.130112  -0.036331
     8  H    0.355073   0.930445  -0.074549   0.000357   0.004757   0.003136
     9  C   -0.518355  -0.074549   7.936918  -0.175803  -0.107887  -0.129558
    10  H   -0.068829   0.000357  -0.175803   1.487427   0.038186   0.068556
    11  C    0.130112   0.004757  -0.107887   0.038186   4.368389   0.322037
    12  H   -0.036331   0.003136  -0.129558   0.068556   0.322037   1.076830
    13  H    0.087891   0.000101  -0.227140  -0.077548   0.385856  -0.121695
    14  H   -0.059903  -0.004904   0.191095  -0.020085   0.262720  -0.195840
    15  C    0.117846   0.021212  -0.858315   0.073931  -0.050976   0.020479
    16  O   -0.046589   0.018770   0.073305  -0.022155  -0.011143  -0.002248
    17  N   -0.022156  -0.001309   0.134645  -0.070030   0.007075  -0.002460
    18  H    0.023362   0.001604  -0.122009   0.007672   0.002198   0.001522
    19  C   -0.004025  -0.003190   0.043057   0.004532  -0.011701  -0.003878
    20  H   -0.006397  -0.001218   0.024031   0.006404  -0.009494  -0.000168
    21  H    0.000647  -0.001961  -0.001132  -0.000903   0.008689   0.000434
    22  H    0.002337   0.001030   0.029442  -0.001771  -0.005865  -0.000978
             13         14         15         16         17         18
     1  H    0.000028  -0.001189   0.006063  -0.000087   0.000215  -0.000330
     2  C    0.002429   0.004382  -0.003050  -0.002918   0.001027  -0.000287
     3  H   -0.000758   0.001545  -0.006912   0.001012  -0.000381  -0.000061
     4  H    0.000322   0.000634  -0.001148  -0.000252   0.000161   0.000134
     5  C   -0.027433   0.020502  -0.003918  -0.029387  -0.009298   0.000971
     6  O    0.007562   0.016014  -0.012464   0.002203  -0.000846   0.000328
     7  N    0.087891  -0.059903   0.117846  -0.046589  -0.022156   0.023362
     8  H    0.000101  -0.004904   0.021212   0.018770  -0.001309   0.001604
     9  C   -0.227140   0.191095  -0.858315   0.073305   0.134645  -0.122009
    10  H   -0.077548  -0.020085   0.073931  -0.022155  -0.070030   0.007672
    11  C    0.385856   0.262720  -0.050976  -0.011143   0.007075   0.002198
    12  H   -0.121695  -0.195840   0.020479  -0.002248  -0.002460   0.001522
    13  H    1.193904  -0.159117  -0.003238   0.007216  -0.003994   0.006637
    14  H   -0.159117   1.004831  -0.016963  -0.001696   0.005890  -0.002044
    15  C   -0.003238  -0.016963   5.601946   0.187912   0.091667  -0.000248
    16  O    0.007216  -0.001696   0.187912   8.794236  -0.159631   0.010485
    17  N   -0.003994   0.005890   0.091667  -0.159631   7.158714   0.269270
    18  H    0.006637  -0.002044  -0.000248   0.010485   0.269270   0.997762
    19  C   -0.004159   0.001869  -0.126481   0.013996   0.248246  -0.100603
    20  H   -0.001952  -0.000184  -0.010125   0.012032  -0.044378   0.000192
    21  H    0.000526   0.000387  -0.055159   0.014126  -0.052903   0.001109
    22  H   -0.000796   0.000046  -0.032081   0.010470  -0.034009   0.007831
             19         20         21         22
     1  H    0.000021   0.000019   0.000017   0.000002
     2  C   -0.001189   0.000073   0.000035  -0.000050
     3  H    0.000095  -0.000078  -0.000005   0.000026
     4  H   -0.000066   0.000007  -0.000008  -0.000004
     5  C   -0.003645  -0.001295  -0.001166   0.002302
     6  O    0.000165   0.000105   0.000028  -0.000064
     7  N   -0.004025  -0.006397   0.000647   0.002337
     8  H   -0.003190  -0.001218  -0.001961   0.001030
     9  C    0.043057   0.024031  -0.001132   0.029442
    10  H    0.004532   0.006404  -0.000903  -0.001771
    11  C   -0.011701  -0.009494   0.008689  -0.005865
    12  H   -0.003878  -0.000168   0.000434  -0.000978
    13  H   -0.004159  -0.001952   0.000526  -0.000796
    14  H    0.001869  -0.000184   0.000387   0.000046
    15  C   -0.126481  -0.010125  -0.055159  -0.032081
    16  O    0.013996   0.012032   0.014126   0.010470
    17  N    0.248246  -0.044378  -0.052903  -0.034009
    18  H   -0.100603   0.000192   0.001109   0.007831
    19  C    4.061408   0.461231   0.378729   0.322936
    20  H    0.461231   0.952556  -0.116350  -0.117864
    21  H    0.378729  -0.116350   1.071913  -0.153054
    22  H    0.322936  -0.117864  -0.153054   1.063218
 Mulliken atomic charges:
              1
     1  H    0.034062
     2  C    0.371545
     3  H   -0.146693
     4  H    0.050229
     5  C    0.587217
     6  O   -0.866628
     7  N   -0.161610
     8  H   -0.075460
     9  C   -0.161768
    10  H   -0.267154
    11  C    0.794791
    12  H   -0.003648
    13  H   -0.064644
    14  H   -0.047991
    15  C    1.060023
    16  O   -0.869658
    17  N   -0.515516
    18  H   -0.105495
    19  C    0.722652
    20  H   -0.147149
    21  H   -0.094002
    22  H   -0.093105
 Sum of Mulliken atomic charges =   0.00000
 Mulliken charges with hydrogens summed into heavy atoms:
              1
     2  C    0.309143
     5  C    0.587217
     6  O   -0.866628
     7  N   -0.237070
     9  C   -0.428922
    11  C    0.678509
    15  C    1.060023
    16  O   -0.869658
    17  N   -0.621011
    19  C    0.388397
 Sum of Mulliken charges with hydrogens summed into heavy atoms =   0.00000
 Electronic spatial extent (au):  <R**2>=           1964.4330
 Charge=              0.0000 electrons
 Dipole moment (field-independent basis, Debye):
    X=              1.8695    Y=             -1.1758    Z=             -0.7765  Tot=              2.3410
 Quadrupole moment (field-independent basis, Debye-Ang):
   XX=            -58.7419   YY=            -59.4984   ZZ=            -65.4377
   XY=              5.9725   XZ=            -15.4116   YZ=              1.5650
 Traceless Quadrupole moment (field-independent basis, Debye-Ang):
   XX=              2.4841   YY=              1.7276   ZZ=             -4.2117
   XY=              5.9725   XZ=            -15.4116   YZ=              1.5650
 Octapole moment (field-independent basis, Debye-Ang**2):
  XXX=             30.6068  YYY=             -2.0608  ZZZ=             -8.8107  XYY=             -0.4857
  XXY=            -22.6836  XXZ=              5.9330  XZZ=              5.5414  YZZ=             -1.9735
  YYZ=              1.3247  XYZ=             -2.7572
 Hexadecapole moment (field-independent basis, Debye-Ang**3):
 XXXX=          -1791.7429 YYYY=           -404.8103 ZZZZ=           -278.6450 XXXY=             28.3693
 XXXZ=            -81.3706 YYYX=             -0.6867 YYYZ=             -4.3232 ZZZX=            -30.6189
 ZZZY=             -1.0985 XXYY=           -371.8609 XXZZ=           -385.4182 YYZZ=           -112.5170
 XXYZ=             18.0797 YYXZ=             -1.2571 ZZXY=              9.0203
 N-N= 5.483697214484D+02 E-N=-2.251937215952D+03  KE= 4.920806187190D+02
 1\1\GINC-NODE010\SP\RMP2-FC\Aug-CC-pVDZ\C6H12N2O2\MANAGER\13-Feb-2017\
 0\\#SP MP2/aug-cc-pVDZ\\Single Point calculation at MP2\\0,1\H,0,-3.77
 52,-1.7606,-0.4408\C,0,-3.2414,-1.2388,0.3584\H,0,-2.7797,-1.9754,1.02
 31\H,0,-3.9823,-0.6653,0.9258\C,0,-2.2451,-0.2742,-0.2685\O,0,-2.5627,
 0.5048,-1.1607\N,0,-0.968,-0.3523,0.2168\H,0,-0.7815,-0.8707,1.0666\C,
 0,0.0501,0.6282,-0.1501\H,0,-0.0183,0.7648,-1.2342\C,0,-0.1544,1.9837,
 0.5436\H,0,-0.073,1.8647,1.6281\H,0,0.604,2.705,0.217\H,0,-1.1415,2.37
 71,0.2884\C,0,1.3961,0.0146,0.2574\O,0,1.6025,-0.31,1.4242\N,0,2.2916,
 -0.1718,-0.7491\H,0,2.0276,0.1054,-1.6836\C,0,3.6113,-0.7414,-0.5354\H
 ,0,3.6943,-0.9804,0.5255\H,0,3.7429,-1.6575,-1.1225\H,0,4.3993,-0.0296
 ,-0.8076\\Version=EM64L-G09RevA.02\State=1-A\HF=-492.9269638\MP2=-494.
 5276576\RMSD=7.988e-09\PG=C01 [X(C6H12N2O2)]\\@


 IF YOU GIVE EVERYONE A PIECE OF YOUR MIND,
 PRETTY SOON IT WILL BE ALL GONE.
 Job cpu time:  0 days 13 hours 46 minutes 35.5 seconds.
 File lengths (MBytes):  RWF=  10475 Int=      0 D2E=      0 Chk=      7 Scr=      2
 Normal termination of Gaussian 09 at Mon Feb 13 02:28:08 2017.
