 Entering Gaussian System, Link 0=g09
 Initial command:
 /home/steboss/Software/g09/l1.exe /home/steboss/projects/phi_psi_scan/alanine/MP2/195/5349/Gau-28572.inp -scrdir=/home/steboss/projects/phi_psi_scan/alanine/MP2/195/5349/
 Entering Link 1 = /home/steboss/Software/g09/l1.exe PID=     28574.
  
 Copyright (c) 1988,1990,1992,1993,1995,1998,2003,2009, Gaussian, Inc.
                  All Rights Reserved.
  
 This is part of the Gaussian(R) 09 program.  It is based on
 the Gaussian(R) 03 system (copyright 2003, Gaussian, Inc.),
 the Gaussian(R) 98 system (copyright 1998, Gaussian, Inc.),
 the Gaussian(R) 94 system (copyright 1995, Gaussian, Inc.),
 the Gaussian 92(TM) system (copyright 1992, Gaussian, Inc.),
 the Gaussian 90(TM) system (copyright 1990, Gaussian, Inc.),
 the Gaussian 88(TM) system (copyright 1988, Gaussian, Inc.),
 the Gaussian 86(TM) system (copyright 1986, Carnegie Mellon
 University), and the Gaussian 82(TM) system (copyright 1983,
 Carnegie Mellon University). Gaussian is a federally registered
 trademark of Gaussian, Inc.
  
 This software contains proprietary and confidential information,
 including trade secrets, belonging to Gaussian, Inc.
  
 This software is provided under written license and may be
 used, copied, transmitted, or stored only in accord with that
 written license.
  
 The following legend is applicable only to US Government
 contracts under FAR:
  
                    RESTRICTED RIGHTS LEGEND
  
 Use, reproduction and disclosure by the US Government is
 subject to restrictions as set forth in subparagraphs (a)
 and (c) of the Commercial Computer Software - Restricted
 Rights clause in FAR 52.227-19.
  
 Gaussian, Inc.
 340 Quinnipiac St., Bldg. 40, Wallingford CT 06492
  
  
 ---------------------------------------------------------------
 Warning -- This program may not be used in any manner that
 competes with the business of Gaussian, Inc. or will provide
 assistance to any competitor of Gaussian, Inc.  The licensee
 of this program is prohibited from giving any competitor of
 Gaussian, Inc. access to this program.  By using this program,
 the user acknowledges that Gaussian, Inc. is engaged in the
 business of creating and licensing software in the field of
 computational chemistry and represents and warrants to the
 licensee that it is not a competitor of Gaussian, Inc. and that
 it will not use this program in any manner prohibited above.
 ---------------------------------------------------------------
  

 Cite this work as:
 Gaussian 09, Revision A.02,
 M. J. Frisch, G. W. Trucks, H. B. Schlegel, G. E. Scuseria, 
 M. A. Robb, J. R. Cheeseman, G. Scalmani, V. Barone, B. Mennucci, 
 G. A. Petersson, H. Nakatsuji, M. Caricato, X. Li, H. P. Hratchian, 
 A. F. Izmaylov, J. Bloino, G. Zheng, J. L. Sonnenberg, M. Hada, 
 M. Ehara, K. Toyota, R. Fukuda, J. Hasegawa, M. Ishida, T. Nakajima, 
 Y. Honda, O. Kitao, H. Nakai, T. Vreven, J. A. Montgomery, Jr., 
 J. E. Peralta, F. Ogliaro, M. Bearpark, J. J. Heyd, E. Brothers, 
 K. N. Kudin, V. N. Staroverov, R. Kobayashi, J. Normand, 
 K. Raghavachari, A. Rendell, J. C. Burant, S. S. Iyengar, J. Tomasi, 
 M. Cossi, N. Rega, J. M. Millam, M. Klene, J. E. Knox, J. B. Cross, 
 V. Bakken, C. Adamo, J. Jaramillo, R. Gomperts, R. E. Stratmann, 
 O. Yazyev, A. J. Austin, R. Cammi, C. Pomelli, J. W. Ochterski, 
 R. L. Martin, K. Morokuma, V. G. Zakrzewski, G. A. Voth, 
 P. Salvador, J. J. Dannenberg, S. Dapprich, A. D. Daniels, 
 O. Farkas, J. B. Foresman, J. V. Ortiz, J. Cioslowski, 
 and D. J. Fox, Gaussian, Inc., Wallingford CT, 2009.
 
 ******************************************
 Gaussian 09:  EM64L-G09RevA.02 11-Jun-2009
                13-Feb-2017 
 ******************************************
 %chk=structure_105.chk
 %NProcShared=8
 Will use up to    8 processors via shared memory.
 -------------------
 #SP MP2/aug-cc-pVDZ
 -------------------
 1/38=1/1;
 2/12=2,17=6,18=5,40=1/2;
 3/5=16,7=10,11=9,16=1,25=1,30=1/1,2,3;
 4//1;
 5/5=2,38=5/2;
 8/10=1/1;
 9/16=-3/6;
 6/7=2,8=2,9=2,10=2/1;
 99/5=1,9=1/99;
 -------------------------------
 Single Point calculation at MP2
 -------------------------------
 Symbolic Z-matrix:
 Charge =  0 Multiplicity = 1
 H                    -3.7625   -1.8306    0.0563 
 C                    -3.1767   -1.1654    0.696 
 H                    -2.6811   -1.7551    1.4734 
 H                    -3.8757   -0.4699    1.174 
 C                    -2.2106   -0.3765   -0.1759 
 O                    -2.5513    0.1279   -1.2392 
 N                    -0.9276   -0.2878    0.3015 
 H                    -0.7491   -0.5345    1.2676 
 C                     0.0438    0.6271   -0.3022 
 H                    -0.0375    0.4921   -1.3854 
 C                    -0.2233    2.0959    0.0472 
 H                    -0.1172    2.2496    1.1247 
 H                     0.4932    2.7496   -0.4638 
 H                    -1.2321    2.3712   -0.2708 
 C                     1.421     0.186     0.2166 
 O                     1.7436    0.3844    1.3846 
 N                     2.1989   -0.4821   -0.6785 
 H                     1.84     -0.6271   -1.6112 
 C                     3.5066   -1.0178   -0.3415 
 H                     3.7113   -0.7474    0.6951 
 H                     3.5233   -2.1099   -0.4379 
 H                     4.2847   -0.5932   -0.986 
 
                          Input orientation:                          
 ---------------------------------------------------------------------
 Center     Atomic      Atomic             Coordinates (Angstroms)
 Number     Number       Type             X           Y           Z
 ---------------------------------------------------------------------
      1          1           0       -3.762500   -1.830600    0.056300
      2          6           0       -3.176700   -1.165400    0.696000
      3          1           0       -2.681100   -1.755100    1.473400
      4          1           0       -3.875700   -0.469900    1.174000
      5          6           0       -2.210600   -0.376500   -0.175900
      6          8           0       -2.551300    0.127900   -1.239200
      7          7           0       -0.927600   -0.287800    0.301500
      8          1           0       -0.749100   -0.534500    1.267600
      9          6           0        0.043800    0.627100   -0.302200
     10          1           0       -0.037500    0.492100   -1.385400
     11          6           0       -0.223300    2.095900    0.047200
     12          1           0       -0.117200    2.249600    1.124700
     13          1           0        0.493200    2.749600   -0.463800
     14          1           0       -1.232100    2.371200   -0.270800
     15          6           0        1.421000    0.186000    0.216600
     16          8           0        1.743600    0.384400    1.384600
     17          7           0        2.198900   -0.482100   -0.678500
     18          1           0        1.840000   -0.627100   -1.611200
     19          6           0        3.506600   -1.017800   -0.341500
     20          1           0        3.711300   -0.747400    0.695100
     21          1           0        3.523300   -2.109900   -0.437900
     22          1           0        4.284700   -0.593200   -0.986000
 ---------------------------------------------------------------------
                    Distance matrix (angstroms):
                    1          2          3          4          5
     1  H    0.000000
     2  C    1.093101   0.000000
     3  H    1.784180   1.094402   0.000000
     4  H    1.764532   1.095813   1.780014   0.000000
     5  C    2.139326   1.521815   2.200477   2.145580   0.000000
     6  O    2.642167   2.410135   3.304654   2.816902   1.225195
     7  N    3.236821   2.446275   2.569257   3.079888   1.371812
     8  H    3.496813   2.572548   2.294524   3.128668   2.060252
     9  C    4.544968   3.818518   4.031465   4.329556   2.470928
    10  H    4.620504   4.115107   4.495694   4.712510   2.634335
    11  C    5.286154   4.447425   4.785920   4.603589   3.179921
    12  H    5.574740   4.605057   4.767892   4.639443   3.601428
    13  H    6.273732   5.490039   5.841339   5.668761   4.143178
    14  H    4.915795   4.150146   4.708310   4.141004   2.918274
    15  C    5.564265   4.816114   4.708996   5.422347   3.695806
    16  O    6.081755   5.204364   4.915620   5.687769   4.318545
    17  N    6.156027   5.590458   5.483211   6.350801   4.439307
    18  H    5.967996   5.547992   5.588156   6.360132   4.304677
    19  C    7.325210   6.764961   6.490386   7.556142   5.755438
    20  H    7.578857   6.900672   6.517974   7.607162   5.997092
    21  H    7.307881   6.860598   6.501810   7.748098   5.995909
    22  H    8.208226   7.670008   7.478036   8.442330   6.549209
                    6          7          8          9         10
     6  O    0.000000
     7  N    2.276613   0.000000
     8  H    3.157649   1.012952   0.000000
     9  C    2.803875   1.464621   2.107671   0.000000
    10  H    2.544250   2.060620   2.932352   1.094604   0.000000
    11  C    3.308691   2.498546   2.947006   1.533231   2.158481
    12  H    4.001809   2.787975   2.858484   2.166673   3.065250
    13  H    4.091887   3.439499   3.914891   2.175565   2.495455
    14  H    2.776775   2.736883   3.323109   2.161201   2.490064
    15  C    4.231063   2.397419   2.516556   1.536360   2.187995
    16  O    5.039473   2.959775   2.659252   2.406973   3.294968
    17  N    4.821917   3.282248   3.532811   2.452831   2.539736
    18  H    4.471233   3.381295   3.872919   2.552025   2.197408
    19  C    6.230301   4.539656   4.575343   3.833826   3.991262
    20  H    6.612702   4.678199   4.502027   4.041586   4.462997
    21  H    6.523082   4.865930   4.862511   4.429052   4.510816
    22  H    6.878589   5.377639   5.515551   4.465641   4.474238
                   11         12         13         14         15
    11  C    0.000000
    12  H    1.093566   0.000000
    13  H    1.096274   1.773674   0.000000
    14  H    1.092974   1.790310   1.776822   0.000000
    15  C    2.525893   2.729313   2.809947   3.471541   0.000000
    16  O    2.930284   2.647470   3.251808   3.942400   1.227867
    17  N    3.611063   4.009742   3.660518   4.480993   1.361136
    18  H    3.797661   4.426193   3.812152   4.497141   2.043904
    19  C    4.874256   5.094857   4.825851   5.826285   2.471910
    20  H    4.897469   4.880981   4.891649   5.924174   2.519062
    21  H    5.653414   5.890688   5.726859   6.536208   3.181068
    22  H    5.349843   5.649185   5.081582   6.303512   3.202214
                   16         17         18         19         20
    16  O    0.000000
    17  N    2.283528   0.000000
    18  H    3.163423   1.009833   0.000000
    19  C    2.837914   1.452798   2.131277   0.000000
    20  H    2.372388   2.060222   2.972416   1.090669   0.000000
    21  H    3.565161   2.112263   2.531566   1.096474   1.781976
    22  H    3.610074   2.111270   2.523605   1.095949   1.782880
                   21         22
    21  H    0.000000
    22  H    1.783402   0.000000
 Stoichiometry    C6H12N2O2
 Framework group  C1[X(C6H12N2O2)]
 Deg. of freedom    60
 Full point group                 C1      NOp   1
 Largest Abelian subgroup         C1      NOp   1
 Largest concise Abelian subgroup C1      NOp   1
                         Standard orientation:                         
 ---------------------------------------------------------------------
 Center     Atomic      Atomic             Coordinates (Angstroms)
 Number     Number       Type             X           Y           Z
 ---------------------------------------------------------------------
      1          1           0       -3.762486   -1.830614    0.056282
      2          6           0       -3.176689   -1.165411    0.695982
      3          1           0       -2.681086   -1.755109    1.473382
      4          1           0       -3.875693   -0.469915    1.173982
      5          6           0       -2.210593   -0.376507   -0.175918
      6          8           0       -2.551295    0.127892   -1.239218
      7          7           0       -0.927593   -0.287801    0.301482
      8          1           0       -0.749092   -0.534500    1.267582
      9          6           0        0.043802    0.627104   -0.302218
     10          1           0       -0.037497    0.492104   -1.385418
     11          6           0       -0.223305    2.095903    0.047182
     12          1           0       -0.117206    2.249603    1.124682
     13          1           0        0.493192    2.749606   -0.463818
     14          1           0       -1.232106    2.371198   -0.270818
     15          6           0        1.421004    0.186011    0.216582
     16          8           0        1.743603    0.384412    1.384582
     17          7           0        2.198907   -0.482086   -0.678518
     18          1           0        1.840008   -0.627087   -1.611218
     19          6           0        3.506610   -1.017779   -0.341518
     20          1           0        3.711309   -0.747378    0.695082
     21          1           0        3.523315   -2.109879   -0.437918
     22          1           0        4.284708   -0.593176   -0.986018
 ---------------------------------------------------------------------
 Rotational constants (GHZ):      2.3894902      0.6675653      0.6323715
 Standard basis: Aug-CC-pVDZ (5D, 7F)
 There are   338 symmetry adapted basis functions of A   symmetry.
 Integral buffers will be    131072 words long.
 Raffenetti 1 integral format.
 Two-electron integral symmetry is turned on.
   338 basis functions,   562 primitive gaussians,   358 cartesian basis functions
    39 alpha electrons       39 beta electrons
       nuclear repulsion energy       548.5483542297 Hartrees.
 NAtoms=   22 NActive=   22 NUniq=   22 SFac= 7.50D-01 NAtFMM=   80 NAOKFM=F Big=F
 One-electron integrals computed using PRISM.
 NBasis=   338 RedAO= T  NBF=   338
 NBsUse=   338 1.00D-06 NBFU=   338
 Harris functional with IExCor=  205 diagonalized for initial guess.
 ExpMin= 2.97D-02 ExpMax= 1.17D+04 ExpMxC= 4.01D+02 IAcc=3 IRadAn=         0 AccDes= 0.00D+00
 HarFok:  IExCor=  205 AccDes= 0.00D+00 IRadAn=         0 IDoV= 1
 ScaDFX=  1.000000  1.000000  1.000000  1.000000
 FoFCou: FMM=F IPFlag=           0 FMFlag=      100000 FMFlg1=           0
         NFxFlg=           0 DoJE=T BraDBF=F KetDBF=T FulRan=T
         Omega=  0.000000  0.000000  1.000000  0.000000  0.000000 ICntrl=     500 IOpCl=  0
         NMat0=    1 NMatS0=    1 NMatT0=    0 NMatD0=    1 NMtDS0=    0 NMtDT0=    0
         I1Cent=           4 NGrid=           0.
 Petite list used in FoFCou.
 Initial guess orbital symmetries:
       Occupied  (A) (A) (A) (A) (A) (A) (A) (A) (A) (A) (A) (A)
                 (A) (A) (A) (A) (A) (A) (A) (A) (A) (A) (A) (A)
                 (A) (A) (A) (A) (A) (A) (A) (A) (A) (A) (A) (A)
                 (A) (A) (A)
       Virtual   (A) (A) (A) (A) (A) (A) (A) (A) (A) (A) (A) (A)
                 (A) (A) (A) (A) (A) (A) (A) (A) (A) (A) (A) (A)
                 (A) (A) (A) (A) (A) (A) (A) (A) (A) (A) (A) (A)
                 (A) (A) (A) (A) (A) (A) (A) (A) (A) (A) (A) (A)
                 (A) (A) (A) (A) (A) (A) (A) (A) (A) (A) (A) (A)
                 (A) (A) (A) (A) (A) (A) (A) (A) (A) (A) (A) (A)
                 (A) (A) (A) (A) (A) (A) (A) (A) (A) (A) (A) (A)
                 (A) (A) (A) (A) (A) (A) (A) (A) (A) (A) (A) (A)
                 (A) (A) (A) (A) (A) (A) (A) (A) (A) (A) (A) (A)
                 (A) (A) (A) (A) (A) (A) (A) (A) (A) (A) (A) (A)
                 (A) (A) (A) (A) (A) (A) (A) (A) (A) (A) (A) (A)
                 (A) (A) (A) (A) (A) (A) (A) (A) (A) (A) (A) (A)
                 (A) (A) (A) (A) (A) (A) (A) (A) (A) (A) (A) (A)
                 (A) (A) (A) (A) (A) (A) (A) (A) (A) (A) (A) (A)
                 (A) (A) (A) (A) (A) (A) (A) (A) (A) (A) (A) (A)
                 (A) (A) (A) (A) (A) (A) (A) (A) (A) (A) (A) (A)
                 (A) (A) (A) (A) (A) (A) (A) (A) (A) (A) (A) (A)
                 (A) (A) (A) (A) (A) (A) (A) (A) (A) (A) (A) (A)
                 (A) (A) (A) (A) (A) (A) (A) (A) (A) (A) (A) (A)
                 (A) (A) (A) (A) (A) (A) (A) (A) (A) (A) (A) (A)
                 (A) (A) (A) (A) (A) (A) (A) (A) (A) (A) (A) (A)
                 (A) (A) (A) (A) (A) (A) (A) (A) (A) (A) (A) (A)
                 (A) (A) (A) (A) (A) (A) (A) (A) (A) (A) (A) (A)
                 (A) (A) (A) (A) (A) (A) (A) (A) (A) (A) (A) (A)
                 (A) (A) (A) (A) (A) (A) (A) (A) (A) (A) (A)
 The electronic state of the initial guess is 1-A.
 Requested convergence on RMS density matrix=1.00D-08 within 128 cycles.
 Requested convergence on MAX density matrix=1.00D-06.
 Requested convergence on             energy=1.00D-06.
 No special actions if energy rises.
 Initial convergence to 1.0D-05 achieved.  Increase integral accuracy.
 SCF Done:  E(RHF) =  -492.925538400     A.U. after   14 cycles
             Convg  =    0.7365D-08             -V/T =  2.0017
 ExpMin= 2.97D-02 ExpMax= 1.17D+04 ExpMxC= 4.01D+02 IAcc=3 IRadAn=         5 AccDes= 0.00D+00
 HarFok:  IExCor=  205 AccDes= 0.00D+00 IRadAn=         5 IDoV=-2
 ScaDFX=  1.000000  1.000000  1.000000  1.000000
 Range of M.O.s used for correlation:    11   338
 NBasis=   338 NAE=    39 NBE=    39 NFC=    10 NFV=     0
 NROrb=    328 NOA=    29 NOB=    29 NVA=   299 NVB=   299

 **** Warning!!: The largest alpha MO coefficient is  0.63568669D+02

 Disk-based method using OVN memory for 29 occupieds at a time.
 Estimated scratch disk usage=  1372735903 words.
 Actual    scratch disk usage=  1359803565 words.
 JobTyp=1 Pass  1:  I=   1 to  29 NPSUse=  8 ParTrn=T ParDer=T DoDerP=F.
 Spin components of T(2) and E(2):
     alpha-alpha T2 =       0.6785457673D-01 E2=     -0.2056036645D+00
     alpha-beta  T2 =       0.3763289335D+00 E2=     -0.1189687011D+01
     beta-beta   T2 =       0.6785457673D-01 E2=     -0.2056036645D+00
 ANorm=    0.1229649579D+01
 E2 =    -0.1600894340D+01 EUMP2 =    -0.49452643273994D+03

 **********************************************************************

            Population analysis using the SCF density.

 **********************************************************************

 Orbital symmetries:
       Occupied  (A) (A) (A) (A) (A) (A) (A) (A) (A) (A) (A) (A)
                 (A) (A) (A) (A) (A) (A) (A) (A) (A) (A) (A) (A)
                 (A) (A) (A) (A) (A) (A) (A) (A) (A) (A) (A) (A)
                 (A) (A) (A)
       Virtual   (A) (A) (A) (A) (A) (A) (A) (A) (A) (A) (A) (A)
                 (A) (A) (A) (A) (A) (A) (A) (A) (A) (A) (A) (A)
                 (A) (A) (A) (A) (A) (A) (A) (A) (A) (A) (A) (A)
                 (A) (A) (A) (A) (A) (A) (A) (A) (A) (A) (A) (A)
                 (A) (A) (A) (A) (A) (A) (A) (A) (A) (A) (A) (A)
                 (A) (A) (A) (A) (A) (A) (A) (A) (A) (A) (A) (A)
                 (A) (A) (A) (A) (A) (A) (A) (A) (A) (A) (A) (A)
                 (A) (A) (A) (A) (A) (A) (A) (A) (A) (A) (A) (A)
                 (A) (A) (A) (A) (A) (A) (A) (A) (A) (A) (A) (A)
                 (A) (A) (A) (A) (A) (A) (A) (A) (A) (A) (A) (A)
                 (A) (A) (A) (A) (A) (A) (A) (A) (A) (A) (A) (A)
                 (A) (A) (A) (A) (A) (A) (A) (A) (A) (A) (A) (A)
                 (A) (A) (A) (A) (A) (A) (A) (A) (A) (A) (A) (A)
                 (A) (A) (A) (A) (A) (A) (A) (A) (A) (A) (A) (A)
                 (A) (A) (A) (A) (A) (A) (A) (A) (A) (A) (A) (A)
                 (A) (A) (A) (A) (A) (A) (A) (A) (A) (A) (A) (A)
                 (A) (A) (A) (A) (A) (A) (A) (A) (A) (A) (A) (A)
                 (A) (A) (A) (A) (A) (A) (A) (A) (A) (A) (A) (A)
                 (A) (A) (A) (A) (A) (A) (A) (A) (A) (A) (A) (A)
                 (A) (A) (A) (A) (A) (A) (A) (A) (A) (A) (A) (A)
                 (A) (A) (A) (A) (A) (A) (A) (A) (A) (A) (A) (A)
                 (A) (A) (A) (A) (A) (A) (A) (A) (A) (A) (A) (A)
                 (A) (A) (A) (A) (A) (A) (A) (A) (A) (A) (A) (A)
                 (A) (A) (A) (A) (A) (A) (A) (A) (A) (A) (A) (A)
                 (A) (A) (A) (A) (A) (A) (A) (A) (A) (A) (A)
 The electronic state is 1-A.
 Alpha  occ. eigenvalues --  -20.53814 -20.53300 -15.60598 -15.59906 -11.36696
 Alpha  occ. eigenvalues --  -11.36534 -11.29289 -11.27453 -11.24882 -11.22740
 Alpha  occ. eigenvalues --   -1.39367  -1.38502  -1.24486  -1.23621  -1.05415
 Alpha  occ. eigenvalues --   -0.99257  -0.96548  -0.87908  -0.79918  -0.79132
 Alpha  occ. eigenvalues --   -0.73072  -0.67372  -0.66050  -0.64489  -0.62843
 Alpha  occ. eigenvalues --   -0.62050  -0.60373  -0.58672  -0.57405  -0.56594
 Alpha  occ. eigenvalues --   -0.55346  -0.53914  -0.52404  -0.51681  -0.50006
 Alpha  occ. eigenvalues --   -0.43446  -0.42784  -0.40226  -0.39451
 Alpha virt. eigenvalues --    0.02876   0.03656   0.04499   0.04644   0.05646
 Alpha virt. eigenvalues --    0.05908   0.06244   0.07059   0.07484   0.07951
 Alpha virt. eigenvalues --    0.09037   0.09473   0.11257   0.11868   0.12510
 Alpha virt. eigenvalues --    0.13438   0.13609   0.14277   0.14781   0.15147
 Alpha virt. eigenvalues --    0.15353   0.15868   0.16360   0.16914   0.17320
 Alpha virt. eigenvalues --    0.17526   0.17915   0.18393   0.18947   0.19307
 Alpha virt. eigenvalues --    0.19859   0.20125   0.20700   0.21245   0.22086
 Alpha virt. eigenvalues --    0.23122   0.23441   0.24636   0.25614   0.26261
 Alpha virt. eigenvalues --    0.26578   0.27694   0.28510   0.30178   0.30713
 Alpha virt. eigenvalues --    0.31000   0.32052   0.32658   0.33352   0.34061
 Alpha virt. eigenvalues --    0.34551   0.34641   0.34906   0.35778   0.36124
 Alpha virt. eigenvalues --    0.37383   0.38298   0.38637   0.38951   0.40036
 Alpha virt. eigenvalues --    0.40330   0.40947   0.41793   0.42320   0.42622
 Alpha virt. eigenvalues --    0.43079   0.43809   0.44197   0.44987   0.45405
 Alpha virt. eigenvalues --    0.45925   0.46557   0.47128   0.48701   0.49452
 Alpha virt. eigenvalues --    0.49748   0.50436   0.50851   0.51538   0.52276
 Alpha virt. eigenvalues --    0.52972   0.53238   0.54086   0.55472   0.56162
 Alpha virt. eigenvalues --    0.56567   0.57117   0.57360   0.58015   0.58589
 Alpha virt. eigenvalues --    0.59080   0.59532   0.60593   0.60951   0.61592
 Alpha virt. eigenvalues --    0.62569   0.62945   0.63021   0.63894   0.65338
 Alpha virt. eigenvalues --    0.65757   0.66303   0.66831   0.67314   0.68699
 Alpha virt. eigenvalues --    0.69010   0.69775   0.69999   0.70900   0.71327
 Alpha virt. eigenvalues --    0.72244   0.73245   0.73456   0.74583   0.75181
 Alpha virt. eigenvalues --    0.75448   0.76227   0.77042   0.77474   0.78294
 Alpha virt. eigenvalues --    0.79662   0.80432   0.81480   0.81674   0.82143
 Alpha virt. eigenvalues --    0.83570   0.84921   0.85460   0.85926   0.86819
 Alpha virt. eigenvalues --    0.88632   0.89552   0.89975   0.92145   0.93005
 Alpha virt. eigenvalues --    0.94573   0.95634   0.97719   0.98862   0.98985
 Alpha virt. eigenvalues --    0.99648   1.01932   1.02476   1.03287   1.03856
 Alpha virt. eigenvalues --    1.04832   1.07625   1.07911   1.08745   1.09997
 Alpha virt. eigenvalues --    1.11044   1.13015   1.13782   1.14697   1.15161
 Alpha virt. eigenvalues --    1.16222   1.17151   1.18283   1.19173   1.19532
 Alpha virt. eigenvalues --    1.21999   1.23764   1.25517   1.26910   1.28322
 Alpha virt. eigenvalues --    1.30047   1.32870   1.33760   1.35620   1.37732
 Alpha virt. eigenvalues --    1.39376   1.40622   1.41698   1.43728   1.44662
 Alpha virt. eigenvalues --    1.48088   1.50265   1.50802   1.53008   1.55454
 Alpha virt. eigenvalues --    1.56123   1.56909   1.58842   1.62267   1.64593
 Alpha virt. eigenvalues --    1.67532   1.68863   1.70567   1.71879   1.73170
 Alpha virt. eigenvalues --    1.73742   1.76088   1.76411   1.79562   1.80112
 Alpha virt. eigenvalues --    1.82539   1.84399   1.85425   1.86595   1.87327
 Alpha virt. eigenvalues --    1.88174   1.88732   1.89811   1.91558   1.91916
 Alpha virt. eigenvalues --    1.95309   1.95763   1.98383   1.99683   2.01370
 Alpha virt. eigenvalues --    2.02010   2.04328   2.05401   2.06811   2.09175
 Alpha virt. eigenvalues --    2.11658   2.12485   2.14100   2.14376   2.17411
 Alpha virt. eigenvalues --    2.17535   2.19468   2.20810   2.21810   2.22855
 Alpha virt. eigenvalues --    2.25114   2.26480   2.26992   2.29008   2.30282
 Alpha virt. eigenvalues --    2.31458   2.33288   2.34539   2.35112   2.36348
 Alpha virt. eigenvalues --    2.38255   2.39590   2.40659   2.43565   2.43667
 Alpha virt. eigenvalues --    2.45590   2.46822   2.48407   2.49031   2.52027
 Alpha virt. eigenvalues --    2.54146   2.56416   2.56532   2.57701   2.60751
 Alpha virt. eigenvalues --    2.62349   2.63281   2.65680   2.67272   2.71788
 Alpha virt. eigenvalues --    2.72917   2.73646   2.74278   2.77231   2.79045
 Alpha virt. eigenvalues --    2.81979   2.84429   2.85550   2.86060   2.88681
 Alpha virt. eigenvalues --    2.89859   2.92448   2.93635   2.97956   2.98687
 Alpha virt. eigenvalues --    3.00524   3.02183   3.04045   3.05306   3.06179
 Alpha virt. eigenvalues --    3.09252   3.12051   3.18542   3.21041   3.24139
 Alpha virt. eigenvalues --    3.28785   3.31473   3.42238   3.42556   3.51233
 Alpha virt. eigenvalues --    3.60471   3.63227   3.73152   3.83495   3.83601
 Alpha virt. eigenvalues --    3.84995   3.87079   3.91076   3.95951   4.02611
 Alpha virt. eigenvalues --    4.03875   4.12818   4.21258   4.32148
          Condensed to atoms (all electrons):
              1          2          3          4          5          6
     1  H    0.749338   0.398337  -0.095052  -0.052061  -0.089510   0.025162
     2  C    0.398337   4.541998   0.338146   0.346646   0.168424  -0.043281
     3  H   -0.095052   0.338146   1.087866  -0.067153   0.077087  -0.010456
     4  H   -0.052061   0.346646  -0.067153   0.728956  -0.070468   0.017152
     5  C   -0.089510   0.168424   0.077087  -0.070468   5.368437   0.207049
     6  O    0.025162  -0.043281  -0.010456   0.017152   0.207049   8.716353
     7  N    0.057582  -0.035939  -0.218419   0.039084   0.060069  -0.110479
     8  H   -0.004246  -0.051434   0.005847  -0.003944  -0.103695   0.000197
     9  C   -0.014705   0.015285   0.023111   0.013276  -0.099161   0.030050
    10  H   -0.001218  -0.010485   0.001789  -0.001082   0.028482  -0.016844
    11  C    0.002320  -0.023972  -0.019799  -0.001894  -0.123985   0.042081
    12  H    0.000403  -0.006084  -0.000964  -0.001094   0.014310  -0.005264
    13  H   -0.000050   0.002333  -0.000633   0.000315  -0.025517   0.007391
    14  H   -0.001357   0.004958   0.002150   0.000512   0.009945   0.016964
    15  C    0.001583  -0.018177  -0.001367  -0.000760   0.008636  -0.020998
    16  O   -0.000034  -0.001682   0.000947  -0.000179  -0.023488   0.002545
    17  N    0.000404   0.005866  -0.000474   0.000325  -0.000961  -0.000364
    18  H   -0.000519  -0.001376  -0.000173   0.000157  -0.004985   0.000437
    19  C    0.000043  -0.001424   0.000460  -0.000114  -0.001244  -0.000234
    20  H    0.000004  -0.000024   0.000076  -0.000010  -0.000399   0.000023
    21  H    0.000049   0.000051  -0.000001  -0.000023  -0.000824   0.000022
    22  H   -0.000006  -0.000110  -0.000006   0.000001   0.001199  -0.000070
              7          8          9         10         11         12
     1  H    0.057582  -0.004246  -0.014705  -0.001218   0.002320   0.000403
     2  C   -0.035939  -0.051434   0.015285  -0.010485  -0.023972  -0.006084
     3  H   -0.218419   0.005847   0.023111   0.001789  -0.019799  -0.000964
     4  H    0.039084  -0.003944   0.013276  -0.001082  -0.001894  -0.001094
     5  C    0.060069  -0.103695  -0.099161   0.028482  -0.123985   0.014310
     6  O   -0.110479   0.000197   0.030050  -0.016844   0.042081  -0.005264
     7  N    7.499184   0.360706  -0.332435  -0.095813   0.033039  -0.030307
     8  H    0.360706   0.914373  -0.104941   0.001216   0.016504   0.007487
     9  C   -0.332435  -0.104941   7.402455  -0.190963   0.099100  -0.156204
    10  H   -0.095813   0.001216  -0.190963   1.553136   0.033352   0.070910
    11  C    0.033039   0.016504   0.099100   0.033352   4.309437   0.331721
    12  H   -0.030307   0.007487  -0.156204   0.070910   0.331721   1.052744
    13  H    0.074916   0.001712  -0.183040  -0.081423   0.327414  -0.106291
    14  H   -0.073165  -0.006423   0.223747  -0.013535   0.276172  -0.200889
    15  C    0.061266   0.044974  -0.786286   0.057212  -0.039601   0.054481
    16  O   -0.040512   0.017236   0.073396  -0.024450  -0.015898  -0.018769
    17  N   -0.010888  -0.017854   0.130497  -0.053346  -0.005637  -0.006325
    18  H    0.016843   0.001580  -0.111781   0.003996   0.003890   0.000594
    19  C   -0.007286  -0.005316   0.046591   0.007631  -0.010881  -0.002331
    20  H   -0.005083  -0.002004   0.013791   0.004999  -0.003172  -0.000135
    21  H    0.001235  -0.002118   0.012240  -0.000219   0.008195   0.000389
    22  H   -0.000105   0.001101   0.017080  -0.000642  -0.005946  -0.000211
             13         14         15         16         17         18
     1  H   -0.000050  -0.001357   0.001583  -0.000034   0.000404  -0.000519
     2  C    0.002333   0.004958  -0.018177  -0.001682   0.005866  -0.001376
     3  H   -0.000633   0.002150  -0.001367   0.000947  -0.000474  -0.000173
     4  H    0.000315   0.000512  -0.000760  -0.000179   0.000325   0.000157
     5  C   -0.025517   0.009945   0.008636  -0.023488  -0.000961  -0.004985
     6  O    0.007391   0.016964  -0.020998   0.002545  -0.000364   0.000437
     7  N    0.074916  -0.073165   0.061266  -0.040512  -0.010888   0.016843
     8  H    0.001712  -0.006423   0.044974   0.017236  -0.017854   0.001580
     9  C   -0.183040   0.223747  -0.786286   0.073396   0.130497  -0.111781
    10  H   -0.081423  -0.013535   0.057212  -0.024450  -0.053346   0.003996
    11  C    0.327414   0.276172  -0.039601  -0.015898  -0.005637   0.003890
    12  H   -0.106291  -0.200889   0.054481  -0.018769  -0.006325   0.000594
    13  H    1.184155  -0.161461   0.018427   0.012948  -0.016413   0.007363
    14  H   -0.161461   0.997157  -0.047007   0.000347   0.012778  -0.002312
    15  C    0.018427  -0.047007   5.535546   0.186071   0.106679   0.005088
    16  O    0.012948   0.000347   0.186071   8.791350  -0.160153   0.008338
    17  N   -0.016413   0.012778   0.106679  -0.160153   7.124980   0.271069
    18  H    0.007363  -0.002312   0.005088   0.008338   0.271069   1.001459
    19  C   -0.005024   0.001781  -0.142674   0.015795   0.256396  -0.100817
    20  H   -0.001667   0.000174  -0.008774   0.014076  -0.035448   0.001249
    21  H    0.000438   0.000383  -0.063834   0.016078  -0.027684  -0.002073
    22  H   -0.000848  -0.000221  -0.020519   0.008107  -0.062321   0.008349
             19         20         21         22
     1  H    0.000043   0.000004   0.000049  -0.000006
     2  C   -0.001424  -0.000024   0.000051  -0.000110
     3  H    0.000460   0.000076  -0.000001  -0.000006
     4  H   -0.000114  -0.000010  -0.000023   0.000001
     5  C   -0.001244  -0.000399  -0.000824   0.001199
     6  O   -0.000234   0.000023   0.000022  -0.000070
     7  N   -0.007286  -0.005083   0.001235  -0.000105
     8  H   -0.005316  -0.002004  -0.002118   0.001101
     9  C    0.046591   0.013791   0.012240   0.017080
    10  H    0.007631   0.004999  -0.000219  -0.000642
    11  C   -0.010881  -0.003172   0.008195  -0.005946
    12  H   -0.002331  -0.000135   0.000389  -0.000211
    13  H   -0.005024  -0.001667   0.000438  -0.000848
    14  H    0.001781   0.000174   0.000383  -0.000221
    15  C   -0.142674  -0.008774  -0.063834  -0.020519
    16  O    0.015795   0.014076   0.016078   0.008107
    17  N    0.256396  -0.035448  -0.027684  -0.062321
    18  H   -0.100817   0.001249  -0.002073   0.008349
    19  C    4.071590   0.456356   0.353937   0.351767
    20  H    0.456356   0.946636  -0.107441  -0.127375
    21  H    0.353937  -0.107441   1.057708  -0.148596
    22  H    0.351767  -0.127375  -0.148596   1.074462
 Mulliken atomic charges:
              1
     1  H    0.023533
     2  C    0.371946
     3  H   -0.122982
     4  H    0.052356
     5  C    0.600598
     6  O   -0.857437
     7  N   -0.243494
     8  H   -0.070958
     9  C   -0.121106
    10  H   -0.272703
    11  C    0.767560
    12  H    0.001829
    13  H   -0.055045
    14  H   -0.040700
    15  C    1.070034
    16  O   -0.862070
    17  N   -0.511128
    18  H   -0.106376
    19  C    0.714998
    20  H   -0.145852
    21  H   -0.097912
    22  H   -0.095091
 Sum of Mulliken atomic charges =   0.00000
 Mulliken charges with hydrogens summed into heavy atoms:
              1
     2  C    0.324853
     5  C    0.600598
     6  O   -0.857437
     7  N   -0.314452
     9  C   -0.393809
    11  C    0.673644
    15  C    1.070034
    16  O   -0.862070
    17  N   -0.617504
    19  C    0.376143
 Sum of Mulliken charges with hydrogens summed into heavy atoms =   0.00000
 Electronic spatial extent (au):  <R**2>=           1947.2313
 Charge=              0.0000 electrons
 Dipole moment (field-independent basis, Debye):
    X=              1.3439    Y=             -2.0136    Z=             -0.2707  Tot=              2.4360
 Quadrupole moment (field-independent basis, Debye-Ang):
   XX=            -60.6929   YY=            -58.8547   ZZ=            -65.2853
   XY=              0.0219   XZ=            -16.2626   YZ=             -0.9142
 Traceless Quadrupole moment (field-independent basis, Debye-Ang):
   XX=              0.9181   YY=              2.7563   ZZ=             -3.6743
   XY=              0.0219   XZ=            -16.2626   YZ=             -0.9142
 Octapole moment (field-independent basis, Debye-Ang**2):
  XXX=             24.8866  YYY=             -1.6473  ZZZ=             -4.7704  XYY=             -1.4477
  XXY=            -22.7089  XXZ=             11.1360  XZZ=              5.1064  YZZ=             -6.4422
  YYZ=             -1.1736  XYZ=             -1.4336
 Hexadecapole moment (field-independent basis, Debye-Ang**3):
 XXXX=          -1756.0078 YYYY=           -438.2747 ZZZZ=           -277.1777 XXXY=              0.5452
 XXXZ=            -84.9606 YYYX=              0.7162 YYYZ=              0.0132 ZZZX=            -30.5348
 ZZZY=              0.6513 XXYY=           -360.3540 XXZZ=           -384.4437 YYZZ=           -117.3921
 XXYZ=              4.5868 YYXZ=              0.1368 ZZXY=             -4.3807
 N-N= 5.485483542297D+02 E-N=-2.252273427605D+03  KE= 4.920765334660D+02
 1\1\GINC-NODE007\SP\RMP2-FC\Aug-CC-pVDZ\C6H12N2O2\MANAGER\13-Feb-2017\
 0\\#SP MP2/aug-cc-pVDZ\\Single Point calculation at MP2\\0,1\H,0,-3.76
 25,-1.8306,0.0563\C,0,-3.1767,-1.1654,0.696\H,0,-2.6811,-1.7551,1.4734
 \H,0,-3.8757,-0.4699,1.174\C,0,-2.2106,-0.3765,-0.1759\O,0,-2.5513,0.1
 279,-1.2392\N,0,-0.9276,-0.2878,0.3015\H,0,-0.7491,-0.5345,1.2676\C,0,
 0.0438,0.6271,-0.3022\H,0,-0.0375,0.4921,-1.3854\C,0,-0.2233,2.0959,0.
 0472\H,0,-0.1172,2.2496,1.1247\H,0,0.4932,2.7496,-0.4638\H,0,-1.2321,2
 .3712,-0.2708\C,0,1.421,0.186,0.2166\O,0,1.7436,0.3844,1.3846\N,0,2.19
 89,-0.4821,-0.6785\H,0,1.84,-0.6271,-1.6112\C,0,3.5066,-1.0178,-0.3415
 \H,0,3.7113,-0.7474,0.6951\H,0,3.5233,-2.1099,-0.4379\H,0,4.2847,-0.59
 32,-0.986\\Version=EM64L-G09RevA.02\State=1-A\HF=-492.9255384\MP2=-494
 .5264327\RMSD=7.365e-09\PG=C01 [X(C6H12N2O2)]\\@


 TO DETECT ERRORS, THE PROGRAMMER MUST HAVE A CONNIVING MIND,
 ONE THAT DELIGHTS IN UNCOVERING FLAWS WHERE BEAUTY AND
 PERFECTION WERE ONCE THOUGHT TO LIE.

             -- THE PSYCHOLOGY OF COMPUTER PROGRAMMING
                GERALD M. WEINBERG
 Job cpu time:  0 days 18 hours 38 minutes 29.5 seconds.
 File lengths (MBytes):  RWF=  10491 Int=      0 D2E=      0 Chk=      7 Scr=      2
 Normal termination of Gaussian 09 at Mon Feb 13 03:06:06 2017.
