 Entering Gaussian System, Link 0=g09
 Initial command:
 /home/steboss/Software/g09/l1.exe /home/steboss/projects/phi_psi_scan/alanine/180/4295/Gau-14137.inp -scrdir=/home/steboss/projects/phi_psi_scan/alanine/180/4295/
 Entering Link 1 = /home/steboss/Software/g09/l1.exe PID=     14139.
  
 Copyright (c) 1988,1990,1992,1993,1995,1998,2003,2009, Gaussian, Inc.
                  All Rights Reserved.
  
 This is part of the Gaussian(R) 09 program.  It is based on
 the Gaussian(R) 03 system (copyright 2003, Gaussian, Inc.),
 the Gaussian(R) 98 system (copyright 1998, Gaussian, Inc.),
 the Gaussian(R) 94 system (copyright 1995, Gaussian, Inc.),
 the Gaussian 92(TM) system (copyright 1992, Gaussian, Inc.),
 the Gaussian 90(TM) system (copyright 1990, Gaussian, Inc.),
 the Gaussian 88(TM) system (copyright 1988, Gaussian, Inc.),
 the Gaussian 86(TM) system (copyright 1986, Carnegie Mellon
 University), and the Gaussian 82(TM) system (copyright 1983,
 Carnegie Mellon University). Gaussian is a federally registered
 trademark of Gaussian, Inc.
  
 This software contains proprietary and confidential information,
 including trade secrets, belonging to Gaussian, Inc.
  
 This software is provided under written license and may be
 used, copied, transmitted, or stored only in accord with that
 written license.
  
 The following legend is applicable only to US Government
 contracts under FAR:
  
                    RESTRICTED RIGHTS LEGEND
  
 Use, reproduction and disclosure by the US Government is
 subject to restrictions as set forth in subparagraphs (a)
 and (c) of the Commercial Computer Software - Restricted
 Rights clause in FAR 52.227-19.
  
 Gaussian, Inc.
 340 Quinnipiac St., Bldg. 40, Wallingford CT 06492
  
  
 ---------------------------------------------------------------
 Warning -- This program may not be used in any manner that
 competes with the business of Gaussian, Inc. or will provide
 assistance to any competitor of Gaussian, Inc.  The licensee
 of this program is prohibited from giving any competitor of
 Gaussian, Inc. access to this program.  By using this program,
 the user acknowledges that Gaussian, Inc. is engaged in the
 business of creating and licensing software in the field of
 computational chemistry and represents and warrants to the
 licensee that it is not a competitor of Gaussian, Inc. and that
 it will not use this program in any manner prohibited above.
 ---------------------------------------------------------------
  

 Cite this work as:
 Gaussian 09, Revision A.02,
 M. J. Frisch, G. W. Trucks, H. B. Schlegel, G. E. Scuseria, 
 M. A. Robb, J. R. Cheeseman, G. Scalmani, V. Barone, B. Mennucci, 
 G. A. Petersson, H. Nakatsuji, M. Caricato, X. Li, H. P. Hratchian, 
 A. F. Izmaylov, J. Bloino, G. Zheng, J. L. Sonnenberg, M. Hada, 
 M. Ehara, K. Toyota, R. Fukuda, J. Hasegawa, M. Ishida, T. Nakajima, 
 Y. Honda, O. Kitao, H. Nakai, T. Vreven, J. A. Montgomery, Jr., 
 J. E. Peralta, F. Ogliaro, M. Bearpark, J. J. Heyd, E. Brothers, 
 K. N. Kudin, V. N. Staroverov, R. Kobayashi, J. Normand, 
 K. Raghavachari, A. Rendell, J. C. Burant, S. S. Iyengar, J. Tomasi, 
 M. Cossi, N. Rega, J. M. Millam, M. Klene, J. E. Knox, J. B. Cross, 
 V. Bakken, C. Adamo, J. Jaramillo, R. Gomperts, R. E. Stratmann, 
 O. Yazyev, A. J. Austin, R. Cammi, C. Pomelli, J. W. Ochterski, 
 R. L. Martin, K. Morokuma, V. G. Zakrzewski, G. A. Voth, 
 P. Salvador, J. J. Dannenberg, S. Dapprich, A. D. Daniels, 
 O. Farkas, J. B. Foresman, J. V. Ortiz, J. Cioslowski, 
 and D. J. Fox, Gaussian, Inc., Wallingford CT, 2009.
 
 ******************************************
 Gaussian 09:  EM64L-G09RevA.02 11-Jun-2009
                10-Feb-2017 
 ******************************************
 %chk=structure_0.chk
 %NProcShared=8
 Will use up to    8 processors via shared memory.
 ----------------------------------------------------------------------
 # b3lyp/6-31G* Opt=(ModRedundant, maxcycles=1000, calcfc) geom=nocrowd
 ----------------------------------------------------------------------
 1/6=1000,10=4,14=-1,18=120,19=15,26=3,38=1/1,3;
 2/9=110,12=1,17=6,18=5,40=1/2;
 3/5=1,6=6,7=1,11=2,16=1,25=1,30=1,71=2,74=-5/1,2,3;
 4//1;
 5/5=2,38=5/2;
 8/6=4,10=90,11=11/1;
 11/6=1,8=1,9=11,15=111,16=1/1,2,10;
 10/6=1,7=6,13=1/2;
 6/7=2,8=2,9=2,10=2,28=1/1;
 7/10=1,18=20,25=1/1,2,3,16;
 1/6=1000,10=4,14=-1,18=20,19=15/3(2);
 2/9=110,12=1/2;
 99//99;
 2/9=110,12=1/2;
 3/5=1,6=6,7=1,11=2,16=1,25=1,30=1,71=1,74=-5/1,2,3;
 4/5=5,16=3/1;
 5/5=2,38=5/2;
 7//1,2,3,16;
 1/6=1000,14=-1,18=20,19=15/3(-5);
 2/9=110,12=1/2;
 6/7=2,8=2,9=2,10=2,19=2,28=1/1;
 99/9=1/99;
 ------------------
 Phi Psi fixed scan
 ------------------
 Symbolic Z-matrix:
 Charge =  0 Multiplicity = 1
 H                     2.        1.        0. 
 C                     2.        2.09      0. 
 H                     1.4863    2.4539    0.8898 
 H                     1.4863    2.4539   -0.8898 
 C                     3.4274    2.6408    0. 
 O                     4.3906    1.8774    0. 
 N                     3.5554    3.9697    0. 
 H                     2.7331    4.5562    0. 
 C                     4.8533    4.6139    0. 
 H                     5.4076    4.3155    0.8898 
 C                     5.6613    4.2208   -1.2322 
 H                     5.1233    4.5214   -2.1312 
 H                     6.6305    4.7189   -1.2058 
 H                     5.8085    3.1409   -1.2414 
 C                     4.7127    6.1294    0. 
 O                     5.7095    6.8483    0. 
 N                     3.4689    6.6144    0. 
 H                     2.6806    5.9829    0. 
 C                     3.2023    8.0386    0. 
 H                     4.1453    8.5853    0. 
 H                     2.6304    8.3018   -0.8898 
 H                     2.6304    8.3018    0.8898 
 
 The following ModRedundant input section has been read:
 D    5    7    9   15 F                                                       
 D    7    9   15   17 F                                                       

 GradGradGradGradGradGradGradGradGradGradGradGradGradGradGradGradGradGrad
 Berny optimization.
 Initialization pass.
                           ----------------------------
                           !    Initial Parameters    !
                           ! (Angstroms and Degrees)  !
 --------------------------                            --------------------------
 ! Name  Definition              Value          Derivative Info.                !
 --------------------------------------------------------------------------------
 ! R1    R(1,2)                  1.09           calculate D2E/DX2 analytically  !
 ! R2    R(2,3)                  1.09           calculate D2E/DX2 analytically  !
 ! R3    R(2,4)                  1.09           calculate D2E/DX2 analytically  !
 ! R4    R(2,5)                  1.53           calculate D2E/DX2 analytically  !
 ! R5    R(5,6)                  1.229          calculate D2E/DX2 analytically  !
 ! R6    R(5,7)                  1.3351         calculate D2E/DX2 analytically  !
 ! R7    R(7,8)                  1.01           calculate D2E/DX2 analytically  !
 ! R8    R(7,9)                  1.449          calculate D2E/DX2 analytically  !
 ! R9    R(9,10)                 1.09           calculate D2E/DX2 analytically  !
 ! R10   R(9,11)                 1.525          calculate D2E/DX2 analytically  !
 ! R11   R(9,15)                 1.522          calculate D2E/DX2 analytically  !
 ! R12   R(11,12)                1.09           calculate D2E/DX2 analytically  !
 ! R13   R(11,13)                1.09           calculate D2E/DX2 analytically  !
 ! R14   R(11,14)                1.0899         calculate D2E/DX2 analytically  !
 ! R15   R(15,16)                1.229          calculate D2E/DX2 analytically  !
 ! R16   R(15,17)                1.335          calculate D2E/DX2 analytically  !
 ! R17   R(17,18)                1.0101         calculate D2E/DX2 analytically  !
 ! R18   R(17,19)                1.4489         calculate D2E/DX2 analytically  !
 ! R19   R(19,20)                1.09           calculate D2E/DX2 analytically  !
 ! R20   R(19,21)                1.09           calculate D2E/DX2 analytically  !
 ! R21   R(19,22)                1.09           calculate D2E/DX2 analytically  !
 ! A1    A(1,2,3)              109.5032         calculate D2E/DX2 analytically  !
 ! A2    A(1,2,4)              109.5032         calculate D2E/DX2 analytically  !
 ! A3    A(1,2,5)              111.1004         calculate D2E/DX2 analytically  !
 ! A4    A(3,2,4)              109.4413         calculate D2E/DX2 analytically  !
 ! A5    A(3,2,5)              108.6329         calculate D2E/DX2 analytically  !
 ! A6    A(4,2,5)              108.6329         calculate D2E/DX2 analytically  !
 ! A7    A(2,5,6)              120.5004         calculate D2E/DX2 analytically  !
 ! A8    A(2,5,7)              116.6022         calculate D2E/DX2 analytically  !
 ! A9    A(6,5,7)              122.8974         calculate D2E/DX2 analytically  !
 ! A10   A(5,7,8)              119.9963         calculate D2E/DX2 analytically  !
 ! A11   A(5,7,9)              121.8988         calculate D2E/DX2 analytically  !
 ! A12   A(8,7,9)              118.1048         calculate D2E/DX2 analytically  !
 ! A13   A(7,9,10)             109.5            calculate D2E/DX2 analytically  !
 ! A14   A(7,9,11)             111.0992         calculate D2E/DX2 analytically  !
 ! A15   A(7,9,15)             111.0966         calculate D2E/DX2 analytically  !
 ! A16   A(10,9,11)            108.6382         calculate D2E/DX2 analytically  !
 ! A17   A(10,9,15)            108.6373         calculate D2E/DX2 analytically  !
 ! A18   A(11,9,15)            107.7947         calculate D2E/DX2 analytically  !
 ! A19   A(9,11,12)            109.5007         calculate D2E/DX2 analytically  !
 ! A20   A(9,11,13)            109.4959         calculate D2E/DX2 analytically  !
 ! A21   A(9,11,14)            109.4978         calculate D2E/DX2 analytically  !
 ! A22   A(12,11,13)           109.441          calculate D2E/DX2 analytically  !
 ! A23   A(12,11,14)           109.4482         calculate D2E/DX2 analytically  !
 ! A24   A(13,11,14)           109.4436         calculate D2E/DX2 analytically  !
 ! A25   A(9,15,16)            120.499          calculate D2E/DX2 analytically  !
 ! A26   A(9,15,17)            116.6029         calculate D2E/DX2 analytically  !
 ! A27   A(16,15,17)           122.8981         calculate D2E/DX2 analytically  !
 ! A28   A(15,17,18)           119.9996         calculate D2E/DX2 analytically  !
 ! A29   A(15,17,19)           121.9052         calculate D2E/DX2 analytically  !
 ! A30   A(18,17,19)           118.0953         calculate D2E/DX2 analytically  !
 ! A31   A(17,19,20)           109.5002         calculate D2E/DX2 analytically  !
 ! A32   A(17,19,21)           109.5048         calculate D2E/DX2 analytically  !
 ! A33   A(17,19,22)           109.5048         calculate D2E/DX2 analytically  !
 ! A34   A(20,19,21)           109.4392         calculate D2E/DX2 analytically  !
 ! A35   A(20,19,22)           109.4392         calculate D2E/DX2 analytically  !
 ! A36   A(21,19,22)           109.439          calculate D2E/DX2 analytically  !
 ! D1    D(1,2,5,6)              0.0            calculate D2E/DX2 analytically  !
 ! D2    D(1,2,5,7)            180.0            calculate D2E/DX2 analytically  !
 ! D3    D(3,2,5,6)            120.5145         calculate D2E/DX2 analytically  !
 ! D4    D(3,2,5,7)            -59.4855         calculate D2E/DX2 analytically  !
 ! D5    D(4,2,5,6)           -120.5145         calculate D2E/DX2 analytically  !
 ! D6    D(4,2,5,7)             59.4855         calculate D2E/DX2 analytically  !
 ! D7    D(2,5,7,8)              0.0            calculate D2E/DX2 analytically  !
 ! D8    D(2,5,7,9)            180.0            calculate D2E/DX2 analytically  !
 ! D9    D(6,5,7,8)            180.0            calculate D2E/DX2 analytically  !
 ! D10   D(6,5,7,9)              0.0            calculate D2E/DX2 analytically  !
 ! D11   D(5,7,9,10)           -60.0002         calculate D2E/DX2 analytically  !
 ! D12   D(5,7,9,11)            60.0024         calculate D2E/DX2 analytically  !
 ! D13   D(5,7,9,15)           180.0            frozen, calculate D2E/DX2 analyt!
 ! D14   D(8,7,9,10)           119.9998         calculate D2E/DX2 analytically  !
 ! D15   D(8,7,9,11)          -119.9976         calculate D2E/DX2 analytically  !
 ! D16   D(8,7,9,15)             0.0            calculate D2E/DX2 analytically  !
 ! D17   D(7,9,11,12)           60.0024         calculate D2E/DX2 analytically  !
 ! D18   D(7,9,11,13)          179.9986         calculate D2E/DX2 analytically  !
 ! D19   D(7,9,11,14)          -60.0038         calculate D2E/DX2 analytically  !
 ! D20   D(10,9,11,12)        -179.4843         calculate D2E/DX2 analytically  !
 ! D21   D(10,9,11,13)         -59.4881         calculate D2E/DX2 analytically  !
 ! D22   D(10,9,11,14)          60.5095         calculate D2E/DX2 analytically  !
 ! D23   D(15,9,11,12)         -61.938          calculate D2E/DX2 analytically  !
 ! D24   D(15,9,11,13)          58.0582         calculate D2E/DX2 analytically  !
 ! D25   D(15,9,11,14)         178.0558         calculate D2E/DX2 analytically  !
 ! D26   D(7,9,15,16)          180.0            calculate D2E/DX2 analytically  !
 ! D27   D(7,9,15,17)            0.0            frozen, calculate D2E/DX2 analyt!
 ! D28   D(10,9,15,16)          59.4889         calculate D2E/DX2 analytically  !
 ! D29   D(10,9,15,17)        -120.5111         calculate D2E/DX2 analytically  !
 ! D30   D(11,9,15,16)         -58.058          calculate D2E/DX2 analytically  !
 ! D31   D(11,9,15,17)         121.942          calculate D2E/DX2 analytically  !
 ! D32   D(9,15,17,18)           0.0            calculate D2E/DX2 analytically  !
 ! D33   D(9,15,17,19)         180.0            calculate D2E/DX2 analytically  !
 ! D34   D(16,15,17,18)        180.0            calculate D2E/DX2 analytically  !
 ! D35   D(16,15,17,19)          0.0            calculate D2E/DX2 analytically  !
 ! D36   D(15,17,19,20)          0.0            calculate D2E/DX2 analytically  !
 ! D37   D(15,17,19,21)        119.9991         calculate D2E/DX2 analytically  !
 ! D38   D(15,17,19,22)       -119.9991         calculate D2E/DX2 analytically  !
 ! D39   D(18,17,19,20)        180.0            calculate D2E/DX2 analytically  !
 ! D40   D(18,17,19,21)        -60.0009         calculate D2E/DX2 analytically  !
 ! D41   D(18,17,19,22)         60.0009         calculate D2E/DX2 analytically  !
 --------------------------------------------------------------------------------
 Trust Radius=3.00D-01 FncErr=1.00D-07 GrdErr=1.00D-06
 Number of steps in this run= 132 maximum allowed number of steps= 132.
 GradGradGradGradGradGradGradGradGradGradGradGradGradGradGradGradGradGrad

                          Input orientation:                          
 ---------------------------------------------------------------------
 Center     Atomic      Atomic             Coordinates (Angstroms)
 Number     Number       Type             X           Y           Z
 ---------------------------------------------------------------------
      1          1           0        2.000000    1.000000    0.000000
      2          6           0        2.000000    2.090000    0.000000
      3          1           0        1.486300    2.453900    0.889800
      4          1           0        1.486300    2.453900   -0.889800
      5          6           0        3.427400    2.640800    0.000000
      6          8           0        4.390600    1.877400    0.000000
      7          7           0        3.555400    3.969700    0.000000
      8          1           0        2.733100    4.556200    0.000000
      9          6           0        4.853300    4.613900    0.000000
     10          1           0        5.407600    4.315500    0.889800
     11          6           0        5.661300    4.220800   -1.232200
     12          1           0        5.123300    4.521400   -2.131200
     13          1           0        6.630500    4.718900   -1.205800
     14          1           0        5.808500    3.140900   -1.241400
     15          6           0        4.712700    6.129400    0.000000
     16          8           0        5.709500    6.848300    0.000000
     17          7           0        3.468900    6.614400    0.000000
     18          1           0        2.680600    5.982900    0.000000
     19          6           0        3.202300    8.038600    0.000000
     20          1           0        4.145300    8.585300    0.000000
     21          1           0        2.630400    8.301800   -0.889800
     22          1           0        2.630400    8.301800    0.889800
 ---------------------------------------------------------------------
                    Distance matrix (angstroms):
                    1          2          3          4          5
     1  H    0.000000
     2  C    1.090000   0.000000
     3  H    1.780297   1.089979   0.000000
     4  H    1.780297   1.089979   1.779600   0.000000
     5  C    2.174786   1.529984   2.143489   2.143489   0.000000
     6  O    2.546527   2.400035   3.091772   3.091772   1.229038
     7  N    3.352370   2.439783   2.714879   2.714879   1.335050
     8  H    3.630977   2.572854   2.601138   2.601138   2.037354
     9  C    4.604519   3.809382   4.098052   4.098052   2.434402
    10  H    4.836943   4.166093   4.340754   4.691388   2.741816
    11  C    5.029611   4.411773   5.005541   4.546405   3.000838
    12  H    5.166941   4.495411   5.160307   4.363874   3.309796
    13  H    6.060173   5.459542   5.998713   5.629642   4.004036
    14  H    4.541938   4.141272   4.867792   4.390559   2.731449
    15  C    5.802541   4.865747   4.970986   4.970986   3.717839
    16  O    6.925533   6.033391   6.159376   6.159376   4.786547
    17  N    5.803374   4.756875   4.693848   4.693848   3.973817
    18  H    5.029166   3.951947   3.830397   3.830397   3.424521
    19  C    7.140547   6.068885   5.909761   5.909761   5.402492
    20  H    7.882835   6.840412   6.742113   6.742113   5.987692
    21  H    7.382779   6.306791   6.218832   5.958767   5.785661
    22  H    7.382779   6.306791   5.958767   6.218832   5.785661
                    6          7          8          9         10
     6  O    0.000000
     7  N    2.252838   0.000000
     8  H    3.150123   1.010029   0.000000
     9  C    2.775342   1.448978   2.120985   0.000000
    10  H    2.787537   2.083739   2.828892   1.089970   0.000000
    11  C    2.936753   2.452791   3.194552   1.525027   2.139209
    12  H    3.474133   2.702720   3.202543   2.150225   3.041326
    13  H    3.813821   3.386959   4.082910   2.150214   2.459625
    14  H    2.268909   2.702673   3.605861   2.150165   2.466256
    15  C    4.264183   2.450234   2.528591   1.522008   2.136554
    16  O    5.142893   3.595342   3.756685   2.392827   2.701474
    17  N    4.825837   2.646114   2.185770   2.432810   3.136119
    18  H    4.447385   2.195051   1.427666   2.568032   3.317905
    19  C    6.274746   4.084192   3.513867   3.801890   4.417756
    20  H    6.712384   4.653144   4.269421   4.034016   4.540522
    21  H    6.720340   4.518236   3.851209   4.397003   5.174012
    22  H    6.720340   4.518236   3.851209   4.397003   4.858336
                   11         12         13         14         15
    11  C    0.000000
    12  H    1.089957   0.000000
    13  H    1.090023   1.779613   0.000000
    14  H    1.089925   1.779613   1.779617   0.000000
    15  C    2.461892   2.701161   2.668599   3.416575   0.000000
    16  O    2.902481   3.209378   2.614678   3.910970   1.228994
    17  N    3.471924   3.414631   3.878478   4.368066   1.335014
    18  H    3.675308   3.555950   4.318954   4.404747   2.037374
    19  C    4.705379   4.539047   4.922085   5.685140   2.434410
    20  H    4.781781   4.691885   4.751760   5.826560   2.520593
    21  H    5.094914   4.695428   5.379389   6.071147   3.137999
    22  H    5.508521   5.443566   5.764504   6.424735   3.137999
                   16         17         18         19         20
    16  O    0.000000
    17  N    2.252776   0.000000
    18  H    3.150104   1.010054   0.000000
    19  C    2.775404   1.448938   2.120866   0.000000
    20  H    2.337497   2.083738   2.986274   1.090014   0.000000
    21  H    3.519270   2.083781   2.484263   1.089994   1.779617
    22  H    3.519270   2.083781   2.484263   1.089994   1.779617
                   21         22
    21  H    0.000000
    22  H    1.779600   0.000000
 Stoichiometry    C6H12N2O2
 Framework group  C1[X(C6H12N2O2)]
 Deg. of freedom    60
 Full point group                 C1      NOp   1
 Largest Abelian subgroup         C1      NOp   1
 Largest concise Abelian subgroup C1      NOp   1
                         Standard orientation:                         
 ---------------------------------------------------------------------
 Center     Atomic      Atomic             Coordinates (Angstroms)
 Number     Number       Type             X           Y           Z
 ---------------------------------------------------------------------
      1          1           0       -4.033608   -1.351080    0.095032
      2          6           0       -2.961532   -1.542505    0.140963
      3          1           0       -2.689980   -2.275941   -0.618239
      4          1           0       -2.702660   -1.928193    1.127008
      5          6           0       -2.162195   -0.261982   -0.108379
      6          8           0       -2.739219    0.801449   -0.324464
      7          7           0       -0.832049   -0.371859   -0.076821
      8          1           0       -0.403588   -1.268273    0.104905
      9          6           0        0.035782    0.767311   -0.297501
     10          1           0       -0.151340    1.180669   -1.288538
     11          6           0       -0.213818    1.856743    0.740067
     12          1           0       -0.021656    1.460523    1.737107
     13          1           0        0.451185    2.699260    0.550104
     14          1           0       -1.249461    2.190221    0.675477
     15          6           0        1.500988    0.365498   -0.206793
     16          8           0        2.387952    1.201027   -0.366831
     17          7           0        1.753551   -0.919782    0.051139
     18          1           0        0.990176   -1.569485    0.175049
     19          6           0        3.106220   -1.427134    0.162059
     20          1           0        3.814107   -0.613273    0.005037
     21          1           0        3.255545   -1.851293    1.154973
     22          1           0        3.268224   -2.199040   -0.590274
 ---------------------------------------------------------------------
 Rotational constants (GHZ):      2.3867634      0.7652273      0.6096526
 Standard basis: 6-31G(d) (6D, 7F)
 There are   174 symmetry adapted basis functions of A   symmetry.
 Integral buffers will be    131072 words long.
 Raffenetti 2 integral format.
 Two-electron integral symmetry is turned on.
   174 basis functions,   328 primitive gaussians,   174 cartesian basis functions
    39 alpha electrons       39 beta electrons
       nuclear repulsion energy       557.4442184015 Hartrees.
 NAtoms=   22 NActive=   22 NUniq=   22 SFac= 7.50D-01 NAtFMM=   80 NAOKFM=F Big=F
 One-electron integrals computed using PRISM.
 NBasis=   174 RedAO= T  NBF=   174
 NBsUse=   174 1.00D-06 NBFU=   174
 Harris functional with IExCor=  402 diagonalized for initial guess.
 ExpMin= 1.61D-01 ExpMax= 5.48D+03 ExpMxC= 8.25D+02 IAcc=1 IRadAn=         1 AccDes= 0.00D+00
 HarFok:  IExCor=  402 AccDes= 0.00D+00 IRadAn=         1 IDoV= 1
 ScaDFX=  1.000000  1.000000  1.000000  1.000000
 FoFCou: FMM=F IPFlag=           0 FMFlag=      100000 FMFlg1=           0
         NFxFlg=           0 DoJE=T BraDBF=F KetDBF=T FulRan=T
         Omega=  0.000000  0.000000  1.000000  0.000000  0.000000 ICntrl=     500 IOpCl=  0
         NMat0=    1 NMatS0=    1 NMatT0=    0 NMatD0=    1 NMtDS0=    0 NMtDT0=    0
         I1Cent=           4 NGrid=           0.
 Petite list used in FoFCou.
 Initial guess orbital symmetries:
       Occupied  (A) (A) (A) (A) (A) (A) (A) (A) (A) (A) (A) (A)
                 (A) (A) (A) (A) (A) (A) (A) (A) (A) (A) (A) (A)
                 (A) (A) (A) (A) (A) (A) (A) (A) (A) (A) (A) (A)
                 (A) (A) (A)
       Virtual   (A) (A) (A) (A) (A) (A) (A) (A) (A) (A) (A) (A)
                 (A) (A) (A) (A) (A) (A) (A) (A) (A) (A) (A) (A)
                 (A) (A) (A) (A) (A) (A) (A) (A) (A) (A) (A) (A)
                 (A) (A) (A) (A) (A) (A) (A) (A) (A) (A) (A) (A)
                 (A) (A) (A) (A) (A) (A) (A) (A) (A) (A) (A) (A)
                 (A) (A) (A) (A) (A) (A) (A) (A) (A) (A) (A) (A)
                 (A) (A) (A) (A) (A) (A) (A) (A) (A) (A) (A) (A)
                 (A) (A) (A) (A) (A) (A) (A) (A) (A) (A) (A) (A)
                 (A) (A) (A) (A) (A) (A) (A) (A) (A) (A) (A) (A)
                 (A) (A) (A) (A) (A) (A) (A) (A) (A) (A) (A) (A)
                 (A) (A) (A) (A) (A) (A) (A) (A) (A) (A) (A) (A)
                 (A) (A) (A)
 The electronic state of the initial guess is 1-A.
 Requested convergence on RMS density matrix=1.00D-08 within 128 cycles.
 Requested convergence on MAX density matrix=1.00D-06.
 Requested convergence on             energy=1.00D-06.
 No special actions if energy rises.
 Integral accuracy reduced to 1.0D-05 until final iterations.
 EnCoef did     2 forward-backward iterations
 Initial convergence to 1.0D-05 achieved.  Increase integral accuracy.
 SCF Done:  E(RB3LYP) =  -495.824652857     A.U. after   15 cycles
             Convg  =    0.9061D-08             -V/T =  2.0086
 Range of M.O.s used for correlation:     1   174
 NBasis=   174 NAE=    39 NBE=    39 NFC=     0 NFV=     0
 NROrb=    174 NOA=    39 NOB=    39 NVA=   135 NVB=   135
 Symmetrizing basis deriv contribution to polar:
 IMax=3 JMax=2 DiffMx= 0.00D+00
 G2DrvN: will do    23 centers at a time, making    1 passes doing MaxLOS=2.
 Calling FoFCou, ICntrl=  3107 FMM=F I1Cent=   0 AccDes= 0.00D+00.
 FoFDir/FoFCou used for L=0 through L=2.
 End of G2Drv Frequency-dependent properties file   721 does not exist.
 End of G2Drv Frequency-dependent properties file   722 does not exist.
          IDoAtm=1111111111111111111111
          Differentiating once with respect to nuclear coordinates.
          There are    69 degrees of freedom in the 1st order CPHF.  IDoFFX=5.
     63 vectors produced by pass  0 Test12= 7.63D-11 1.45D-07 XBig12= 1.71D-01 9.69D-02.
 AX will form    63 AO Fock derivatives at one time.
     63 vectors produced by pass  1 Test12= 7.63D-11 1.45D-07 XBig12= 4.60D-02 5.23D-02.
     63 vectors produced by pass  2 Test12= 7.63D-11 1.45D-07 XBig12= 8.36D-05 2.27D-03.
     63 vectors produced by pass  3 Test12= 7.63D-11 1.45D-07 XBig12= 1.85D-07 7.39D-05.
     28 vectors produced by pass  4 Test12= 7.63D-11 1.45D-07 XBig12= 1.49D-10 1.90D-06.
 Inverted reduced A of dimension   280 with in-core refinement.
 End of Minotr Frequency-dependent properties file   721 does not exist.
 End of Minotr Frequency-dependent properties file   722 does not exist.

 **********************************************************************

            Population analysis using the SCF density.

 **********************************************************************

 Orbital symmetries:
       Occupied  (A) (A) (A) (A) (A) (A) (A) (A) (A) (A) (A) (A)
                 (A) (A) (A) (A) (A) (A) (A) (A) (A) (A) (A) (A)
                 (A) (A) (A) (A) (A) (A) (A) (A) (A) (A) (A) (A)
                 (A) (A) (A)
       Virtual   (A) (A) (A) (A) (A) (A) (A) (A) (A) (A) (A) (A)
                 (A) (A) (A) (A) (A) (A) (A) (A) (A) (A) (A) (A)
                 (A) (A) (A) (A) (A) (A) (A) (A) (A) (A) (A) (A)
                 (A) (A) (A) (A) (A) (A) (A) (A) (A) (A) (A) (A)
                 (A) (A) (A) (A) (A) (A) (A) (A) (A) (A) (A) (A)
                 (A) (A) (A) (A) (A) (A) (A) (A) (A) (A) (A) (A)
                 (A) (A) (A) (A) (A) (A) (A) (A) (A) (A) (A) (A)
                 (A) (A) (A) (A) (A) (A) (A) (A) (A) (A) (A) (A)
                 (A) (A) (A) (A) (A) (A) (A) (A) (A) (A) (A) (A)
                 (A) (A) (A) (A) (A) (A) (A) (A) (A) (A) (A) (A)
                 (A) (A) (A) (A) (A) (A) (A) (A) (A) (A) (A) (A)
                 (A) (A) (A)
 The electronic state is 1-A.
 Alpha  occ. eigenvalues --  -19.11017 -19.10862 -14.37985 -14.37276 -10.29012
 Alpha  occ. eigenvalues --  -10.28905 -10.23558 -10.22798 -10.19572 -10.16688
 Alpha  occ. eigenvalues --   -1.04191  -1.03195  -0.95186  -0.92721  -0.78750
 Alpha  occ. eigenvalues --   -0.73236  -0.72577  -0.64652  -0.62700  -0.58429
 Alpha  occ. eigenvalues --   -0.54943  -0.49685  -0.47784  -0.46830  -0.46141
 Alpha  occ. eigenvalues --   -0.45120  -0.42692  -0.41455  -0.40902  -0.40102
 Alpha  occ. eigenvalues --   -0.39469  -0.38478  -0.36902  -0.35727  -0.34506
 Alpha  occ. eigenvalues --   -0.27023  -0.25653  -0.25364  -0.24336
 Alpha virt. eigenvalues --    0.02233   0.02252   0.03267   0.10254   0.11465
 Alpha virt. eigenvalues --    0.13181   0.14237   0.15155   0.15591   0.16031
 Alpha virt. eigenvalues --    0.16505   0.17170   0.18649   0.19671   0.20680
 Alpha virt. eigenvalues --    0.21978   0.24645   0.26297   0.27625   0.31678
 Alpha virt. eigenvalues --    0.36259   0.41134   0.44294   0.49604   0.50820
 Alpha virt. eigenvalues --    0.51374   0.52511   0.53854   0.55548   0.56602
 Alpha virt. eigenvalues --    0.57160   0.57886   0.61833   0.62601   0.65920
 Alpha virt. eigenvalues --    0.66676   0.68502   0.70169   0.73346   0.73919
 Alpha virt. eigenvalues --    0.74618   0.75292   0.78089   0.80147   0.82575
 Alpha virt. eigenvalues --    0.84360   0.85776   0.86421   0.87702   0.88513
 Alpha virt. eigenvalues --    0.89236   0.89621   0.90955   0.93517   0.94191
 Alpha virt. eigenvalues --    0.94368   0.97438   0.98145   1.00384   1.05257
 Alpha virt. eigenvalues --    1.05880   1.08062   1.09620   1.12437   1.16590
 Alpha virt. eigenvalues --    1.20084   1.23768   1.29016   1.31805   1.35162
 Alpha virt. eigenvalues --    1.36278   1.38080   1.41833   1.45731   1.46893
 Alpha virt. eigenvalues --    1.48935   1.53354   1.59703   1.65552   1.72433
 Alpha virt. eigenvalues --    1.74533   1.78406   1.79401   1.81507   1.82165
 Alpha virt. eigenvalues --    1.82786   1.83108   1.84801   1.88897   1.91524
 Alpha virt. eigenvalues --    1.93235   1.94697   1.98571   2.00844   2.03508
 Alpha virt. eigenvalues --    2.04832   2.05690   2.10649   2.14610   2.17306
 Alpha virt. eigenvalues --    2.19855   2.23818   2.26331   2.28931   2.29954
 Alpha virt. eigenvalues --    2.30780   2.32095   2.35706   2.38034   2.41695
 Alpha virt. eigenvalues --    2.43333   2.48724   2.51293   2.53063   2.65666
 Alpha virt. eigenvalues --    2.65736   2.70552   2.73833   2.76406   2.85476
 Alpha virt. eigenvalues --    2.93521   2.96309   3.02789   3.14474   3.22706
 Alpha virt. eigenvalues --    3.94750   4.02995   4.04658   4.15993   4.19875
 Alpha virt. eigenvalues --    4.20958   4.25984   4.38065   4.48109   4.71752
          Condensed to atoms (all electrons):
              1          2          3          4          5          6
     1  H    0.493696   0.361757  -0.020817  -0.020668  -0.017558   0.005040
     2  C    0.361757   5.337586   0.349480   0.350068   0.357606  -0.079040
     3  H   -0.020817   0.349480   0.555978  -0.028135  -0.025677   0.001428
     4  H   -0.020668   0.350068  -0.028135   0.556812  -0.027217   0.001248
     5  C   -0.017558   0.357606  -0.025677  -0.027217   4.327023   0.602189
     6  O    0.005040  -0.079040   0.001428   0.001248   0.602189   8.060257
     7  N    0.004650  -0.141219   0.004237   0.004689   0.216526  -0.107568
     8  H   -0.000207   0.000517   0.001807   0.001414  -0.016435   0.003428
     9  C   -0.000113   0.006356  -0.000285  -0.000017  -0.015626   0.013743
    10  H    0.000001   0.000138  -0.000019  -0.000002  -0.001534   0.004372
    11  C    0.000014  -0.000761   0.000017   0.000036  -0.007501  -0.017428
    12  H    0.000000   0.000004  -0.000001   0.000002   0.000763  -0.000126
    13  H    0.000000   0.000007   0.000000  -0.000001   0.000286   0.000292
    14  H    0.000001   0.000539  -0.000008  -0.000047   0.003407   0.019828
    15  C    0.000000   0.000012  -0.000013  -0.000009   0.005333   0.000843
    16  O    0.000000   0.000000   0.000000   0.000000  -0.000049   0.000000
    17  N    0.000000  -0.000049   0.000004   0.000004   0.000438  -0.000011
    18  H    0.000000  -0.000069  -0.000077  -0.000066   0.001236   0.000026
    19  C    0.000000   0.000000   0.000000   0.000000   0.000008   0.000000
    20  H    0.000000   0.000000   0.000000   0.000000   0.000001   0.000000
    21  H    0.000000   0.000000   0.000000   0.000000   0.000000   0.000000
    22  H    0.000000   0.000000   0.000000   0.000000   0.000000   0.000000
              7          8          9         10         11         12
     1  H    0.004650  -0.000207  -0.000113   0.000001   0.000014   0.000000
     2  C   -0.141219   0.000517   0.006356   0.000138  -0.000761   0.000004
     3  H    0.004237   0.001807  -0.000285  -0.000019   0.000017  -0.000001
     4  H    0.004689   0.001414  -0.000017  -0.000002   0.000036   0.000002
     5  C    0.216526  -0.016435  -0.015626  -0.001534  -0.007501   0.000763
     6  O   -0.107568   0.003428   0.013743   0.004372  -0.017428  -0.000126
     7  N    7.322913   0.282167   0.167204  -0.052791  -0.056164  -0.000164
     8  H    0.282167   0.437591  -0.045691   0.004221   0.005131   0.000651
     9  C    0.167204  -0.045691   5.127493   0.380599   0.359808  -0.037610
    10  H   -0.052791   0.004221   0.380599   0.547416  -0.043568   0.005980
    11  C   -0.056164   0.005131   0.359808  -0.043568   5.163960   0.365601
    12  H   -0.000164   0.000651  -0.037610   0.005980   0.365601   0.587410
    13  H    0.004913  -0.000149  -0.032856  -0.000210   0.361897  -0.023861
    14  H   -0.008915  -0.000253  -0.026240  -0.005160   0.364944  -0.027947
    15  C   -0.020202  -0.010350   0.313757  -0.030875  -0.035368  -0.006019
    16  O    0.002540   0.000023  -0.078583  -0.000046  -0.003534  -0.000324
    17  N   -0.003965   0.003986  -0.120785   0.001568  -0.001413   0.001650
    18  H   -0.004960   0.021260  -0.001687  -0.000005   0.000139  -0.000023
    19  C    0.000342  -0.000702   0.006654  -0.000124  -0.000165  -0.000068
    20  H   -0.000060  -0.000006   0.001165  -0.000021  -0.000020  -0.000008
    21  H    0.000002   0.000011  -0.000200  -0.000004   0.000034  -0.000007
    22  H   -0.000006  -0.000008  -0.000120   0.000021  -0.000006   0.000002
             13         14         15         16         17         18
     1  H    0.000000   0.000001   0.000000   0.000000   0.000000   0.000000
     2  C    0.000007   0.000539   0.000012   0.000000  -0.000049  -0.000069
     3  H    0.000000  -0.000008  -0.000013   0.000000   0.000004  -0.000077
     4  H   -0.000001  -0.000047  -0.000009   0.000000   0.000004  -0.000066
     5  C    0.000286   0.003407   0.005333  -0.000049   0.000438   0.001236
     6  O    0.000292   0.019828   0.000843   0.000000  -0.000011   0.000026
     7  N    0.004913  -0.008915  -0.020202   0.002540  -0.003965  -0.004960
     8  H   -0.000149  -0.000253  -0.010350   0.000023   0.003986   0.021260
     9  C   -0.032856  -0.026240   0.313757  -0.078583  -0.120785  -0.001687
    10  H   -0.000210  -0.005160  -0.030875  -0.000046   0.001568  -0.000005
    11  C    0.361897   0.364944  -0.035368  -0.003534  -0.001413   0.000139
    12  H   -0.023861  -0.027947  -0.006019  -0.000324   0.001650  -0.000023
    13  H    0.528804  -0.021708  -0.002666   0.009885   0.000584  -0.000052
    14  H   -0.021708   0.497432   0.004769   0.000207  -0.000089  -0.000014
    15  C   -0.002666   0.004769   4.346016   0.575537   0.291752  -0.018110
    16  O    0.009885   0.000207   0.575537   8.103528  -0.095272   0.004031
    17  N    0.000584  -0.000089   0.291752  -0.095272   7.107689   0.281228
    18  H   -0.000052  -0.000014  -0.018110   0.004031   0.281228   0.430208
    19  C   -0.000002   0.000004  -0.025855  -0.008709   0.256964  -0.027654
    20  H   -0.000012   0.000000   0.000045   0.021912  -0.037424   0.003671
    21  H    0.000000   0.000000   0.001521   0.000585  -0.043459  -0.000577
    22  H    0.000000   0.000000   0.001188   0.000547  -0.043482  -0.000621
             19         20         21         22
     1  H    0.000000   0.000000   0.000000   0.000000
     2  C    0.000000   0.000000   0.000000   0.000000
     3  H    0.000000   0.000000   0.000000   0.000000
     4  H    0.000000   0.000000   0.000000   0.000000
     5  C    0.000008   0.000001   0.000000   0.000000
     6  O    0.000000   0.000000   0.000000   0.000000
     7  N    0.000342  -0.000060   0.000002  -0.000006
     8  H   -0.000702  -0.000006   0.000011  -0.000008
     9  C    0.006654   0.001165  -0.000200  -0.000120
    10  H   -0.000124  -0.000021  -0.000004   0.000021
    11  C   -0.000165  -0.000020   0.000034  -0.000006
    12  H   -0.000068  -0.000008  -0.000007   0.000002
    13  H   -0.000002  -0.000012   0.000000   0.000000
    14  H    0.000004   0.000000   0.000000   0.000000
    15  C   -0.025855   0.000045   0.001521   0.001188
    16  O   -0.008709   0.021912   0.000585   0.000547
    17  N    0.256964  -0.037424  -0.043459  -0.043482
    18  H   -0.027654   0.003671  -0.000577  -0.000621
    19  C    4.970959   0.376647   0.382849   0.383751
    20  H    0.376647   0.464440  -0.023566  -0.023421
    21  H    0.382849  -0.023566   0.559593  -0.038086
    22  H    0.383751  -0.023421  -0.038086   0.558465
 Mulliken atomic charges:
              1
     1  H    0.194207
     2  C   -0.542933
     3  H    0.162081
     4  H    0.161889
     5  C    0.596778
     6  O   -0.508519
     7  N   -0.614169
     8  H    0.311595
     9  C   -0.016965
    10  H    0.190043
    11  C   -0.455652
    12  H    0.134096
    13  H    0.174848
    14  H    0.199246
    15  C    0.608693
    16  O   -0.532279
    17  N   -0.599916
    18  H    0.312118
    19  C   -0.314899
    20  H    0.216655
    21  H    0.161306
    22  H    0.161778
 Sum of Mulliken atomic charges =   0.00000
 Mulliken charges with hydrogens summed into heavy atoms:
              1
     2  C   -0.024756
     5  C    0.596778
     6  O   -0.508519
     7  N   -0.302573
     9  C    0.173077
    11  C    0.052538
    15  C    0.608693
    16  O   -0.532279
    17  N   -0.287799
    19  C    0.224840
 Sum of Mulliken charges with hydrogens summed into heavy atoms =   0.00000
 APT atomic charges:
              1
     1  H    0.751558
     2  C   -1.206928
     3  H    0.348576
     4  H    0.317069
     5  C   -0.170202
     6  O   -0.005778
     7  N   -0.557796
     8  H    0.424541
     9  C   -0.418859
    10  H    0.446705
    11  C   -1.200168
    12  H    0.306457
    13  H    0.504511
    14  H    0.457357
    15  C   -0.300076
    16  O    0.090984
    17  N   -0.300890
    18  H    0.350345
    19  C   -1.425017
    20  H    0.567241
    21  H    0.493837
    22  H    0.526531
 Sum of APT charges=   0.00000
 APT Atomic charges with hydrogens summed into heavy atoms:
              1
     1  H    0.000000
     2  C    0.210276
     3  H    0.000000
     4  H    0.000000
     5  C   -0.170202
     6  O   -0.005778
     7  N   -0.133255
     8  H    0.000000
     9  C    0.027846
    10  H    0.000000
    11  C    0.068158
    12  H    0.000000
    13  H    0.000000
    14  H    0.000000
    15  C   -0.300076
    16  O    0.090984
    17  N    0.049455
    18  H    0.000000
    19  C    0.162593
    20  H    0.000000
    21  H    0.000000
    22  H    0.000000
 Sum of APT charges=   0.00000
 Electronic spatial extent (au):  <R**2>=           1866.2345
 Charge=              0.0000 electrons
 Dipole moment (field-independent basis, Debye):
    X=              0.7331    Y=             -5.6099    Z=              1.1534  Tot=              5.7740
 Quadrupole moment (field-independent basis, Debye-Ang):
   XX=            -69.2247   YY=            -57.6910   ZZ=            -59.8648
   XY=             -1.5603   XZ=              0.0486   YZ=              0.4591
 Traceless Quadrupole moment (field-independent basis, Debye-Ang):
   XX=             -6.9645   YY=              4.5692   ZZ=              2.3954
   XY=             -1.5603   XZ=              0.0486   YZ=              0.4591
 Octapole moment (field-independent basis, Debye-Ang**2):
  XXX=             17.1831  YYY=             -7.0287  ZZZ=             -2.5542  XYY=             -0.4098
  XXY=            -40.0758  XXZ=              9.2732  XZZ=              0.0801  YZZ=              0.0630
  YYZ=              1.0579  XYZ=             -0.1844
 Hexadecapole moment (field-independent basis, Debye-Ang**3):
 XXXX=          -1679.8772 YYYY=           -574.7997 ZZZZ=           -121.5523 XXXY=             -3.4674
 XXXZ=             -2.7897 YYYX=            -17.4945 YYYZ=             -0.6251 ZZZX=              1.4870
 ZZZY=             -6.4795 XXYY=           -389.6287 XXZZ=           -300.7980 YYZZ=           -116.9939
 XXYZ=              9.3369 YYXZ=              3.0709 ZZXY=             -1.3627
 N-N= 5.574442184015D+02 E-N=-2.270768794323D+03  KE= 4.915813581658D+02
  Exact polarizability:   0.000   0.000   0.000   0.000   0.000   0.000
 Approx polarizability: 122.058  -3.490 130.934   1.009  -9.764  81.714
 Calling FoFJK, ICntrl=    100147 FMM=F ISym2X=0 I1Cent= 0 IOpClX= 0 NMat=1 NMatS=1 NMatT=0.
 ***** Axes restored to original set *****
 -------------------------------------------------------------------
 Center     Atomic                   Forces (Hartrees/Bohr)
 Number     Number              X              Y              Z
 -------------------------------------------------------------------
      1        1           0.003557449    0.000907198   -0.000011624
      2        6           0.005572596    0.009019913   -0.000070542
      3        1          -0.006333328    0.000258475    0.001994389
      4        1          -0.006344210    0.000295192   -0.002033910
      5        6          -0.003843712   -0.044216331    0.000742580
      6        8           0.000605389    0.002102349    0.002912804
      7        7          -0.004453362    0.016810126    0.001781632
      8        1           0.000242690   -0.018130163    0.000383722
      9        6           0.003005427    0.003568978   -0.008349984
     10        1           0.001010135    0.000415630    0.004715137
     11        6           0.007224226   -0.004107870   -0.002580406
     12        1          -0.000288990    0.000930080   -0.004398203
     13        1           0.000775762    0.002122805   -0.000823972
     14        1           0.000156246    0.000572389   -0.000904619
     15        6           0.026280317   -0.002508214    0.007538842
     16        8          -0.000775894   -0.002830439   -0.000255346
     17        7          -0.018871434    0.013694978   -0.000494652
     18        1           0.001071327    0.016484373    0.000155014
     19        6          -0.005131393    0.000391454   -0.000318497
     20        1           0.001144654   -0.003553293    0.000000853
     21        1          -0.002303267    0.003963910   -0.002421296
     22        1          -0.002300628    0.003808462    0.002438078
 -------------------------------------------------------------------
 Cartesian Forces:  Max     0.044216331 RMS     0.008459376

 GradGradGradGradGradGradGradGradGradGradGradGradGradGradGradGradGradGrad
 Berny optimization.
 Internal  Forces:  Max     0.050533429 RMS     0.011065279
 Search for a local minimum.
 Step number   1 out of a maximum of  132
 All quantities printed in internal units (Hartrees-Bohrs-Radians)
 Mixed Optimization -- RFO/linear search
 Second derivative matrix not updated -- analytic derivatives used.
     Eigenvalues ---   -0.02231  -0.00127  -0.00071   0.00016   0.00308
     Eigenvalues ---    0.01396   0.01765   0.02700   0.03788   0.03969
     Eigenvalues ---    0.04774   0.04959   0.05468   0.05831   0.05988
     Eigenvalues ---    0.06121   0.06394   0.06591   0.10150   0.12433
     Eigenvalues ---    0.12880   0.13060   0.13215   0.13243   0.13448
     Eigenvalues ---    0.14276   0.15595   0.17028   0.17721   0.18597
     Eigenvalues ---    0.19948   0.21588   0.22254   0.23385   0.23668
     Eigenvalues ---    0.26614   0.28890   0.30931   0.33623   0.34525
     Eigenvalues ---    0.34607   0.34894   0.35052   0.35137   0.35429
     Eigenvalues ---    0.35684   0.35870   0.35913   0.36192   0.39384
     Eigenvalues ---    0.41407   0.44584   0.46343   0.52848   0.55117
     Eigenvalues ---    0.82278   0.82629   0.969291000.000001000.00000
     Eigenvalues --- 1000.000001000.000001000.000001000.000001000.00000
     Eigenvalues --- 1000.000001000.000001000.000001000.000001000.00000
     Eigenvalues --- 1000.000001000.000001000.000001000.000001000.00000
     Eigenvalues --- 1000.000001000.000001000.000001000.000001000.00000
     Eigenvalues --- 1000.000001000.000001000.000001000.000001000.00000
     Eigenvalues --- 1000.000001000.000001000.000001000.000001000.00000
     Eigenvalues --- 1000.000001000.000001000.000001000.000001000.00000
     Eigenvalues --- 1000.000001000.000001000.00000
 RFO step:  Lambda=-2.24174191D-02 EMin=-2.23121156D-02
 Linear search not attempted -- first point.
 Maximum step size (   0.300) exceeded in Quadratic search.
    -- Step size scaled by   0.313
 Iteration  1 RMS(Cart)=  0.04997851 RMS(Int)=  0.00159766
 Iteration  2 RMS(Cart)=  0.00247469 RMS(Int)=  0.00050556
 Iteration  3 RMS(Cart)=  0.00000351 RMS(Int)=  0.00050556
 Iteration  4 RMS(Cart)=  0.00000000 RMS(Int)=  0.00050556
 Iteration  1 RMS(Cart)=  0.00004292 RMS(Int)=  0.00001837
 Iteration  2 RMS(Cart)=  0.00002660 RMS(Int)=  0.00002035
 Iteration  3 RMS(Cart)=  0.00001693 RMS(Int)=  0.00002326
 Iteration  4 RMS(Cart)=  0.00001101 RMS(Int)=  0.00002560
 Iteration  5 RMS(Cart)=  0.00000726 RMS(Int)=  0.00002727
 Iteration  6 RMS(Cart)=  0.00000484 RMS(Int)=  0.00002843
 Iteration  7 RMS(Cart)=  0.00000324 RMS(Int)=  0.00002921
 Iteration  8 RMS(Cart)=  0.00000218 RMS(Int)=  0.00002975
 Iteration  9 RMS(Cart)=  0.00000147 RMS(Int)=  0.00003011
 Iteration 10 RMS(Cart)=  0.00000100 RMS(Int)=  0.00003035
 Variable       Old X    -DE/DX   Delta X   Delta X   Delta X     New X
                                 (Linear)    (Quad)   (Total)
    R1        2.05980  -0.00091   0.00000   0.00005   0.00005   2.05986
    R2        2.05976   0.00470   0.00000   0.00350   0.00350   2.06326
    R3        2.05976   0.00475   0.00000   0.00382   0.00382   2.06358
    R4        2.89125  -0.00046   0.00000  -0.00280  -0.00280   2.88845
    R5        2.32254  -0.00083   0.00000  -0.00279  -0.00279   2.31976
    R6        2.52288   0.03214   0.00000   0.01819   0.01819   2.54107
    R7        1.90868  -0.01073   0.00000  -0.00136  -0.00136   1.90732
    R8        2.73817   0.02450   0.00000   0.01091   0.01091   2.74909
    R9        2.05975   0.00425   0.00000   0.00280   0.00280   2.06255
   R10        2.88188   0.01132   0.00000   0.00813   0.00813   2.89001
   R11        2.87618   0.02941   0.00000   0.00860   0.00860   2.88478
   R12        2.05972   0.00402   0.00000   0.00347   0.00347   2.06319
   R13        2.05984   0.00164   0.00000   0.00108   0.00108   2.06093
   R14        2.05966  -0.00054   0.00000   0.00055   0.00055   2.06021
   R15        2.32246  -0.00229   0.00000  -0.00237  -0.00237   2.32009
   R16        2.52281   0.03723   0.00000   0.01699   0.01699   2.53980
   R17        1.90873  -0.01114   0.00000  -0.00181  -0.00181   1.90692
   R18        2.73810   0.00611   0.00000   0.00336   0.00336   2.74146
   R19        2.05983  -0.00079   0.00000  -0.00002  -0.00002   2.05981
   R20        2.05979   0.00414   0.00000   0.00361   0.00361   2.06341
   R21        2.05979   0.00412   0.00000   0.00312   0.00312   2.06291
    A1        1.91119  -0.00036   0.00000  -0.00072  -0.00068   1.91051
    A2        1.91119  -0.00035   0.00000  -0.00306  -0.00303   1.90816
    A3        1.93907  -0.00769   0.00000  -0.01245  -0.01242   1.92665
    A4        1.91011  -0.00506   0.00000  -0.00735  -0.00744   1.90267
    A5        1.89600   0.00678   0.00000   0.01412   0.01409   1.91009
    A6        1.89600   0.00673   0.00000   0.00960   0.00957   1.90557
    A7        2.10313   0.00705   0.00000   0.01168   0.01167   2.11480
    A8        2.03509  -0.00940   0.00000  -0.00904  -0.00904   2.02605
    A9        2.14496   0.00235   0.00000  -0.00264  -0.00265   2.14231
   A10        2.09433  -0.01634   0.00000  -0.01224  -0.01494   2.07939
   A11        2.12754   0.00478   0.00000   0.00347   0.00069   2.12823
   A12        2.06132   0.01156   0.00000   0.00877   0.00590   2.06722
   A13        1.91114  -0.00897   0.00000  -0.00943  -0.00936   1.90178
   A14        1.93905  -0.00734   0.00000   0.00366   0.00352   1.94256
   A15        1.93900   0.03218   0.00000   0.01475   0.01468   1.95368
   A16        1.89609   0.00738   0.00000   0.00179   0.00180   1.89790
   A17        1.89608  -0.00881   0.00000  -0.01550  -0.01553   1.88055
   A18        1.88137  -0.01492   0.00000   0.00427   0.00426   1.88564
   A19        1.91115   0.00246   0.00000   0.00428   0.00428   1.91543
   A20        1.91106  -0.00080   0.00000   0.00008   0.00008   1.91115
   A21        1.91110   0.00122   0.00000  -0.00022  -0.00022   1.91088
   A22        1.91011  -0.00163   0.00000  -0.00411  -0.00411   1.90600
   A23        1.91023  -0.00138   0.00000  -0.00084  -0.00084   1.90939
   A24        1.91015   0.00013   0.00000   0.00079   0.00079   1.91095
   A25        2.10310  -0.02740   0.00000  -0.00822  -0.00824   2.09486
   A26        2.03511   0.05053   0.00000   0.01147   0.01146   2.04656
   A27        2.14498  -0.02313   0.00000  -0.00325  -0.00327   2.14171
   A28        2.09439   0.01312   0.00000   0.00419   0.00417   2.09856
   A29        2.12765  -0.00297   0.00000   0.00106   0.00104   2.12869
   A30        2.06115  -0.01016   0.00000  -0.00524  -0.00525   2.05590
   A31        1.91114  -0.00728   0.00000  -0.01130  -0.01128   1.89986
   A32        1.91122   0.00503   0.00000   0.00750   0.00748   1.91870
   A33        1.91122   0.00475   0.00000   0.00725   0.00723   1.91845
   A34        1.91007   0.00019   0.00000  -0.00046  -0.00044   1.90963
   A35        1.91007   0.00027   0.00000  -0.00046  -0.00044   1.90963
   A36        1.91007  -0.00297   0.00000  -0.00254  -0.00258   1.90749
    D1        0.00000  -0.00055   0.00000   0.03162   0.03161   0.03161
    D2        3.14159   0.00051   0.00000   0.03752   0.03754  -3.10405
    D3        2.10337  -0.00136   0.00000   0.03215   0.03209   2.13546
    D4       -1.03822  -0.00030   0.00000   0.03805   0.03801  -1.00021
    D5       -2.10337   0.00029   0.00000   0.03690   0.03693  -2.06644
    D6        1.03822   0.00135   0.00000   0.04280   0.04286   1.08108
    D7        0.00000   0.00179   0.00000  -0.07244  -0.07181  -0.07181
    D8        3.14159   0.00015   0.00000   0.06949   0.06889  -3.07271
    D9        3.14159   0.00287   0.00000  -0.06638  -0.06578   3.07581
   D10        0.00000   0.00124   0.00000   0.07555   0.07492   0.07492
   D11       -1.04720   0.00458   0.00000  -0.01610  -0.01623  -1.06344
   D12        1.04724   0.00329   0.00000  -0.01769  -0.01786   1.02938
   D13        3.14159   0.00105   0.00000   0.00000   0.00000   3.14159
   D14        2.09439   0.00298   0.00000   0.12325   0.12352   2.21791
   D15       -2.09435   0.00169   0.00000   0.12165   0.12189  -1.97247
   D16        0.00000  -0.00056   0.00000   0.13935   0.13975   0.13975
   D17        1.04724   0.01245   0.00000   0.01174   0.01174   1.05898
   D18        3.14157   0.01147   0.00000   0.00938   0.00938  -3.13223
   D19       -1.04726   0.01189   0.00000   0.01027   0.01027  -1.03699
   D20       -3.13259   0.00158   0.00000   0.00349   0.00350  -3.12909
   D21       -1.03826   0.00060   0.00000   0.00113   0.00114  -1.03712
   D22        1.05609   0.00102   0.00000   0.00202   0.00203   1.05812
   D23       -1.08102  -0.01306   0.00000  -0.01158  -0.01160  -1.09262
   D24        1.01331  -0.01404   0.00000  -0.01394  -0.01396   0.99935
   D25        3.10766  -0.01362   0.00000  -0.01305  -0.01307   3.09459
   D26        3.14159   0.00080   0.00000   0.01104   0.01098  -3.13061
   D27        0.00000   0.00030   0.00000   0.00000   0.00000   0.00000
   D28        1.03828  -0.00231   0.00000   0.02360   0.02364   1.06192
   D29       -2.10332  -0.00282   0.00000   0.01257   0.01266  -2.09065
   D30       -1.01330   0.00186   0.00000   0.02749   0.02753  -0.98577
   D31        2.12829   0.00136   0.00000   0.01645   0.01655   2.14484
   D32        0.00000   0.00041   0.00000   0.04034   0.04034   0.04034
   D33        3.14159   0.00046   0.00000   0.03110   0.03107  -3.11052
   D34        3.14159  -0.00010   0.00000   0.02901   0.02904  -3.11256
   D35        0.00000  -0.00005   0.00000   0.01977   0.01977   0.01977
   D36        0.00000  -0.00006   0.00000  -0.01366  -0.01367  -0.01367
   D37        2.09438  -0.00120   0.00000  -0.01656  -0.01659   2.07779
   D38       -2.09438   0.00116   0.00000  -0.01062  -0.01061  -2.10499
   D39        3.14159  -0.00001   0.00000  -0.02273  -0.02272   3.11887
   D40       -1.04721  -0.00115   0.00000  -0.02562  -0.02564  -1.07285
   D41        1.04721   0.00121   0.00000  -0.01969  -0.01965   1.02756
         Item               Value     Threshold  Converged?
 Maximum Force            0.050533     0.000450     NO 
 RMS     Force            0.011178     0.000300     NO 
 Maximum Displacement     0.176971     0.001800     NO 
 RMS     Displacement     0.050546     0.001200     NO 
 Predicted change in Energy=-5.480240D-03
 GradGradGradGradGradGradGradGradGradGradGradGradGradGradGradGradGradGrad

                          Input orientation:                          
 ---------------------------------------------------------------------
 Center     Atomic      Atomic             Coordinates (Angstroms)
 Number     Number       Type             X           Y           Z
 ---------------------------------------------------------------------
      1          1           0        2.024074    0.973167    0.019909
      2          6           0        2.010718    2.062228   -0.024030
      3          1           0        1.434553    2.453232    0.816945
      4          1           0        1.539966    2.380604   -0.956495
      5          6           0        3.434577    2.615016    0.033995
      6          8           0        4.405492    1.865592    0.084951
      7          7           0        3.549175    3.954799    0.032732
      8          1           0        2.718451    4.519037   -0.068490
      9          6           0        4.844374    4.616372   -0.000266
     10          1           0        5.411723    4.329846    0.887028
     11          6           0        5.640886    4.216617   -1.243089
     12          1           0        5.093188    4.507643   -2.141610
     13          1           0        6.607972    4.720648   -1.233400
     14          1           0        5.793351    3.137117   -1.245646
     15          6           0        4.708444    6.136858    0.005248
     16          8           0        5.711748    6.843508   -0.031737
     17          7           0        3.464044    6.643526    0.038423
     18          1           0        2.666138    6.028242    0.093649
     19          6           0        3.215578    8.072494    0.008510
     20          1           0        4.171217    8.595496   -0.027946
     21          1           0        2.627195    8.329633   -0.874636
     22          1           0        2.670837    8.374125    0.905152
 ---------------------------------------------------------------------
                    Distance matrix (angstroms):
                    1          2          3          4          5
     1  H    0.000000
     2  C    1.090029   0.000000
     3  H    1.781402   1.091829   0.000000
     4  H    1.780058   1.091999   1.778055   0.000000
     5  C    2.164575   1.528501   2.153899   2.150714   0.000000
     6  O    2.543974   2.405304   3.115705   3.092101   1.227563
     7  N    3.349063   2.439650   2.709487   2.737441   1.344675
     8  H    3.614300   2.557102   2.588425   2.598130   2.036819
     9  C    4.607325   3.814947   4.119939   4.102700   2.448291
    10  H    4.847201   4.187953   4.398235   4.710480   2.752710
    11  C    5.019607   4.393815   5.004649   4.502291   3.010626
    12  H    5.155982   4.468313   5.134128   4.307457   3.326603
    13  H    6.051984   5.446514   6.009106   5.589022   4.013778
    14  H    4.526782   4.117771   4.870432   4.329804   2.733841
    15  C    5.819773   4.886839   4.994629   5.007360   3.745255
    16  O    6.932713   6.046348   6.187826   6.178710   4.803121
    17  N    5.850369   4.806698   4.720540   4.781678   4.028619
    18  H    5.096221   4.021528   3.849761   3.959335   3.499166
    19  C    7.198629   6.129931   5.949936   6.011367   5.461930
    20  H    7.919117   6.881232   6.777211   6.812531   6.025995
    21  H    7.435156   6.354835   6.230243   6.048117   5.842458
    22  H    7.481720   6.413983   6.049228   6.377060   5.874483
                    6          7          8          9         10
     6  O    0.000000
     7  N    2.258494   0.000000
     8  H    3.148082   1.009312   0.000000
     9  C    2.786875   1.454754   2.129243   0.000000
    10  H    2.779996   2.083163   2.864004   1.091454   0.000000
    11  C    2.969378   2.464046   3.164137   1.529327   2.145398
    12  H    3.522916   2.723486   3.152353   2.158491   3.050528
    13  H    3.839311   3.397919   4.065223   2.154477   2.465756
    14  H    2.305085   2.709092   3.570771   2.154001   2.473164
    15  C    4.282739   2.471041   2.565707   1.526560   2.130124
    16  O    5.147774   3.609089   3.790032   2.390285   2.693073
    17  N    4.870025   2.690080   2.254061   2.452787   3.141129
    18  H    4.511440   2.254469   1.518791   2.597482   3.324490
    19  C    6.320394   4.131258   3.588889   3.820712   4.427444
    20  H    6.734927   4.682594   4.327781   4.035757   4.535615
    21  H    6.772516   4.562075   3.896003   4.412336   5.182214
    22  H    6.785482   4.589448   3.976424   4.434496   4.885588
                   11         12         13         14         15
    11  C    0.000000
    12  H    1.091792   0.000000
    13  H    1.090595   1.778985   0.000000
    14  H    1.090216   1.780820   1.780822   0.000000
    15  C    2.472877   2.722383   2.673595   3.426398   0.000000
    16  O    2.893606   3.207873   2.598798   3.900970   1.227738
    17  N    3.502970   3.459574   3.898625   4.401068   1.344003
    18  H    3.730681   3.633067   4.359922   4.464502   2.047102
    19  C    4.724024   4.566903   4.928038   5.707518   2.444452
    20  H    4.776095   4.693416   4.733429   5.823059   2.516866
    21  H    5.112239   4.721647   5.385171   6.092980   3.148658
    22  H    5.542653   5.486368   5.781205   6.465468   3.157060
                   16         17         18         19         20
    16  O    0.000000
    17  N    2.257673   0.000000
    18  H    3.155332   1.009097   0.000000
    19  C    2.782604   1.450718   2.118514   0.000000
    20  H    2.332962   2.077183   2.978396   1.090002   0.000000
    21  H    3.526118   2.092116   2.497096   1.091907   1.780890
    22  H    3.530961   2.091739   2.482283   1.091646   1.780679
                   21         22
    21  H    0.000000
    22  H    1.780879   0.000000
 Stoichiometry    C6H12N2O2
 Framework group  C1[X(C6H12N2O2)]
 Deg. of freedom    60
 Full point group                 C1      NOp   1
 Largest Abelian subgroup         C1      NOp   1
 Largest concise Abelian subgroup C1      NOp   1
                         Standard orientation:                         
 ---------------------------------------------------------------------
 Center     Atomic      Atomic             Coordinates (Angstroms)
 Number     Number       Type             X           Y           Z
 ---------------------------------------------------------------------
      1          1           0       -4.049227   -1.340006    0.101160
      2          6           0       -2.979689   -1.531643    0.187919
      3          1           0       -2.693537   -2.320318   -0.510793
      4          1           0       -2.752229   -1.857630    1.205002
      5          6           0       -2.184593   -0.263710   -0.122695
      6          8           0       -2.751142    0.792440   -0.388177
      7          7           0       -0.845581   -0.383356   -0.092993
      8          1           0       -0.436797   -1.262441    0.187750
      9          6           0        0.033644    0.759551   -0.285442
     10          1           0       -0.145598    1.182176   -1.275661
     11          6           0       -0.223622    1.841383    0.764460
     12          1           0       -0.036525    1.439159    1.762067
     13          1           0        0.442877    2.686283    0.587485
     14          1           0       -1.259400    2.174792    0.696825
     15          6           0        1.506436    0.365648   -0.207253
     16          8           0        2.378613    1.219817   -0.337801
     17          7           0        1.786131   -0.929258    0.019316
     18          1           0        1.040125   -1.604461    0.095818
     19          6           0        3.148902   -1.409083    0.150490
     20          1           0        3.831909   -0.569432    0.021684
     21          1           0        3.295526   -1.847771    1.139589
     22          1           0        3.352794   -2.162984   -0.612237
 ---------------------------------------------------------------------
 Rotational constants (GHZ):      2.3897055      0.7528795      0.6035834
 Standard basis: 6-31G(d) (6D, 7F)
 There are   174 symmetry adapted basis functions of A   symmetry.
 Integral buffers will be    131072 words long.
 Raffenetti 2 integral format.
 Two-electron integral symmetry is turned on.
   174 basis functions,   328 primitive gaussians,   174 cartesian basis functions
    39 alpha electrons       39 beta electrons
       nuclear repulsion energy       555.2804237197 Hartrees.
 NAtoms=   22 NActive=   22 NUniq=   22 SFac= 7.50D-01 NAtFMM=   80 NAOKFM=F Big=F
 One-electron integrals computed using PRISM.
 NBasis=   174 RedAO= T  NBF=   174
 NBsUse=   174 1.00D-06 NBFU=   174
 Initial guess read from the read-write file.
 B after Tr=     0.000000    0.000000    0.000000
         Rot=    1.000000    0.000000    0.000000    0.000000 Ang=   0.00 deg.
 Initial guess orbital symmetries:
       Occupied  (A) (A) (A) (A) (A) (A) (A) (A) (A) (A) (A) (A)
                 (A) (A) (A) (A) (A) (A) (A) (A) (A) (A) (A) (A)
                 (A) (A) (A) (A) (A) (A) (A) (A) (A) (A) (A) (A)
                 (A) (A) (A)
       Virtual   (A) (A) (A) (A) (A) (A) (A) (A) (A) (A) (A) (A)
                 (A) (A) (A) (A) (A) (A) (A) (A) (A) (A) (A) (A)
                 (A) (A) (A) (A) (A) (A) (A) (A) (A) (A) (A) (A)
                 (A) (A) (A) (A) (A) (A) (A) (A) (A) (A) (A) (A)
                 (A) (A) (A) (A) (A) (A) (A) (A) (A) (A) (A) (A)
                 (A) (A) (A) (A) (A) (A) (A) (A) (A) (A) (A) (A)
                 (A) (A) (A) (A) (A) (A) (A) (A) (A) (A) (A) (A)
                 (A) (A) (A) (A) (A) (A) (A) (A) (A) (A) (A) (A)
                 (A) (A) (A) (A) (A) (A) (A) (A) (A) (A) (A) (A)
                 (A) (A) (A) (A) (A) (A) (A) (A) (A) (A) (A) (A)
                 (A) (A) (A) (A) (A) (A) (A) (A) (A) (A) (A) (A)
                 (A) (A) (A)
 Harris functional with IExCor=  402 diagonalized for initial guess.
 ExpMin= 1.61D-01 ExpMax= 5.48D+03 ExpMxC= 8.25D+02 IAcc=1 IRadAn=         1 AccDes= 0.00D+00
 HarFok:  IExCor=  402 AccDes= 0.00D+00 IRadAn=         1 IDoV= 1
 ScaDFX=  1.000000  1.000000  1.000000  1.000000
 FoFCou: FMM=F IPFlag=           0 FMFlag=      100000 FMFlg1=           0
         NFxFlg=           0 DoJE=T BraDBF=F KetDBF=T FulRan=T
         Omega=  0.000000  0.000000  1.000000  0.000000  0.000000 ICntrl=     500 IOpCl=  0
         NMat0=    1 NMatS0=    1 NMatT0=    0 NMatD0=    1 NMtDS0=    0 NMtDT0=    0
         I1Cent=           4 NGrid=           0.
 Petite list used in FoFCou.
 Requested convergence on RMS density matrix=1.00D-08 within 128 cycles.
 Requested convergence on MAX density matrix=1.00D-06.
 Requested convergence on             energy=1.00D-06.
 No special actions if energy rises.
 Integral accuracy reduced to 1.0D-05 until final iterations.
 Initial convergence to 1.0D-05 achieved.  Increase integral accuracy.
 SCF Done:  E(RB3LYP) =  -495.830025033     A.U. after   12 cycles
             Convg  =    0.7839D-08             -V/T =  2.0089
 Calling FoFJK, ICntrl=      2127 FMM=F ISym2X=0 I1Cent= 0 IOpClX= 0 NMat=1 NMatS=1 NMatT=0.
 ***** Axes restored to original set *****
 -------------------------------------------------------------------
 Center     Atomic                   Forces (Hartrees/Bohr)
 Number     Number              X              Y              Z
 -------------------------------------------------------------------
      1        1           0.002528359    0.000649234    0.000146757
      2        6           0.004069968    0.006773555    0.000178953
      3        1          -0.004630932    0.000141148    0.001055566
      4        1          -0.004477061   -0.000016594   -0.001678987
      5        6          -0.002372667   -0.032158536    0.001840895
      6        8           0.000115446    0.001514328    0.002235453
      7        7          -0.002963789    0.012790984    0.001914880
      8        1           0.000171325   -0.012653286   -0.002838478
      9        6           0.001267920    0.002776406   -0.006734972
     10        1           0.000652613   -0.000246556    0.003182941
     11        6           0.005506979   -0.002622475   -0.001690089
     12        1          -0.000201144    0.000656514   -0.003142514
     13        1           0.000481710    0.001575436   -0.000666683
     14        1           0.000123723    0.000448359   -0.000647094
     15        6           0.018676121   -0.001880615    0.004966466
     16        8          -0.000542768   -0.001981220   -0.000206583
     17        7          -0.013452776    0.009723331   -0.000618371
     18        1           0.001070748    0.011154069    0.002373109
     19        6          -0.003744476    0.000195425    0.000290194
     20        1           0.000774141   -0.002522622    0.000068261
     21        1          -0.001597035    0.002817206   -0.001726435
     22        1          -0.001456404    0.002865910    0.001696729
 -------------------------------------------------------------------
 Cartesian Forces:  Max     0.032158536 RMS     0.006111521

 GradGradGradGradGradGradGradGradGradGradGradGradGradGradGradGradGradGrad
 Berny optimization.
 Using GEDIIS/GDIIS optimizer.
 Internal  Forces:  Max     0.034401981 RMS     0.007702154
 Search for a local minimum.
 Step number   2 out of a maximum of  132
 All quantities printed in internal units (Hartrees-Bohrs-Radians)
 Mixed Optimization -- RFO/linear search
 Update second derivatives using D2CorX and points    1    2
 DE= -5.37D-03 DEPred=-5.48D-03 R= 9.80D-01
 SS=  1.41D+00  RLast= 3.00D-01 DXNew= 5.0454D-01 8.9962D-01
 Trust test= 9.80D-01 RLast= 3.00D-01 DXMaxT set to 5.05D-01
 Use linear search instead of GDIIS.
 Linear search step of   0.594 exceeds DXMaxT=   0.505 but not scaled.
 Quartic linear search produced a step of  2.00000.
 Iteration  1 RMS(Cart)=  0.09306308 RMS(Int)=  0.01064566
 Iteration  2 RMS(Cart)=  0.01615613 RMS(Int)=  0.00304327
 Iteration  3 RMS(Cart)=  0.00025841 RMS(Int)=  0.00303403
 Iteration  4 RMS(Cart)=  0.00000216 RMS(Int)=  0.00303403
 Iteration  5 RMS(Cart)=  0.00000001 RMS(Int)=  0.00303403
 Iteration  1 RMS(Cart)=  0.00008140 RMS(Int)=  0.00003786
 Iteration  2 RMS(Cart)=  0.00005443 RMS(Int)=  0.00004180
 Iteration  3 RMS(Cart)=  0.00003661 RMS(Int)=  0.00004808
 Iteration  4 RMS(Cart)=  0.00002472 RMS(Int)=  0.00005343
 Iteration  5 RMS(Cart)=  0.00001673 RMS(Int)=  0.00005742
 Iteration  6 RMS(Cart)=  0.00001134 RMS(Int)=  0.00006025
 Iteration  7 RMS(Cart)=  0.00000769 RMS(Int)=  0.00006223
 Iteration  8 RMS(Cart)=  0.00000522 RMS(Int)=  0.00006359
 Iteration  9 RMS(Cart)=  0.00000355 RMS(Int)=  0.00006453
 Iteration 10 RMS(Cart)=  0.00000241 RMS(Int)=  0.00006517
 Iteration 11 RMS(Cart)=  0.00000164 RMS(Int)=  0.00006561
 Iteration 12 RMS(Cart)=  0.00000111 RMS(Int)=  0.00006591
 Iteration 13 RMS(Cart)=  0.00000076 RMS(Int)=  0.00006611
 Variable       Old X    -DE/DX   Delta X   Delta X   Delta X     New X
                                 (Linear)    (Quad)   (Total)
    R1        2.05986  -0.00061   0.00011   0.00000   0.00011   2.05997
    R2        2.06326   0.00331   0.00699   0.00000   0.00699   2.07025
    R3        2.06358   0.00336   0.00763   0.00000   0.00763   2.07121
    R4        2.88845  -0.00038  -0.00561   0.00000  -0.00561   2.88284
    R5        2.31976  -0.00074  -0.00557   0.00000  -0.00557   2.31418
    R6        2.54107   0.02342   0.03638   0.00000   0.03638   2.57745
    R7        1.90732  -0.00693  -0.00271   0.00000  -0.00271   1.90461
    R8        2.74909   0.01723   0.02183   0.00000   0.02183   2.77092
    R9        2.06255   0.00299   0.00561   0.00000   0.00561   2.06816
   R10        2.89001   0.00805   0.01625   0.00000   0.01625   2.90626
   R11        2.88478   0.02034   0.01721   0.00000   0.01721   2.90199
   R12        2.06319   0.00286   0.00694   0.00000   0.00694   2.07012
   R13        2.06093   0.00115   0.00216   0.00000   0.00216   2.06309
   R14        2.06021  -0.00043   0.00110   0.00000   0.00110   2.06131
   R15        2.32009  -0.00158  -0.00475   0.00000  -0.00475   2.31534
   R16        2.53980   0.02623   0.03397   0.00000   0.03397   2.57377
   R17        1.90692  -0.00752  -0.00362   0.00000  -0.00362   1.90330
   R18        2.74146   0.00433   0.00673   0.00000   0.00673   2.74819
   R19        2.05981  -0.00053  -0.00004   0.00000  -0.00004   2.05976
   R20        2.06341   0.00292   0.00723   0.00000   0.00723   2.07063
   R21        2.06291   0.00291   0.00624   0.00000   0.00624   2.06915
    A1        1.91051  -0.00026  -0.00136   0.00000  -0.00112   1.90939
    A2        1.90816  -0.00027  -0.00607   0.00000  -0.00594   1.90222
    A3        1.92665  -0.00550  -0.02484   0.00000  -0.02465   1.90200
    A4        1.90267  -0.00372  -0.01488   0.00000  -0.01541   1.88726
    A5        1.91009   0.00488   0.02819   0.00000   0.02803   1.93813
    A6        1.90557   0.00488   0.01914   0.00000   0.01892   1.92449
    A7        2.11480   0.00493   0.02335   0.00000   0.02331   2.13812
    A8        2.02605  -0.00679  -0.01808   0.00000  -0.01811   2.00794
    A9        2.14231   0.00186  -0.00530   0.00000  -0.00533   2.13699
   A10        2.07939  -0.01152  -0.02988   0.00000  -0.04564   2.03375
   A11        2.12823   0.00446   0.00139   0.00000  -0.01467   2.11356
   A12        2.06722   0.00718   0.01180   0.00000  -0.00625   2.06097
   A13        1.90178  -0.00540  -0.01871   0.00000  -0.01828   1.88350
   A14        1.94256  -0.00567   0.00703   0.00000   0.00621   1.94878
   A15        1.95368   0.02198   0.02936   0.00000   0.02904   1.98273
   A16        1.89790   0.00486   0.00361   0.00000   0.00369   1.90159
   A17        1.88055  -0.00672  -0.03106   0.00000  -0.03091   1.84964
   A18        1.88564  -0.00937   0.00853   0.00000   0.00805   1.89368
   A19        1.91543   0.00177   0.00857   0.00000   0.00856   1.92399
   A20        1.91115  -0.00057   0.00016   0.00000   0.00017   1.91131
   A21        1.91088   0.00090  -0.00044   0.00000  -0.00044   1.91044
   A22        1.90600  -0.00122  -0.00822   0.00000  -0.00821   1.89778
   A23        1.90939  -0.00099  -0.00168   0.00000  -0.00169   1.90770
   A24        1.91095   0.00011   0.00159   0.00000   0.00159   1.91254
   A25        2.09486  -0.01874  -0.01648   0.00000  -0.01659   2.07827
   A26        2.04656   0.03440   0.02291   0.00000   0.02280   2.06936
   A27        2.14171  -0.01566  -0.00654   0.00000  -0.00664   2.13506
   A28        2.09856   0.00874   0.00835   0.00000   0.00827   2.10683
   A29        2.12869  -0.00190   0.00209   0.00000   0.00202   2.13071
   A30        2.05590  -0.00685  -0.01051   0.00000  -0.01057   2.04532
   A31        1.89986  -0.00518  -0.02256   0.00000  -0.02246   1.87739
   A32        1.91870   0.00356   0.01497   0.00000   0.01488   1.93358
   A33        1.91845   0.00346   0.01447   0.00000   0.01437   1.93282
   A34        1.90963   0.00015  -0.00089   0.00000  -0.00079   1.90884
   A35        1.90963   0.00013  -0.00088   0.00000  -0.00079   1.90885
   A36        1.90749  -0.00214  -0.00517   0.00000  -0.00543   1.90206
    D1        0.03161  -0.00042   0.06323   0.00000   0.06321   0.09482
    D2       -3.10405   0.00049   0.07508   0.00000   0.07519  -3.02887
    D3        2.13546  -0.00107   0.06417   0.00000   0.06380   2.19926
    D4       -1.00021  -0.00017   0.07602   0.00000   0.07578  -0.92443
    D5       -2.06644   0.00024   0.07386   0.00000   0.07406  -1.99238
    D6        1.08108   0.00115   0.08571   0.00000   0.08604   1.16712
    D7       -0.07181   0.00143  -0.14361   0.00000  -0.13945  -0.21126
    D8       -3.07271  -0.00010   0.13777   0.00000   0.13381  -2.93890
    D9        3.07581   0.00234  -0.13156   0.00000  -0.12759   2.94822
   D10        0.07492   0.00082   0.14983   0.00000   0.14567   0.22059
   D11       -1.06344   0.00420  -0.03247   0.00000  -0.03281  -1.09624
   D12        1.02938   0.00321  -0.03573   0.00000  -0.03624   0.99314
   D13        3.14159   0.00252  -0.00001   0.00000   0.00000   3.14159
   D14        2.21791   0.00414   0.24703   0.00000   0.24762   2.46553
   D15       -1.97247   0.00315   0.24377   0.00000   0.24419  -1.72827
   D16        0.13975   0.00245   0.27949   0.00000   0.28043   0.42018
   D17        1.05898   0.00842   0.02349   0.00000   0.02347   1.08246
   D18       -3.13223   0.00766   0.01877   0.00000   0.01875  -3.11348
   D19       -1.03699   0.00799   0.02055   0.00000   0.02053  -1.01646
   D20       -3.12909   0.00138   0.00700   0.00000   0.00705  -3.12204
   D21       -1.03712   0.00062   0.00228   0.00000   0.00232  -1.03480
   D22        1.05812   0.00095   0.00406   0.00000   0.00410   1.06222
   D23       -1.09262  -0.00908  -0.02320   0.00000  -0.02322  -1.11583
   D24        0.99935  -0.00983  -0.02792   0.00000  -0.02794   0.97141
   D25        3.09459  -0.00951  -0.02614   0.00000  -0.02616   3.06843
   D26       -3.13061   0.00153   0.02196   0.00000   0.02172  -3.10889
   D27        0.00000   0.00222  -0.00001   0.00000   0.00000   0.00000
   D28        1.06192  -0.00063   0.04729   0.00000   0.04741   1.10933
   D29       -2.09065   0.00006   0.02533   0.00000   0.02568  -2.06497
   D30       -0.98577   0.00218   0.05506   0.00000   0.05525  -0.93053
   D31        2.14484   0.00287   0.03310   0.00000   0.03352   2.17836
   D32        0.04034   0.00121   0.08067   0.00000   0.08072   0.12106
   D33       -3.11052   0.00009   0.06215   0.00000   0.06203  -3.04849
   D34       -3.11256   0.00191   0.05807   0.00000   0.05819  -3.05436
   D35        0.01977   0.00079   0.03955   0.00000   0.03950   0.05927
   D36       -0.01367   0.00049  -0.02735   0.00000  -0.02740  -0.04107
   D37        2.07779  -0.00036  -0.03318   0.00000  -0.03339   2.04440
   D38       -2.10499   0.00143  -0.02121   0.00000  -0.02113  -2.12611
   D39        3.11887  -0.00053  -0.04544   0.00000  -0.04538   3.07350
   D40       -1.07285  -0.00138  -0.05128   0.00000  -0.05136  -1.12422
   D41        1.02756   0.00041  -0.03931   0.00000  -0.03910   0.98846
         Item               Value     Threshold  Converged?
 Maximum Force            0.034398     0.000450     NO 
 RMS     Force            0.007759     0.000300     NO 
 Maximum Displacement     0.354036     0.001800     NO 
 RMS     Displacement     0.104028     0.001200     NO 
 Predicted change in Energy=-8.707150D-03
 GradGradGradGradGradGradGradGradGradGradGradGradGradGradGradGradGradGrad

                          Input orientation:                          
 ---------------------------------------------------------------------
 Center     Atomic      Atomic             Coordinates (Angstroms)
 Number     Number       Type             X           Y           Z
 ---------------------------------------------------------------------
      1          1           0        2.082914    0.918885    0.054175
      2          6           0        2.044405    2.000644   -0.074677
      3          1           0        1.352336    2.429974    0.658057
      4          1           0        1.663456    2.227061   -1.077131
      5          6           0        3.448648    2.571125    0.098261
      6          8           0        4.434446    1.859675    0.245632
      7          7           0        3.522614    3.933044    0.098591
      8          1           0        2.697099    4.428721   -0.199146
      9          6           0        4.813668    4.621415    0.001752
     10          1           0        5.404148    4.355234    0.883931
     11          6           0        5.586119    4.204007   -1.260909
     12          1           0        5.021842    4.479223   -2.158619
     13          1           0        6.551145    4.714027   -1.283240
     14          1           0        5.743256    3.124635   -1.250583
     15          6           0        4.696789    6.152544    0.017598
     16          8           0        5.712709    6.828431   -0.093125
     17          7           0        3.458083    6.710153    0.115919
     18          1           0        2.647163    6.136065    0.280997
     19          6           0        3.247958    8.146210    0.023662
     20          1           0        4.225764    8.615470   -0.084707
     21          1           0        2.627920    8.393447   -0.845279
     22          1           0        2.761220    8.525809    0.928043
 ---------------------------------------------------------------------
                    Distance matrix (angstroms):
                    1          2          3          4          5
     1  H    0.000000
     2  C    1.090087   0.000000
     3  H    1.783763   1.095528   0.000000
     4  H    1.779642   1.096040   1.774499   0.000000
     5  C    2.144078   1.525534   2.174355   2.164910   0.000000
     6  O    2.539969   2.415526   3.161446   3.092420   1.224614
     7  N    3.340638   2.439117   2.698579   2.783733   1.363925
     8  H    3.572162   2.517351   2.556986   2.585843   2.025818
     9  C    4.600923   3.813541   4.148972   4.101312   2.465012
    10  H    4.850524   4.213181   4.491640   4.729446   2.761214
    11  C    4.979349   4.336553   4.975394   4.396519   3.013707
    12  H    5.119547   4.399012   5.059483   4.185763   3.348027
    13  H    6.013058   5.397571   6.001095   5.487894   4.015727
    14  H    4.468314   4.040744   4.837938   4.180968   2.718636
    15  C    5.850201   4.927669   5.045104   5.080251   3.793536
    16  O    6.936847   6.063359   6.238874   6.207844   4.825687
    17  N    5.952620   4.920801   4.800835   4.974150   4.139076
    18  H    5.252503   4.194225   3.943838   4.253528   3.658492
    19  C    7.320689   6.263081   6.055674   6.225650   5.579194
    20  H    7.990527   6.965224   6.860660   6.954286   6.096843
    21  H    7.548187   6.465465   6.280935   6.245659   5.955106
[...]
    14  H    4.644265   4.018919   4.735845   3.989066   2.784729
    15  C    5.801275   4.914803   4.887481   5.273031   3.797411
    16  O    6.918525   6.046936   6.085978   6.338798   4.845893
    17  N    5.808874   4.873357   4.542512   5.272185   4.098311
    18  H    5.116018   4.239963   3.781726   4.776085   3.624848
    19  C    7.177035   6.239683   5.788950   6.615677   5.546404
    20  H    7.816983   6.829897   6.477342   7.075471   6.069079
    21  H    7.304329   6.359039   5.748032   6.703608   5.915132
    22  H    7.684020   6.830515   6.381766   7.333058   6.039197
                    6          7          8          9         10
     6  O    0.000000
     7  N    2.290483   0.000000
     8  H    3.106758   1.016460   0.000000
     9  C    2.823357   1.474346   2.088715   0.000000
    10  H    2.707975   2.074734   2.934215   1.094941   0.000000
    11  C    3.133025   2.519493   2.914998   1.538555   2.153078
    12  H    3.718222   2.790221   2.801099   2.181236   3.070132
    13  H    3.998270   3.444094   3.853253   2.161142   2.493022
    14  H    2.528031   2.788954   3.337653   2.168707   2.466493
    15  C    4.320441   2.495395   2.637598   1.539203   2.139025
    16  O    5.194161   3.631085   3.807117   2.402517   2.749779
    17  N    4.909106   2.712211   2.448956   2.484605   3.153005
    18  H    4.538276   2.322653   2.040046   2.617322   3.192651
    19  C    6.355643   4.164492   3.823390   3.840220   4.404272
    20  H    6.815421   4.690354   4.338773   4.121154   4.748851
    21  H    6.859799   4.588611   4.053865   4.567653   5.213363
    22  H    6.744540   4.680444   4.521260   4.267237   4.583861
                   11         12         13         14         15
    11  C    0.000000
    12  H    1.096914   0.000000
    13  H    1.091973   1.773059   0.000000
    14  H    1.091518   1.783719   1.784188   0.000000
    15  C    2.500585   2.789149   2.669826   3.454205   0.000000
    16  O    2.872999   3.198192   2.547421   3.881898   1.223039
    17  N    3.573531   3.580373   3.935395   4.477993   1.374400
    18  H    3.907009   3.965814   4.462075   4.642901   2.034514
    19  C    4.801643   4.728900   4.954251   5.788309   2.446362
    20  H    4.774836   4.602108   4.749703   5.836247   2.635206
    21  H    5.530415   5.316653   5.812943   6.478654   3.331331
    22  H    5.368480   5.481826   5.418271   6.321444   2.876019
                   16         17         18         19         20
    16  O    0.000000
    17  N    2.278007   0.000000
    18  H    3.121887   1.012325   0.000000
    19  C    2.762694   1.457922   2.115892   0.000000
    20  H    2.538132   2.080579   2.967786   1.090919   0.000000
    21  H    3.796299   2.088603   2.397614   1.093132   1.783394
    22  H    3.016741   2.132942   2.609005   1.097721   1.770695
                   21         22
    21  H    0.000000
    22  H    1.786710   0.000000
 Stoichiometry    C6H12N2O2
 Framework group  C1[X(C6H12N2O2)]
 Deg. of freedom    60
 Full point group                 C1      NOp   1
 Largest Abelian subgroup         C1      NOp   1
 Largest concise Abelian subgroup C1      NOp   1
                         Standard orientation:                         
 ---------------------------------------------------------------------
 Center     Atomic      Atomic             Coordinates (Angstroms)
 Number     Number       Type             X           Y           Z
 ---------------------------------------------------------------------
      1          1           0       -3.958844   -1.528478   -0.106184
      2          6           0       -3.011600   -1.430652    0.427533
      3          1           0       -2.473999   -2.383989    0.398224
      4          1           0       -3.238476   -1.194698    1.474649
      5          6           0       -2.218075   -0.287429   -0.188975
      6          8           0       -2.753055    0.671479   -0.721281
      7          7           0       -0.838108   -0.437818   -0.130732
      8          1           0       -0.548983   -1.059144    0.619969
      9          6           0        0.030390    0.747142   -0.254323
     10          1           0       -0.143604    1.163864   -1.251801
     11          6           0       -0.268234    1.837350    0.789431
     12          1           0       -0.137245    1.445122    1.805414
     13          1           0        0.426783    2.668372    0.652476
     14          1           0       -1.293101    2.194087    0.671967
     15          6           0        1.521128    0.374473   -0.165084
     16          8           0        2.378480    1.246676   -0.159320
     17          7           0        1.820528   -0.955444    0.010008
     18          1           0        1.150003   -1.616154   -0.362364
     19          6           0        3.215312   -1.379282    0.031830
     20          1           0        3.774583   -0.700793    0.677564
     21          1           0        3.273923   -2.394784    0.432149
     22          1           0        3.675107   -1.355418   -0.964669
 ---------------------------------------------------------------------
 Rotational constants (GHZ):      2.3863734      0.7285432      0.5980615

 **********************************************************************

            Population analysis using the SCF density.

 **********************************************************************

 Orbital symmetries:
       Occupied  (A) (A) (A) (A) (A) (A) (A) (A) (A) (A) (A) (A)
                 (A) (A) (A) (A) (A) (A) (A) (A) (A) (A) (A) (A)
                 (A) (A) (A) (A) (A) (A) (A) (A) (A) (A) (A) (A)
                 (A) (A) (A)
       Virtual   (A) (A) (A) (A) (A) (A) (A) (A) (A) (A) (A) (A)
                 (A) (A) (A) (A) (A) (A) (A) (A) (A) (A) (A) (A)
                 (A) (A) (A) (A) (A) (A) (A) (A) (A) (A) (A) (A)
                 (A) (A) (A) (A) (A) (A) (A) (A) (A) (A) (A) (A)
                 (A) (A) (A) (A) (A) (A) (A) (A) (A) (A) (A) (A)
                 (A) (A) (A) (A) (A) (A) (A) (A) (A) (A) (A) (A)
                 (A) (A) (A) (A) (A) (A) (A) (A) (A) (A) (A) (A)
                 (A) (A) (A) (A) (A) (A) (A) (A) (A) (A) (A) (A)
                 (A) (A) (A) (A) (A) (A) (A) (A) (A) (A) (A) (A)
                 (A) (A) (A) (A) (A) (A) (A) (A) (A) (A) (A) (A)
                 (A) (A) (A) (A) (A) (A) (A) (A) (A) (A) (A) (A)
                 (A) (A) (A)
 The electronic state is 1-A.
 Alpha  occ. eigenvalues --  -19.12196 -19.11753 -14.36919 -14.36728 -10.29624
 Alpha  occ. eigenvalues --  -10.29107 -10.23744 -10.22365 -10.19990 -10.17628
 Alpha  occ. eigenvalues --   -1.04195  -1.03667  -0.93750  -0.91711  -0.77946
 Alpha  occ. eigenvalues --   -0.73210  -0.71407  -0.64361  -0.58951  -0.57801
 Alpha  occ. eigenvalues --   -0.53893  -0.48167  -0.47910  -0.46560  -0.45590
 Alpha  occ. eigenvalues --   -0.44315  -0.42733  -0.41786  -0.40818  -0.40485
 Alpha  occ. eigenvalues --   -0.39683  -0.38267  -0.36864  -0.36049  -0.34741
 Alpha  occ. eigenvalues --   -0.27708  -0.26520  -0.25782  -0.24708
 Alpha virt. eigenvalues --    0.00938   0.01911   0.06039   0.09796   0.12212
 Alpha virt. eigenvalues --    0.12832   0.13084   0.14227   0.14484   0.15256
 Alpha virt. eigenvalues --    0.16929   0.17552   0.17961   0.18194   0.19808
 Alpha virt. eigenvalues --    0.20278   0.23096   0.24530   0.26561   0.30592
 Alpha virt. eigenvalues --    0.35188   0.39136   0.39962   0.49864   0.51182
 Alpha virt. eigenvalues --    0.52356   0.53174   0.53908   0.54894   0.55719
 Alpha virt. eigenvalues --    0.57555   0.59999   0.62105   0.62412   0.65379
 Alpha virt. eigenvalues --    0.68008   0.68497   0.71130   0.72351   0.73640
 Alpha virt. eigenvalues --    0.75992   0.76416   0.78055   0.81170   0.83067
 Alpha virt. eigenvalues --    0.84190   0.84341   0.85645   0.86845   0.88273
 Alpha virt. eigenvalues --    0.88797   0.90069   0.91915   0.92624   0.93143
 Alpha virt. eigenvalues --    0.93703   0.94887   0.95875   0.97458   1.00123
 Alpha virt. eigenvalues --    1.04020   1.06559   1.08481   1.11379   1.14466
 Alpha virt. eigenvalues --    1.15479   1.19994   1.21388   1.29664   1.32813
 Alpha virt. eigenvalues --    1.36224   1.38652   1.42675   1.45147   1.46295
 Alpha virt. eigenvalues --    1.49573   1.58247   1.59364   1.65126   1.70810
 Alpha virt. eigenvalues --    1.73915   1.75572   1.78010   1.79733   1.80471
 Alpha virt. eigenvalues --    1.81221   1.84775   1.86513   1.88892   1.90906
 Alpha virt. eigenvalues --    1.92512   1.94443   1.97519   1.99013   2.01527
 Alpha virt. eigenvalues --    2.02895   2.04751   2.08967   2.10435   2.17285
 Alpha virt. eigenvalues --    2.18527   2.21360   2.22244   2.25843   2.27324
 Alpha virt. eigenvalues --    2.31437   2.34092   2.35520   2.36954   2.39961
 Alpha virt. eigenvalues --    2.43753   2.49791   2.51803   2.53563   2.61981
 Alpha virt. eigenvalues --    2.65201   2.66911   2.71296   2.74639   2.82769
 Alpha virt. eigenvalues --    2.91125   2.96912   2.99956   3.10177   3.13849
 Alpha virt. eigenvalues --    3.92351   3.97049   4.03212   4.10057   4.16419
 Alpha virt. eigenvalues --    4.19771   4.26577   4.36636   4.45594   4.64375
          Condensed to atoms (all electrons):
              1          2          3          4          5          6
     1  H    0.504401   0.358535  -0.023888  -0.020890  -0.018375   0.003513
     2  C    0.358535   5.332408   0.345576   0.359114   0.347531  -0.077436
     3  H   -0.023888   0.345576   0.566877  -0.027083  -0.026188   0.002523
     4  H   -0.020890   0.359114  -0.027083   0.527963  -0.021091  -0.000145
     5  C   -0.018375   0.347531  -0.026188  -0.021091   4.321112   0.588275
     6  O    0.003513  -0.077436   0.002523  -0.000145   0.588275   8.043973
     7  N    0.004122  -0.127635   0.007242   0.000722   0.248353  -0.097306
     8  H    0.000082   0.001907  -0.000380   0.000081  -0.018999   0.003189
     9  C   -0.000154   0.007092   0.000056  -0.000227  -0.016622   0.010892
    10  H    0.000011   0.000203  -0.000039  -0.000008  -0.003083   0.006688
    11  C   -0.000001  -0.000720   0.000040   0.000194  -0.004011  -0.008833
    12  H    0.000002  -0.000012  -0.000008  -0.000005   0.000086   0.000037
    13  H    0.000000   0.000004   0.000000  -0.000003   0.000022   0.000009
    14  H    0.000002   0.000325  -0.000007  -0.000043   0.005297   0.010830
    15  C    0.000001  -0.000035  -0.000029  -0.000001   0.003904   0.000549
    16  O    0.000000   0.000000   0.000000   0.000000  -0.000038   0.000000
    17  N    0.000000  -0.000035  -0.000011   0.000000   0.000220  -0.000004
    18  H   -0.000004  -0.000018   0.000122   0.000004   0.000369  -0.000003
    19  C    0.000000   0.000000   0.000000   0.000000   0.000008   0.000000
    20  H    0.000000   0.000000   0.000000   0.000000   0.000000   0.000000
    21  H    0.000000   0.000000   0.000000   0.000000   0.000000   0.000000
    22  H    0.000000   0.000000   0.000000   0.000000   0.000000   0.000000
              7          8          9         10         11         12
     1  H    0.004122   0.000082  -0.000154   0.000011  -0.000001   0.000002
     2  C   -0.127635   0.001907   0.007092   0.000203  -0.000720  -0.000012
     3  H    0.007242  -0.000380   0.000056  -0.000039   0.000040  -0.000008
     4  H    0.000722   0.000081  -0.000227  -0.000008   0.000194  -0.000005
     5  C    0.248353  -0.018999  -0.016622  -0.003083  -0.004011   0.000086
     6  O   -0.097306   0.003189   0.010892   0.006688  -0.008833   0.000037
     7  N    7.233907   0.272947   0.196849  -0.042891  -0.054230  -0.002289
     8  H    0.272947   0.451283  -0.038755   0.006533  -0.001946   0.003577
     9  C    0.196849  -0.038755   5.101388   0.370220   0.363920  -0.037248
    10  H   -0.042891   0.006533   0.370220   0.533888  -0.039523   0.005141
    11  C   -0.054230  -0.001946   0.363920  -0.039523   5.144284   0.369030
    12  H   -0.002289   0.003577  -0.037248   0.005141   0.369030   0.584477
    13  H    0.004870  -0.000082  -0.029449  -0.000177   0.362368  -0.024466
    14  H   -0.007653  -0.000528  -0.027355  -0.005227   0.368615  -0.030324
    15  C   -0.028682  -0.006643   0.331260  -0.029066  -0.038036  -0.004643
    16  O    0.002064  -0.000083  -0.077549  -0.000139  -0.003688   0.000054
    17  N   -0.006248   0.015693  -0.118303   0.001647   0.001038   0.000899
    18  H    0.016722  -0.004788  -0.002336  -0.000769   0.000939  -0.000079
    19  C    0.000165  -0.000329   0.006847  -0.000163  -0.000128  -0.000040
    20  H   -0.000022  -0.000052   0.000291  -0.000013   0.000022  -0.000008
    21  H   -0.000004  -0.000050  -0.000051   0.000000   0.000005  -0.000001
    22  H   -0.000013   0.000062  -0.000097   0.000041  -0.000015   0.000001
             13         14         15         16         17         18
     1  H    0.000000   0.000002   0.000001   0.000000   0.000000  -0.000004
     2  C    0.000004   0.000325  -0.000035   0.000000  -0.000035  -0.000018
     3  H    0.000000  -0.000007  -0.000029   0.000000  -0.000011   0.000122
     4  H   -0.000003  -0.000043  -0.000001   0.000000   0.000000   0.000004
     5  C    0.000022   0.005297   0.003904  -0.000038   0.000220   0.000369
     6  O    0.000009   0.010830   0.000549   0.000000  -0.000004  -0.000003
     7  N    0.004870  -0.007653  -0.028682   0.002064  -0.006248   0.016722
     8  H   -0.000082  -0.000528  -0.006643  -0.000083   0.015693  -0.004788
     9  C   -0.029449  -0.027355   0.331260  -0.077549  -0.118303  -0.002336
    10  H   -0.000177  -0.005227  -0.029066  -0.000139   0.001647  -0.000769
    11  C    0.362368   0.368615  -0.038036  -0.003688   0.001038   0.000939
    12  H   -0.024466  -0.030324  -0.004643   0.000054   0.000899  -0.000079
    13  H    0.519183  -0.023745  -0.003264   0.011192   0.000496  -0.000060
    14  H   -0.023745   0.523109   0.004417   0.000270  -0.000080   0.000004
    15  C   -0.003264   0.004417   4.379558   0.572848   0.274251  -0.020409
    16  O    0.011192   0.000270   0.572848   8.082803  -0.097165   0.003281
    17  N    0.000496  -0.000080   0.274251  -0.097165   7.094918   0.287064
    18  H   -0.000060   0.000004  -0.020409   0.003281   0.287064   0.418086
    19  C   -0.000014   0.000002  -0.025397   0.004196   0.266845  -0.031187
    20  H   -0.000003   0.000000  -0.003700   0.010240  -0.037637   0.004254
    21  H    0.000000   0.000000   0.004610   0.000606  -0.036059  -0.001711
    22  H    0.000000   0.000000  -0.001607   0.001647  -0.043988  -0.001280
             19         20         21         22
     1  H    0.000000   0.000000   0.000000   0.000000
     2  C    0.000000   0.000000   0.000000   0.000000
     3  H    0.000000   0.000000   0.000000   0.000000
     4  H    0.000000   0.000000   0.000000   0.000000
     5  C    0.000008   0.000000   0.000000   0.000000
     6  O    0.000000   0.000000   0.000000   0.000000
     7  N    0.000165  -0.000022  -0.000004  -0.000013
     8  H   -0.000329  -0.000052  -0.000050   0.000062
     9  C    0.006847   0.000291  -0.000051  -0.000097
    10  H   -0.000163  -0.000013   0.000000   0.000041
    11  C   -0.000128   0.000022   0.000005  -0.000015
    12  H   -0.000040  -0.000008  -0.000001   0.000001
    13  H   -0.000014  -0.000003   0.000000   0.000000
    14  H    0.000002   0.000000   0.000000   0.000000
    15  C   -0.025397  -0.003700   0.004610  -0.001607
    16  O    0.004196   0.010240   0.000606   0.001647
    17  N    0.266845  -0.037637  -0.036059  -0.043988
    18  H   -0.031187   0.004254  -0.001711  -0.001280
    19  C    4.940320   0.383354   0.372846   0.385484
    20  H    0.383354   0.505934  -0.023877  -0.033519
    21  H    0.372846  -0.023877   0.568620  -0.036643
    22  H    0.385484  -0.033519  -0.036643   0.564389
 Mulliken atomic charges:
              1
     1  H    0.192643
     2  C   -0.546804
     3  H    0.155198
     4  H    0.181418
     5  C    0.593228
     6  O   -0.486749
     7  N   -0.620992
     8  H    0.317282
     9  C   -0.040669
    10  H    0.196729
    11  C   -0.459322
    12  H    0.135819
    13  H    0.183118
    14  H    0.182090
    15  C    0.590113
    16  O   -0.510539
    17  N   -0.603541
    18  H    0.331799
    19  C   -0.302808
    20  H    0.194737
    21  H    0.151709
    22  H    0.165538
 Sum of Mulliken atomic charges =   0.00000
 Mulliken charges with hydrogens summed into heavy atoms:
              1
     2  C   -0.017544
     5  C    0.593228
     6  O   -0.486749
     7  N   -0.303709
     9  C    0.156060
    11  C    0.041705
    15  C    0.590113
    16  O   -0.510539
    17  N   -0.271741
    19  C    0.209177
 Sum of Mulliken charges with hydrogens summed into heavy atoms =   0.00000
 Electronic spatial extent (au):  <R**2>=           1915.5018
 Charge=              0.0000 electrons
 Dipole moment (field-independent basis, Debye):
    X=              0.2560    Y=             -4.6440    Z=              1.6152  Tot=              4.9236
 Quadrupole moment (field-independent basis, Debye-Ang):
   XX=            -67.1948   YY=            -58.2811   ZZ=            -59.7553
   XY=             -2.0922   XZ=             -4.5126   YZ=              0.8498
 Traceless Quadrupole moment (field-independent basis, Debye-Ang):
   XX=             -5.4511   YY=              3.4626   ZZ=              1.9885
   XY=             -2.0922   XZ=             -4.5126   YZ=              0.8498
 Octapole moment (field-independent basis, Debye-Ang**2):
  XXX=             12.0534  YYY=             -6.7288  ZZZ=             -2.6624  XYY=             -1.7570
  XXY=            -39.2484  XXZ=             12.7258  XZZ=              2.2414  YZZ=              0.6699
  YYZ=              0.1508  XYZ=             -0.4873
 Hexadecapole moment (field-independent basis, Debye-Ang**3):
 XXXX=          -1747.1436 YYYY=           -542.4924 ZZZZ=           -142.5895 XXXY=             -5.3270
 XXXZ=            -18.5275 YYYX=            -17.8642 YYYZ=             -2.2129 ZZZX=             -1.6122
 ZZZY=             -4.2579 XXYY=           -390.3907 XXZZ=           -313.6814 YYZZ=           -119.7152
 XXYZ=             12.7676 YYXZ=              1.0015 ZZXY=              3.4217
 N-N= 5.506712271624D+02 E-N=-2.257101289330D+03  KE= 4.912345652777D+02
 1\1\GINC-NODE007\FOpt\RB3LYP\6-31G(d)\C6H12N2O2\MANAGER\10-Feb-2017\0\
 \# b3lyp/6-31G* Opt=(ModRedundant, maxcycles=1000, calcfc) geom=nocrow
 d\\Phi Psi fixed scan\\0,1\H,1.9055430302,1.0885716356,0.3597601682\C,
 2.0551844868,2.016419572,-0.1955790915\H,1.2305571474,2.7057560513,0.0
 130603444\H,2.0398518651,1.7741209644,-1.2654649559\C,3.4140527832,2.5
 942551434,0.1736149618\O,4.3544745246,1.8953426047,0.514475077\N,3.489
 9383372,3.9807672748,0.1273166521\H,2.7914375787,4.3850511667,-0.49061
 68205\C,4.8052434459,4.6353409088,0.0040238605\H,5.3738125515,4.373951
 0539,0.9025222099\C,5.6037293307,4.1788338737,-1.2293347423\H,5.047951
 5302,4.3940953321,-2.1502010701\H,6.5504923177,4.7215817696,-1.2676701
 316\H,5.7986291227,3.1064809797,-1.1703107296\C,4.6789954301,6.1689685
 105,-0.030519903\O,5.6649531645,6.8676521987,-0.2190724208\N,3.4104033
 67,6.6908447913,0.0548956516\H,2.7320318176,6.133462874,0.5588196664\C
 ,3.2317535478,8.1371436403,0.0977998439\H,3.8550214045,8.5873520651,-0
 .6761206049\H,2.1822173057,8.3734105395,-0.0960779581\H,3.5274259107,8
 .5663970499,1.0638799925\\Version=EM64L-G09RevA.02\State=1-A\HF=-495.8
 425415\RMSD=5.693e-09\RMSF=1.778e-03\Dipole=-1.8725272,0.4187297,-0.26
 56418\Quadrupole=1.8199806,-3.4853153,1.6653347,-1.8644067,-0.152081,3
 .7520328\PG=C01 [X(C6H12N2O2)]\\@


 I DON'T PRETEND TO UNDERSTAND THE UNIVERSE --
 IT'S A GREAT DEAL BIGGER THAN I AM.
       -- ATTR. TO WILLIAM ALLINGHAM (1828-89)
 Job cpu time:  0 days  1 hours 28 minutes 41.1 seconds.
 File lengths (MBytes):  RWF=    186 Int=      0 D2E=      0 Chk=      4 Scr=      2
 Normal termination of Gaussian 09 at Fri Feb 10 21:05:29 2017.
