 Entering Gaussian System, Link 0=g09
 Initial command:
 /home/steboss/Software/g09/l1.exe /home/steboss/projects/phi_psi_scan/alanine/180/4316/Gau-25638.inp -scrdir=/home/steboss/projects/phi_psi_scan/alanine/180/4316/
 Entering Link 1 = /home/steboss/Software/g09/l1.exe PID=     25640.
  
 Copyright (c) 1988,1990,1992,1993,1995,1998,2003,2009, Gaussian, Inc.
                  All Rights Reserved.
  
 This is part of the Gaussian(R) 09 program.  It is based on
 the Gaussian(R) 03 system (copyright 2003, Gaussian, Inc.),
 the Gaussian(R) 98 system (copyright 1998, Gaussian, Inc.),
 the Gaussian(R) 94 system (copyright 1995, Gaussian, Inc.),
 the Gaussian 92(TM) system (copyright 1992, Gaussian, Inc.),
 the Gaussian 90(TM) system (copyright 1990, Gaussian, Inc.),
 the Gaussian 88(TM) system (copyright 1988, Gaussian, Inc.),
 the Gaussian 86(TM) system (copyright 1986, Carnegie Mellon
 University), and the Gaussian 82(TM) system (copyright 1983,
 Carnegie Mellon University). Gaussian is a federally registered
 trademark of Gaussian, Inc.
  
 This software contains proprietary and confidential information,
 including trade secrets, belonging to Gaussian, Inc.
  
 This software is provided under written license and may be
 used, copied, transmitted, or stored only in accord with that
 written license.
  
 The following legend is applicable only to US Government
 contracts under FAR:
  
                    RESTRICTED RIGHTS LEGEND
  
 Use, reproduction and disclosure by the US Government is
 subject to restrictions as set forth in subparagraphs (a)
 and (c) of the Commercial Computer Software - Restricted
 Rights clause in FAR 52.227-19.
  
 Gaussian, Inc.
 340 Quinnipiac St., Bldg. 40, Wallingford CT 06492
  
  
 ---------------------------------------------------------------
 Warning -- This program may not be used in any manner that
 competes with the business of Gaussian, Inc. or will provide
 assistance to any competitor of Gaussian, Inc.  The licensee
 of this program is prohibited from giving any competitor of
 Gaussian, Inc. access to this program.  By using this program,
 the user acknowledges that Gaussian, Inc. is engaged in the
 business of creating and licensing software in the field of
 computational chemistry and represents and warrants to the
 licensee that it is not a competitor of Gaussian, Inc. and that
 it will not use this program in any manner prohibited above.
 ---------------------------------------------------------------
  

 Cite this work as:
 Gaussian 09, Revision A.02,
 M. J. Frisch, G. W. Trucks, H. B. Schlegel, G. E. Scuseria, 
 M. A. Robb, J. R. Cheeseman, G. Scalmani, V. Barone, B. Mennucci, 
 G. A. Petersson, H. Nakatsuji, M. Caricato, X. Li, H. P. Hratchian, 
 A. F. Izmaylov, J. Bloino, G. Zheng, J. L. Sonnenberg, M. Hada, 
 M. Ehara, K. Toyota, R. Fukuda, J. Hasegawa, M. Ishida, T. Nakajima, 
 Y. Honda, O. Kitao, H. Nakai, T. Vreven, J. A. Montgomery, Jr., 
 J. E. Peralta, F. Ogliaro, M. Bearpark, J. J. Heyd, E. Brothers, 
 K. N. Kudin, V. N. Staroverov, R. Kobayashi, J. Normand, 
 K. Raghavachari, A. Rendell, J. C. Burant, S. S. Iyengar, J. Tomasi, 
 M. Cossi, N. Rega, J. M. Millam, M. Klene, J. E. Knox, J. B. Cross, 
 V. Bakken, C. Adamo, J. Jaramillo, R. Gomperts, R. E. Stratmann, 
 O. Yazyev, A. J. Austin, R. Cammi, C. Pomelli, J. W. Ochterski, 
 R. L. Martin, K. Morokuma, V. G. Zakrzewski, G. A. Voth, 
 P. Salvador, J. J. Dannenberg, S. Dapprich, A. D. Daniels, 
 O. Farkas, J. B. Foresman, J. V. Ortiz, J. Cioslowski, 
 and D. J. Fox, Gaussian, Inc., Wallingford CT, 2009.
 
 ******************************************
 Gaussian 09:  EM64L-G09RevA.02 11-Jun-2009
                10-Feb-2017 
 ******************************************
 %chk=structure_60.chk
 %NProcShared=8
 Will use up to    8 processors via shared memory.
 ----------------------------------------------------------------------
 # b3lyp/6-31G* Opt=(ModRedundant, maxcycles=1000, calcfc) geom=nocrowd
 ----------------------------------------------------------------------
 1/6=1000,10=4,14=-1,18=120,19=15,26=3,38=1/1,3;
 2/9=110,12=1,17=6,18=5,40=1/2;
 3/5=1,6=6,7=1,11=2,16=1,25=1,30=1,71=2,74=-5/1,2,3;
 4//1;
 5/5=2,38=5/2;
 8/6=4,10=90,11=11/1;
 11/6=1,8=1,9=11,15=111,16=1/1,2,10;
 10/6=1,7=6,13=1/2;
 6/7=2,8=2,9=2,10=2,28=1/1;
 7/10=1,18=20,25=1/1,2,3,16;
 1/6=1000,10=4,14=-1,18=20,19=15/3(2);
 2/9=110,12=1/2;
 99//99;
 2/9=110,12=1/2;
 3/5=1,6=6,7=1,11=2,16=1,25=1,30=1,71=1,74=-5/1,2,3;
 4/5=5,16=3/1;
 5/5=2,38=5/2;
 7//1,2,3,16;
 1/6=1000,14=-1,18=20,19=15/3(-5);
 2/9=110,12=1/2;
 6/7=2,8=2,9=2,10=2,19=2,28=1/1;
 99/9=1/99;
 ------------------
 Phi Psi fixed scan
 ------------------
 Symbolic Z-matrix:
 Charge =  0 Multiplicity = 1
 H                     2.        1.        0. 
 C                     2.        2.09      0. 
 H                     1.4863    2.4539    0.8898 
 H                     1.4863    2.4539   -0.8898 
 C                     3.4274    2.6408    0. 
 O                     4.3906    1.8774    0. 
 N                     3.5554    3.9697    0. 
 H                     2.7331    4.5562    0. 
 C                     4.8533    4.6139    0. 
 H                     5.4076    4.3155    0.8898 
 C                     5.6613    4.2208   -1.2322 
 H                     5.1233    4.5214   -2.1312 
 H                     6.6305    4.7189   -1.2058 
 H                     5.8085    3.1409   -1.2414 
 C                     4.7127    6.1294    0. 
 O                     5.1823    6.7994   -0.9171 
 N                     4.0632    6.6695    1.0338 
 H                     3.6947    6.0769    1.764 
 C                     3.8633    8.0999    1.1497 
 H                     4.3136    8.6009    0.2928 
 H                     2.7955    8.3171    1.1769 
 H                     4.3301    8.4594    2.0667 
 
 The following ModRedundant input section has been read:
 D    5    7    9   15 F                                                       
 D    7    9   15   17 F                                                       

 GradGradGradGradGradGradGradGradGradGradGradGradGradGradGradGradGradGrad
 Berny optimization.
 Initialization pass.
                           ----------------------------
                           !    Initial Parameters    !
                           ! (Angstroms and Degrees)  !
 --------------------------                            --------------------------
 ! Name  Definition              Value          Derivative Info.                !
 --------------------------------------------------------------------------------
 ! R1    R(1,2)                  1.09           calculate D2E/DX2 analytically  !
 ! R2    R(2,3)                  1.09           calculate D2E/DX2 analytically  !
 ! R3    R(2,4)                  1.09           calculate D2E/DX2 analytically  !
 ! R4    R(2,5)                  1.53           calculate D2E/DX2 analytically  !
 ! R5    R(5,6)                  1.229          calculate D2E/DX2 analytically  !
 ! R6    R(5,7)                  1.3351         calculate D2E/DX2 analytically  !
 ! R7    R(7,8)                  1.01           calculate D2E/DX2 analytically  !
 ! R8    R(7,9)                  1.449          calculate D2E/DX2 analytically  !
 ! R9    R(9,10)                 1.09           calculate D2E/DX2 analytically  !
 ! R10   R(9,11)                 1.525          calculate D2E/DX2 analytically  !
 ! R11   R(9,15)                 1.522          calculate D2E/DX2 analytically  !
 ! R12   R(11,12)                1.09           calculate D2E/DX2 analytically  !
 ! R13   R(11,13)                1.09           calculate D2E/DX2 analytically  !
 ! R14   R(11,14)                1.0899         calculate D2E/DX2 analytically  !
 ! R15   R(15,16)                1.229          calculate D2E/DX2 analytically  !
 ! R16   R(15,17)                1.335          calculate D2E/DX2 analytically  !
 ! R17   R(17,18)                1.01           calculate D2E/DX2 analytically  !
 ! R18   R(17,19)                1.4489         calculate D2E/DX2 analytically  !
 ! R19   R(19,20)                1.09           calculate D2E/DX2 analytically  !
 ! R20   R(19,21)                1.09           calculate D2E/DX2 analytically  !
 ! R21   R(19,22)                1.09           calculate D2E/DX2 analytically  !
 ! A1    A(1,2,3)              109.5032         calculate D2E/DX2 analytically  !
 ! A2    A(1,2,4)              109.5032         calculate D2E/DX2 analytically  !
 ! A3    A(1,2,5)              111.1004         calculate D2E/DX2 analytically  !
 ! A4    A(3,2,4)              109.4413         calculate D2E/DX2 analytically  !
 ! A5    A(3,2,5)              108.6329         calculate D2E/DX2 analytically  !
 ! A6    A(4,2,5)              108.6329         calculate D2E/DX2 analytically  !
 ! A7    A(2,5,6)              120.5004         calculate D2E/DX2 analytically  !
 ! A8    A(2,5,7)              116.6022         calculate D2E/DX2 analytically  !
 ! A9    A(6,5,7)              122.8974         calculate D2E/DX2 analytically  !
 ! A10   A(5,7,8)              119.9963         calculate D2E/DX2 analytically  !
 ! A11   A(5,7,9)              121.8988         calculate D2E/DX2 analytically  !
 ! A12   A(8,7,9)              118.1048         calculate D2E/DX2 analytically  !
 ! A13   A(7,9,10)             109.5            calculate D2E/DX2 analytically  !
 ! A14   A(7,9,11)             111.0992         calculate D2E/DX2 analytically  !
 ! A15   A(7,9,15)             111.0966         calculate D2E/DX2 analytically  !
 ! A16   A(10,9,11)            108.6382         calculate D2E/DX2 analytically  !
 ! A17   A(10,9,15)            108.6373         calculate D2E/DX2 analytically  !
 ! A18   A(11,9,15)            107.7947         calculate D2E/DX2 analytically  !
 ! A19   A(9,11,12)            109.5007         calculate D2E/DX2 analytically  !
 ! A20   A(9,11,13)            109.4959         calculate D2E/DX2 analytically  !
 ! A21   A(9,11,14)            109.4978         calculate D2E/DX2 analytically  !
 ! A22   A(12,11,13)           109.441          calculate D2E/DX2 analytically  !
 ! A23   A(12,11,14)           109.4482         calculate D2E/DX2 analytically  !
 ! A24   A(13,11,14)           109.4436         calculate D2E/DX2 analytically  !
 ! A25   A(9,15,16)            120.4988         calculate D2E/DX2 analytically  !
 ! A26   A(9,15,17)            116.6009         calculate D2E/DX2 analytically  !
 ! A27   A(16,15,17)           122.9003         calculate D2E/DX2 analytically  !
 ! A28   A(15,17,18)           119.9975         calculate D2E/DX2 analytically  !
 ! A29   A(15,17,19)           121.9004         calculate D2E/DX2 analytically  !
 ! A30   A(18,17,19)           118.1021         calculate D2E/DX2 analytically  !
 ! A31   A(17,19,20)           109.5044         calculate D2E/DX2 analytically  !
 ! A32   A(17,19,21)           109.5034         calculate D2E/DX2 analytically  !
 ! A33   A(17,19,22)           109.5005         calculate D2E/DX2 analytically  !
 ! A34   A(20,19,21)           109.4351         calculate D2E/DX2 analytically  !
 ! A35   A(20,19,22)           109.4433         calculate D2E/DX2 analytically  !
 ! A36   A(21,19,22)           109.4405         calculate D2E/DX2 analytically  !
 ! D1    D(1,2,5,6)              0.0            calculate D2E/DX2 analytically  !
 ! D2    D(1,2,5,7)            180.0            calculate D2E/DX2 analytically  !
 ! D3    D(3,2,5,6)            120.5145         calculate D2E/DX2 analytically  !
 ! D4    D(3,2,5,7)            -59.4855         calculate D2E/DX2 analytically  !
 ! D5    D(4,2,5,6)           -120.5145         calculate D2E/DX2 analytically  !
 ! D6    D(4,2,5,7)             59.4855         calculate D2E/DX2 analytically  !
 ! D7    D(2,5,7,8)              0.0            calculate D2E/DX2 analytically  !
 ! D8    D(2,5,7,9)            180.0            calculate D2E/DX2 analytically  !
 ! D9    D(6,5,7,8)            180.0            calculate D2E/DX2 analytically  !
 ! D10   D(6,5,7,9)              0.0            calculate D2E/DX2 analytically  !
 ! D11   D(5,7,9,10)           -60.0002         calculate D2E/DX2 analytically  !
 ! D12   D(5,7,9,11)            60.0024         calculate D2E/DX2 analytically  !
 ! D13   D(5,7,9,15)           180.0            frozen, calculate D2E/DX2 analyt!
 ! D14   D(8,7,9,10)           119.9998         calculate D2E/DX2 analytically  !
 ! D15   D(8,7,9,11)          -119.9976         calculate D2E/DX2 analytically  !
 ! D16   D(8,7,9,15)             0.0            calculate D2E/DX2 analytically  !
 ! D17   D(7,9,11,12)           60.0024         calculate D2E/DX2 analytically  !
 ! D18   D(7,9,11,13)          179.9986         calculate D2E/DX2 analytically  !
 ! D19   D(7,9,11,14)          -60.0038         calculate D2E/DX2 analytically  !
 ! D20   D(10,9,11,12)        -179.4843         calculate D2E/DX2 analytically  !
 ! D21   D(10,9,11,13)         -59.4881         calculate D2E/DX2 analytically  !
 ! D22   D(10,9,11,14)          60.5095         calculate D2E/DX2 analytically  !
 ! D23   D(15,9,11,12)         -61.938          calculate D2E/DX2 analytically  !
 ! D24   D(15,9,11,13)          58.0582         calculate D2E/DX2 analytically  !
 ! D25   D(15,9,11,14)         178.0558         calculate D2E/DX2 analytically  !
 ! D26   D(7,9,15,16)         -119.9999         calculate D2E/DX2 analytically  !
 ! D27   D(7,9,15,17)           60.0015         frozen, calculate D2E/DX2 analyt!
 ! D28   D(10,9,15,16)         119.489          calculate D2E/DX2 analytically  !
 ! D29   D(10,9,15,17)         -60.5096         calculate D2E/DX2 analytically  !
 ! D30   D(11,9,15,16)           1.9421         calculate D2E/DX2 analytically  !
 ! D31   D(11,9,15,17)        -178.0565         calculate D2E/DX2 analytically  !
 ! D32   D(9,15,17,18)          -0.0063         calculate D2E/DX2 analytically  !
 ! D33   D(9,15,17,19)         179.9999         calculate D2E/DX2 analytically  !
 ! D34   D(16,15,17,18)        179.9951         calculate D2E/DX2 analytically  !
 ! D35   D(16,15,17,19)          0.0012         calculate D2E/DX2 analytically  !
 ! D36   D(15,17,19,20)          0.0023         calculate D2E/DX2 analytically  !
 ! D37   D(15,17,19,21)        119.9982         calculate D2E/DX2 analytically  !
 ! D38   D(15,17,19,22)       -120.0018         calculate D2E/DX2 analytically  !
 ! D39   D(18,17,19,20)       -179.9916         calculate D2E/DX2 analytically  !
 ! D40   D(18,17,19,21)        -59.9958         calculate D2E/DX2 analytically  !
 ! D41   D(18,17,19,22)         60.0043         calculate D2E/DX2 analytically  !
 --------------------------------------------------------------------------------
 Trust Radius=3.00D-01 FncErr=1.00D-07 GrdErr=1.00D-06
 Number of steps in this run= 132 maximum allowed number of steps= 132.
 GradGradGradGradGradGradGradGradGradGradGradGradGradGradGradGradGradGrad

                          Input orientation:                          
 ---------------------------------------------------------------------
 Center     Atomic      Atomic             Coordinates (Angstroms)
 Number     Number       Type             X           Y           Z
 ---------------------------------------------------------------------
      1          1           0        2.000000    1.000000    0.000000
      2          6           0        2.000000    2.090000    0.000000
      3          1           0        1.486300    2.453900    0.889800
      4          1           0        1.486300    2.453900   -0.889800
      5          6           0        3.427400    2.640800    0.000000
      6          8           0        4.390600    1.877400    0.000000
      7          7           0        3.555400    3.969700    0.000000
      8          1           0        2.733100    4.556200    0.000000
      9          6           0        4.853300    4.613900    0.000000
     10          1           0        5.407600    4.315500    0.889800
     11          6           0        5.661300    4.220800   -1.232200
     12          1           0        5.123300    4.521400   -2.131200
     13          1           0        6.630500    4.718900   -1.205800
     14          1           0        5.808500    3.140900   -1.241400
     15          6           0        4.712700    6.129400    0.000000
     16          8           0        5.182300    6.799400   -0.917100
     17          7           0        4.063200    6.669500    1.033800
     18          1           0        3.694700    6.076900    1.764000
     19          6           0        3.863300    8.099900    1.149700
     20          1           0        4.313600    8.600900    0.292800
     21          1           0        2.795500    8.317100    1.176900
     22          1           0        4.330100    8.459400    2.066700
 ---------------------------------------------------------------------
                    Distance matrix (angstroms):
                    1          2          3          4          5
     1  H    0.000000
     2  C    1.090000   0.000000
     3  H    1.780297   1.089979   0.000000
     4  H    1.780297   1.089979   1.779600   0.000000
     5  C    2.174786   1.529984   2.143489   2.143489   0.000000
     6  O    2.546527   2.400035   3.091772   3.091772   1.229038
     7  N    3.352370   2.439783   2.714879   2.714879   1.335050
     8  H    3.630977   2.572854   2.601138   2.601138   2.037354
     9  C    4.604519   3.809382   4.098052   4.098052   2.434402
    10  H    4.836943   4.166093   4.340754   4.691388   2.741816
    11  C    5.029611   4.411773   5.005541   4.546405   3.000838
    12  H    5.166941   4.495411   5.160307   4.363874   3.309796
    13  H    6.060173   5.459542   5.998713   5.629642   4.004036
    14  H    4.541938   4.141272   4.867792   4.390559   2.731449
    15  C    5.802541   4.865747   4.970986   4.970986   3.717839
    16  O    6.678409   5.757304   5.984035   5.704781   4.605942
    17  N    6.121174   5.128095   4.942917   5.302069   4.207542
    18  H    5.635478   4.677507   4.332134   5.004579   3.871683
    19  C    7.429823   6.396295   6.131476   6.456547   5.595855
    20  H    7.950607   6.915945   6.792322   6.868608   6.032734
    21  H    7.453715   6.387072   6.014445   6.353138   5.831361
    22  H    8.083518   7.090125   6.748209   7.272834   6.240370
                    6          7          8          9         10
     6  O    0.000000
     7  N    2.252838   0.000000
     8  H    3.150123   1.010029   0.000000
     9  C    2.775342   1.448978   2.120985   0.000000
    10  H    2.787537   2.083739   2.828892   1.089970   0.000000
    11  C    2.936753   2.452791   3.194552   1.525027   2.139209
    12  H    3.474133   2.702720   3.202543   2.150225   3.041326
    13  H    3.813821   3.386959   4.082910   2.150214   2.459625
    14  H    2.268909   2.702673   3.605861   2.150165   2.466256
    15  C    4.264183   2.450234   2.528591   1.522008   2.136554
    16  O    5.068920   3.390439   3.445519   2.392848   3.079839
    17  N    4.913263   2.935221   2.702581   2.432795   2.714676
    18  H    4.607795   2.751616   2.519702   2.567960   2.607831
    19  C    6.349753   4.298275   3.893196   3.801856   4.095619
    20  H    6.730313   4.701980   4.352391   4.034003   4.462947
    21  H    6.737891   4.567541   3.941238   4.396968   4.787306
    22  H    6.899104   5.002881   4.696448   4.396915   4.440496
                   11         12         13         14         15
    11  C    0.000000
    12  H    1.089957   0.000000
    13  H    1.090023   1.779613   0.000000
    14  H    1.089925   1.779613   1.779617   0.000000
    15  C    2.461892   2.701161   2.668599   3.416575   0.000000
    16  O    2.641573   2.582015   2.551296   3.725845   1.229023
    17  N    3.699299   3.969304   3.925771   4.546826   1.335028
    18  H    4.036067   4.430921   4.391218   4.703262   2.037345
    19  C    4.894249   5.015732   4.963561   5.838908   2.434371
    20  H    4.829824   4.813908   4.762746   5.865159   2.520580
    21  H    5.549437   5.547028   5.773346   6.459055   3.137958
    22  H    5.533585   5.810282   5.476535   6.435498   3.137918
                   16         17         18         19         20
    16  O    0.000000
    17  N    2.252836   0.000000
    18  H    3.150120   1.010029   0.000000
    19  C    2.775378   1.448943   2.120924   0.000000
    20  H    2.337499   2.083768   2.986309   1.089976   0.000000
    21  H    3.519242   2.083777   2.484299   1.090006   1.779551
    22  H    3.519220   2.083713   2.484284   1.089969   1.779611
                   21         22
    21  H    0.000000
    22  H    1.779604   0.000000
 Stoichiometry    C6H12N2O2
 Framework group  C1[X(C6H12N2O2)]
 Deg. of freedom    60
 Full point group                 C1      NOp   1
 Largest Abelian subgroup         C1      NOp   1
 Largest concise Abelian subgroup C1      NOp   1
                         Standard orientation:                         
 ---------------------------------------------------------------------
 Center     Atomic      Atomic             Coordinates (Angstroms)
 Number     Number       Type             X           Y           Z
 ---------------------------------------------------------------------
      1          1           0       -4.081602   -1.326262    0.318061
      2          6           0       -3.023722   -1.458442    0.545037
      3          1           0       -2.680042   -2.409024    0.137196
      4          1           0       -2.880047   -1.454070    1.625496
      5          6           0       -2.184892   -0.333257   -0.064202
      6          8           0       -2.720483    0.563658   -0.711675
      7          7           0       -0.867867   -0.387518    0.147603
      8          1           0       -0.473930   -1.145320    0.686779
      9          6           0        0.034007    0.618200   -0.376508
     10          1           0       -0.037444    0.639788   -1.463919
     11          6           0       -0.313763    2.001819    0.162345
     12          1           0       -0.237736    1.998512    1.249642
     13          1           0        0.379219    2.736600   -0.247561
     14          1           0       -1.331497    2.260634   -0.129489
     15          6           0        1.474878    0.317009    0.010380
     16          8           0        2.122163    1.120036    0.678712
     17          7           0        1.976804   -0.845614   -0.412324
     18          1           0        1.405183   -1.473309   -0.959507
     19          6           0        3.335468   -1.248197   -0.110011
     20          1           0        3.821385   -0.473097    0.482572
     21          1           0        3.321715   -2.180820    0.454026
     22          1           0        3.886937   -1.394054   -1.038795
 ---------------------------------------------------------------------
 Rotational constants (GHZ):      2.4382748      0.7276035      0.6050809
 Standard basis: 6-31G(d) (6D, 7F)
 There are   174 symmetry adapted basis functions of A   symmetry.
 Integral buffers will be    131072 words long.
 Raffenetti 2 integral format.
 Two-electron integral symmetry is turned on.
   174 basis functions,   328 primitive gaussians,   174 cartesian basis functions
    39 alpha electrons       39 beta electrons
       nuclear repulsion energy       554.8882476223 Hartrees.
 NAtoms=   22 NActive=   22 NUniq=   22 SFac= 7.50D-01 NAtFMM=   80 NAOKFM=F Big=F
 One-electron integrals computed using PRISM.
 NBasis=   174 RedAO= T  NBF=   174
 NBsUse=   174 1.00D-06 NBFU=   174
 Harris functional with IExCor=  402 diagonalized for initial guess.
 ExpMin= 1.61D-01 ExpMax= 5.48D+03 ExpMxC= 8.25D+02 IAcc=1 IRadAn=         1 AccDes= 0.00D+00
 HarFok:  IExCor=  402 AccDes= 0.00D+00 IRadAn=         1 IDoV= 1
 ScaDFX=  1.000000  1.000000  1.000000  1.000000
 FoFCou: FMM=F IPFlag=           0 FMFlag=      100000 FMFlg1=           0
         NFxFlg=           0 DoJE=T BraDBF=F KetDBF=T FulRan=T
         Omega=  0.000000  0.000000  1.000000  0.000000  0.000000 ICntrl=     500 IOpCl=  0
         NMat0=    1 NMatS0=    1 NMatT0=    0 NMatD0=    1 NMtDS0=    0 NMtDT0=    0
         I1Cent=           4 NGrid=           0.
 Petite list used in FoFCou.
 Initial guess orbital symmetries:
       Occupied  (A) (A) (A) (A) (A) (A) (A) (A) (A) (A) (A) (A)
                 (A) (A) (A) (A) (A) (A) (A) (A) (A) (A) (A) (A)
                 (A) (A) (A) (A) (A) (A) (A) (A) (A) (A) (A) (A)
                 (A) (A) (A)
       Virtual   (A) (A) (A) (A) (A) (A) (A) (A) (A) (A) (A) (A)
                 (A) (A) (A) (A) (A) (A) (A) (A) (A) (A) (A) (A)
                 (A) (A) (A) (A) (A) (A) (A) (A) (A) (A) (A) (A)
                 (A) (A) (A) (A) (A) (A) (A) (A) (A) (A) (A) (A)
                 (A) (A) (A) (A) (A) (A) (A) (A) (A) (A) (A) (A)
                 (A) (A) (A) (A) (A) (A) (A) (A) (A) (A) (A) (A)
                 (A) (A) (A) (A) (A) (A) (A) (A) (A) (A) (A) (A)
                 (A) (A) (A) (A) (A) (A) (A) (A) (A) (A) (A) (A)
                 (A) (A) (A) (A) (A) (A) (A) (A) (A) (A) (A) (A)
                 (A) (A) (A) (A) (A) (A) (A) (A) (A) (A) (A) (A)
                 (A) (A) (A) (A) (A) (A) (A) (A) (A) (A) (A) (A)
                 (A) (A) (A)
 The electronic state of the initial guess is 1-A.
 Requested convergence on RMS density matrix=1.00D-08 within 128 cycles.
 Requested convergence on MAX density matrix=1.00D-06.
 Requested convergence on             energy=1.00D-06.
 No special actions if energy rises.
 Integral accuracy reduced to 1.0D-05 until final iterations.
 Initial convergence to 1.0D-05 achieved.  Increase integral accuracy.
 SCF Done:  E(RB3LYP) =  -495.836347587     A.U. after   15 cycles
             Convg  =    0.7863D-08             -V/T =  2.0087
 Range of M.O.s used for correlation:     1   174
 NBasis=   174 NAE=    39 NBE=    39 NFC=     0 NFV=     0
 NROrb=    174 NOA=    39 NOB=    39 NVA=   135 NVB=   135
 Symmetrizing basis deriv contribution to polar:
 IMax=3 JMax=2 DiffMx= 0.00D+00
 G2DrvN: will do    23 centers at a time, making    1 passes doing MaxLOS=2.
 Calling FoFCou, ICntrl=  3107 FMM=F I1Cent=   0 AccDes= 0.00D+00.
 FoFDir/FoFCou used for L=0 through L=2.
 End of G2Drv Frequency-dependent properties file   721 does not exist.
 End of G2Drv Frequency-dependent properties file   722 does not exist.
          IDoAtm=1111111111111111111111
          Differentiating once with respect to nuclear coordinates.
          There are    69 degrees of freedom in the 1st order CPHF.  IDoFFX=5.
     63 vectors produced by pass  0 Test12= 7.63D-11 1.45D-07 XBig12= 1.63D-01 1.08D-01.
 AX will form    63 AO Fock derivatives at one time.
     63 vectors produced by pass  1 Test12= 7.63D-11 1.45D-07 XBig12= 4.28D-02 5.76D-02.
     63 vectors produced by pass  2 Test12= 7.63D-11 1.45D-07 XBig12= 4.49D-05 1.22D-03.
     63 vectors produced by pass  3 Test12= 7.63D-11 1.45D-07 XBig12= 1.09D-07 4.61D-05.
     30 vectors produced by pass  4 Test12= 7.63D-11 1.45D-07 XBig12= 1.08D-10 2.15D-06.
 Inverted reduced A of dimension   282 with in-core refinement.
 End of Minotr Frequency-dependent properties file   721 does not exist.
 End of Minotr Frequency-dependent properties file   722 does not exist.

 **********************************************************************

            Population analysis using the SCF density.

 **********************************************************************

 Orbital symmetries:
       Occupied  (A) (A) (A) (A) (A) (A) (A) (A) (A) (A) (A) (A)
                 (A) (A) (A) (A) (A) (A) (A) (A) (A) (A) (A) (A)
                 (A) (A) (A) (A) (A) (A) (A) (A) (A) (A) (A) (A)
                 (A) (A) (A)
       Virtual   (A) (A) (A) (A) (A) (A) (A) (A) (A) (A) (A) (A)
                 (A) (A) (A) (A) (A) (A) (A) (A) (A) (A) (A) (A)
                 (A) (A) (A) (A) (A) (A) (A) (A) (A) (A) (A) (A)
                 (A) (A) (A) (A) (A) (A) (A) (A) (A) (A) (A) (A)
                 (A) (A) (A) (A) (A) (A) (A) (A) (A) (A) (A) (A)
                 (A) (A) (A) (A) (A) (A) (A) (A) (A) (A) (A) (A)
                 (A) (A) (A) (A) (A) (A) (A) (A) (A) (A) (A) (A)
                 (A) (A) (A) (A) (A) (A) (A) (A) (A) (A) (A) (A)
                 (A) (A) (A) (A) (A) (A) (A) (A) (A) (A) (A) (A)
                 (A) (A) (A) (A) (A) (A) (A) (A) (A) (A) (A) (A)
                 (A) (A) (A) (A) (A) (A) (A) (A) (A) (A) (A) (A)
                 (A) (A) (A)
 The electronic state is 1-A.
 Alpha  occ. eigenvalues --  -19.11236 -19.10468 -14.37595 -14.36809 -10.28761
 Alpha  occ. eigenvalues --  -10.28472 -10.23154 -10.22617 -10.19201 -10.15540
 Alpha  occ. eigenvalues --   -1.04030  -1.02905  -0.94003  -0.92825  -0.78208
 Alpha  occ. eigenvalues --   -0.73051  -0.71789  -0.64160  -0.60092  -0.58778
 Alpha  occ. eigenvalues --   -0.54571  -0.49183  -0.48250  -0.46508  -0.46030
 Alpha  occ. eigenvalues --   -0.44918  -0.42092  -0.41179  -0.40245  -0.39512
 Alpha  occ. eigenvalues --   -0.38812  -0.37838  -0.36295  -0.35870  -0.33888
 Alpha  occ. eigenvalues --   -0.26467  -0.25735  -0.25123  -0.24042
 Alpha virt. eigenvalues --    0.01907   0.03083   0.05951   0.08460   0.11636
 Alpha virt. eigenvalues --    0.12373   0.13551   0.15244   0.15853   0.16137
 Alpha virt. eigenvalues --    0.16663   0.17266   0.17788   0.19179   0.21330
 Alpha virt. eigenvalues --    0.21674   0.24266   0.25682   0.28764   0.32180
 Alpha virt. eigenvalues --    0.35330   0.38402   0.41855   0.50456   0.50827
 Alpha virt. eigenvalues --    0.51429   0.53162   0.53652   0.55023   0.56931
 Alpha virt. eigenvalues --    0.57132   0.59699   0.62702   0.64664   0.65237
 Alpha virt. eigenvalues --    0.67328   0.69805   0.71018   0.71892   0.72732
 Alpha virt. eigenvalues --    0.75414   0.75748   0.77949   0.80527   0.84040
 Alpha virt. eigenvalues --    0.84681   0.86386   0.86771   0.87367   0.88449
 Alpha virt. eigenvalues --    0.89420   0.89968   0.90921   0.91460   0.93917
 Alpha virt. eigenvalues --    0.94757   0.95107   0.96573   0.98881   0.99288
 Alpha virt. eigenvalues --    1.03474   1.07455   1.08470   1.14266   1.17270
 Alpha virt. eigenvalues --    1.18876   1.26728   1.29775   1.32628   1.34975
 Alpha virt. eigenvalues --    1.36799   1.38423   1.40673   1.45257   1.46937
 Alpha virt. eigenvalues --    1.49965   1.55725   1.61997   1.63680   1.69655
 Alpha virt. eigenvalues --    1.75158   1.78721   1.80295   1.82575   1.83466
 Alpha virt. eigenvalues --    1.83742   1.87041   1.87661   1.88863   1.91683
 Alpha virt. eigenvalues --    1.91882   1.93998   1.96932   2.00401   2.03340
 Alpha virt. eigenvalues --    2.05291   2.06921   2.07978   2.12942   2.17258
 Alpha virt. eigenvalues --    2.18168   2.24193   2.25335   2.28533   2.29631
 Alpha virt. eigenvalues --    2.30587   2.31863   2.37490   2.39603   2.40136
 Alpha virt. eigenvalues --    2.43387   2.46054   2.54984   2.59917   2.64983
 Alpha virt. eigenvalues --    2.66618   2.68198   2.73068   2.77302   2.88930
 Alpha virt. eigenvalues --    2.92439   2.96841   3.03506   3.14975   3.20944
 Alpha virt. eigenvalues --    3.94003   3.96712   4.04093   4.10928   4.19464
 Alpha virt. eigenvalues --    4.23492   4.29454   4.42924   4.45982   4.63925
          Condensed to atoms (all electrons):
              1          2          3          4          5          6
     1  H    0.497225   0.361174  -0.021446  -0.020695  -0.017528   0.005080
     2  C    0.361174   5.332075   0.349498   0.351948   0.356469  -0.079031
     3  H   -0.021446   0.349498   0.560923  -0.027548  -0.026551   0.001460
     4  H   -0.020695   0.351948  -0.027548   0.550162  -0.027386   0.001231
     5  C   -0.017528   0.356469  -0.026551  -0.027386   4.347946   0.599139
     6  O    0.005080  -0.079031   0.001460   0.001231   0.599139   8.066182
     7  N    0.004610  -0.139040   0.004785   0.004899   0.213694  -0.107978
     8  H   -0.000141  -0.000864   0.001108   0.000885  -0.015926   0.003584
     9  C   -0.000146   0.007279  -0.000266  -0.000022  -0.020825   0.013170
    10  H    0.000001   0.000202  -0.000018  -0.000003  -0.004589   0.004783
    11  C    0.000015  -0.000732   0.000015   0.000044  -0.006476  -0.017262
    12  H    0.000000   0.000007  -0.000001   0.000001   0.000554  -0.000127
    13  H    0.000000   0.000006   0.000000  -0.000001   0.000302   0.000300
    14  H    0.000000   0.000550  -0.000008  -0.000045   0.003258   0.018522
    15  C    0.000001  -0.000032  -0.000016  -0.000013   0.005784   0.000784
    16  O    0.000000   0.000001   0.000000   0.000000  -0.000130  -0.000001
    17  N    0.000000  -0.000028   0.000000   0.000001   0.000109  -0.000005
    18  H    0.000000  -0.000001   0.000009  -0.000002   0.000015  -0.000006
    19  C    0.000000   0.000000   0.000000   0.000000   0.000013   0.000000
    20  H    0.000000   0.000000   0.000000   0.000000   0.000001   0.000000
    21  H    0.000000   0.000000   0.000000   0.000000  -0.000002   0.000000
    22  H    0.000000   0.000000   0.000000   0.000000   0.000000   0.000000
              7          8          9         10         11         12
     1  H    0.004610  -0.000141  -0.000146   0.000001   0.000015   0.000000
     2  C   -0.139040  -0.000864   0.007279   0.000202  -0.000732   0.000007
     3  H    0.004785   0.001108  -0.000266  -0.000018   0.000015  -0.000001
     4  H    0.004899   0.000885  -0.000022  -0.000003   0.000044   0.000001
     5  C    0.213694  -0.015926  -0.020825  -0.004589  -0.006476   0.000554
     6  O   -0.107978   0.003584   0.013170   0.004783  -0.017262  -0.000127
     7  N    7.238078   0.296877   0.215766  -0.053225  -0.056603  -0.000525
     8  H    0.296877   0.418008  -0.043940   0.004234   0.004137   0.000535
     9  C    0.215766  -0.043940   5.115493   0.371457   0.376855  -0.034821
    10  H   -0.053225   0.004234   0.371457   0.588541  -0.044489   0.005851
    11  C   -0.056603   0.004137   0.376855  -0.044489   5.119367   0.374412
    12  H   -0.000525   0.000535  -0.034821   0.005851   0.374412   0.557549
    13  H    0.004652  -0.000127  -0.029455  -0.000501   0.365741  -0.022961
    14  H   -0.008363  -0.000153  -0.024840  -0.003913   0.354354  -0.028470
    15  C   -0.020494  -0.001862   0.291038  -0.035276  -0.039304  -0.006415
    16  O    0.000123  -0.000109  -0.092127   0.001547  -0.000194   0.004309
    17  N   -0.002659   0.009740  -0.132888  -0.000226   0.006048   0.000146
    18  H    0.005111   0.000631   0.001299  -0.000306   0.000246  -0.000008
    19  C    0.000001  -0.000397   0.006476  -0.000270  -0.000169  -0.000002
    20  H   -0.000021  -0.000021   0.001315  -0.000038  -0.000019  -0.000006
    21  H    0.000018  -0.000084  -0.000062  -0.000008   0.000004   0.000000
    22  H   -0.000004   0.000022  -0.000193   0.000019   0.000001   0.000000
             13         14         15         16         17         18
     1  H    0.000000   0.000000   0.000001   0.000000   0.000000   0.000000
     2  C    0.000006   0.000550  -0.000032   0.000001  -0.000028  -0.000001
     3  H    0.000000  -0.000008  -0.000016   0.000000   0.000000   0.000009
     4  H   -0.000001  -0.000045  -0.000013   0.000000   0.000001  -0.000002
     5  C    0.000302   0.003258   0.005784  -0.000130   0.000109   0.000015
     6  O    0.000300   0.018522   0.000784  -0.000001  -0.000005  -0.000006
     7  N    0.004652  -0.008363  -0.020494   0.000123  -0.002659   0.005111
     8  H   -0.000127  -0.000153  -0.001862  -0.000109   0.009740   0.000631
     9  C   -0.029455  -0.024840   0.291038  -0.092127  -0.132888   0.001299
    10  H   -0.000501  -0.003913  -0.035276   0.001547  -0.000226  -0.000306
    11  C    0.365741   0.354354  -0.039304  -0.000194   0.006048   0.000246
    12  H   -0.022961  -0.028470  -0.006415   0.004309   0.000146  -0.000008
    13  H    0.552332  -0.024668  -0.002102   0.003128   0.000090  -0.000025
    14  H   -0.024668   0.522580   0.005253   0.001011  -0.000051  -0.000017
    15  C   -0.002102   0.005253   4.413347   0.593605   0.273999  -0.024462
    16  O    0.003128   0.001011   0.593605   8.080314  -0.098593   0.003646
    17  N    0.000090  -0.000051   0.273999  -0.098593   7.091189   0.303808
    18  H   -0.000025  -0.000017  -0.024462   0.003646   0.303808   0.412260
    19  C    0.000000   0.000002  -0.023790  -0.009048   0.258442  -0.031491
    20  H   -0.000003   0.000000  -0.000636   0.022031  -0.037392   0.003871
    21  H    0.000000   0.000000   0.001436   0.000608  -0.043704  -0.000467
    22  H    0.000000   0.000000   0.001272   0.000563  -0.043247  -0.001127
             19         20         21         22
     1  H    0.000000   0.000000   0.000000   0.000000
     2  C    0.000000   0.000000   0.000000   0.000000
     3  H    0.000000   0.000000   0.000000   0.000000
     4  H    0.000000   0.000000   0.000000   0.000000
     5  C    0.000013   0.000001  -0.000002   0.000000
     6  O    0.000000   0.000000   0.000000   0.000000
     7  N    0.000001  -0.000021   0.000018  -0.000004
     8  H   -0.000397  -0.000021  -0.000084   0.000022
     9  C    0.006476   0.001315  -0.000062  -0.000193
    10  H   -0.000270  -0.000038  -0.000008   0.000019
    11  C   -0.000169  -0.000019   0.000004   0.000001
    12  H   -0.000002  -0.000006   0.000000   0.000000
    13  H    0.000000  -0.000003   0.000000   0.000000
    14  H    0.000002   0.000000   0.000000   0.000000
    15  C   -0.023790  -0.000636   0.001436   0.001272
    16  O   -0.009048   0.022031   0.000608   0.000563
    17  N    0.258442  -0.037392  -0.043704  -0.043247
    18  H   -0.031491   0.003871  -0.000467  -0.001127
    19  C    4.973199   0.376622   0.381689   0.384041
    20  H    0.376622   0.468030  -0.024026  -0.023570
    21  H    0.381689  -0.024026   0.565412  -0.038045
    22  H    0.384041  -0.023570  -0.038045   0.556840
 Mulliken atomic charges:
              1
     1  H    0.191851
     2  C   -0.539478
     3  H    0.158055
     4  H    0.166543
     5  C    0.592128
     6  O   -0.509825
     7  N   -0.599703
     8  H    0.323860
     9  C   -0.020563
    10  H    0.166226
    11  C   -0.435992
    12  H    0.149973
    13  H    0.153290
    14  H    0.184998
    15  C    0.567885
    16  O   -0.510684
    17  N   -0.584778
    18  H    0.327014
    19  C   -0.315320
    20  H    0.213862
    21  H    0.157231
    22  H    0.163427
 Sum of Mulliken atomic charges =   0.00000
 Mulliken charges with hydrogens summed into heavy atoms:
              1
     2  C   -0.023029
     5  C    0.592128
     6  O   -0.509825
     7  N   -0.275842
     9  C    0.145663
    11  C    0.052268
    15  C    0.567885
    16  O   -0.510684
    17  N   -0.257764
    19  C    0.219200
 Sum of Mulliken charges with hydrogens summed into heavy atoms =   0.00000
 APT atomic charges:
              1
     1  H    0.748945
     2  C   -1.212332
     3  H    0.333590
     4  H    0.341174
     5  C   -0.147850
     6  O   -0.025482
     7  N   -0.600889
     8  H    0.462486
     9  C   -0.402077
    10  H    0.399756
    11  C   -1.183442
    12  H    0.339954
    13  H    0.478215
    14  H    0.447594
    15  C   -0.239211
    16  O   -0.003186
    17  N   -0.325853
    18  H    0.434212
    19  C   -1.424300
    20  H    0.508865
    21  H    0.466182
    22  H    0.603649
 Sum of APT charges=   0.00000
 APT Atomic charges with hydrogens summed into heavy atoms:
              1
     1  H    0.000000
     2  C    0.211377
     3  H    0.000000
     4  H    0.000000
     5  C   -0.147850
     6  O   -0.025482
     7  N   -0.138403
     8  H    0.000000
     9  C   -0.002321
    10  H    0.000000
    11  C    0.082321
    12  H    0.000000
    13  H    0.000000
    14  H    0.000000
    15  C   -0.239211
    16  O   -0.003186
    17  N    0.108359
    18  H    0.000000
    19  C    0.154395
    20  H    0.000000
    21  H    0.000000
    22  H    0.000000
 Sum of APT charges=   0.00000
 Electronic spatial extent (au):  <R**2>=           1906.5996
 Charge=              0.0000 electrons
 Dipole moment (field-independent basis, Debye):
    X=              1.5908    Y=             -5.1993    Z=             -0.1542  Tot=              5.4394
 Quadrupole moment (field-independent basis, Debye-Ang):
   XX=            -65.6026   YY=            -57.9970   ZZ=            -59.9903
   XY=             -1.7355   XZ=             -8.1763   YZ=             -0.7777
 Traceless Quadrupole moment (field-independent basis, Debye-Ang):
   XX=             -4.4060   YY=              3.1996   ZZ=              1.2064
   XY=             -1.7355   XZ=             -8.1763   YZ=             -0.7777
 Octapole moment (field-independent basis, Debye-Ang**2):
  XXX=             27.4142  YYY=             -7.3052  ZZZ=             -0.7475  XYY=             -0.3214
  XXY=            -32.8516  XXZ=              6.1817  XZZ=              2.2558  YZZ=             -3.3459
  YYZ=             -4.0669  XYZ=             -4.3946
 Hexadecapole moment (field-independent basis, Debye-Ang**3):
 XXXX=          -1714.3378 YYYY=           -540.3133 ZZZZ=           -143.0156 XXXY=             -1.5744
 XXXZ=            -40.5002 YYYX=            -13.5046 YYYZ=              0.6828 ZZZX=              0.6842
 ZZZY=              2.5982 XXYY=           -383.6940 XXZZ=           -324.7482 YYZZ=           -114.1453
 XXYZ=              2.9602 YYXZ=             -5.0159 ZZXY=             -3.2746
 N-N= 5.548882476223D+02 E-N=-2.265980605994D+03  KE= 4.915523103073D+02
  Exact polarizability:   0.000   0.000   0.000   0.000   0.000   0.000
 Approx polarizability: 118.076  -4.428 120.398  10.381   2.374  96.635
 Calling FoFJK, ICntrl=    100147 FMM=F ISym2X=0 I1Cent= 0 IOpClX= 0 NMat=1 NMatS=1 NMatT=0.
 ***** Axes restored to original set *****
 -------------------------------------------------------------------
 Center     Atomic                   Forces (Hartrees/Bohr)
 Number     Number              X              Y              Z
 -------------------------------------------------------------------
      1        1           0.003704754    0.000872190    0.000002354
      2        6           0.005455849    0.009087353   -0.000371502
      3        1          -0.006438911    0.000375310    0.001865187
      4        1          -0.006301275    0.000390437   -0.001819760
      5        6          -0.002502939   -0.043867301    0.000353026
      6        8           0.000542874    0.001289848    0.003686966
      7        7          -0.008799036    0.026477075    0.006582031
      8        1          -0.001736339   -0.000852180   -0.001706802
      9        6           0.012906600   -0.001805527   -0.013440926
     10        1           0.001315581   -0.003269614    0.006505740
     11        6           0.004546925   -0.007031067   -0.000608498
     12        1           0.001395504    0.001781708   -0.002259717
     13        1           0.001015499    0.001365625   -0.002446372
     14        1           0.000455100    0.000551603   -0.000044710
     15        6           0.011393260   -0.000919366   -0.024120636
     16        8          -0.001415327    0.003095204    0.004028689
     17        7          -0.012323594    0.008132324    0.015781799
     18        1           0.001529317   -0.001308627    0.000877203
     19        6          -0.002499587    0.000655319    0.003907395
     20        1           0.000666235   -0.003307230   -0.000461765
     21        1          -0.003550648    0.004148841    0.000758777
     22        1           0.000640156    0.004138075    0.002931521
 -------------------------------------------------------------------
 Cartesian Forces:  Max     0.043867301 RMS     0.008516926

 GradGradGradGradGradGradGradGradGradGradGradGradGradGradGradGradGradGrad
 Berny optimization.
 Internal  Forces:  Max     0.032237780 RMS     0.006686091
 Search for a local minimum.
 Step number   1 out of a maximum of  132
 All quantities printed in internal units (Hartrees-Bohrs-Radians)
 Mixed Optimization -- RFO/linear search
 Second derivative matrix not updated -- analytic derivatives used.
     Eigenvalues ---   -0.00056  -0.00028   0.00222   0.00295   0.00463
     Eigenvalues ---    0.01718   0.01848   0.02162   0.03658   0.03963
     Eigenvalues ---    0.04624   0.04904   0.05437   0.05545   0.05830
     Eigenvalues ---    0.05984   0.06398   0.06602   0.11912   0.12442
     Eigenvalues ---    0.12531   0.13168   0.13288   0.13396   0.13724
     Eigenvalues ---    0.14276   0.15290   0.17844   0.18017   0.18222
     Eigenvalues ---    0.18621   0.21223   0.22307   0.23443   0.24209
     Eigenvalues ---    0.25401   0.27596   0.30788   0.33828   0.34264
     Eigenvalues ---    0.34593   0.34779   0.35059   0.35183   0.35234
     Eigenvalues ---    0.35535   0.35907   0.35929   0.36277   0.39002
     Eigenvalues ---    0.40396   0.42377   0.46734   0.46835   0.54643
     Eigenvalues ---    0.55240   0.82365   0.826271000.000001000.00000
     Eigenvalues --- 1000.000001000.000001000.000001000.000001000.00000
     Eigenvalues --- 1000.000001000.000001000.000001000.000001000.00000
     Eigenvalues --- 1000.000001000.000001000.000001000.000001000.00000
     Eigenvalues --- 1000.000001000.000001000.000001000.000001000.00000
     Eigenvalues --- 1000.000001000.000001000.000001000.000001000.00000
     Eigenvalues --- 1000.000001000.000001000.000001000.000001000.00000
     Eigenvalues --- 1000.000001000.000001000.000001000.000001000.00000
     Eigenvalues --- 1000.000001000.000001000.00000
 RFO step:  Lambda=-1.22281122D-02 EMin=-5.56283008D-04
 Linear search not attempted -- first point.
 Maximum step size (   0.300) exceeded in Quadratic search.
    -- Step size scaled by   0.317
 Iteration  1 RMS(Cart)=  0.05700489 RMS(Int)=  0.00252897
 Iteration  2 RMS(Cart)=  0.00271250 RMS(Int)=  0.00004372
 Iteration  3 RMS(Cart)=  0.00000619 RMS(Int)=  0.00004350
 Iteration  4 RMS(Cart)=  0.00000000 RMS(Int)=  0.00004350
 Iteration  1 RMS(Cart)=  0.00002381 RMS(Int)=  0.00000679
 Iteration  2 RMS(Cart)=  0.00001252 RMS(Int)=  0.00000758
 Iteration  3 RMS(Cart)=  0.00000661 RMS(Int)=  0.00000854
 Iteration  4 RMS(Cart)=  0.00000353 RMS(Int)=  0.00000918
 Iteration  5 RMS(Cart)=  0.00000191 RMS(Int)=  0.00000955
 Iteration  6 RMS(Cart)=  0.00000105 RMS(Int)=  0.00000977
 Iteration  7 RMS(Cart)=  0.00000060 RMS(Int)=  0.00000989
 Variable       Old X    -DE/DX   Delta X   Delta X   Delta X     New X
                                 (Linear)    (Quad)   (Total)
    R1        2.05980  -0.00087   0.00000   0.00012   0.00012   2.05992
    R2        2.05976   0.00468   0.00000   0.00367   0.00367   2.06343
    R3        2.05976   0.00459   0.00000   0.00376   0.00376   2.06353
    R4        2.89125  -0.00052   0.00000  -0.00294  -0.00294   2.88831
    R5        2.32254  -0.00038   0.00000  -0.00271  -0.00271   2.31984
    R6        2.52288   0.03224   0.00000   0.01848   0.01848   2.54135
    R7        1.90868   0.00092   0.00000   0.00033   0.00033   1.90901
    R8        2.73817   0.01717   0.00000   0.01170   0.01170   2.74987
    R9        2.05975   0.00688   0.00000   0.00538   0.00538   2.06512
   R10        2.88188   0.00912   0.00000   0.00263   0.00263   2.88451
   R11        2.87618   0.01508   0.00000   0.01126   0.01126   2.88744
   R12        2.05972   0.00167   0.00000   0.00192   0.00192   2.06164
   R13        2.05984   0.00147   0.00000   0.00211   0.00211   2.06196
   R14        2.05966  -0.00049   0.00000   0.00046   0.00046   2.06012
   R15        2.32252  -0.00186   0.00000  -0.00391  -0.00391   2.31860
   R16        2.52284   0.03103   0.00000   0.01813   0.01813   2.54096
   R17        1.90868   0.00084   0.00000   0.00047   0.00047   1.90915
   R18        2.73811   0.00679   0.00000   0.00247   0.00247   2.74058
   R19        2.05976  -0.00088   0.00000   0.00037   0.00037   2.06012
   R20        2.05981   0.00432   0.00000   0.00310   0.00310   2.06292
   R21        2.05974   0.00411   0.00000   0.00408   0.00408   2.06382
    A1        1.91119  -0.00026   0.00000   0.00064   0.00069   1.91188
    A2        1.91119  -0.00021   0.00000  -0.00390  -0.00391   1.90728
    A3        1.93907  -0.00787   0.00000  -0.01346  -0.01344   1.92563
    A4        1.91011  -0.00521   0.00000  -0.00841  -0.00850   1.90161
    A5        1.89600   0.00689   0.00000   0.02027   0.02026   1.91626
    A6        1.89600   0.00670   0.00000   0.00499   0.00494   1.90094
    A7        2.10313   0.00671   0.00000   0.01179   0.01178   2.11491
    A8        2.03509  -0.01029   0.00000  -0.01020  -0.01021   2.02488
    A9        2.14496   0.00358   0.00000  -0.00158  -0.00159   2.14338
   A10        2.09433  -0.00777   0.00000  -0.00562  -0.00576   2.08857
   A11        2.12754   0.01230   0.00000   0.00736   0.00722   2.13475
   A12        2.06132  -0.00452   0.00000  -0.00174  -0.00188   2.05944
   A13        1.91114  -0.00076   0.00000  -0.00576  -0.00584   1.90529
   A14        1.93905   0.00736   0.00000   0.00992   0.01001   1.94905
   A15        1.93900  -0.01196   0.00000  -0.01770  -0.01780   1.92120
   A16        1.89609  -0.00307   0.00000   0.00126   0.00126   1.89735
   A17        1.89608  -0.00051   0.00000   0.00045   0.00030   1.89638
   A18        1.88137   0.00904   0.00000   0.01225   0.01233   1.89371
   A19        1.91115   0.00179   0.00000   0.00421   0.00421   1.91536
   A20        1.91106   0.00187   0.00000   0.00133   0.00133   1.91239
   A21        1.91110   0.00018   0.00000   0.00033   0.00033   1.91143
   A22        1.91011  -0.00290   0.00000  -0.00807  -0.00807   1.90204
   A23        1.91023  -0.00028   0.00000   0.00161   0.00160   1.91183
   A24        1.91015  -0.00066   0.00000   0.00059   0.00058   1.91074
   A25        2.10310   0.01095   0.00000   0.01168   0.01168   2.11478
   A26        2.03507  -0.01070   0.00000  -0.01427  -0.01427   2.02080
   A27        2.14501  -0.00025   0.00000   0.00259   0.00259   2.14761
   A28        2.09435  -0.00418   0.00000  -0.00883  -0.00890   2.08545
   A29        2.12756   0.00611   0.00000   0.00536   0.00529   2.13285
   A30        2.06127  -0.00194   0.00000   0.00347   0.00340   2.06467
   A31        1.91121  -0.00674   0.00000  -0.01127  -0.01125   1.89997
   A32        1.91119   0.00535   0.00000   0.00621   0.00619   1.91738
   A33        1.91114   0.00463   0.00000   0.01111   0.01109   1.92224
   A34        1.91000   0.00000   0.00000   0.00114   0.00115   1.91116
   A35        1.91015   0.00006   0.00000  -0.00362  -0.00359   1.90655
   A36        1.91010  -0.00329   0.00000  -0.00358  -0.00364   1.90646
    D1        0.00000  -0.00064   0.00000   0.09463   0.09467   0.09467
    D2        3.14159   0.00060   0.00000   0.08910   0.08912  -3.05247
    D3        2.10337  -0.00137   0.00000   0.10020   0.10016   2.20353
    D4       -1.03822  -0.00013   0.00000   0.09468   0.09461  -0.94361
    D5       -2.10337   0.00015   0.00000   0.10456   0.10460  -1.99878
    D6        1.03822   0.00140   0.00000   0.09903   0.09905   1.13727
    D7        0.00000   0.00188   0.00000   0.00497   0.00500   0.00500
    D8        3.14159   0.00096   0.00000   0.03701   0.03696  -3.10464
    D9        3.14159   0.00315   0.00000  -0.00070  -0.00064   3.14095
   D10        0.00000   0.00223   0.00000   0.03134   0.03131   0.03131
   D11       -1.04720   0.00056   0.00000  -0.01437  -0.01430  -1.06150
   D12        1.04724   0.00090   0.00000  -0.01027  -0.01024   1.03700
   D13        3.14159   0.00924   0.00000   0.00000   0.00000   3.14159
   D14        2.09439  -0.00034   0.00000   0.01709   0.01715   2.11154
   D15       -2.09435   0.00000   0.00000   0.02118   0.02121  -2.07314
   D16        0.00000   0.00834   0.00000   0.03145   0.03144   0.03144
   D17        1.04724  -0.00129   0.00000   0.00220   0.00224   1.04948
   D18        3.14157  -0.00260   0.00000  -0.00429  -0.00426   3.13731
   D19       -1.04726  -0.00216   0.00000  -0.00255  -0.00252  -1.04979
   D20       -3.13259   0.00034   0.00000   0.00203   0.00204  -3.13055
   D21       -1.03826  -0.00097   0.00000  -0.00446  -0.00446  -1.04272
   D22        1.05609  -0.00052   0.00000  -0.00272  -0.00272   1.05337
   D23       -1.08102   0.00304   0.00000   0.00995   0.00992  -1.07110
   D24        1.01331   0.00173   0.00000   0.00346   0.00343   1.01673
   D25        3.10766   0.00217   0.00000   0.00520   0.00516   3.11282
   D26       -2.09439  -0.00563   0.00000  -0.00048  -0.00047  -2.09486
   D27        1.04722  -0.00537   0.00000   0.00000   0.00000   1.04722
   D28        2.08548   0.00303   0.00000   0.01731   0.01732   2.10279
   D29       -1.05609   0.00330   0.00000   0.01779   0.01778  -1.03831
   D30        0.03390   0.00200   0.00000   0.00886   0.00882   0.04272
   D31       -3.10767   0.00226   0.00000   0.00934   0.00929  -3.09838
   D32       -0.00011   0.00078   0.00000   0.01827   0.01824   0.01813
   D33        3.14159   0.00011   0.00000  -0.00409  -0.00404   3.13755
   D34        3.14151   0.00105   0.00000   0.01877   0.01871  -3.12296
   D35        0.00002   0.00039   0.00000  -0.00360  -0.00356  -0.00354
   D36        0.00004   0.00023   0.00000   0.07182   0.07185   0.07189
   D37        2.09436  -0.00063   0.00000   0.07012   0.07012   2.16449
   D38       -2.09443   0.00145   0.00000   0.07636   0.07642  -2.01800
   D39       -3.14145  -0.00043   0.00000   0.04987   0.04983  -3.09162
   D40       -1.04712  -0.00129   0.00000   0.04816   0.04810  -0.99902
   D41        1.04727   0.00080   0.00000   0.05440   0.05440   1.10168
         Item               Value     Threshold  Converged?
 Maximum Force            0.032238     0.000450     NO 
 RMS     Force            0.006563     0.000300     NO 
 Maximum Displacement     0.215149     0.001800     NO 
 RMS     Displacement     0.057223     0.001200     NO 
 Predicted change in Energy=-3.380323D-03
 GradGradGradGradGradGradGradGradGradGradGradGradGradGradGradGradGradGrad

                          Input orientation:                          
 ---------------------------------------------------------------------
 Center     Atomic      Atomic             Coordinates (Angstroms)
 Number     Number       Type             X           Y           Z
 ---------------------------------------------------------------------
      1          1           0        1.975565    1.032710    0.094932
      2          6           0        1.988081    2.117962   -0.006627
      3          1           0        1.417206    2.567688    0.808320
      4          1           0        1.528707    2.396428   -0.957329
      5          6           0        3.425335    2.637271    0.020116
      6          8           0        4.379608    1.865361    0.043195
      7          7           0        3.569752    3.974282    0.009974
      8          1           0        2.750862    4.565503   -0.009728
      9          6           0        4.875869    4.615413   -0.012865
     10          1           0        5.432747    4.327108    0.882129
     11          6           0        5.682112    4.208533   -1.243462
     12          1           0        5.145810    4.499094   -2.147995
     13          1           0        6.650654    4.710812   -1.228372
     14          1           0        5.832492    3.128793   -1.239691
     15          6           0        4.714308    6.134800   -0.019659
     16          8           0        5.156305    6.816278   -0.939246
     17          7           0        4.065809    6.658732    1.035305
     18          1           0        3.738210    6.048515    1.770816
     19          6           0        3.839154    8.084533    1.172960
     20          1           0        4.204975    8.587574    0.277641
     21          1           0        2.771748    8.280662    1.290752
     22          1           0        4.373691    8.467747    2.044832
 ---------------------------------------------------------------------
                    Distance matrix (angstroms):
                    1          2          3          4          5
     1  H    0.000000
     2  C    1.090065   0.000000
     3  H    1.782370   1.091920   0.000000
     4  H    1.779511   1.091972   1.777436   0.000000
     5  C    2.163803   1.528429   2.158399   2.147231   0.000000
     6  O    2.544682   2.405346   3.139188   3.067689   1.227605
     7  N    3.346864   2.438829   2.692456   2.755207   1.344827
     8  H    3.618379   2.563650   2.537539   2.663925   2.043009
     9  C    4.610764   3.817934   4.102423   4.125458   2.453199
    10  H    4.839922   4.187593   4.384698   4.727860   2.761942
    11  C    5.061189   4.421098   5.009152   4.540525   3.026307
    12  H    5.205477   4.497388   5.135428   4.349980   3.335735
    13  H    6.093933   5.473127   6.010830   5.627094   4.032491
    14  H    4.588100   4.161937   4.899381   4.374774   2.760998
    15  C    5.791819   4.854635   4.927547   5.000271   3.727700
    16  O    6.681040   5.742961   5.923290   5.717943   4.623931
    17  N    6.074993   5.101094   4.878858   5.345532   4.196780
    18  H    5.574388   4.655266   4.292973   5.065809   3.847003
    19  C    7.373149   6.357505   6.036090   6.498526   5.583276
    20  H    7.879062   6.844802   6.655247   6.856957   6.006686
    21  H    7.388958   6.346353   5.891145   6.420532   5.821474
    22  H    8.051887   7.086564   6.714198   7.346279   6.244462
                    6          7          8          9         10
     6  O    0.000000
     7  N    2.259318   0.000000
     8  H    3.153788   1.010204   0.000000
     9  C    2.795032   1.455167   2.125595   0.000000
    10  H    2.805907   2.087077   2.836326   1.092816   0.000000
    11  C    2.973626   2.467395   3.200274   1.526416   2.143450
    12  H    3.510688   2.723273   3.211288   2.155268   3.048535
    13  H    3.856309   3.401166   4.088348   2.153235   2.466727
    14  H    2.313639   2.719651   3.615714   2.151806   2.469388
    15  C    4.282999   2.445143   2.513546   1.527968   2.144091
    16  O    5.106861   3.390444   3.422886   2.404295   3.096739
    17  N    4.905013   2.916101   2.683800   2.435161   2.707111
    18  H    4.571088   2.726057   2.518833   2.555302   2.573803
    19  C    6.344018   4.280103   3.868683   3.809955   4.091743
    20  H    6.728567   4.664506   4.286500   4.038881   4.474863
    21  H    6.730356   4.563125   3.936253   4.422758   4.783144
    22  H    6.899136   4.997818   4.699180   4.396223   4.429262
                   11         12         13         14         15
    11  C    0.000000
    12  H    1.090975   0.000000
    13  H    1.091140   1.776257   0.000000
    14  H    1.090168   1.781649   1.781095   0.000000
    15  C    2.478879   2.718739   2.690384   3.431456   0.000000
    16  O    2.677565   2.613527   2.598011   3.760989   1.226953
    17  N    3.716004   3.995477   3.949690   4.556011   1.344621
    18  H    4.031149   4.442873   4.389409   4.687637   2.041082
    19  C    4.925339   5.058801   5.005290   5.861198   2.447385
    20  H    4.865356   4.846086   4.824801   5.894862   2.522679
    21  H    5.610231   5.635726   5.842579   6.504847   3.177332
    22  H    5.537666   5.824618   5.478411   6.435885   3.133813
                   16         17         18         19         20
    16  O    0.000000
    17  N    2.261162   0.000000
    18  H    3.153552   1.010278   0.000000
    19  C    2.793703   1.450252   2.124380   0.000000
    20  H    2.350177   2.076982   2.982325   1.090170   0.000000
    21  H    3.578187   2.090575   2.479312   1.091649   1.781777
    22  H    3.499222   2.094391   2.516267   1.092127   1.779266
                   21         22
    21  H    0.000000
    22  H    1.780409   0.000000
 Stoichiometry    C6H12N2O2
 Framework group  C1[X(C6H12N2O2)]
 Deg. of freedom    60
 Full point group                 C1      NOp   1
 Largest Abelian subgroup         C1      NOp   1
 Largest concise Abelian subgroup C1      NOp   1
                         Standard orientation:                         
 ---------------------------------------------------------------------
 Center     Atomic      Atomic             Coordinates (Angstroms)
 Number     Number       Type             X           Y           Z
 ---------------------------------------------------------------------
      1          1           0       -4.042557   -1.401871    0.273506
      2          6           0       -2.997067   -1.467147    0.575054
      3          1           0       -2.590786   -2.435888    0.277115
      4          1           0       -2.928389   -1.372461    1.660743
      5          6           0       -2.186557   -0.344696   -0.072458
      6          8           0       -2.732433    0.531831   -0.736337
      7          7           0       -0.858636   -0.379334    0.137264
      8          1           0       -0.459324   -1.123013    0.692244
      9          6           0        0.037062    0.645740   -0.376994
     10          1           0       -0.026750    0.663558   -1.467800
     11          6           0       -0.323811    2.029317    0.157265
     12          1           0       -0.254519    2.033528    1.246030
     13          1           0        0.370002    2.769000   -0.245327
     14          1           0       -1.340373    2.282453   -0.144377
     15          6           0        1.477941    0.332094    0.023227
     16          8           0        2.131616    1.113720    0.706735
     17          7           0        1.966398   -0.839444   -0.420521
     18          1           0        1.385761   -1.435156   -0.993801
     19          6           0        3.318587   -1.273869   -0.127107
     20          1           0        3.785563   -0.547425    0.538238
     21          1           0        3.296911   -2.251412    0.358316
     22          1           0        3.899727   -1.342912   -1.049198
 ---------------------------------------------------------------------
 Rotational constants (GHZ):      2.3854973      0.7287290      0.6053049
 Standard basis: 6-31G(d) (6D, 7F)
 There are   174 symmetry adapted basis functions of A   symmetry.
 Integral buffers will be    131072 words long.
 Raffenetti 2 integral format.
 Two-electron integral symmetry is turned on.
   174 basis functions,   328 primitive gaussians,   174 cartesian basis functions
    39 alpha electrons       39 beta electrons
       nuclear repulsion energy       553.4924281311 Hartrees.
 NAtoms=   22 NActive=   22 NUniq=   22 SFac= 7.50D-01 NAtFMM=   80 NAOKFM=F Big=F
 One-electron integrals computed using PRISM.
 NBasis=   174 RedAO= T  NBF=   174
 NBsUse=   174 1.00D-06 NBFU=   174
 Initial guess read from the read-write file.
 B after Tr=     0.000000    0.000000    0.000000
         Rot=    1.000000    0.000000    0.000000    0.000000 Ang=   0.00 deg.
 Initial guess orbital symmetries:
       Occupied  (A) (A) (A) (A) (A) (A) (A) (A) (A) (A) (A) (A)
                 (A) (A) (A) (A) (A) (A) (A) (A) (A) (A) (A) (A)
                 (A) (A) (A) (A) (A) (A) (A) (A) (A) (A) (A) (A)
                 (A) (A) (A)
       Virtual   (A) (A) (A) (A) (A) (A) (A) (A) (A) (A) (A) (A)
                 (A) (A) (A) (A) (A) (A) (A) (A) (A) (A) (A) (A)
                 (A) (A) (A) (A) (A) (A) (A) (A) (A) (A) (A) (A)
                 (A) (A) (A) (A) (A) (A) (A) (A) (A) (A) (A) (A)
                 (A) (A) (A) (A) (A) (A) (A) (A) (A) (A) (A) (A)
                 (A) (A) (A) (A) (A) (A) (A) (A) (A) (A) (A) (A)
                 (A) (A) (A) (A) (A) (A) (A) (A) (A) (A) (A) (A)
                 (A) (A) (A) (A) (A) (A) (A) (A) (A) (A) (A) (A)
                 (A) (A) (A) (A) (A) (A) (A) (A) (A) (A) (A) (A)
                 (A) (A) (A) (A) (A) (A) (A) (A) (A) (A) (A) (A)
                 (A) (A) (A) (A) (A) (A) (A) (A) (A) (A) (A) (A)
                 (A) (A) (A)
 Harris functional with IExCor=  402 diagonalized for initial guess.
 ExpMin= 1.61D-01 ExpMax= 5.48D+03 ExpMxC= 8.25D+02 IAcc=1 IRadAn=         1 AccDes= 0.00D+00
 HarFok:  IExCor=  402 AccDes= 0.00D+00 IRadAn=         1 IDoV= 1
 ScaDFX=  1.000000  1.000000  1.000000  1.000000
 FoFCou: FMM=F IPFlag=           0 FMFlag=      100000 FMFlg1=           0
         NFxFlg=           0 DoJE=T BraDBF=F KetDBF=T FulRan=T
         Omega=  0.000000  0.000000  1.000000  0.000000  0.000000 ICntrl=     500 IOpCl=  0
         NMat0=    1 NMatS0=    1 NMatT0=    0 NMatD0=    1 NMtDS0=    0 NMtDT0=    0
         I1Cent=           4 NGrid=           0.
 Petite list used in FoFCou.
 Requested convergence on RMS density matrix=1.00D-08 within 128 cycles.
 Requested convergence on MAX density matrix=1.00D-06.
 Requested convergence on             energy=1.00D-06.
 No special actions if energy rises.
 Integral accuracy reduced to 1.0D-05 until final iterations.
 Initial convergence to 1.0D-05 achieved.  Increase integral accuracy.
 SCF Done:  E(RB3LYP) =  -495.839732973     A.U. after   12 cycles
             Convg  =    0.7475D-08             -V/T =  2.0089
 Calling FoFJK, ICntrl=      2127 FMM=F ISym2X=0 I1Cent= 0 IOpClX= 0 NMat=1 NMatS=1 NMatT=0.
 ***** Axes restored to original set *****
 -------------------------------------------------------------------
 Center     Atomic                   Forces (Hartrees/Bohr)
 Number     Number              X              Y              Z
 -------------------------------------------------------------------
      1        1           0.002552484    0.000546434    0.000145209
      2        6           0.004097343    0.006559337   -0.000235303
      3        1          -0.004575893    0.000386445    0.000888718
      4        1          -0.004360771    0.000043686   -0.001549748
      5        6          -0.002109735   -0.030745117    0.001571290
      6        8           0.000267150    0.000887650    0.002715312
      7        7          -0.005837998    0.018781807    0.005003834
      8        1          -0.001261152   -0.000734443   -0.001884413
      9        6           0.009256065   -0.001371493   -0.011244161
     10        1           0.000725440   -0.002344389    0.004627450
     11        6           0.003089562   -0.004996482   -0.000340283
     12        1           0.001040686    0.001296506   -0.001605664
     13        1           0.000675995    0.000955833   -0.001755492
     14        1           0.000326870    0.000399799   -0.000045269
     15        6           0.008325626   -0.000253423   -0.015804089
     16        8          -0.001091246    0.002233043    0.002845187
     17        7          -0.009486668    0.005442998    0.010798008
     18        1           0.001342830   -0.000901730    0.000651111
     19        6          -0.001565890    0.000255613    0.002946934
     20        1           0.000475407   -0.002260590   -0.000358730
     21        1          -0.002456384    0.002862822    0.000694323
     22        1           0.000570278    0.002955693    0.001935776
 -------------------------------------------------------------------
 Cartesian Forces:  Max     0.030745117 RMS     0.006018852

 GradGradGradGradGradGradGradGradGradGradGradGradGradGradGradGradGradGrad
 Berny optimization.
 Using GEDIIS/GDIIS optimizer.
 Internal  Forces:  Max     0.022664187 RMS     0.004747726
 Search for a local minimum.
 Step number   2 out of a maximum of  132
 All quantities printed in internal units (Hartrees-Bohrs-Radians)
 Mixed Optimization -- RFO/linear search
 Update second derivatives using D2CorX and points    1    2
 DE= -3.39D-03 DEPred=-3.38D-03 R= 1.00D+00
 SS=  1.41D+00  RLast= 3.00D-01 DXNew= 5.0454D-01 9.0000D-01
 Trust test= 1.00D+00 RLast= 3.00D-01 DXMaxT set to 5.05D-01
 Use linear search instead of GDIIS.
 Linear search step of   0.594 exceeds DXMaxT=   0.505 but not scaled.
 Quartic linear search produced a step of  2.00000.
 Iteration  1 RMS(Cart)=  0.11276253 RMS(Int)=  0.00998626
 Iteration  2 RMS(Cart)=  0.01088521 RMS(Int)=  0.00027216
 Iteration  3 RMS(Cart)=  0.00011227 RMS(Int)=  0.00025840
 Iteration  4 RMS(Cart)=  0.00000003 RMS(Int)=  0.00025840
 Iteration  1 RMS(Cart)=  0.00014639 RMS(Int)=  0.00004170
 Iteration  2 RMS(Cart)=  0.00007767 RMS(Int)=  0.00004656
 Iteration  3 RMS(Cart)=  0.00004135 RMS(Int)=  0.00005252
 Iteration  4 RMS(Cart)=  0.00002215 RMS(Int)=  0.00005647
 Iteration  5 RMS(Cart)=  0.00001198 RMS(Int)=  0.00005882
 Iteration  6 RMS(Cart)=  0.00000658 RMS(Int)=  0.00006017
 Iteration  7 RMS(Cart)=  0.00000370 RMS(Int)=  0.00006095
 Iteration  8 RMS(Cart)=  0.00000214 RMS(Int)=  0.00006140
 Iteration  9 RMS(Cart)=  0.00000128 RMS(Int)=  0.00006166
 Iteration 10 RMS(Cart)=  0.00000079 RMS(Int)=  0.00006181
 Variable       Old X    -DE/DX   Delta X   Delta X   Delta X     New X
                                 (Linear)    (Quad)   (Total)
    R1        2.05992  -0.00056   0.00025   0.00000   0.00025   2.06017
    R2        2.06343   0.00321   0.00734   0.00000   0.00734   2.07077
    R3        2.06353   0.00319   0.00753   0.00000   0.00753   2.07106
    R4        2.88831  -0.00040  -0.00588   0.00000  -0.00588   2.88243
    R5        2.31984  -0.00030  -0.00541   0.00000  -0.00541   2.31442
    R6        2.54135   0.02266   0.03695   0.00000   0.03695   2.57830
    R7        1.90901   0.00063   0.00066   0.00000   0.00066   1.90967
    R8        2.74987   0.01206   0.02339   0.00000   0.02339   2.77326
    R9        2.06512   0.00478   0.01076   0.00000   0.01076   2.07588
   R10        2.88451   0.00636   0.00525   0.00000   0.00525   2.88976
   R11        2.88744   0.01067   0.02252   0.00000   0.02252   2.90996
   R12        2.06164   0.00117   0.00385   0.00000   0.00385   2.06549
   R13        2.06196   0.00102   0.00422   0.00000   0.00422   2.06618
   R14        2.06012  -0.00035   0.00092   0.00000   0.00092   2.06104
   R15        2.31860  -0.00129  -0.00782   0.00000  -0.00782   2.31078
   R16        2.54096   0.02170   0.03625   0.00000   0.03625   2.57722
   R17        1.90915   0.00058   0.00094   0.00000   0.00094   1.91009
   R18        2.74058   0.00471   0.00495   0.00000   0.00495   2.74553
   R19        2.06012  -0.00059   0.00073   0.00000   0.00073   2.06086
   R20        2.06292   0.00299   0.00621   0.00000   0.00621   2.06913
   R21        2.06382   0.00286   0.00816   0.00000   0.00816   2.07198
    A1        1.91188  -0.00018   0.00138   0.00000   0.00168   1.91356
    A2        1.90728  -0.00021  -0.00782   0.00000  -0.00790   1.89938
    A3        1.92563  -0.00546  -0.02688   0.00000  -0.02675   1.89887
    A4        1.90161  -0.00372  -0.01699   0.00000  -0.01750   1.88411
    A5        1.91626   0.00482   0.04052   0.00000   0.04041   1.95667
    A6        1.90094   0.00476   0.00987   0.00000   0.00957   1.91050
    A7        2.11491   0.00460   0.02356   0.00000   0.02353   2.13845
    A8        2.02488  -0.00717  -0.02042   0.00000  -0.02045   2.00444
    A9        2.14338   0.00257  -0.00317   0.00000  -0.00320   2.14018
   A10        2.08857  -0.00550  -0.01153   0.00000  -0.01233   2.07623
   A11        2.13475   0.00872   0.01444   0.00000   0.01361   2.14836
   A12        2.05944  -0.00319  -0.00376   0.00000  -0.00461   2.05483
   A13        1.90529  -0.00081  -0.01168   0.00000  -0.01220   1.89310
   A14        1.94905   0.00542   0.02001   0.00000   0.02052   1.96958
   A15        1.92120  -0.00870  -0.03560   0.00000  -0.03617   1.88504
   A16        1.89735  -0.00208   0.00251   0.00000   0.00250   1.89985
   A17        1.89638  -0.00082   0.00060   0.00000  -0.00032   1.89606
   A18        1.89371   0.00694   0.02466   0.00000   0.02513   1.91884
   A19        1.91536   0.00128   0.00842   0.00000   0.00840   1.92375
   A20        1.91239   0.00130   0.00266   0.00000   0.00266   1.91506
   A21        1.91143   0.00015   0.00066   0.00000   0.00063   1.91206
   A22        1.90204  -0.00208  -0.01614   0.00000  -0.01613   1.88591
   A23        1.91183  -0.00019   0.00320   0.00000   0.00315   1.91498
   A24        1.91074  -0.00046   0.00117   0.00000   0.00116   1.91190
   A25        2.11478   0.00782   0.02335   0.00000   0.02335   2.13813
   A26        2.02080  -0.00753  -0.02854   0.00000  -0.02854   1.99226
   A27        2.14761  -0.00028   0.00519   0.00000   0.00519   2.15280
   A28        2.08545  -0.00296  -0.01780   0.00000  -0.01819   2.06727
   A29        2.13285   0.00422   0.01058   0.00000   0.01017   2.14302
   A30        2.06467  -0.00127   0.00681   0.00000   0.00638   2.07105
   A31        1.89997  -0.00466  -0.02249   0.00000  -0.02237   1.87760
   A32        1.91738   0.00372   0.01238   0.00000   0.01223   1.92962
   A33        1.92224   0.00325   0.02219   0.00000   0.02209   1.94433
   A34        1.91116  -0.00002   0.00230   0.00000   0.00238   1.91354
   A35        1.90655   0.00002  -0.00718   0.00000  -0.00701   1.89954
   A36        1.90646  -0.00233  -0.00728   0.00000  -0.00762   1.89884
    D1        0.09467  -0.00040   0.18933   0.00000   0.18954   0.28420
    D2       -3.05247   0.00055   0.17824   0.00000   0.17833  -2.87414
    D3        2.20353  -0.00101   0.20031   0.00000   0.20005   2.40358
    D4       -0.94361  -0.00005   0.18922   0.00000   0.18885  -0.75476
    D5       -1.99878   0.00020   0.20920   0.00000   0.20942  -1.78935
    D6        1.13727   0.00115   0.19811   0.00000   0.19822   1.33549
    D7        0.00500   0.00147   0.01000   0.00000   0.01017   0.01518
    D8       -3.10464   0.00067   0.07391   0.00000   0.07357  -3.03106
    D9        3.14095   0.00244  -0.00129   0.00000  -0.00095   3.14000
   D10        0.03131   0.00164   0.06262   0.00000   0.06245   0.09376
   D11       -1.06150   0.00074  -0.02860   0.00000  -0.02817  -1.08967
   D12        1.03700   0.00105  -0.02047   0.00000  -0.02022   1.01679
   D13        3.14159   0.00748   0.00000   0.00000   0.00000   3.14159
   D14        2.11154   0.00000   0.03429   0.00000   0.03464   2.14618
   D15       -2.07314   0.00030   0.04242   0.00000   0.04259  -2.03055
   D16        0.03144   0.00674   0.06289   0.00000   0.06281   0.09425
   D17        1.04948  -0.00074   0.00448   0.00000   0.00468   1.05416
   D18        3.13731  -0.00171  -0.00852   0.00000  -0.00834   3.12897
   D19       -1.04979  -0.00139  -0.00505   0.00000  -0.00487  -1.05466
   D20       -3.13055   0.00029   0.00408   0.00000   0.00412  -3.12643
   D21       -1.04272  -0.00069  -0.00891   0.00000  -0.00890  -1.05162
   D22        1.05337  -0.00037  -0.00544   0.00000  -0.00543   1.04794
   D23       -1.07110   0.00204   0.01985   0.00000   0.01965  -1.05145
   D24        1.01673   0.00107   0.00685   0.00000   0.00664   1.02337
   D25        3.11282   0.00139   0.01032   0.00000   0.01010   3.12292
   D26       -2.09486  -0.00424  -0.00094   0.00000  -0.00085  -2.09571
   D27        1.04722  -0.00421   0.00000   0.00000   0.00000   1.04722
   D28        2.10279   0.00242   0.03463   0.00000   0.03466   2.13745
   D29       -1.03831   0.00244   0.03557   0.00000   0.03551  -1.00280
   D30        0.04272   0.00147   0.01765   0.00000   0.01742   0.06014
   D31       -3.09838   0.00150   0.01859   0.00000   0.01827  -3.08011
   D32        0.01813   0.00072   0.03647   0.00000   0.03625   0.05438
   D33        3.13755   0.00015  -0.00807   0.00000  -0.00774   3.12981
   D34       -3.12296   0.00075   0.03743   0.00000   0.03710  -3.08586
   D35       -0.00354   0.00017  -0.00712   0.00000  -0.00690  -0.01043
   D36        0.07189   0.00023   0.14370   0.00000   0.14383   0.21572
   D37        2.16449  -0.00041   0.14025   0.00000   0.14025   2.30474
   D38       -2.01800   0.00113   0.15284   0.00000   0.15322  -1.86478
   D39       -3.09162  -0.00035   0.09966   0.00000   0.09945  -2.99217
   D40       -0.99902  -0.00100   0.09621   0.00000   0.09587  -0.90315
   D41        1.10168   0.00054   0.10881   0.00000   0.10884   1.21051
         Item               Value     Threshold  Converged?
 Maximum Force            0.022664     0.000450     NO 
 RMS     Force            0.004620     0.000300     NO 
 Maximum Displacement     0.426882     0.001800     NO 
 RMS     Displacement     0.114539     0.001200     NO 
 Predicted change in Energy=-3.590111D-03
 GradGradGradGradGradGradGradGradGradGradGradGradGradGradGradGradGradGrad

                          Input orientation:                          
 ---------------------------------------------------------------------
 Center     Atomic      Atomic             Coordinates (Angstroms)
 Number     Number       Type             X           Y           Z
 ---------------------------------------------------------------------
      1          1           0        1.909685    1.130165    0.281655
      2          6           0        1.966340    2.175622   -0.022212
      3          1           0        1.306837    2.779505    0.611165
      4          1           0        1.614297    2.262913   -1.056410
      5          6           0        3.418959    2.633488    0.060565
      6          8           0        4.354466    1.846262    0.131900
      7          7           0        3.596492    3.985884    0.028305
      8          1           0        2.784691    4.584638   -0.032434
      9          6           0        4.918684    4.619059   -0.039422
     10          1           0        5.479585    4.351133    0.866295
     11          6           0        5.722964    4.184672   -1.265341
     12          1           0        5.191248    4.454972   -2.181252
     13          1           0        6.690075    4.694697   -1.271881
     14          1           0        5.879670    3.105747   -1.235544
     15          6           0        4.715097    6.145306   -0.058677
     16          8           0        5.102149    6.848289   -0.981324
     17          7           0        4.070879    6.636130    1.038611
     18          1           0        3.826549    5.994612    1.780517
     19          6           0        3.793590    8.050590    1.220945
     20          1           0        3.981101    8.548379    0.268914
     21          1           0        2.750404    8.202920    1.516648
     22          1           0        4.445237    8.490817    1.984979
 ---------------------------------------------------------------------
                    Distance matrix (angstroms):
                    1          2          3          4          5
     1  H    0.000000
     2  C    1.090196   0.000000
     3  H    1.786708   1.095803   0.000000
     4  H    1.777861   1.095956   1.772627   0.000000
     5  C    2.141675   1.525318   2.187588   2.154475   0.000000
     6  O    2.551897   2.415652   3.223148   3.015660   1.224740
     7  N    3.326355   2.436595   2.652847   2.841537   1.364380
     8  H    3.577384   2.544241   2.420078   2.794415   2.053760
     9  C    4.618392   3.832364   4.105199   4.183857   2.490314
    10  H    4.843617   4.226723   4.466199   4.795614   2.801015
    11  C    5.124872   4.437779   4.999795   4.540700   3.077765
    12  H    5.280995   4.500769   5.068869   4.343382   3.388887
    13  H    6.162101   5.497370   6.016068   5.632363   4.089522
    14  H    4.686747   4.201364   4.942425   4.351535   2.820997
    15  C    5.756545   4.828601   4.836687   5.067880   3.745271
    16  O    6.669624   5.708503   5.787523   5.761634   4.656523
    17  N    5.963170   5.044855   4.764053   5.435893   4.171656
    18  H    5.439100   4.614639   4.248912   5.183416   3.797568
    19  C    7.233509   6.276904   5.860044   6.590362   5.552641
    20  H    7.702002   6.689996   6.367789   6.845826   5.945195
    21  H    7.228823   6.269861   5.684824   6.572294   5.795318
    22  H    7.969288   7.074986   6.660031   7.486726   6.250193
                    6          7          8          9         10
     6  O    0.000000
     7  N    2.272276   0.000000
     8  H    3.160681   1.010552   0.000000
     9  C    2.834801   1.467545   2.134282   0.000000
    10  H    2.842465   2.093245   2.850385   1.098507   0.000000
    11  C    3.048480   2.496983   3.211461   1.529195   2.151933
    12  H    3.585560   2.765038   3.228893   2.165330   3.062918
[...]
    13  H    6.168459   5.410999   5.859944   5.501566   4.074258
    14  H    4.710056   4.070324   4.759089   4.075449   2.795723
    15  C    5.715419   4.844967   4.770757   5.262554   3.753503
    16  O    6.641271   5.691576   5.618163   5.926476   4.669397
    17  N    5.893138   5.124931   4.840806   5.749400   4.177831
    18  H    5.300650   4.666488   4.381331   5.441079   3.751922
    19  C    7.142020   6.355203   5.909622   6.956242   5.554705
    20  H    7.731004   6.855615   6.458328   7.319903   6.020399
    21  H    7.111286   6.330991   5.713561   6.939094   5.776610
    22  H    7.786950   7.092691   6.681188   7.780175   6.209623
                    6          7          8          9         10
     6  O    0.000000
     7  N    2.282689   0.000000
     8  H    3.137388   1.013717   0.000000
     9  C    2.832549   1.475985   2.115460   0.000000
    10  H    2.748005   2.077270   2.924142   1.096469   0.000000
    11  C    3.129132   2.514046   3.021141   1.529823   2.156353
    12  H    3.729955   2.801209   2.956520   2.171327   3.069536
    13  H    3.988062   3.446780   3.955450   2.162880   2.491035
    14  H    2.508777   2.766036   3.433397   2.157853   2.481719
    15  C    4.313755   2.436132   2.521704   1.544908   2.167194
    16  O    5.216207   3.396414   3.308736   2.434148   3.146646
    17  N    4.819432   2.868936   2.875097   2.440302   2.681191
    18  H    4.361848   2.611444   2.777863   2.515437   2.501956
    19  C    6.259154   4.226769   4.026563   3.828057   4.079614
    20  H    6.713557   4.646364   4.385937   4.050701   4.447047
    21  H    6.628896   4.493434   4.095614   4.431771   4.779616
    22  H    6.788597   4.948242   4.897823   4.447508   4.449534
                   11         12         13         14         15
    11  C    0.000000
    12  H    1.093916   0.000000
    13  H    1.093697   1.764358   0.000000
    14  H    1.091394   1.788708   1.780956   0.000000
    15  C    2.527488   2.765681   2.762466   3.475047   0.000000
    16  O    2.773629   2.689923   2.737886   3.854592   1.223585
    17  N    3.757661   4.063791   4.015966   4.578936   1.366341
    18  H    4.011041   4.452644   4.399774   4.641047   2.043798
    19  C    5.002853   5.164615   5.122605   5.915617   2.477573
    20  H    4.951351   4.973019   4.935303   5.965114   2.526068
    21  H    5.656492   5.699732   5.928334   6.531358   3.181302
    22  H    5.660336   5.970532   5.658469   6.529299   3.215909
                   16         17         18         19         20
    16  O    0.000000
    17  N    2.283006   0.000000
    18  H    3.159437   1.010837   0.000000
    19  C    2.841213   1.451911   2.134625   0.000000
    20  H    2.379910   2.060187   2.975282   1.090835   0.000000
    21  H    3.560416   2.116816   2.541555   1.097036   1.781633
    22  H    3.622983   2.109235   2.526063   1.096089   1.781994
                   21         22
    21  H    0.000000
    22  H    1.782256   0.000000
 Stoichiometry    C6H12N2O2
 Framework group  C1[X(C6H12N2O2)]
 Deg. of freedom    60
 Full point group                 C1      NOp   1
 Largest Abelian subgroup         C1      NOp   1
 Largest concise Abelian subgroup C1      NOp   1
                         Standard orientation:                         
 ---------------------------------------------------------------------
 Center     Atomic      Atomic             Coordinates (Angstroms)
 Number     Number       Type             X           Y           Z
 ---------------------------------------------------------------------
      1          1           0       -3.828660   -1.723506    0.180873
      2          6           0       -2.993001   -1.331667    0.764496
      3          1           0       -2.402828   -2.163982    1.161597
      4          1           0       -3.409496   -0.769182    1.608709
      5          6           0       -2.182170   -0.389652   -0.114841
      6          8           0       -2.695454    0.306252   -0.978818
      7          7           0       -0.821815   -0.400366    0.117011
      8          1           0       -0.530425   -0.822793    0.991235
      9          6           0        0.043877    0.691506   -0.369737
     10          1           0       -0.016542    0.679219   -1.464471
     11          6           0       -0.368839    2.072396    0.143261
     12          1           0       -0.298480    2.114592    1.234096
     13          1           0        0.302475    2.836049   -0.259661
     14          1           0       -1.390764    2.291122   -0.171332
     15          6           0        1.490961    0.362889    0.060029
     16          8           0        2.151563    1.102950    0.776323
     17          7           0        1.960680   -0.816933   -0.444222
     18          1           0        1.327852   -1.378498   -0.997362
     19          6           0        3.293550   -1.321592   -0.167049
     20          1           0        3.811318   -0.566244    0.425644
     21          1           0        3.258972   -2.259905    0.400279
     22          1           0        3.849400   -1.492685   -1.096118
 ---------------------------------------------------------------------
 Rotational constants (GHZ):      2.2893360      0.7197724      0.6117390

 **********************************************************************

            Population analysis using the SCF density.

 **********************************************************************

 Orbital symmetries:
       Occupied  (A) (A) (A) (A) (A) (A) (A) (A) (A) (A) (A) (A)
                 (A) (A) (A) (A) (A) (A) (A) (A) (A) (A) (A) (A)
                 (A) (A) (A) (A) (A) (A) (A) (A) (A) (A) (A) (A)
                 (A) (A) (A)
       Virtual   (A) (A) (A) (A) (A) (A) (A) (A) (A) (A) (A) (A)
                 (A) (A) (A) (A) (A) (A) (A) (A) (A) (A) (A) (A)
                 (A) (A) (A) (A) (A) (A) (A) (A) (A) (A) (A) (A)
                 (A) (A) (A) (A) (A) (A) (A) (A) (A) (A) (A) (A)
                 (A) (A) (A) (A) (A) (A) (A) (A) (A) (A) (A) (A)
                 (A) (A) (A) (A) (A) (A) (A) (A) (A) (A) (A) (A)
                 (A) (A) (A) (A) (A) (A) (A) (A) (A) (A) (A) (A)
                 (A) (A) (A) (A) (A) (A) (A) (A) (A) (A) (A) (A)
                 (A) (A) (A) (A) (A) (A) (A) (A) (A) (A) (A) (A)
                 (A) (A) (A) (A) (A) (A) (A) (A) (A) (A) (A) (A)
                 (A) (A) (A) (A) (A) (A) (A) (A) (A) (A) (A) (A)
                 (A) (A) (A)
 The electronic state is 1-A.
 Alpha  occ. eigenvalues --  -19.11799 -19.11594 -14.36769 -14.36627 -10.29225
 Alpha  occ. eigenvalues --  -10.29016 -10.23653 -10.22348 -10.19698 -10.16908
 Alpha  occ. eigenvalues --   -1.03899  -1.03320  -0.93293  -0.91770  -0.77796
 Alpha  occ. eigenvalues --   -0.72977  -0.71509  -0.64027  -0.58630  -0.58157
 Alpha  occ. eigenvalues --   -0.53524  -0.48157  -0.47969  -0.46627  -0.45351
 Alpha  occ. eigenvalues --   -0.44866  -0.42241  -0.41568  -0.40175  -0.40004
 Alpha  occ. eigenvalues --   -0.39380  -0.37839  -0.36710  -0.36319  -0.34672
 Alpha  occ. eigenvalues --   -0.26806  -0.25888  -0.25582  -0.24724
 Alpha virt. eigenvalues --    0.01174   0.02372   0.07202   0.08528   0.11797
 Alpha virt. eigenvalues --    0.12695   0.12915   0.14806   0.15552   0.15977
 Alpha virt. eigenvalues --    0.16503   0.17186   0.17874   0.18800   0.19940
 Alpha virt. eigenvalues --    0.21412   0.23798   0.24483   0.27100   0.31733
 Alpha virt. eigenvalues --    0.35028   0.36499   0.40232   0.50619   0.51045
 Alpha virt. eigenvalues --    0.51552   0.52400   0.53663   0.54313   0.56338
 Alpha virt. eigenvalues --    0.57185   0.60324   0.62621   0.64031   0.65456
 Alpha virt. eigenvalues --    0.67831   0.67982   0.69979   0.71400   0.73590
 Alpha virt. eigenvalues --    0.74986   0.76598   0.77810   0.81897   0.83795
 Alpha virt. eigenvalues --    0.84510   0.85793   0.86015   0.87117   0.88096
 Alpha virt. eigenvalues --    0.89041   0.89998   0.90765   0.92359   0.92772
 Alpha virt. eigenvalues --    0.93887   0.94595   0.96079   0.97090   0.97637
 Alpha virt. eigenvalues --    1.02468   1.06473   1.07650   1.14064   1.15297
 Alpha virt. eigenvalues --    1.17008   1.24660   1.29179   1.30410   1.35305
 Alpha virt. eigenvalues --    1.36028   1.37660   1.42326   1.43354   1.45663
 Alpha virt. eigenvalues --    1.50091   1.54092   1.62289   1.64518   1.69629
 Alpha virt. eigenvalues --    1.75373   1.75780   1.77802   1.80749   1.81332
 Alpha virt. eigenvalues --    1.82517   1.84653   1.85162   1.87225   1.91458
 Alpha virt. eigenvalues --    1.91819   1.93263   1.96469   1.98409   2.00830
 Alpha virt. eigenvalues --    2.03979   2.04960   2.06208   2.11795   2.17993
 Alpha virt. eigenvalues --    2.19563   2.22750   2.24651   2.28021   2.29935
 Alpha virt. eigenvalues --    2.30059   2.30881   2.35683   2.38522   2.40015
 Alpha virt. eigenvalues --    2.40943   2.46755   2.54121   2.55347   2.63955
 Alpha virt. eigenvalues --    2.64400   2.66221   2.72020   2.75404   2.86090
 Alpha virt. eigenvalues --    2.91208   2.97289   3.01265   3.11522   3.14703
 Alpha virt. eigenvalues --    3.92435   3.94290   4.04438   4.10434   4.17450
 Alpha virt. eigenvalues --    4.22505   4.26750   4.44887   4.47525   4.61774
          Condensed to atoms (all electrons):
              1          2          3          4          5          6
     1  H    0.509756   0.358371  -0.024722  -0.021478  -0.018659   0.003166
     2  C    0.358371   5.326939   0.343881   0.360969   0.347720  -0.078399
     3  H   -0.024722   0.343881   0.571099  -0.026592  -0.025597   0.002690
     4  H   -0.021478   0.360969  -0.026592   0.523890  -0.020883  -0.000187
     5  C   -0.018659   0.347720  -0.025597  -0.020883   4.325349   0.586682
     6  O    0.003166  -0.078399   0.002690  -0.000187   0.586682   8.057797
     7  N    0.003863  -0.125450   0.006544   0.000513   0.249147  -0.098001
     8  H    0.000056   0.001731   0.000846  -0.000089  -0.018641   0.003434
     9  C   -0.000176   0.007746   0.000033  -0.000194  -0.020515   0.011091
    10  H    0.000017   0.000187  -0.000039  -0.000010  -0.005719   0.006011
    11  C   -0.000001  -0.000696   0.000030   0.000143  -0.003103  -0.009420
    12  H    0.000001   0.000020  -0.000007  -0.000011  -0.000058  -0.000006
    13  H    0.000000   0.000003   0.000000  -0.000002   0.000041   0.000038
    14  H    0.000000   0.000312  -0.000008  -0.000029   0.005038   0.011700
    15  C    0.000002  -0.000071  -0.000038  -0.000001   0.004521   0.000531
    16  O    0.000000   0.000000   0.000000   0.000000  -0.000125  -0.000001
    17  N    0.000000  -0.000024   0.000002   0.000000   0.000241  -0.000004
    18  H   -0.000002   0.000004   0.000011   0.000001   0.000071  -0.000022
    19  C    0.000000   0.000000   0.000000   0.000000   0.000011   0.000000
    20  H    0.000000   0.000000   0.000000   0.000000   0.000001   0.000000
    21  H    0.000000   0.000000   0.000000   0.000000  -0.000002   0.000000
    22  H    0.000000   0.000000   0.000000   0.000000   0.000000   0.000000
              7          8          9         10         11         12
     1  H    0.003863   0.000056  -0.000176   0.000017  -0.000001   0.000001
     2  C   -0.125450   0.001731   0.007746   0.000187  -0.000696   0.000020
     3  H    0.006544   0.000846   0.000033  -0.000039   0.000030  -0.000007
     4  H    0.000513  -0.000089  -0.000194  -0.000010   0.000143  -0.000011
     5  C    0.249147  -0.018641  -0.020515  -0.005719  -0.003103  -0.000058
     6  O   -0.098001   0.003434   0.011091   0.006011  -0.009420  -0.000006
     7  N    7.192751   0.289710   0.220343  -0.046529  -0.052381  -0.001200
     8  H    0.289710   0.425954  -0.041895   0.005807   0.001278   0.001990
     9  C    0.220343  -0.041895   5.108598   0.367966   0.366319  -0.034326
    10  H   -0.046529   0.005807   0.367966   0.570116  -0.042791   0.005264
    11  C   -0.052381   0.001278   0.366319  -0.042791   5.109392   0.373546
    12  H   -0.001200   0.001990  -0.034326   0.005264   0.373546   0.558779
    13  H    0.004588  -0.000101  -0.026795  -0.000641   0.366179  -0.025096
    14  H   -0.008553  -0.000206  -0.024918  -0.003751   0.361095  -0.028930
    15  C   -0.028465   0.000414   0.300105  -0.031964  -0.035895  -0.005848
    16  O   -0.000565   0.000496  -0.084381   0.001589   0.004831   0.004745
    17  N   -0.002356   0.003736  -0.125980   0.000233   0.005535   0.000172
    18  H    0.009231  -0.000433   0.000118  -0.000397   0.000324  -0.000011
    19  C   -0.000058  -0.000178   0.005934  -0.000186  -0.000145  -0.000001
    20  H   -0.000027  -0.000021   0.001226  -0.000037  -0.000020  -0.000005
    21  H    0.000027  -0.000041  -0.000045  -0.000006   0.000004   0.000000
    22  H   -0.000003   0.000008  -0.000191   0.000010   0.000001   0.000000
             13         14         15         16         17         18
     1  H    0.000000   0.000000   0.000002   0.000000   0.000000  -0.000002
     2  C    0.000003   0.000312  -0.000071   0.000000  -0.000024   0.000004
     3  H    0.000000  -0.000008  -0.000038   0.000000   0.000002   0.000011
     4  H   -0.000002  -0.000029  -0.000001   0.000000   0.000000   0.000001
     5  C    0.000041   0.005038   0.004521  -0.000125   0.000241   0.000071
     6  O    0.000038   0.011700   0.000531  -0.000001  -0.000004  -0.000022
     7  N    0.004588  -0.008553  -0.028465  -0.000565  -0.002356   0.009231
     8  H   -0.000101  -0.000206   0.000414   0.000496   0.003736  -0.000433
     9  C   -0.026795  -0.024918   0.300105  -0.084381  -0.125980   0.000118
    10  H   -0.000641  -0.003751  -0.031964   0.001589   0.000233  -0.000397
    11  C    0.366179   0.361095  -0.035895   0.004831   0.005535   0.000324
    12  H   -0.025096  -0.028930  -0.005848   0.004745   0.000172  -0.000011
    13  H    0.547649  -0.026161  -0.001531   0.002347   0.000059  -0.000035
    14  H   -0.026161   0.532415   0.004640   0.000555  -0.000046  -0.000013
    15  C   -0.001531   0.004640   4.402285   0.593207   0.279552  -0.022461
    16  O    0.002347   0.000555   0.593207   8.063291  -0.095343   0.003387
    17  N    0.000059  -0.000046   0.279552  -0.095343   7.067329   0.303252
    18  H   -0.000035  -0.000013  -0.022461   0.003387   0.303252   0.402502
    19  C   -0.000001   0.000002  -0.023564  -0.007996   0.266874  -0.031744
    20  H   -0.000001   0.000000  -0.000384   0.020619  -0.040688   0.003975
    21  H    0.000000   0.000000   0.000741   0.000459  -0.041848  -0.000370
    22  H    0.000000   0.000000   0.001450   0.000432  -0.040781  -0.001210
             19         20         21         22
     1  H    0.000000   0.000000   0.000000   0.000000
     2  C    0.000000   0.000000   0.000000   0.000000
     3  H    0.000000   0.000000   0.000000   0.000000
     4  H    0.000000   0.000000   0.000000   0.000000
     5  C    0.000011   0.000001  -0.000002   0.000000
     6  O    0.000000   0.000000   0.000000   0.000000
     7  N   -0.000058  -0.000027   0.000027  -0.000003
     8  H   -0.000178  -0.000021  -0.000041   0.000008
     9  C    0.005934   0.001226  -0.000045  -0.000191
    10  H   -0.000186  -0.000037  -0.000006   0.000010
    11  C   -0.000145  -0.000020   0.000004   0.000001
    12  H   -0.000001  -0.000005   0.000000   0.000000
    13  H   -0.000001  -0.000001   0.000000   0.000000
    14  H    0.000002   0.000000   0.000000   0.000000
    15  C   -0.023564  -0.000384   0.000741   0.001450
    16  O   -0.007996   0.020619   0.000459   0.000432
    17  N    0.266874  -0.040688  -0.041848  -0.040781
    18  H   -0.031744   0.003975  -0.000370  -0.001210
    19  C    4.963760   0.376723   0.380642   0.381654
    20  H    0.376723   0.482961  -0.025814  -0.023585
    21  H    0.380642  -0.025814   0.570866  -0.040566
    22  H    0.381654  -0.023585  -0.040566   0.561888
 Mulliken atomic charges:
              1
     1  H    0.189807
     2  C   -0.543244
     3  H    0.151867
     4  H    0.183960
     5  C    0.594478
     6  O   -0.497100
     7  N   -0.613127
     8  H    0.326144
     9  C   -0.030061
    10  H    0.174871
    11  C   -0.444224
    12  H    0.150981
    13  H    0.159462
    14  H    0.176858
    15  C    0.562773
    16  O   -0.507548
    17  N   -0.579916
    18  H    0.333822
    19  C   -0.311725
    20  H    0.205078
    21  H    0.155954
    22  H    0.160891
 Sum of Mulliken atomic charges =   0.00000
 Mulliken charges with hydrogens summed into heavy atoms:
              1
     2  C   -0.017610
     5  C    0.594478
     6  O   -0.497100
     7  N   -0.286984
     9  C    0.144809
    11  C    0.043077
    15  C    0.562773
    16  O   -0.507548
    17  N   -0.246094
    19  C    0.210198
 Sum of Mulliken charges with hydrogens summed into heavy atoms =   0.00000
 Electronic spatial extent (au):  <R**2>=           1918.1125
 Charge=              0.0000 electrons
 Dipole moment (field-independent basis, Debye):
    X=              0.8239    Y=             -3.8615    Z=              0.6613  Tot=              4.0034
 Quadrupole moment (field-independent basis, Debye-Ang):
   XX=            -65.0580   YY=            -58.1157   ZZ=            -60.3350
   XY=             -2.9123   XZ=            -10.3552   YZ=             -1.3605
 Traceless Quadrupole moment (field-independent basis, Debye-Ang):
   XX=             -3.8885   YY=              3.0539   ZZ=              0.8346
   XY=             -2.9123   XZ=            -10.3552   YZ=             -1.3605
 Octapole moment (field-independent basis, Debye-Ang**2):
  XXX=             20.1804  YYY=             -4.3793  ZZZ=              0.3153  XYY=             -2.1260
  XXY=            -29.7055  XXZ=              9.5709  XZZ=              2.3659  YZZ=             -4.1501
  YYZ=             -4.2508  XYZ=             -4.2564
 Hexadecapole moment (field-independent basis, Debye-Ang**3):
 XXXX=          -1703.3938 YYYY=           -537.9691 ZZZZ=           -181.2074 XXXY=             -8.3069
 XXXZ=            -54.7355 YYYX=             -8.9092 YYYZ=             -2.0903 ZZZX=             -1.5524
 ZZZY=              3.8917 XXYY=           -370.3809 XXZZ=           -332.8232 YYZZ=           -119.5366
 XXYZ=              2.1131 YYXZ=             -3.9824 ZZXY=             -3.3435
 N-N= 5.498773513621D+02 E-N=-2.255677544429D+03  KE= 4.912321718073D+02
 1\1\GINC-NODE001\FOpt\RB3LYP\6-31G(d)\C6H12N2O2\STEBOSS\10-Feb-2017\0\
 \# b3lyp/6-31G* Opt=(ModRedundant, maxcycles=1000, calcfc) geom=nocrow
 d\\Phi Psi fixed scan\\0,1\H,1.8567009722,1.249517845,0.5607413632\C,2
 .0109478808,2.1375682075,-0.0557429671\H,1.2450575908,2.8835235752,0.1
 802766066\H,1.8931297856,1.8408240441,-1.1048448562\C,3.4289718354,2.6
 457451974,0.1657019857\O,4.367276003,1.8953741445,0.3909263331\N,3.571
 2753817,4.0176698869,0.1208998604\H,2.7989051643,4.5241130757,-0.29692
 89716\C,4.8971354338,4.6420168385,-0.0546484371\H,5.496416864,4.363609
 0436,0.8203340012\C,5.6200550216,4.1922023462,-1.325636936\H,5.0488738
 219,4.476212068,-2.2143119431\H,6.5965168321,4.6803449206,-1.392065797
 4\H,5.7606983967,3.1101016524,-1.3051784529\C,4.6918503619,6.173216111
 4,-0.0598502342\O,5.0117796422,6.8794215764,-1.0064652085\N,4.13595736
 52,6.6581885308,1.0902243217\H,3.8713294113,5.9923368316,1.8032491555\
 C,3.8533784579,8.066767906,1.3002221371\H,4.2260067462,8.6073360803,0.
 4290992967\H,2.7766646147,8.2506910968,1.4019449942\H,4.3600724167,8.4
 390190211,2.1980537488\\Version=EM64L-G09RevA.02\State=1-A\HF=-495.845
 14\RMSD=3.944e-09\RMSF=1.179e-03\Dipole=-1.2905145,0.5348436,0.7275132
 \Quadrupole=3.5301984,-5.2024797,1.6722814,1.2230358,1.2519266,6.90699
 9\PG=C01 [X(C6H12N2O2)]\\@


 ON A TOMBSTONE, "HERE LIES LESTER MOORE,
 FOUR SLUGS FROM A 44, NO LES, NO MORE".
 Job cpu time:  0 days  2 hours 24 minutes 38.4 seconds.
 File lengths (MBytes):  RWF=    186 Int=      0 D2E=      0 Chk=      4 Scr=      2
 Normal termination of Gaussian 09 at Fri Feb 10 21:26:43 2017.
