 Entering Gaussian System, Link 0=g09
 Initial command:
 /home/steboss/Software/g09/l1.exe /tmp/Gau-1297.inp -scrdir=/tmp/
 Entering Link 1 = /home/steboss/Software/g09/l1.exe PID=      1300.
  
 Copyright (c) 1988,1990,1992,1993,1995,1998,2003,2009, Gaussian, Inc.
                  All Rights Reserved.
  
 This is part of the Gaussian(R) 09 program.  It is based on
 the Gaussian(R) 03 system (copyright 2003, Gaussian, Inc.),
 the Gaussian(R) 98 system (copyright 1998, Gaussian, Inc.),
 the Gaussian(R) 94 system (copyright 1995, Gaussian, Inc.),
 the Gaussian 92(TM) system (copyright 1992, Gaussian, Inc.),
 the Gaussian 90(TM) system (copyright 1990, Gaussian, Inc.),
 the Gaussian 88(TM) system (copyright 1988, Gaussian, Inc.),
 the Gaussian 86(TM) system (copyright 1986, Carnegie Mellon
 University), and the Gaussian 82(TM) system (copyright 1983,
 Carnegie Mellon University). Gaussian is a federally registered
 trademark of Gaussian, Inc.
  
 This software contains proprietary and confidential information,
 including trade secrets, belonging to Gaussian, Inc.
  
 This software is provided under written license and may be
 used, copied, transmitted, or stored only in accord with that
 written license.
  
 The following legend is applicable only to US Government
 contracts under FAR:
  
                    RESTRICTED RIGHTS LEGEND
  
 Use, reproduction and disclosure by the US Government is
 subject to restrictions as set forth in subparagraphs (a)
 and (c) of the Commercial Computer Software - Restricted
 Rights clause in FAR 52.227-19.
  
 Gaussian, Inc.
 340 Quinnipiac St., Bldg. 40, Wallingford CT 06492
  
  
 ---------------------------------------------------------------
 Warning -- This program may not be used in any manner that
 competes with the business of Gaussian, Inc. or will provide
 assistance to any competitor of Gaussian, Inc.  The licensee
 of this program is prohibited from giving any competitor of
 Gaussian, Inc. access to this program.  By using this program,
 the user acknowledges that Gaussian, Inc. is engaged in the
 business of creating and licensing software in the field of
 computational chemistry and represents and warrants to the
 licensee that it is not a competitor of Gaussian, Inc. and that
 it will not use this program in any manner prohibited above.
 ---------------------------------------------------------------
  

 Cite this work as:
 Gaussian 09, Revision A.02,
 M. J. Frisch, G. W. Trucks, H. B. Schlegel, G. E. Scuseria, 
 M. A. Robb, J. R. Cheeseman, G. Scalmani, V. Barone, B. Mennucci, 
 G. A. Petersson, H. Nakatsuji, M. Caricato, X. Li, H. P. Hratchian, 
 A. F. Izmaylov, J. Bloino, G. Zheng, J. L. Sonnenberg, M. Hada, 
 M. Ehara, K. Toyota, R. Fukuda, J. Hasegawa, M. Ishida, T. Nakajima, 
 Y. Honda, O. Kitao, H. Nakai, T. Vreven, J. A. Montgomery, Jr., 
 J. E. Peralta, F. Ogliaro, M. Bearpark, J. J. Heyd, E. Brothers, 
 K. N. Kudin, V. N. Staroverov, R. Kobayashi, J. Normand, 
 K. Raghavachari, A. Rendell, J. C. Burant, S. S. Iyengar, J. Tomasi, 
 M. Cossi, N. Rega, J. M. Millam, M. Klene, J. E. Knox, J. B. Cross, 
 V. Bakken, C. Adamo, J. Jaramillo, R. Gomperts, R. E. Stratmann, 
 O. Yazyev, A. J. Austin, R. Cammi, C. Pomelli, J. W. Ochterski, 
 R. L. Martin, K. Morokuma, V. G. Zakrzewski, G. A. Voth, 
 P. Salvador, J. J. Dannenberg, S. Dapprich, A. D. Daniels, 
 O. Farkas, J. B. Foresman, J. V. Ortiz, J. Cioslowski, 
 and D. J. Fox, Gaussian, Inc., Wallingford CT, 2009.
 
 ******************************************
 Gaussian 09:  EM64L-G09RevA.02 11-Jun-2009
                27-Dec-2016 
 ******************************************
 %chk=structure_90.chk
 -------------------------------------------------------------------
 # HF/6-31G* Opt=(ModRedundant, maxcycles=1000, calcfc) geom=nocrowd
 -------------------------------------------------------------------
 1/6=1000,10=4,18=120,19=15,38=1/1,3;
 2/9=110,12=1,17=6,18=5,40=1/2;
 3/5=1,6=6,7=1,11=9,16=1,25=1,30=1,71=2/1,2,3;
 4//1;
 5/5=2,38=5/2;
 8/6=4,10=90,11=11/1;
 11/6=1,8=1,9=11,15=111,16=1/1,2,10;
 10/6=1,7=6,13=1/2;
 6/7=2,8=2,9=2,10=2,28=1/1;
 7/10=1,18=20,25=1/1,2,3,16;
 1/6=1000,10=4,18=20,19=15/3(2);
 2/9=110,12=1/2;
 99//99;
 2/9=110,12=1/2;
 3/5=1,6=6,7=1,11=9,16=1,25=1,30=1,71=1/1,2,3;
 4/5=5,16=3/1;
 5/5=2,38=5/2;
 7//1,2,3,16;
 1/6=1000,18=20,19=15/3(-5);
 2/9=110,12=1/2;
 6/7=2,8=2,9=2,10=2,19=2,28=1/1;
 99/9=1/99;
 ------------------
 Phi Psi fixed scan
 ------------------
 Symbolic Z-matrix:
 Charge =  0 Multiplicity = 1
 H                     3.923     1.       -3.3308 
 C                     3.923     2.09     -3.3308 
 H                     2.8955    2.4539   -3.3308 
 H                     4.4367    2.4539   -4.2206 
 C                     4.6367    2.6408   -2.0946 
 O                     5.1183    1.8774   -1.2605 
 N                     4.7007    3.9697   -1.9838 
 H                     4.2896    4.5562   -2.6959 
 C                     5.3497    4.6139   -0.8598 
 H                     4.8562    4.3155    0.0652 
 C                     6.8208    4.2208   -0.7761 
 H                     7.3303    4.5214   -1.6916 
 H                     7.2825    4.7189    0.0764 
 H                     6.9024    3.1409   -0.6532 
 C                     5.2794    6.1294   -0.9815 
 O                     4.7233    6.6527   -1.9446 
 N                     5.846     6.8349    0. 
 H                     6.2915    6.3592    0.7716 
 C                     5.8461    8.2839    0. 
 H                     5.3323    8.6477   -0.8898 
 C                     5.1347    8.8329    1.2322 
 H                     5.6431    8.4846    2.1312 
 H                     5.1499    9.9224    1.2058 
 H                     4.1019    8.4846    1.2414 
 C                     7.266     8.8318    0. 
 O                     7.848     9.0564    1.0589 
 N                     7.8237    9.047    -1.1937 
 H                     7.305     8.8468   -2.0369 
 C                     9.1698    9.5664   -1.3276 
 H                     9.2317    10.5441  -0.8496 
 C                     10.1846   8.6373   -0.6699 
 H                     10.1409   7.6568   -1.144 
 H                     11.186    9.052    -0.7857 
 H                     9.9534    8.5382    0.3906 
 C                     9.5564    9.7156   -2.792 
 O                     8.7642    9.4099   -3.6806 
 N                     10.7798   10.1877  -3.0422 
 H                     11.3955   10.4253  -2.2776 
 C                     11.2665   10.3755  -4.3941 
 H                     10.4943   10.0775  -5.1034 
 H                     11.5155   11.4253  -4.5486 
 H                     12.1562   9.765    -4.5486 
 
 The following ModRedundant input section has been read:
 D   15   17   19   25 F                                                       
 D   17   19   25   27 F                                                       

 GradGradGradGradGradGradGradGradGradGradGradGradGradGradGradGradGradGrad
 Berny optimization.
 Initialization pass.
                           ----------------------------
                           !    Initial Parameters    !
                           ! (Angstroms and Degrees)  !
 --------------------------                            --------------------------
 ! Name  Definition              Value          Derivative Info.                !
 --------------------------------------------------------------------------------
 ! R1    R(1,2)                  1.09           calculate D2E/DX2 analytically  !
 ! R2    R(2,3)                  1.09           calculate D2E/DX2 analytically  !
 ! R3    R(2,4)                  1.09           calculate D2E/DX2 analytically  !
 ! R4    R(2,5)                  1.53           calculate D2E/DX2 analytically  !
 ! R5    R(5,6)                  1.229          calculate D2E/DX2 analytically  !
 ! R6    R(5,7)                  1.335          calculate D2E/DX2 analytically  !
 ! R7    R(7,8)                  1.01           calculate D2E/DX2 analytically  !
 ! R8    R(7,9)                  1.449          calculate D2E/DX2 analytically  !
 ! R9    R(9,10)                 1.0901         calculate D2E/DX2 analytically  !
 ! R10   R(9,11)                 1.525          calculate D2E/DX2 analytically  !
 ! R11   R(9,15)                 1.522          calculate D2E/DX2 analytically  !
 ! R12   R(11,12)                1.09           calculate D2E/DX2 analytically  !
 ! R13   R(11,13)                1.09           calculate D2E/DX2 analytically  !
 ! R14   R(11,14)                1.0899         calculate D2E/DX2 analytically  !
 ! R15   R(15,16)                1.2291         calculate D2E/DX2 analytically  !
 ! R16   R(15,17)                1.335          calculate D2E/DX2 analytically  !
 ! R17   R(17,18)                1.01           calculate D2E/DX2 analytically  !
 ! R18   R(17,19)                1.449          calculate D2E/DX2 analytically  !
 ! R19   R(19,20)                1.09           calculate D2E/DX2 analytically  !
 ! R20   R(19,21)                1.5251         calculate D2E/DX2 analytically  !
 ! R21   R(19,25)                1.5219         calculate D2E/DX2 analytically  !
 ! R22   R(21,22)                1.0899         calculate D2E/DX2 analytically  !
 ! R23   R(21,23)                1.0899         calculate D2E/DX2 analytically  !
 ! R24   R(21,24)                1.09           calculate D2E/DX2 analytically  !
 ! R25   R(25,26)                1.229          calculate D2E/DX2 analytically  !
 ! R26   R(25,27)                1.335          calculate D2E/DX2 analytically  !
 ! R27   R(27,28)                1.01           calculate D2E/DX2 analytically  !
 ! R28   R(27,29)                1.449          calculate D2E/DX2 analytically  !
 ! R29   R(29,30)                1.0901         calculate D2E/DX2 analytically  !
 ! R30   R(29,31)                1.525          calculate D2E/DX2 analytically  !
 ! R31   R(29,35)                1.5219         calculate D2E/DX2 analytically  !
 ! R32   R(31,32)                1.09           calculate D2E/DX2 analytically  !
 ! R33   R(31,33)                1.09           calculate D2E/DX2 analytically  !
 ! R34   R(31,34)                1.0899         calculate D2E/DX2 analytically  !
 ! R35   R(35,36)                1.2291         calculate D2E/DX2 analytically  !
 ! R36   R(35,37)                1.335          calculate D2E/DX2 analytically  !
 ! R37   R(37,38)                1.01           calculate D2E/DX2 analytically  !
 ! R38   R(37,39)                1.4491         calculate D2E/DX2 analytically  !
 ! R39   R(39,40)                1.09           calculate D2E/DX2 analytically  !
 ! R40   R(39,41)                1.0899         calculate D2E/DX2 analytically  !
 ! R41   R(39,42)                1.09           calculate D2E/DX2 analytically  !
 ! A1    A(1,2,3)              109.5021         calculate D2E/DX2 analytically  !
 ! A2    A(1,2,4)              109.5032         calculate D2E/DX2 analytically  !
 ! A3    A(1,2,5)              111.1            calculate D2E/DX2 analytically  !
 ! A4    A(3,2,4)              109.4387         calculate D2E/DX2 analytically  !
 ! A5    A(3,2,5)              108.6341         calculate D2E/DX2 analytically  !
 ! A6    A(4,2,5)              108.6357         calculate D2E/DX2 analytically  !
 ! A7    A(2,5,6)              120.4994         calculate D2E/DX2 analytically  !
 ! A8    A(2,5,7)              116.5999         calculate D2E/DX2 analytically  !
 ! A9    A(6,5,7)              122.9007         calculate D2E/DX2 analytically  !
 ! A10   A(5,7,8)              120.0            calculate D2E/DX2 analytically  !
 ! A11   A(5,7,9)              121.8967         calculate D2E/DX2 analytically  !
 ! A12   A(8,7,9)              118.1033         calculate D2E/DX2 analytically  !
 ! A13   A(7,9,10)             109.4981         calculate D2E/DX2 analytically  !
 ! A14   A(7,9,11)             111.1026         calculate D2E/DX2 analytically  !
 ! A15   A(7,9,15)             111.0985         calculate D2E/DX2 analytically  !
 ! A16   A(10,9,11)            108.638          calculate D2E/DX2 analytically  !
 ! A17   A(10,9,15)            108.634          calculate D2E/DX2 analytically  !
 ! A18   A(11,9,15)            107.795          calculate D2E/DX2 analytically  !
 ! A19   A(9,11,12)            109.4948         calculate D2E/DX2 analytically  !
 ! A20   A(9,11,13)            109.4963         calculate D2E/DX2 analytically  !
 ! A21   A(9,11,14)            109.4999         calculate D2E/DX2 analytically  !
 ! A22   A(12,11,13)           109.4446         calculate D2E/DX2 analytically  !
 ! A23   A(12,11,14)           109.4483         calculate D2E/DX2 analytically  !
 ! A24   A(13,11,14)           109.4434         calculate D2E/DX2 analytically  !
 ! A25   A(9,15,16)            120.4974         calculate D2E/DX2 analytically  !
 ! A26   A(9,15,17)            116.6046         calculate D2E/DX2 analytically  !
 ! A27   A(16,15,17)           122.8981         calculate D2E/DX2 analytically  !
 ! A28   A(15,17,18)           119.9989         calculate D2E/DX2 analytically  !
 ! A29   A(15,17,19)           121.9049         calculate D2E/DX2 analytically  !
 ! A30   A(18,17,19)           118.0962         calculate D2E/DX2 analytically  !
 ! A31   A(17,19,20)           109.4954         calculate D2E/DX2 analytically  !
 ! A32   A(17,19,21)           111.0974         calculate D2E/DX2 analytically  !
 ! A33   A(17,19,25)           111.1042         calculate D2E/DX2 analytically  !
 ! A34   A(20,19,21)           108.6349         calculate D2E/DX2 analytically  !
 ! A35   A(20,19,25)           108.6399         calculate D2E/DX2 analytically  !
 ! A36   A(21,19,25)           107.7944         calculate D2E/DX2 analytically  !
 ! A37   A(19,21,22)           109.4996         calculate D2E/DX2 analytically  !
 ! A38   A(19,21,23)           109.4977         calculate D2E/DX2 analytically  !
 ! A39   A(19,21,24)           109.4988         calculate D2E/DX2 analytically  !
 ! A40   A(22,21,23)           109.4452         calculate D2E/DX2 analytically  !
 ! A41   A(22,21,24)           109.4447         calculate D2E/DX2 analytically  !
 ! A42   A(23,21,24)           109.4412         calculate D2E/DX2 analytically  !
 ! A43   A(19,25,26)           120.5038         calculate D2E/DX2 analytically  !
 ! A44   A(19,25,27)           116.6007         calculate D2E/DX2 analytically  !
 ! A45   A(26,25,27)           122.8955         calculate D2E/DX2 analytically  !
 ! A46   A(25,27,28)           119.999          calculate D2E/DX2 analytically  !
 ! A47   A(25,27,29)           121.9028         calculate D2E/DX2 analytically  !
 ! A48   A(28,27,29)           118.0982         calculate D2E/DX2 analytically  !
 ! A49   A(27,29,30)           109.4955         calculate D2E/DX2 analytically  !
 ! A50   A(27,29,31)           111.0965         calculate D2E/DX2 analytically  !
 ! A51   A(27,29,35)           111.1024         calculate D2E/DX2 analytically  !
 ! A52   A(30,29,31)           108.6353         calculate D2E/DX2 analytically  !
 ! A53   A(30,29,35)           108.638          calculate D2E/DX2 analytically  !
 ! A54   A(31,29,35)           107.7987         calculate D2E/DX2 analytically  !
 ! A55   A(29,31,32)           109.4985         calculate D2E/DX2 analytically  !
 ! A56   A(29,31,33)           109.4953         calculate D2E/DX2 analytically  !
 ! A57   A(29,31,34)           109.5041         calculate D2E/DX2 analytically  !
 ! A58   A(32,31,33)           109.4422         calculate D2E/DX2 analytically  !
 ! A59   A(32,31,34)           109.4463         calculate D2E/DX2 analytically  !
 ! A60   A(33,31,34)           109.4408         calculate D2E/DX2 analytically  !
 ! A61   A(29,35,36)           120.5006         calculate D2E/DX2 analytically  !
 ! A62   A(29,35,37)           116.6024         calculate D2E/DX2 analytically  !
 ! A63   A(36,35,37)           122.8969         calculate D2E/DX2 analytically  !
 ! A64   A(35,37,38)           119.9966         calculate D2E/DX2 analytically  !
 ! A65   A(35,37,39)           121.9029         calculate D2E/DX2 analytically  !
 ! A66   A(38,37,39)           118.1005         calculate D2E/DX2 analytically  !
 ! A67   A(37,39,40)           109.494          calculate D2E/DX2 analytically  !
 ! A68   A(37,39,41)           109.5001         calculate D2E/DX2 analytically  !
 ! A69   A(37,39,42)           109.4993         calculate D2E/DX2 analytically  !
 ! A70   A(40,39,41)           109.4459         calculate D2E/DX2 analytically  !
 ! A71   A(40,39,42)           109.4432         calculate D2E/DX2 analytically  !
 ! A72   A(41,39,42)           109.4447         calculate D2E/DX2 analytically  !
 ! D1    D(1,2,5,6)              0.0022         calculate D2E/DX2 analytically  !
 ! D2    D(1,2,5,7)            179.9987         calculate D2E/DX2 analytically  !
 ! D3    D(3,2,5,6)            120.5158         calculate D2E/DX2 analytically  !
 ! D4    D(3,2,5,7)            -59.4876         calculate D2E/DX2 analytically  !
 ! D5    D(4,2,5,6)           -120.5139         calculate D2E/DX2 analytically  !
 ! D6    D(4,2,5,7)             59.4827         calculate D2E/DX2 analytically  !
 ! D7    D(2,5,7,8)              0.0002         calculate D2E/DX2 analytically  !
 ! D8    D(2,5,7,9)           -179.997          calculate D2E/DX2 analytically  !
 ! D9    D(6,5,7,8)            179.9966         calculate D2E/DX2 analytically  !
 ! D10   D(6,5,7,9)             -0.0006         calculate D2E/DX2 analytically  !
 ! D11   D(5,7,9,10)           -60.0024         calculate D2E/DX2 analytically  !
 ! D12   D(5,7,9,11)            60.0008         calculate D2E/DX2 analytically  !
 ! D13   D(5,7,9,15)          -179.9979         calculate D2E/DX2 analytically  !
 ! D14   D(8,7,9,10)           120.0004         calculate D2E/DX2 analytically  !
 ! D15   D(8,7,9,11)          -119.9965         calculate D2E/DX2 analytically  !
 ! D16   D(8,7,9,15)             0.0048         calculate D2E/DX2 analytically  !
 ! D17   D(7,9,11,12)           60.0011         calculate D2E/DX2 analytically  !
 ! D18   D(7,9,11,13)          179.9983         calculate D2E/DX2 analytically  !
 ! D19   D(7,9,11,14)          -60.0028         calculate D2E/DX2 analytically  !
 ! D20   D(10,9,11,12)        -179.4861         calculate D2E/DX2 analytically  !
 ! D21   D(10,9,11,13)         -59.4889         calculate D2E/DX2 analytically  !
 ! D22   D(10,9,11,14)          60.5099         calculate D2E/DX2 analytically  !
 ! D23   D(15,9,11,12)         -61.9438         calculate D2E/DX2 analytically  !
 ! D24   D(15,9,11,13)          58.0534         calculate D2E/DX2 analytically  !
 ! D25   D(15,9,11,14)         178.0523         calculate D2E/DX2 analytically  !
 ! D26   D(7,9,15,16)           -0.0008         calculate D2E/DX2 analytically  !
 ! D27   D(7,9,15,17)          179.9951         calculate D2E/DX2 analytically  !
 ! D28   D(10,9,15,16)        -120.5084         calculate D2E/DX2 analytically  !
 ! D29   D(10,9,15,17)          59.4875         calculate D2E/DX2 analytically  !
 ! D30   D(11,9,15,16)         121.9467         calculate D2E/DX2 analytically  !
 ! D31   D(11,9,15,17)         -58.0575         calculate D2E/DX2 analytically  !
 ! D32   D(9,15,17,18)           0.0024         calculate D2E/DX2 analytically  !
 ! D33   D(9,15,17,19)         179.9943         calculate D2E/DX2 analytically  !
 ! D34   D(16,15,17,18)        179.9982         calculate D2E/DX2 analytically  !
 ! D35   D(16,15,17,19)         -0.0099         calculate D2E/DX2 analytically  !
 ! D36   D(15,17,19,20)          0.0099         calculate D2E/DX2 analytically  !
 ! D37   D(15,17,19,21)        120.0042         calculate D2E/DX2 analytically  !
 ! D38   D(15,17,19,25)       -119.9948         frozen, calculate D2E/DX2 analyt!
 ! D39   D(18,17,19,20)       -179.998          calculate D2E/DX2 analytically  !
 ! D40   D(18,17,19,21)        -60.0037         calculate D2E/DX2 analytically  !
 ! D41   D(18,17,19,25)         59.9973         calculate D2E/DX2 analytically  !
 ! D42   D(17,19,21,22)         60.0039         calculate D2E/DX2 analytically  !
 ! D43   D(17,19,21,23)       -179.9943         calculate D2E/DX2 analytically  !
 ! D44   D(17,19,21,24)        -59.998          calculate D2E/DX2 analytically  !
 ! D45   D(20,19,21,22)       -179.4919         calculate D2E/DX2 analytically  !
 ! D46   D(20,19,21,23)        -59.4901         calculate D2E/DX2 analytically  !
 ! D47   D(20,19,21,24)         60.5062         calculate D2E/DX2 analytically  !
 ! D48   D(25,19,21,22)        -61.9445         calculate D2E/DX2 analytically  !
 ! D49   D(25,19,21,23)         58.0573         calculate D2E/DX2 analytically  !
 ! D50   D(25,19,21,24)        178.0536         calculate D2E/DX2 analytically  !
 ! D51   D(17,19,25,26)        -90.0011         calculate D2E/DX2 analytically  !
 ! D52   D(17,19,25,27)         90.0            frozen, calculate D2E/DX2 analyt!
 ! D53   D(20,19,25,26)        149.4872         calculate D2E/DX2 analytically  !
 ! D54   D(20,19,25,27)        -30.5117         calculate D2E/DX2 analytically  !
 ! D55   D(21,19,25,26)         31.943          calculate D2E/DX2 analytically  !
 ! D56   D(21,19,25,27)       -148.0559         calculate D2E/DX2 analytically  !
 ! D57   D(19,25,27,28)         -0.0029         calculate D2E/DX2 analytically  !
 ! D58   D(19,25,27,29)       -179.999          calculate D2E/DX2 analytically  !
 ! D59   D(26,25,27,28)        179.9982         calculate D2E/DX2 analytically  !
 ! D60   D(26,25,27,29)          0.0021         calculate D2E/DX2 analytically  !
 ! D61   D(25,27,29,30)        -59.9981         calculate D2E/DX2 analytically  !
 ! D62   D(25,27,29,31)         59.9962         calculate D2E/DX2 analytically  !
 ! D63   D(25,27,29,35)       -179.9993         calculate D2E/DX2 analytically  !
 ! D64   D(28,27,29,30)        120.0057         calculate D2E/DX2 analytically  !
 ! D65   D(28,27,29,31)       -120.0            calculate D2E/DX2 analytically  !
 ! D66   D(28,27,29,35)          0.0045         calculate D2E/DX2 analytically  !
 ! D67   D(27,29,31,32)         60.0075         calculate D2E/DX2 analytically  !
 ! D68   D(27,29,31,33)       -179.9966         calculate D2E/DX2 analytically  !
 ! D69   D(27,29,31,34)        -59.9989         calculate D2E/DX2 analytically  !
 ! D70   D(30,29,31,32)       -179.4885         calculate D2E/DX2 analytically  !
 ! D71   D(30,29,31,33)        -59.4926         calculate D2E/DX2 analytically  !
 ! D72   D(30,29,31,34)         60.5051         calculate D2E/DX2 analytically  !
 ! D73   D(35,29,31,32)        -61.9409         calculate D2E/DX2 analytically  !
 ! D74   D(35,29,31,33)         58.055          calculate D2E/DX2 analytically  !
 ! D75   D(35,29,31,34)        178.0527         calculate D2E/DX2 analytically  !
 ! D76   D(27,29,35,36)         -0.0022         calculate D2E/DX2 analytically  !
 ! D77   D(27,29,35,37)        179.9981         calculate D2E/DX2 analytically  !
 ! D78   D(30,29,35,36)       -120.5116         calculate D2E/DX2 analytically  !
 ! D79   D(30,29,35,37)         59.4887         calculate D2E/DX2 analytically  !
 ! D80   D(31,29,35,36)        121.9425         calculate D2E/DX2 analytically  !
 ! D81   D(31,29,35,37)        -58.0572         calculate D2E/DX2 analytically  !
 ! D82   D(29,35,37,38)         -0.001          calculate D2E/DX2 analytically  !
 ! D83   D(29,35,37,39)        179.9989         calculate D2E/DX2 analytically  !
 ! D84   D(36,35,37,38)        179.9994         calculate D2E/DX2 analytically  !
 ! D85   D(36,35,37,39)         -0.0008         calculate D2E/DX2 analytically  !
 ! D86   D(35,37,39,40)         -0.0003         calculate D2E/DX2 analytically  !
 ! D87   D(35,37,39,41)        120.0004         calculate D2E/DX2 analytically  !
 ! D88   D(35,37,39,42)       -119.9972         calculate D2E/DX2 analytically  !
 ! D89   D(38,37,39,40)        179.9995         calculate D2E/DX2 analytically  !
 ! D90   D(38,37,39,41)        -59.9998         calculate D2E/DX2 analytically  !
 ! D91   D(38,37,39,42)         60.0026         calculate D2E/DX2 analytically  !
 --------------------------------------------------------------------------------
 Trust Radius=3.00D-01 FncErr=1.00D-07 GrdErr=1.00D-07
 Number of steps in this run= 252 maximum allowed number of steps= 252.
 GradGradGradGradGradGradGradGradGradGradGradGradGradGradGradGradGradGrad

                          Input orientation:                          
 ---------------------------------------------------------------------
 Center     Atomic      Atomic             Coordinates (Angstroms)
 Number     Number       Type             X           Y           Z
 ---------------------------------------------------------------------
      1          1           0        3.923000    1.000000   -3.330800
      2          6           0        3.923000    2.090000   -3.330800
      3          1           0        2.895500    2.453900   -3.330800
      4          1           0        4.436700    2.453900   -4.220600
      5          6           0        4.636700    2.640800   -2.094600
      6          8           0        5.118300    1.877400   -1.260500
      7          7           0        4.700700    3.969700   -1.983800
      8          1           0        4.289600    4.556200   -2.695900
      9          6           0        5.349700    4.613900   -0.859800
     10          1           0        4.856200    4.315500    0.065200
     11          6           0        6.820800    4.220800   -0.776100
     12          1           0        7.330300    4.521400   -1.691600
     13          1           0        7.282500    4.718900    0.076400
     14          1           0        6.902400    3.140900   -0.653200
     15          6           0        5.279400    6.129400   -0.981500
     16          8           0        4.723300    6.652700   -1.944600
     17          7           0        5.846000    6.834900    0.000000
     18          1           0        6.291500    6.359200    0.771600
     19          6           0        5.846100    8.283900    0.000000
     20          1           0        5.332300    8.647700   -0.889800
     21          6           0        5.134700    8.832900    1.232200
     22          1           0        5.643100    8.484600    2.131200
     23          1           0        5.149900    9.922400    1.205800
     24          1           0        4.101900    8.484600    1.241400
     25          6           0        7.266000    8.831800    0.000000
     26          8           0        7.848000    9.056400    1.058900
     27          7           0        7.823700    9.047000   -1.193700
     28          1           0        7.305000    8.846800   -2.036900
     29          6           0        9.169800    9.566400   -1.327600
     30          1           0        9.231700   10.544100   -0.849600
     31          6           0       10.184600    8.637300   -0.669900
     32          1           0       10.140900    7.656800   -1.144000
     33          1           0       11.186000    9.052000   -0.785700
     34          1           0        9.953400    8.538200    0.390600
     35          6           0        9.556400    9.715600   -2.792000
     36          8           0        8.764200    9.409900   -3.680600
     37          7           0       10.779800   10.187700   -3.042200
     38          1           0       11.395500   10.425300   -2.277600
     39          6           0       11.266500   10.375500   -4.394100
     40          1           0       10.494300   10.077500   -5.103400
     41          1           0       11.515500   11.425300   -4.548600
     42          1           0       12.156200    9.765000   -4.548600
 ---------------------------------------------------------------------
                    Distance matrix (angstroms):
                    1          2          3          4          5
     1  H    0.000000
     2  C    1.090000   0.000000
     3  H    1.780332   1.090036   0.000000
     4  H    1.780297   1.089979   1.779618   0.000000
     5  C    2.174806   1.530013   2.143572   2.143550   0.000000
     6  O    2.546510   2.400017   3.091817   3.091783   1.229000
     7  N    3.352364   2.439774   2.714923   2.714889   1.335046
     8  H    3.630985   2.572865   2.601207   2.601156   2.037351
     9  C    4.604518   3.809381   4.098114   4.098066   2.434384
    10  H    4.836964   4.166117   4.340820   4.691441   2.741813
    11  C    5.029641   4.411808   5.005638   4.546477   3.000856
    12  H    5.166907   4.495373   5.160328   4.363865   3.309765
    13  H    6.060154   5.459521   5.998750   5.629655   4.003998
    14  H    4.542006   4.141347   4.867932   4.390671   2.731507
    15  C    5.802566   4.865777   4.971065   4.971037   3.717847
    16  O    5.874951   4.835314   4.784592   4.784583   4.015637
    17  N    6.988434   6.107883   6.244425   6.244418   4.841511
    18  H    7.152657   6.376954   6.604080   6.604068   4.977948
    19  C    8.236974   7.290881   7.334110   7.334083   6.139591
    20  H    8.150578   7.137789   7.089403   7.089393   6.165894
    21  C    9.145682   8.231396   8.156386   8.420919   7.046822
    22  H    9.423981   8.583886   8.587904   8.841386   7.281499
    23  H   10.084406   9.134140   9.024497   9.259210   8.011099
    24  H    8.772471   7.863074   7.663534   8.143395   6.750178
    25  C    9.143685   8.229322   8.418617   8.154509   7.044789
    26  O    9.979012   9.121722   9.348247   9.116090   7.836896
    27  N    9.194393   8.257270   8.504312   8.006426   7.211656
    28  H    8.642012   7.665928   7.873185   7.339268   6.755560
    29  C   10.243287   9.350844   9.693674   9.019941   8.312714
    30  H   11.199486  10.286421  10.571429   9.990345   9.226386
    31  C   10.228215   9.442201   9.921986   9.158617   8.292586
    32  H    9.367890   8.627493   9.184121   8.311049   7.507337
    33  H   11.138375  10.377772  10.897011  10.044228   9.257971
    34  H   10.345965   9.580909  10.034016   9.418909   8.320027
    35  C   10.391688   9.496066   9.868646   8.999140   8.645381
    36  O    9.710098   8.782967   9.107686   8.210042   8.085318
    37  N   11.467904  10.614695  11.047947  10.071505   9.777082
    38  H   12.074095  11.243874  11.700532  10.758409  10.310834
    39  C   11.956488  11.122370  11.573936  10.460785  10.443540
    40  H   11.345708  10.494010  10.908856   9.777174   9.933220
    41  H   12.954380  12.094500  12.500938  11.432542  11.423986
    42  H   12.086929  11.321406  11.861525  10.637220  10.645150
                    6          7          8          9         10
     6  O    0.000000
     7  N    2.252836   0.000000
     8  H    3.150093   1.009986   0.000000
     9  C    2.775345   1.448990   2.120944   0.000000
    10  H    2.787563   2.083785   2.828895   1.090050   0.000000
    11  C    2.936779   2.452838   3.194542   1.525014   2.139254
    12  H    3.474123   2.702693   3.202450   2.150168   3.041367
    13  H    3.813815   3.386948   4.082838   2.150165   2.459632
    14  H    2.268977   2.702756   3.605887   2.150184   2.466317
    15  C    4.264188   2.450266   2.528602   1.522003   2.136566
    16  O    4.840197   2.683382   2.268890   2.392880   3.085363
    17  N    5.166741   3.668316   3.857814   2.432778   2.707643
    18  H    5.058889   3.979018   4.391124   2.567981   2.595341
    19  C    6.569764   4.884642   4.856575   3.801916   4.090520
    20  H    6.783817   4.845559   4.592341   4.033949   4.461687
    21  C    7.388694   5.846514   5.868077   4.714091   4.674008
    22  H    7.445410   6.181073   6.369080   4.900457   4.719000
    23  H    8.414610   6.768306   6.690253   5.699719   5.729272
    24  H    7.137763   5.580753   5.565060   4.577594   4.397023
    25  C    7.386823   5.844334   5.865798   4.711915   5.119409
    26  O    8.023024   6.711038   6.856569   5.445982   5.693368
    27  N    7.663342   6.013016   5.908786   5.087685   5.725205
    28  H    7.345542   5.529132   5.285467   4.808971   5.563104
    29  C    8.691368   7.192114   7.126759   6.272101   6.936785
    30  H    9.602114   8.064683   7.980484   7.087828   7.666637
    31  C    8.468320   7.320245   7.450576   6.292858   6.900013
    32  H    7.657777   6.625387   6.801458   5.682922   6.368242
    33  H    9.408363   8.326124   8.451119   7.332436   7.951404
    34  H    8.394676   7.355258   7.580332   6.177191   6.627106
    35  C    9.136717   7.566134   7.373454   6.888909   7.708213
    36  O    8.711373   6.999067   6.674585   6.528196   7.433464
    37  N   10.212156   8.760091   8.599791   8.081838   8.900995
    38  H   10.653841   9.304915   9.225786   8.504953   9.250990
    39  C   10.947032   9.484385   9.242579   8.983086   9.884377
    40  H   10.531424   8.977913   8.647492   8.621251   9.576181
    41  H   11.954002  10.421404  10.140545   9.900480  10.778807
    42  H   11.070586   9.785100   9.614962   9.298899  10.211474
                   11         12         13         14         15
    11  C    0.000000
    12  H    1.089996   0.000000
    13  H    1.089966   1.779639   0.000000
    14  H    1.089930   1.779650   1.779572   0.000000
    15  C    2.461881   2.701129   2.668534   3.416583   0.000000
    16  O    3.417460   3.376818   3.791244   4.330003   1.229086
    17  N    2.895874   3.227528   2.558676   3.897215   1.334956
    18  H    2.692265   3.244067   2.038619   3.572213   2.037281
    19  C    4.249842   4.384149   3.844256   5.290831   2.434412
    20  H    4.671831   4.654164   4.491357   5.731146   2.520524
    21  C    5.305438   5.653167   4.782668   6.251269   3.497187
    22  H    5.293332   5.759114   4.592421   6.155798   3.920223
    23  H    6.263232   6.505373   5.735847   7.246784   4.380400
    24  H    5.444512   5.893387   5.064972   6.323562   3.445977
    25  C    4.697005   4.630896   4.113643   5.739793   3.494694
    26  O    5.273082   5.329117   4.483191   6.230456   4.396393
    27  N    4.946959   4.579564   4.542962   6.001912   3.876968
    28  H    4.819123   4.339235   4.637467   5.885066   3.549815
    29  C    5.864929   5.382219   5.388077   6.847114   5.202688
    30  H    6.767715   6.371593   6.212070   7.763477   5.926858
    31  C    5.552648   5.111901   4.932850   6.401838   5.517938
    32  H    4.792130   4.246183   4.276808   5.578720   5.098386
    33  H    6.511187   6.017758   5.895446   7.301225   6.593015
    34  H    5.460249   5.229808   4.671133   6.287207   5.434266
    35  C    6.460665   5.757266   6.193977   7.405732   5.867833
    36  O    6.256172   5.468969   6.189989   7.206373   5.494602
    37  N    7.510845   6.769795   7.201704   8.390408   7.139376
    38  H    7.853547   7.192029   7.417620   8.711435   7.585599
    39  C    8.410381   7.554314   8.237399   9.240083   8.094478
    40  H    8.156045   7.247173   8.115453   8.990130   7.731283
    41  H    9.390249   8.564005   9.180671  10.251152   8.925228
    42  H    8.569504   7.677702   8.402779   9.308881   8.557580
                   16         17         18         19         20
    16  O    0.000000
    17  N    2.252803   0.000000
    18  H    3.150101   1.010014   0.000000
    19  C    2.775421   1.449000   2.120900   0.000000
    20  H    2.337415   2.083717   2.986226   1.089993   0.000000
    21  C    3.874865   2.452808   2.769392   1.525060   2.139212
    22  H    4.562240   2.702719   2.605045   2.150233   3.041322
    23  H    4.560476   3.386911   3.766719   2.150193   2.459608
    24  H    3.727277   2.702678   3.087456   2.150253   2.466272
    25  C    3.872373   2.450308   2.767448   1.521943   2.136547
    26  O    4.956061   3.172434   3.127319   2.392829   3.208304
    27  N    3.988609   3.198375   3.665284   2.432723   2.541431
    28  H    3.389361   3.213314   3.886259   2.567919   2.290638
    29  C    5.351794   4.502362   4.793473   3.801882   3.970149
    30  H    6.055385   5.093422   5.365301   4.158439   4.336274
    31  C    5.948890   4.745615   4.735387   4.404116   4.857291
    32  H    5.567725   4.520002   4.491233   4.488574   4.916211
    33  H    6.990435   5.835106   5.799352   5.451773   5.868569
    34  H    6.030109   4.463691   4.278167   4.133661   4.796455
    35  C    5.784315   5.464500   5.884236   4.859152   4.754135
    36  O    5.190830   5.356616   5.936590   4.830114   4.488591
    37  N    7.098038   6.696165   7.024765   6.100888   6.056375
    38  H    7.672135   6.991093   7.202889   6.369372   6.469022
    39  C    7.916613   7.824691   8.219839   7.284479   7.104938
    40  H    7.416988   7.626653   8.124340   7.132142   6.815057
    41  H    8.700144   8.596788   9.014437   7.918349   7.702846
    42  H    8.468484   8.312272   8.619670   7.918382   7.823093
                   21         22         23         24         25
    21  C    0.000000
    22  H    1.089947   0.000000
    23  H    1.089926   1.779573   0.000000
    24  H    1.089988   1.779618   1.779562   0.000000
    25  C    2.461861   2.701179   2.668565   3.416599   0.000000
    26  O    2.728000   2.517611   2.837478   3.793880   1.228999
    27  N    3.627885   4.015753   3.697720   4.483057   1.335013
    28  H    3.923953   4.501795   4.039366   4.597640   2.037329
    29  C    4.834525   5.056798   4.764918   5.783914   2.434464
    30  H    4.903826   5.099486   4.612187   5.910048   2.741855
    31  C    5.399790   5.338043   5.524304   6.377744   3.000804
    32  H    5.664943   5.625157   5.963605   6.545602   3.309745
    33  H    6.382645   6.289196   6.415463   7.390233   4.004025
    34  H    4.900511   4.648790   5.064995   5.913272   2.731463
    35  C    6.043573   6.408368   5.953353   6.894581   3.717835
    36  O    6.135292   6.661416   6.099404   6.842463   4.015672
    37  N    7.209239   7.486675   7.057738   8.114439   4.841512
    38  H    7.352010   7.502929   7.168996   8.327441   4.977899
    39  C    8.463678   8.819165   8.305238   9.309450   6.139636
    40  H    8.391315   8.854993   8.269986   9.146398   6.165905
    41  H    8.991818   9.367632   8.711641   9.855622   6.743460
    42  H    9.142643   9.416986   9.067863  10.001763   6.743492
                   26         27         28         29         30
    26  O    0.000000
    27  N    2.252751   0.000000
    28  H    3.150041   1.010008   0.000000
    29  C    2.775363   1.449031   2.120945   0.000000
    30  H    2.787517   2.083789   2.828901   1.090052   0.000000
    31  C    2.936681   2.452768   3.194476   1.524997   2.139205
    32  H    3.474052   2.702692   3.202452   2.150190   3.041351
    33  H    3.813766   3.386968   4.082863   2.150192   2.459621
    34  H    2.268891   2.702685   3.605830   2.150218   2.466289
    35  C    4.264107   2.450273   2.528595   1.521903   2.136530
    36  O    4.840170   2.683451   2.268942   2.392825   3.085373
    37  N    5.166654   3.668334   3.857833   2.432687   2.707606
    38  H    5.058743   3.978983   4.391103   2.567869   2.595251
    39  C    6.569732   4.884705   4.856624   3.801870   4.090516
    40  H    6.783767   4.845595   4.592350   4.033880   4.461691
    41  H    7.106778   5.526396   5.539459   4.396892   4.435635
    42  H    7.106811   5.526431   5.539483   4.396916   4.779362
                   31         32         33         34         35
    31  C    0.000000
    32  H    1.089982   0.000000
    33  H    1.090040   1.779662   0.000000
    34  H    1.089924   1.779612   1.779600   0.000000
    35  C    2.461844   2.701148   2.668558   3.416551   0.000000
    36  O    3.417420   3.376833   3.791260   4.329980   1.229082
    37  N    2.895826   3.227509   2.558633   3.897166   1.334985
    38  H    2.692197   3.244019   2.038531   3.572127   2.037295
    39  C    4.249884   4.384228   3.844305   5.290865   2.434468
    40  H    4.671832   4.654195   4.491395   5.731148   2.520555
    41  H    4.958685   5.261408   4.461002   5.930531   3.137960
    42  H    4.494800   4.482995   3.950832   5.545544   3.138000
                   36         37         38         39         40
    36  O    0.000000
    37  N    2.252814   0.000000
    38  H    3.150109   1.010026   0.000000
    39  C    2.775423   1.449062   2.121012   0.000000
    40  H    2.337369   2.083795   2.986348   1.090047   0.000000
    41  H    3.519220   2.083782   2.484319   1.089932   1.779668
    42  H    3.519259   2.083841   2.484371   1.090021   1.779711
                   41         42
    41  H    0.000000
    42  H    1.779633   0.000000
 Stoichiometry    C12H22N4O4
 Framework group  C1[X(C12H22N4O4)]
 Deg. of freedom   120
 Full point group                 C1      NOp   1
 Largest Abelian subgroup         C1      NOp   1
 Largest concise Abelian subgroup C1      NOp   1
                         Standard orientation:                         
 ---------------------------------------------------------------------
 Center     Atomic      Atomic             Coordinates (Angstroms)
 Number     Number       Type             X           Y           Z
 ---------------------------------------------------------------------
      1          1           0       -6.543876   -2.662846   -0.167502
      2          6           0       -5.687113   -2.259055   -0.706954
      3          1           0       -6.032710   -1.730076   -1.595167
      4          1           0       -5.027065   -3.074025   -1.003965
      5          6           0       -4.896342   -1.283062    0.166578
      6          8           0       -5.254925   -1.045025    1.317751
      7          7           0       -3.819706   -0.721593   -0.388359
      8          1           0       -3.564817   -0.949005   -1.338826
      9          6           0       -2.987951    0.218907    0.334976
     10          1           0       -3.586401    1.080169    0.632121
     11          6           0       -2.398092   -0.420260    1.587653
     12          1           0       -1.788699   -1.278809    1.305473
     13          1           0       -1.778545    0.308299    2.110520
     14          1           0       -3.204798   -0.747648    2.243389
     15          6           0       -1.831986    0.704343   -0.527920
     16          8           0       -1.699482    0.296816   -1.679882
     17          7           0       -0.993376    1.578617    0.032871
     18          1           0       -1.143922    1.884211    0.983700
     19          6           0        0.145631    2.115362   -0.684185
     20          1           0        0.173970    1.694527   -1.689263
     21          6           0        0.059203    3.634005   -0.794007
     22          1           0        0.039126    4.070436    0.204547
     23          1           0        0.926646    4.009447   -1.336709
     24          1           0       -0.850058    3.908965   -1.328528
     25          6           0        1.449141    1.773626    0.023197
     26          8           0        1.914154    2.529317    0.873568
     27          7           0        2.039243    0.629612   -0.330740
     28          1           0        1.618204    0.041143   -1.035402
     29          6           0        3.283747    0.192359    0.269018
     30          1           0        4.059011    0.935157    0.080790
     31          6           0        3.134236    0.015242    1.776298
     32          1           0        2.367704   -0.732276    1.980518
     33          1           0        4.083363   -0.313251    2.199898
     34          1           0        2.844815    0.964334    2.227290
     35          6           0        3.734508   -1.139460   -0.313442
     36          8           0        3.065388   -1.700496   -1.178404
     37          7           0        4.874017   -1.645547    0.163613
     38          1           0        5.389225   -1.146925    0.875013
     39          6           0        5.409290   -2.906300   -0.309423
     40          1           0        4.746783   -3.320480   -1.069517
     41          1           0        6.397633   -2.743620   -0.739149
     42          1           0        5.486456   -3.604466    0.524097
 ---------------------------------------------------------------------
 Rotational constants (GHZ):      0.4708473      0.1418604      0.1221312
 Standard basis: 6-31G(d) (6D, 7F)
 There are   344 symmetry adapted basis functions of A   symmetry.
 Integral buffers will be    131072 words long.
 Raffenetti 1 integral format.
 Two-electron integral symmetry is turned on.
   344 basis functions,   648 primitive gaussians,   344 cartesian basis functions
    77 alpha electrons       77 beta electrons
       nuclear repulsion energy      1615.2705746618 Hartrees.
 NAtoms=   42 NActive=   42 NUniq=   42 SFac= 7.50D-01 NAtFMM=   80 NAOKFM=F Big=F
 One-electron integrals computed using PRISM.
 NBasis=   344 RedAO= T  NBF=   344
 NBsUse=   344 1.00D-06 NBFU=   344
 Harris functional with IExCor=  205 diagonalized for initial guess.
 ExpMin= 1.61D-01 ExpMax= 5.48D+03 ExpMxC= 8.25D+02 IAcc=1 IRadAn=         1 AccDes= 0.00D+00
 HarFok:  IExCor=  205 AccDes= 0.00D+00 IRadAn=         1 IDoV= 1
 ScaDFX=  1.000000  1.000000  1.000000  1.000000
 FoFCou: FMM=F IPFlag=           0 FMFlag=      100000 FMFlg1=           0
         NFxFlg=           0 DoJE=T BraDBF=F KetDBF=T FulRan=T
         Omega=  0.000000  0.000000  1.000000  0.000000  0.000000 ICntrl=     500 IOpCl=  0
         NMat0=    1 NMatS0=    1 NMatT0=    0 NMatD0=    1 NMtDS0=    0 NMtDT0=    0
         I1Cent=           4 NGrid=           0.
 Petite list used in FoFCou.
 Initial guess orbital symmetries:
       Occupied  (A) (A) (A) (A) (A) (A) (A) (A) (A) (A) (A) (A)
                 (A) (A) (A) (A) (A) (A) (A) (A) (A) (A) (A) (A)
                 (A) (A) (A) (A) (A) (A) (A) (A) (A) (A) (A) (A)
                 (A) (A) (A) (A) (A) (A) (A) (A) (A) (A) (A) (A)
                 (A) (A) (A) (A) (A) (A) (A) (A) (A) (A) (A) (A)
                 (A) (A) (A) (A) (A) (A) (A) (A) (A) (A) (A) (A)
                 (A) (A) (A) (A) (A)
       Virtual   (A) (A) (A) (A) (A) (A) (A) (A) (A) (A) (A) (A)
                 (A) (A) (A) (A) (A) (A) (A) (A) (A) (A) (A) (A)
                 (A) (A) (A) (A) (A) (A) (A) (A) (A) (A) (A) (A)
                 (A) (A) (A) (A) (A) (A) (A) (A) (A) (A) (A) (A)
                 (A) (A) (A) (A) (A) (A) (A) (A) (A) (A) (A) (A)
                 (A) (A) (A) (A) (A) (A) (A) (A) (A) (A) (A) (A)
                 (A) (A) (A) (A) (A) (A) (A) (A) (A) (A) (A) (A)
                 (A) (A) (A) (A) (A) (A) (A) (A) (A) (A) (A) (A)
                 (A) (A) (A) (A) (A) (A) (A) (A) (A) (A) (A) (A)
                 (A) (A) (A) (A) (A) (A) (A) (A) (A) (A) (A) (A)
                 (A) (A) (A) (A) (A) (A) (A) (A) (A) (A) (A) (A)
                 (A) (A) (A) (A) (A) (A) (A) (A) (A) (A) (A) (A)
                 (A) (A) (A) (A) (A) (A) (A) (A) (A) (A) (A) (A)
                 (A) (A) (A) (A) (A) (A) (A) (A) (A) (A) (A) (A)
                 (A) (A) (A) (A) (A) (A) (A) (A) (A) (A) (A) (A)
                 (A) (A) (A) (A) (A) (A) (A) (A) (A) (A) (A) (A)
                 (A) (A) (A) (A) (A) (A) (A) (A) (A) (A) (A) (A)
                 (A) (A) (A) (A) (A) (A) (A) (A) (A) (A) (A) (A)
                 (A) (A) (A) (A) (A) (A) (A) (A) (A) (A) (A) (A)
                 (A) (A) (A) (A) (A) (A) (A) (A) (A) (A) (A) (A)
                 (A) (A) (A) (A) (A) (A) (A) (A) (A) (A) (A) (A)
                 (A) (A) (A) (A) (A) (A) (A) (A) (A) (A) (A) (A)
                 (A) (A) (A)
 The electronic state of the initial guess is 1-A.
 Requested convergence on RMS density matrix=1.00D-08 within 128 cycles.
 Requested convergence on MAX density matrix=1.00D-06.
 Requested convergence on             energy=1.00D-06.
 No special actions if energy rises.
 Integral accuracy reduced to 1.0D-05 until final iterations.
 Initial convergence to 1.0D-05 achieved.  Increase integral accuracy.
 SCF Done:  E(RHF) =  -984.543595525     A.U. after   15 cycles
             Convg  =    0.3090D-08             -V/T =  2.0020
 Range of M.O.s used for correlation:     1   344
 NBasis=   344 NAE=    77 NBE=    77 NFC=     0 NFV=     0
 NROrb=    344 NOA=    77 NOB=    77 NVA=   267 NVB=   267
 Symmetrizing basis deriv contribution to polar:
 IMax=3 JMax=2 DiffMx= 0.00D+00
 G2DrvN: will do    43 centers at a time, making    1 passes doing MaxLOS=2.
 Calling FoFCou, ICntrl=  3107 FMM=F I1Cent=   0 AccDes= 0.00D+00.
 FoFDir/FoFCou used for L=0 through L=2.
 End of G2Drv Frequency-dependent properties file   721 does not exist.
 End of G2Drv Frequency-dependent properties file   722 does not exist.
          IDoAtm=111111111111111111111111111111111111111111
          Differentiating once with respect to nuclear coordinates.
          There are   129 degrees of freedom in the 1st order CPHF.  IDoFFX=5.
    123 vectors produced by pass  0 Test12= 2.06D-10 1.00D-07 XBig12= 9.25D-02 4.78D-02.
 AX will form   123 AO Fock derivatives at one time.
    123 vectors produced by pass  1 Test12= 2.06D-10 1.00D-07 XBig12= 5.79D-03 2.32D-02.
    123 vectors produced by pass  2 Test12= 2.06D-10 1.00D-07 XBig12= 1.08D-04 1.54D-03.
    123 vectors produced by pass  3 Test12= 2.06D-10 1.00D-07 XBig12= 9.35D-07 1.07D-04.
    123 vectors produced by pass  4 Test12= 2.06D-10 1.00D-07 XBig12= 6.00D-09 8.47D-06.
     34 vectors produced by pass  5 Test12= 2.06D-10 1.00D-07 XBig12= 3.33D-11 5.28D-07.
 Inverted reduced A of dimension   649 with in-core refinement.
 End of Minotr Frequency-dependent properties file   721 does not exist.
 End of Minotr Frequency-dependent properties file   722 does not exist.

 **********************************************************************

            Population analysis using the SCF density.

 **********************************************************************

 Orbital symmetries:
       Occupied  (A) (A) (A) (A) (A) (A) (A) (A) (A) (A) (A) (A)
                 (A) (A) (A) (A) (A) (A) (A) (A) (A) (A) (A) (A)
                 (A) (A) (A) (A) (A) (A) (A) (A) (A) (A) (A) (A)
                 (A) (A) (A) (A) (A) (A) (A) (A) (A) (A) (A) (A)
                 (A) (A) (A) (A) (A) (A) (A) (A) (A) (A) (A) (A)
                 (A) (A) (A) (A) (A) (A) (A) (A) (A) (A) (A) (A)
                 (A) (A) (A) (A) (A)
       Virtual   (A) (A) (A) (A) (A) (A) (A) (A) (A) (A) (A) (A)
                 (A) (A) (A) (A) (A) (A) (A) (A) (A) (A) (A) (A)
                 (A) (A) (A) (A) (A) (A) (A) (A) (A) (A) (A) (A)
                 (A) (A) (A) (A) (A) (A) (A) (A) (A) (A) (A) (A)
                 (A) (A) (A) (A) (A) (A) (A) (A) (A) (A) (A) (A)
                 (A) (A) (A) (A) (A) (A) (A) (A) (A) (A) (A) (A)
                 (A) (A) (A) (A) (A) (A) (A) (A) (A) (A) (A) (A)
                 (A) (A) (A) (A) (A) (A) (A) (A) (A) (A) (A) (A)
                 (A) (A) (A) (A) (A) (A) (A) (A) (A) (A) (A) (A)
                 (A) (A) (A) (A) (A) (A) (A) (A) (A) (A) (A) (A)
                 (A) (A) (A) (A) (A) (A) (A) (A) (A) (A) (A) (A)
                 (A) (A) (A) (A) (A) (A) (A) (A) (A) (A) (A) (A)
                 (A) (A) (A) (A) (A) (A) (A) (A) (A) (A) (A) (A)
                 (A) (A) (A) (A) (A) (A) (A) (A) (A) (A) (A) (A)
                 (A) (A) (A) (A) (A) (A) (A) (A) (A) (A) (A) (A)
                 (A) (A) (A) (A) (A) (A) (A) (A) (A) (A) (A) (A)
                 (A) (A) (A) (A) (A) (A) (A) (A) (A) (A) (A) (A)
                 (A) (A) (A) (A) (A) (A) (A) (A) (A) (A) (A) (A)
                 (A) (A) (A) (A) (A) (A) (A) (A) (A) (A) (A) (A)
                 (A) (A) (A) (A) (A) (A) (A) (A) (A) (A) (A) (A)
                 (A) (A) (A) (A) (A) (A) (A) (A) (A) (A) (A) (A)
                 (A) (A) (A) (A) (A) (A) (A) (A) (A) (A) (A) (A)
                 (A) (A) (A)
 The electronic state is 1-A.
 Alpha  occ. eigenvalues --  -20.53811 -20.53390 -20.52863 -20.51353 -15.61066
 Alpha  occ. eigenvalues --  -15.60594 -15.59651 -15.58744 -11.36639 -11.36308
 Alpha  occ. eigenvalues --  -11.35398 -11.34678 -11.29163 -11.28841 -11.28692
 Alpha  occ. eigenvalues --  -11.27013 -11.23270 -11.22828 -11.22348 -11.22275
 Alpha  occ. eigenvalues --   -1.39873  -1.39377  -1.38411  -1.37015  -1.25960
 Alpha  occ. eigenvalues --   -1.24904  -1.24405  -1.23649  -1.08248  -1.05976
 Alpha  occ. eigenvalues --   -1.03106  -0.98381  -0.96549  -0.91784  -0.90019
 Alpha  occ. eigenvalues --   -0.86794  -0.82072  -0.80871  -0.78755  -0.78126
 Alpha  occ. eigenvalues --   -0.76515  -0.71915  -0.68978  -0.68441  -0.67942
 Alpha  occ. eigenvalues --   -0.65738  -0.64770  -0.64622  -0.63325  -0.63142
 Alpha  occ. eigenvalues --   -0.62097  -0.60786  -0.60426  -0.59181  -0.58455
 Alpha  occ. eigenvalues --   -0.57754  -0.56830  -0.56148  -0.55955  -0.55614
 Alpha  occ. eigenvalues --   -0.54879  -0.54182  -0.53536  -0.53313  -0.52600
 Alpha  occ. eigenvalues --   -0.52177  -0.51538  -0.50381  -0.49251  -0.43816
 Alpha  occ. eigenvalues --   -0.43034  -0.42863  -0.40832  -0.40648  -0.39825
 Alpha  occ. eigenvalues --   -0.39207  -0.38449
 Alpha virt. eigenvalues --    0.16921   0.18582   0.19340   0.20130   0.21235
 Alpha virt. eigenvalues --    0.21813   0.23763   0.24558   0.25801   0.26726
 Alpha virt. eigenvalues --    0.27993   0.28473   0.28883   0.29568   0.30315
 Alpha virt. eigenvalues --    0.30762   0.31343   0.31428   0.31926   0.32158
 Alpha virt. eigenvalues --    0.32875   0.33143   0.33753   0.34782   0.35249
 Alpha virt. eigenvalues --    0.35334   0.36059   0.36902   0.39077   0.39811
 Alpha virt. eigenvalues --    0.40864   0.41120   0.42705   0.43246   0.44274
 Alpha virt. eigenvalues --    0.46906   0.47716   0.51368   0.52494   0.53081
 Alpha virt. eigenvalues --    0.55635   0.58699   0.59970   0.61079   0.64281
 Alpha virt. eigenvalues --    0.70614   0.71243   0.72322   0.72952   0.73310
 Alpha virt. eigenvalues --    0.73965   0.74784   0.75297   0.75966   0.76684
 Alpha virt. eigenvalues --    0.77476   0.78013   0.78407   0.79016   0.81815
 Alpha virt. eigenvalues --    0.82862   0.83373   0.84095   0.86504   0.87718
 Alpha virt. eigenvalues --    0.87877   0.88732   0.91161   0.91765   0.92496
 Alpha virt. eigenvalues --    0.93404   0.93466   0.94040   0.96323   0.97413
 Alpha virt. eigenvalues --    0.98415   0.99111   0.99369   1.00159   1.01873
 Alpha virt. eigenvalues --    1.02630   1.04742   1.04910   1.05867   1.06730
 Alpha virt. eigenvalues --    1.07638   1.09502   1.09851   1.10892   1.11802
 Alpha virt. eigenvalues --    1.12484   1.12985   1.13972   1.14254   1.14606
 Alpha virt. eigenvalues --    1.15180   1.15721   1.16397   1.16427   1.16691
 Alpha virt. eigenvalues --    1.16902   1.18421   1.18983   1.19217   1.19566
 Alpha virt. eigenvalues --    1.20270   1.21113   1.21591   1.22323   1.22623
 Alpha virt. eigenvalues --    1.23217   1.24422   1.24875   1.26498   1.27559
 Alpha virt. eigenvalues --    1.28360   1.30395   1.32776   1.34139   1.35620
 Alpha virt. eigenvalues --    1.37514   1.38411   1.38816   1.41426   1.42965
 Alpha virt. eigenvalues --    1.43884   1.47396   1.49415   1.50351   1.52898
 Alpha virt. eigenvalues --    1.54635   1.55137   1.56093   1.59529   1.60489
 Alpha virt. eigenvalues --    1.61621   1.63373   1.64145   1.64446   1.68180
 Alpha virt. eigenvalues --    1.69689   1.70421   1.71793   1.73853   1.75247
 Alpha virt. eigenvalues --    1.76589   1.79550   1.80156   1.82248   1.85289
 Alpha virt. eigenvalues --    1.87225   1.92014   1.93199   1.93487   1.97444
 Alpha virt. eigenvalues --    1.99487   2.00352   2.02264   2.02692   2.04383
 Alpha virt. eigenvalues --    2.06858   2.07870   2.08980   2.10854   2.12362
 Alpha virt. eigenvalues --    2.13022   2.13651   2.14090   2.14241   2.14686
 Alpha virt. eigenvalues --    2.16030   2.16767   2.17463   2.18761   2.19770
 Alpha virt. eigenvalues --    2.20445   2.21625   2.23457   2.23998   2.24490
 Alpha virt. eigenvalues --    2.26492   2.28832   2.29178   2.31027   2.31738
 Alpha virt. eigenvalues --    2.34949   2.35609   2.36283   2.36756   2.37714
 Alpha virt. eigenvalues --    2.41377   2.42643   2.44270   2.46253   2.46942
 Alpha virt. eigenvalues --    2.49591   2.50253   2.52364   2.53273   2.57215
 Alpha virt. eigenvalues --    2.58382   2.58568   2.60800   2.61245   2.62574
 Alpha virt. eigenvalues --    2.62785   2.63026   2.65057   2.65727   2.66349
 Alpha virt. eigenvalues --    2.69453   2.69771   2.72715   2.74369   2.76438
 Alpha virt. eigenvalues --    2.77004   2.77624   2.79364   2.82416   2.83222
 Alpha virt. eigenvalues --    2.85744   2.90627   2.91994   2.94341   2.94978
 Alpha virt. eigenvalues --    2.98348   2.99819   3.00701   3.03441   3.05188
 Alpha virt. eigenvalues --    3.08034   3.10203   3.10708   3.16101   3.20663
 Alpha virt. eigenvalues --    3.24510   3.26170   3.30489   3.31331   3.34216
 Alpha virt. eigenvalues --    3.35629   3.39025   3.40330   3.52804   3.53415
 Alpha virt. eigenvalues --    3.60447   3.61487   4.39437   4.43667   4.44448
 Alpha virt. eigenvalues --    4.46157   4.49299   4.50265   4.51069   4.60142
 Alpha virt. eigenvalues --    4.62953   4.65563   4.69068   4.71437   4.71549
 Alpha virt. eigenvalues --    4.80646   4.85490   4.86907   4.90860   5.00337
 Alpha virt. eigenvalues --    5.06161   5.10085
          Condensed to atoms (all electrons):
              1          2          3          4          5          6
     1  H    0.458587   0.385670  -0.018782  -0.018752  -0.030811   0.003509
     2  C    0.385670   5.244769   0.374680   0.374933   0.378035  -0.067267
     3  H   -0.018782   0.374680   0.510422  -0.023567  -0.034505   0.001270
     4  H   -0.018752   0.374933  -0.023567   0.511009  -0.035360   0.001182
     5  C   -0.030811   0.378035  -0.034505  -0.035360   4.187189   0.587128
     6  O    0.003509  -0.067267   0.001270   0.001182   0.587128   8.210921
     7  N    0.003860  -0.119772   0.003465   0.003684   0.246484  -0.107642
     8  H   -0.000017  -0.001209   0.000640   0.000479  -0.017200   0.002007
     9  C   -0.000076   0.004566  -0.000242  -0.000091  -0.030072   0.014507
    10  H    0.000002  -0.000012  -0.000004  -0.000002  -0.001730   0.002944
    11  C    0.000006  -0.000505   0.000008   0.000030  -0.003867  -0.015862
    12  H    0.000000  -0.000042   0.000000   0.000002   0.000023  -0.000023
    13  H    0.000000   0.000007   0.000000  -0.000001   0.000280   0.000271
    14  H    0.000001   0.000303  -0.000005  -0.000025   0.000450   0.011201
    15  C    0.000000   0.000008  -0.000011  -0.000006   0.004043   0.000535
    16  O    0.000000  -0.000041  -0.000001  -0.000001   0.000308  -0.000003
    17  N    0.000000   0.000000   0.000000   0.000000  -0.000079  -0.000002
    18  H    0.000000   0.000000   0.000000   0.000000   0.000002   0.000001
    19  C    0.000000   0.000000   0.000000   0.000000   0.000001   0.000000
    20  H    0.000000   0.000000   0.000000   0.000000   0.000000   0.000000
    21  C    0.000000   0.000000   0.000000   0.000000   0.000000   0.000000
    22  H    0.000000   0.000000   0.000000   0.000000   0.000000   0.000000
    23  H    0.000000   0.000000   0.000000   0.000000   0.000000   0.000000
    24  H    0.000000   0.000000   0.000000   0.000000   0.000000   0.000000
    25  C    0.000000   0.000000   0.000000   0.000000   0.000000   0.000000
    26  O    0.000000   0.000000   0.000000   0.000000   0.000000   0.000000
    27  N    0.000000   0.000000   0.000000   0.000000   0.000000   0.000000
    28  H    0.000000   0.000000   0.000000   0.000000   0.000000   0.000000
    29  C    0.000000   0.000000   0.000000   0.000000   0.000000   0.000000
    30  H    0.000000   0.000000   0.000000   0.000000   0.000000   0.000000
    31  C    0.000000   0.000000   0.000000   0.000000   0.000000   0.000000
    32  H    0.000000   0.000000   0.000000   0.000000   0.000000   0.000000
    33  H    0.000000   0.000000   0.000000   0.000000   0.000000   0.000000
    34  H    0.000000   0.000000   0.000000   0.000000   0.000000   0.000000
    35  C    0.000000   0.000000   0.000000   0.000000   0.000000   0.000000
    36  O    0.000000   0.000000   0.000000   0.000000   0.000000   0.000000
    37  N    0.000000   0.000000   0.000000   0.000000   0.000000   0.000000
    38  H    0.000000   0.000000   0.000000   0.000000   0.000000   0.000000
    39  C    0.000000   0.000000   0.000000   0.000000   0.000000   0.000000
    40  H    0.000000   0.000000   0.000000   0.000000   0.000000   0.000000
    41  H    0.000000   0.000000   0.000000   0.000000   0.000000   0.000000
    42  H    0.000000   0.000000   0.000000   0.000000   0.000000   0.000000
              7          8          9         10         11         12
     1  H    0.003860  -0.000017  -0.000076   0.000002   0.000006   0.000000
     2  C   -0.119772  -0.001209   0.004566  -0.000012  -0.000505  -0.000042
     3  H    0.003465   0.000640  -0.000242  -0.000004   0.000008   0.000000
     4  H    0.003684   0.000479  -0.000091  -0.000002   0.000030   0.000002
     5  C    0.246484  -0.017200  -0.030072  -0.001730  -0.003867   0.000023
     6  O   -0.107642   0.002007   0.014507   0.002944  -0.015862  -0.000023
     7  N    7.418142   0.311448   0.198033  -0.041205  -0.063559   0.001666
     8  H    0.311448   0.287075  -0.026769   0.002339   0.002998   0.000236
     9  C    0.198033  -0.026769   5.023266   0.404963   0.335328  -0.042489
    10  H   -0.041205   0.002339   0.404963   0.497671  -0.045587   0.004471
    11  C   -0.063559   0.002998   0.335328  -0.045587   5.212583   0.385420
    12  H    0.001666   0.000236  -0.042489   0.004471   0.385420   0.522371
    13  H    0.004885  -0.000078  -0.042009   0.000265   0.378241  -0.023981
    14  H   -0.005591  -0.000193  -0.026486  -0.003965   0.387245  -0.020058
    15  C   -0.037461  -0.005718   0.381543  -0.037980  -0.064745  -0.002765
    16  O   -0.006108   0.020204  -0.075679   0.000996   0.000004   0.000599
    17  N    0.002739   0.000710  -0.113330   0.002062   0.002511   0.000170
    18  H    0.000022  -0.000017   0.000021   0.000561   0.000477  -0.000002
    19  C   -0.000052  -0.000018   0.004202  -0.000301  -0.000157  -0.000062
    20  H   -0.000006  -0.000008   0.000540  -0.000019  -0.000040  -0.000003
    21  C    0.000001   0.000000  -0.000166   0.000027  -0.000006   0.000001
    22  H    0.000000   0.000000  -0.000007   0.000002  -0.000001   0.000000
    23  H    0.000000   0.000000   0.000003   0.000000   0.000000   0.000000
    24  H    0.000000   0.000000  -0.000023   0.000002   0.000000   0.000000
    25  C    0.000001   0.000000  -0.000038  -0.000002   0.000046   0.000010
    26  O    0.000000   0.000000  -0.000001   0.000000   0.000001   0.000000
    27  N    0.000000   0.000000  -0.000017   0.000000  -0.000011   0.000012
    28  H    0.000000   0.000000   0.000026   0.000000  -0.000011   0.000007
    29  C    0.000000   0.000000   0.000000   0.000000   0.000000   0.000000
    30  H    0.000000   0.000000   0.000000   0.000000   0.000000   0.000000
    31  C    0.000000   0.000000   0.000000   0.000000  -0.000003  -0.000001
    32  H    0.000000   0.000000  -0.000001   0.000000   0.000007   0.000020
    33  H    0.000000   0.000000   0.000000   0.000000   0.000000   0.000000
    34  H    0.000000   0.000000   0.000000   0.000000   0.000000   0.000000
    35  C    0.000000   0.000000   0.000000   0.000000   0.000000   0.000000
    36  O    0.000000   0.000000   0.000000   0.000000   0.000000   0.000000
    37  N    0.000000   0.000000   0.000000   0.000000   0.000000   0.000000
    38  H    0.000000   0.000000   0.000000   0.000000   0.000000   0.000000
    39  C    0.000000   0.000000   0.000000   0.000000   0.000000   0.000000
    40  H    0.000000   0.000000   0.000000   0.000000   0.000000   0.000000
    41  H    0.000000   0.000000   0.000000   0.000000   0.000000   0.000000
    42  H    0.000000   0.000000   0.000000   0.000000   0.000000   0.000000
             13         14         15         16         17         18
     1  H    0.000000   0.000001   0.000000   0.000000   0.000000   0.000000
     2  C    0.000007   0.000303   0.000008  -0.000041   0.000000   0.000000
     3  H    0.000000  -0.000005  -0.000011  -0.000001   0.000000   0.000000
     4  H   -0.000001  -0.000025  -0.000006  -0.000001   0.000000   0.000000
     5  C    0.000280   0.000450   0.004043   0.000308  -0.000079   0.000002
     6  O    0.000271   0.011201   0.000535  -0.000003  -0.000002   0.000001
     7  N    0.004885  -0.005591  -0.037461  -0.006108   0.002739   0.000022
     8  H   -0.000078  -0.000193  -0.005718   0.020204   0.000710  -0.000017
     9  C   -0.042009  -0.026486   0.381543  -0.075679  -0.113330   0.000021
    10  H    0.000265  -0.003965  -0.037980   0.000996   0.002062   0.000561
    11  C    0.378241   0.387245  -0.064745   0.000004   0.002511   0.000477
    12  H   -0.023981  -0.020058  -0.002765   0.000599   0.000170  -0.000002
    13  H    0.563303  -0.019792  -0.007240   0.000026   0.000557   0.002708
    14  H   -0.019792   0.423582   0.004062  -0.000061   0.000077  -0.000096
    15  C   -0.007240   0.004062   4.156021   0.589007   0.269201  -0.017436
    16  O    0.000026  -0.000061   0.589007   8.217611  -0.103309   0.002140
    17  N    0.000557   0.000077   0.269201  -0.103309   7.403907   0.315445
    18  H    0.002708  -0.000096  -0.017436   0.002140   0.315445   0.302892
    19  C    0.000242   0.000006  -0.023504   0.000895   0.180291  -0.021623
    20  H   -0.000010   0.000000  -0.000988   0.008533  -0.032177   0.002505
    21  C   -0.000003   0.000000   0.000696   0.000230  -0.067812  -0.000928
    22  H   -0.000009   0.000000   0.000035  -0.000015  -0.002265   0.002505
    23  H    0.000000   0.000000  -0.000033  -0.000006   0.004398  -0.000032
    24  H    0.000000   0.000000   0.000294   0.000137  -0.000382  -0.000119
    25  C    0.000010  -0.000001   0.000116   0.000323  -0.055648  -0.001022
    26  O   -0.000010   0.000000   0.000048  -0.000002   0.000398   0.002041
    27  N    0.000011   0.000000   0.000707  -0.000273   0.004016   0.000034
    28  H    0.000000   0.000000   0.000557   0.000987  -0.000320  -0.000002
    29  C   -0.000001   0.000000  -0.000013   0.000000  -0.000109  -0.000007
    30  H    0.000000   0.000000   0.000000   0.000000  -0.000008  -0.000001
    31  C    0.000001   0.000000   0.000001   0.000000   0.000051   0.000010
    32  H    0.000014   0.000000   0.000002   0.000000   0.000012  -0.000002
    33  H    0.000000   0.000000   0.000000   0.000000  -0.000001   0.000000
    34  H    0.000001   0.000000   0.000000   0.000000  -0.000026   0.000000
    35  C    0.000000   0.000000  -0.000001   0.000000  -0.000003   0.000000
    36  O    0.000000   0.000000  -0.000001   0.000000   0.000001   0.000000
    37  N    0.000000   0.000000   0.000000   0.000000   0.000000   0.000000
    38  H    0.000000   0.000000   0.000000   0.000000   0.000000   0.000000
    39  C    0.000000   0.000000   0.000000   0.000000   0.000000   0.000000
    40  H    0.000000   0.000000   0.000000   0.000000   0.000000   0.000000
    41  H    0.000000   0.000000   0.000000   0.000000   0.000000   0.000000
    42  H    0.000000   0.000000   0.000000   0.000000   0.000000   0.000000
             19         20         21         22         23         24
     1  H    0.000000   0.000000   0.000000   0.000000   0.000000   0.000000
     2  C    0.000000   0.000000   0.000000   0.000000   0.000000   0.000000
     3  H    0.000000   0.000000   0.000000   0.000000   0.000000   0.000000
     4  H    0.000000   0.000000   0.000000   0.000000   0.000000   0.000000
     5  C    0.000001   0.000000   0.000000   0.000000   0.000000   0.000000
     6  O    0.000000   0.000000   0.000000   0.000000   0.000000   0.000000
     7  N   -0.000052  -0.000006   0.000001   0.000000   0.000000   0.000000
     8  H   -0.000018  -0.000008   0.000000   0.000000   0.000000   0.000000
     9  C    0.004202   0.000540  -0.000166  -0.000007   0.000003  -0.000023
    10  H   -0.000301  -0.000019   0.000027   0.000002   0.000000   0.000002
    11  C   -0.000157  -0.000040  -0.000006  -0.000001   0.000000   0.000000
    12  H   -0.000062  -0.000003   0.000001   0.000000   0.000000   0.000000
    13  H    0.000242  -0.000010  -0.000003  -0.000009   0.000000   0.000000
    14  H    0.000006   0.000000   0.000000   0.000000   0.000000   0.000000
    15  C   -0.023504  -0.000988   0.000696   0.000035  -0.000033   0.000294
    16  O    0.000895   0.008533   0.000230  -0.000015  -0.000006   0.000137
    17  N    0.180291  -0.032177  -0.067812  -0.002265   0.004398  -0.000382
    18  H   -0.021623   0.002505  -0.000928   0.002505  -0.000032  -0.000119
    19  C    5.105602   0.405316   0.356759  -0.031357  -0.038231  -0.040994
    20  H    0.405316   0.439548  -0.033625   0.003527  -0.001067  -0.003563
    21  C    0.356759  -0.033625   5.108378   0.388078   0.391179   0.388998
    22  H   -0.031357   0.003527   0.388078   0.499614  -0.019762  -0.026684
    23  H   -0.038231  -0.001067   0.391179  -0.019762   0.512246  -0.023157
    24  H   -0.040994  -0.003563   0.388998  -0.026684  -0.023157   0.526215
    25  C    0.349297  -0.047788  -0.065940  -0.007946  -0.000799   0.006152
    26  O   -0.077894   0.001993  -0.000428   0.005695  -0.000450   0.000384
    27  N   -0.101605   0.005263   0.003046   0.000256  -0.000014  -0.000065
    28  H   -0.001021   0.001434   0.000049  -0.000006  -0.000002  -0.000006
    29  C    0.004966  -0.000029  -0.000162  -0.000007  -0.000007   0.000002
    30  H   -0.000132  -0.000019   0.000025  -0.000001  -0.000002   0.000000
    31  C   -0.000592   0.000013  -0.000001   0.000001   0.000001   0.000000
    32  H   -0.000048  -0.000001   0.000001   0.000000   0.000000   0.000000
    33  H    0.000008   0.000000   0.000000   0.000000   0.000000   0.000000
    34  H    0.000298  -0.000007  -0.000005  -0.000002   0.000000   0.000000
    35  C   -0.000003  -0.000032  -0.000001   0.000000   0.000000   0.000000
    36  O   -0.000051  -0.000013   0.000000   0.000000   0.000000   0.000000
    37  N    0.000000   0.000000   0.000000   0.000000   0.000000   0.000000
    38  H    0.000000   0.000000   0.000000   0.000000   0.000000   0.000000
    39  C    0.000000   0.000000   0.000000   0.000000   0.000000   0.000000
    40  H    0.000000   0.000000   0.000000   0.000000   0.000000   0.000000
    41  H    0.000000   0.000000   0.000000   0.000000   0.000000   0.000000
    42  H    0.000000   0.000000   0.000000   0.000000   0.000000   0.000000
             25         26         27         28         29         30
     1  H    0.000000   0.000000   0.000000   0.000000   0.000000   0.000000
     2  C    0.000000   0.000000   0.000000   0.000000   0.000000   0.000000
     3  H    0.000000   0.000000   0.000000   0.000000   0.000000   0.000000
     4  H    0.000000   0.000000   0.000000   0.000000   0.000000   0.000000
     5  C    0.000000   0.000000   0.000000   0.000000   0.000000   0.000000
     6  O    0.000000   0.000000   0.000000   0.000000   0.000000   0.000000
     7  N    0.000001   0.000000   0.000000   0.000000   0.000000   0.000000
     8  H    0.000000   0.000000   0.000000   0.000000   0.000000   0.000000
     9  C   -0.000038  -0.000001  -0.000017   0.000026   0.000000   0.000000
    10  H   -0.000002   0.000000   0.000000   0.000000   0.000000   0.000000
    11  C    0.000046   0.000001  -0.000011  -0.000011   0.000000   0.000000
    12  H    0.000010   0.000000   0.000012   0.000007   0.000000   0.000000
    13  H    0.000010  -0.000010   0.000011   0.000000  -0.000001   0.000000
    14  H   -0.000001   0.000000   0.000000   0.000000   0.000000   0.000000
    15  C    0.000116   0.000048   0.000707   0.000557  -0.000013   0.000000
    16  O    0.000323  -0.000002  -0.000273   0.000987   0.000000   0.000000
    17  N   -0.055648   0.000398   0.004016  -0.000320  -0.000109  -0.000008
    18  H   -0.001022   0.002041   0.000034  -0.000002  -0.000007  -0.000001
    19  C    0.349297  -0.077894  -0.101605  -0.001021   0.004966  -0.000132
    20  H   -0.047788   0.001993   0.005263   0.001434  -0.000029  -0.000019
    21  C   -0.065940  -0.000428   0.003046   0.000049  -0.000162   0.000025
    22  H   -0.007946   0.005695   0.000256  -0.000006  -0.000007  -0.000001
    23  H   -0.000799  -0.000450  -0.000014  -0.000002  -0.000007  -0.000002
    24  H    0.006152   0.000384  -0.000065  -0.000006   0.000002   0.000000
    25  C    4.222520   0.561041   0.286841  -0.015291  -0.034752  -0.001903
    26  O    0.561041   8.251991  -0.103362   0.001849   0.013137   0.002980
    27  N    0.286841  -0.103362   7.383615   0.305770   0.195479  -0.040473
    28  H   -0.015291   0.001849   0.305770   0.274302  -0.026607   0.002278
    29  C   -0.034752   0.013137   0.195479  -0.026607   5.049454   0.403551
    30  H   -0.001903   0.002980  -0.040473   0.002278   0.403551   0.498471
    31  C   -0.003270  -0.015177  -0.063296   0.002877   0.334954  -0.045560
    32  H   -0.000013   0.000004   0.001503   0.000242  -0.042447   0.004442
    33  H    0.000232   0.000249   0.004895  -0.000069  -0.041908   0.000292
    34  H    0.000514   0.009744  -0.005385  -0.000193  -0.027353  -0.004006
    35  C    0.003703   0.000424  -0.036179  -0.005102   0.375919  -0.036262
    36  O    0.000392  -0.000003  -0.005559   0.021027  -0.079590   0.000993
    37  N   -0.000090  -0.000001   0.002808   0.000723  -0.117708   0.002166
    38  H    0.000002   0.000001   0.000017  -0.000022   0.001231   0.000479
    39  C    0.000001   0.000000  -0.000049  -0.000010   0.003658  -0.000215
    40  H    0.000000   0.000000  -0.000004  -0.000010   0.000589  -0.000017
    41  H    0.000000   0.000000   0.000000   0.000000  -0.000111   0.000010
    42  H    0.000000   0.000000   0.000001   0.000000  -0.000004  -0.000001
             31         32         33         34         35         36
     1  H    0.000000   0.000000   0.000000   0.000000   0.000000   0.000000
     2  C    0.000000   0.000000   0.000000   0.000000   0.000000   0.000000
     3  H    0.000000   0.000000   0.000000   0.000000   0.000000   0.000000
     4  H    0.000000   0.000000   0.000000   0.000000   0.000000   0.000000
     5  C    0.000000   0.000000   0.000000   0.000000   0.000000   0.000000
     6  O    0.000000   0.000000   0.000000   0.000000   0.000000   0.000000
     7  N    0.000000   0.000000   0.000000   0.000000   0.000000   0.000000
     8  H    0.000000   0.000000   0.000000   0.000000   0.000000   0.000000
     9  C    0.000000  -0.000001   0.000000   0.000000   0.000000   0.000000
    10  H    0.000000   0.000000   0.000000   0.000000   0.000000   0.000000
    11  C   -0.000003   0.000007   0.000000   0.000000   0.000000   0.000000
    12  H   -0.000001   0.000020   0.000000   0.000000   0.000000   0.000000
    13  H    0.000001   0.000014   0.000000   0.000001   0.000000   0.000000
    14  H    0.000000   0.000000   0.000000   0.000000   0.000000   0.000000
    15  C    0.000001   0.000002   0.000000   0.000000  -0.000001  -0.000001
    16  O    0.000000   0.000000   0.000000   0.000000   0.000000   0.000000
    17  N    0.000051   0.000012  -0.000001  -0.000026  -0.000003   0.000001
    18  H    0.000010  -0.000002   0.000000   0.000000   0.000000   0.000000
    19  C   -0.000592  -0.000048   0.000008   0.000298  -0.000003  -0.000051
    20  H    0.000013  -0.000001   0.000000  -0.000007  -0.000032  -0.000013
    21  C   -0.000001   0.000001   0.000000  -0.000005  -0.000001   0.000000
    22  H    0.000001   0.000000   0.000000  -0.000002   0.000000   0.000000
    23  H    0.000001   0.000000   0.000000   0.000000   0.000000   0.000000
    24  H    0.000000   0.000000   0.000000   0.000000   0.000000   0.000000
    25  C   -0.003270  -0.000013   0.000232   0.000514   0.003703   0.000392
    26  O   -0.015177   0.000004   0.000249   0.009744   0.000424  -0.000003
    27  N   -0.063296   0.001503   0.004895  -0.005385  -0.036179  -0.005559
    28  H    0.002877   0.000242  -0.000069  -0.000193  -0.005102   0.021027
    29  C    0.334954  -0.042447  -0.041908  -0.027353   0.375919  -0.079590
    30  H   -0.045560   0.004442   0.000292  -0.004006  -0.036262   0.000993
    31  C    5.205466   0.385985   0.379427   0.388385  -0.062957  -0.000007
    32  H    0.385985   0.520822  -0.023582  -0.020783  -0.002678   0.000632
    33  H    0.379427  -0.023582   0.563168  -0.020431  -0.006866   0.000024
    34  H    0.388385  -0.020783  -0.020431   0.432530   0.003936  -0.000065
    35  C   -0.062957  -0.002678  -0.006866   0.003936   4.143517   0.596317
    36  O   -0.000007   0.000632   0.000024  -0.000065   0.596317   8.209622
    37  N    0.002526   0.000165   0.000443   0.000090   0.287312  -0.099059
    38  H   -0.000055  -0.000002   0.002599  -0.000081  -0.020719   0.002369
    39  C   -0.000075  -0.000041   0.000157   0.000003  -0.025522  -0.004858
    40  H   -0.000049  -0.000001  -0.000008   0.000000  -0.001937   0.009866
    41  H   -0.000004   0.000001   0.000002   0.000000   0.000794   0.000366
    42  H    0.000010   0.000002  -0.000003  -0.000001   0.000931   0.000374
             37         38         39         40         41         42
     1  H    0.000000   0.000000   0.000000   0.000000   0.000000   0.000000
     2  C    0.000000   0.000000   0.000000   0.000000   0.000000   0.000000
     3  H    0.000000   0.000000   0.000000   0.000000   0.000000   0.000000
     4  H    0.000000   0.000000   0.000000   0.000000   0.000000   0.000000
     5  C    0.000000   0.000000   0.000000   0.000000   0.000000   0.000000
     6  O    0.000000   0.000000   0.000000   0.000000   0.000000   0.000000
     7  N    0.000000   0.000000   0.000000   0.000000   0.000000   0.000000
     8  H    0.000000   0.000000   0.000000   0.000000   0.000000   0.000000
     9  C    0.000000   0.000000   0.000000   0.000000   0.000000   0.000000
    10  H    0.000000   0.000000   0.000000   0.000000   0.000000   0.000000
    11  C    0.000000   0.000000   0.000000   0.000000   0.000000   0.000000
    12  H    0.000000   0.000000   0.000000   0.000000   0.000000   0.000000
    13  H    0.000000   0.000000   0.000000   0.000000   0.000000   0.000000
    14  H    0.000000   0.000000   0.000000   0.000000   0.000000   0.000000
    15  C    0.000000   0.000000   0.000000   0.000000   0.000000   0.000000
    16  O    0.000000   0.000000   0.000000   0.000000   0.000000   0.000000
    17  N    0.000000   0.000000   0.000000   0.000000   0.000000   0.000000
    18  H    0.000000   0.000000   0.000000   0.000000   0.000000   0.000000
    19  C    0.000000   0.000000   0.000000   0.000000   0.000000   0.000000
    20  H    0.000000   0.000000   0.000000   0.000000   0.000000   0.000000
    21  C    0.000000   0.000000   0.000000   0.000000   0.000000   0.000000
    22  H    0.000000   0.000000   0.000000   0.000000   0.000000   0.000000
    23  H    0.000000   0.000000   0.000000   0.000000   0.000000   0.000000
    24  H    0.000000   0.000000   0.000000   0.000000   0.000000   0.000000
    25  C   -0.000090   0.000002   0.000001   0.000000   0.000000   0.000000
    26  O   -0.000001   0.000001   0.000000   0.000000   0.000000   0.000000
    27  N    0.002808   0.000017  -0.000049  -0.000004   0.000000   0.000001
    28  H    0.000723  -0.000022  -0.000010  -0.000010   0.000000   0.000000
    29  C   -0.117708   0.001231   0.003658   0.000589  -0.000111  -0.000004
    30  H    0.002166   0.000479  -0.000215  -0.000017   0.000010  -0.000001
    31  C    0.002526  -0.000055  -0.000075  -0.000049  -0.000004   0.000010
    32  H    0.000165  -0.000002  -0.000041  -0.000001   0.000001   0.000002
    33  H    0.000443   0.002599   0.000157  -0.000008   0.000002  -0.000003
    34  H    0.000090  -0.000081   0.000003   0.000000   0.000000  -0.000001
    35  C    0.287312  -0.020719  -0.025522  -0.001937   0.000794   0.000931
    36  O   -0.099059   0.002369  -0.004858   0.009866   0.000366   0.000374
    37  N    7.335817   0.322468   0.185129  -0.031661  -0.047017  -0.048010
[...]
    35  C    0.000000   0.000000   0.000000   0.000000  -0.000002   0.000000
    36  O    0.000000   0.000000  -0.000001   0.000000   0.000000   0.000000
    37  N    0.000000   0.000000   0.000000   0.000000   0.000000   0.000000
    38  H    0.000000   0.000000   0.000000   0.000000   0.000000   0.000000
    39  C    0.000000   0.000000   0.000000   0.000000   0.000000   0.000000
    40  H    0.000000   0.000000   0.000000   0.000000   0.000000   0.000000
    41  H    0.000000   0.000000   0.000000   0.000000   0.000000   0.000000
    42  H    0.000000   0.000000   0.000000   0.000000   0.000000   0.000000
             19         20         21         22         23         24
     1  H    0.000000   0.000000   0.000000   0.000000   0.000000   0.000000
     2  C    0.000000   0.000000   0.000000   0.000000   0.000000   0.000000
     3  H    0.000000   0.000000   0.000000   0.000000   0.000000   0.000000
     4  H    0.000000   0.000000   0.000000   0.000000   0.000000   0.000000
     5  C    0.000002   0.000000   0.000000   0.000000   0.000000   0.000000
     6  O    0.000000   0.000000   0.000000   0.000000   0.000000   0.000000
     7  N   -0.000080  -0.000005   0.000003   0.000000   0.000000   0.000000
     8  H   -0.000019  -0.000011   0.000000   0.000000   0.000000   0.000000
     9  C    0.004383   0.000560  -0.000159  -0.000010   0.000002  -0.000018
    10  H   -0.000117  -0.000022   0.000005   0.000002   0.000000   0.000002
    11  C   -0.000362  -0.000032  -0.000001   0.000000   0.000000   0.000001
    12  H    0.000001  -0.000003   0.000000   0.000000   0.000000   0.000000
    13  H   -0.000028  -0.000001   0.000002  -0.000001   0.000000   0.000000
    14  H    0.000005   0.000000   0.000000   0.000000   0.000000   0.000000
    15  C   -0.022693  -0.001206   0.000210   0.000018  -0.000014   0.000353
    16  O    0.001002   0.009278   0.000127  -0.000012  -0.000005   0.000129
    17  N    0.178137  -0.038040  -0.064208  -0.002216   0.004233  -0.000417
    18  H   -0.022061   0.002965  -0.000507   0.002314  -0.000049  -0.000131
    19  C    5.094572   0.406191   0.355006  -0.031788  -0.036669  -0.039617
    20  H    0.406191   0.445209  -0.031071   0.003372  -0.001091  -0.003508
    21  C    0.355006  -0.031071   5.099763   0.389592   0.390269   0.391738
    22  H   -0.031788   0.003372   0.389592   0.498882  -0.022622  -0.026364
    23  H   -0.036669  -0.001091   0.390269  -0.022622   0.514199  -0.023443
    24  H   -0.039617  -0.003508   0.391738  -0.026364  -0.023443   0.517876
    25  C    0.360986  -0.044907  -0.059648  -0.006254  -0.001060   0.005211
    26  O   -0.078781   0.002126   0.003234   0.005399   0.000029   0.000157
    27  N   -0.105029   0.005102   0.002936   0.000224  -0.000027  -0.000058
    28  H   -0.000933   0.001425   0.000026  -0.000006  -0.000004  -0.000004
    29  C    0.005617  -0.000047  -0.000149  -0.000004  -0.000005   0.000002
    30  H    0.000213  -0.000027   0.000009  -0.000002  -0.000002   0.000000
    31  C   -0.000501   0.000013   0.000000   0.000000   0.000000   0.000000
    32  H   -0.000005  -0.000001   0.000000   0.000000   0.000000   0.000000
    33  H    0.000005   0.000000   0.000000   0.000000   0.000000   0.000000
    34  H    0.000097  -0.000004  -0.000001  -0.000001   0.000000   0.000000
    35  C   -0.000035  -0.000032   0.000000   0.000000   0.000000   0.000000
    36  O   -0.000050  -0.000015   0.000000   0.000000   0.000000   0.000000
    37  N    0.000000   0.000000   0.000000   0.000000   0.000000   0.000000
    38  H    0.000000   0.000000   0.000000   0.000000   0.000000   0.000000
    39  C    0.000000   0.000000   0.000000   0.000000   0.000000   0.000000
    40  H    0.000000   0.000000   0.000000   0.000000   0.000000   0.000000
    41  H    0.000000   0.000000   0.000000   0.000000   0.000000   0.000000
    42  H    0.000000   0.000000   0.000000   0.000000   0.000000   0.000000
             25         26         27         28         29         30
     1  H    0.000000   0.000000   0.000000   0.000000   0.000000   0.000000
     2  C    0.000000   0.000000   0.000000   0.000000   0.000000   0.000000
     3  H    0.000000   0.000000   0.000000   0.000000   0.000000   0.000000
     4  H    0.000000   0.000000   0.000000   0.000000   0.000000   0.000000
     5  C    0.000000   0.000000   0.000000   0.000000   0.000000   0.000000
     6  O    0.000000   0.000000   0.000000   0.000000   0.000000   0.000000
     7  N    0.000000   0.000000   0.000000   0.000000   0.000000   0.000000
     8  H    0.000000   0.000000   0.000000   0.000000   0.000000   0.000000
     9  C   -0.000104  -0.000002  -0.000028   0.000024   0.000000   0.000000
    10  H   -0.000003   0.000000  -0.000001   0.000000   0.000000   0.000000
    11  C    0.000057   0.000000  -0.000002  -0.000006   0.000000   0.000000
    12  H    0.000003   0.000000   0.000001   0.000004   0.000000   0.000000
    13  H    0.000022  -0.000004   0.000036   0.000000  -0.000008   0.000000
    14  H   -0.000001   0.000000   0.000000   0.000000   0.000000   0.000000
    15  C    0.000900   0.000074   0.000775   0.000483  -0.000020   0.000000
    16  O    0.000281  -0.000001  -0.000321   0.000941   0.000000   0.000000
    17  N   -0.063366   0.000070   0.003776  -0.000340  -0.000362  -0.000019
    18  H   -0.001442   0.002551   0.000085  -0.000004  -0.000005  -0.000002
    19  C    0.360986  -0.078781  -0.105029  -0.000933   0.005617   0.000213
    20  H   -0.044907   0.002126   0.005102   0.001425  -0.000047  -0.000027
    21  C   -0.059648   0.003234   0.002936   0.000026  -0.000149   0.000009
    22  H   -0.006254   0.005399   0.000224  -0.000006  -0.000004  -0.000002
    23  H   -0.001060   0.000029  -0.000027  -0.000004  -0.000005  -0.000002
    24  H    0.005211   0.000157  -0.000058  -0.000004   0.000002   0.000000
    25  C    4.184945   0.583536   0.285111  -0.013439  -0.031748  -0.001609
    26  O    0.583536   8.201841  -0.105164   0.001839   0.009584   0.006247
    27  N    0.285111  -0.105164   7.399518   0.306464   0.195625  -0.042200
    28  H   -0.013439   0.001839   0.306464   0.277726  -0.026320   0.002743
    29  C   -0.031748   0.009584   0.195625  -0.026320   5.052061   0.411038
    30  H   -0.001609   0.006247  -0.042200   0.002743   0.411038   0.486127
    31  C   -0.001817  -0.003704  -0.064772   0.002344   0.337849  -0.040348
    32  H    0.000106  -0.000004  -0.000067   0.000637  -0.038220   0.003938
    33  H    0.000026  -0.000010   0.004689  -0.000057  -0.037338   0.000063
    34  H    0.002042   0.004266  -0.005362  -0.000192  -0.030108  -0.003659
    35  C    0.003515   0.000418  -0.041610  -0.006812   0.373990  -0.043193
    36  O    0.000430  -0.000004  -0.007629   0.021455  -0.077579   0.001859
    37  N   -0.000112  -0.000001   0.002380   0.000951  -0.115288   0.004251
    38  H   -0.000006  -0.000002  -0.000015  -0.000029   0.000657   0.001483
    39  C    0.000001   0.000000  -0.000084  -0.000027   0.004466  -0.000087
    40  H    0.000000   0.000000  -0.000005  -0.000003   0.000151  -0.000001
    41  H    0.000000   0.000000   0.000009   0.000001  -0.000175  -0.000004
    42  H    0.000000   0.000000   0.000000   0.000000   0.000001  -0.000012
             31         32         33         34         35         36
     1  H    0.000000   0.000000   0.000000   0.000000   0.000000   0.000000
     2  C    0.000000   0.000000   0.000000   0.000000   0.000000   0.000000
     3  H    0.000000   0.000000   0.000000   0.000000   0.000000   0.000000
     4  H    0.000000   0.000000   0.000000   0.000000   0.000000   0.000000
     5  C    0.000000   0.000000   0.000000   0.000000   0.000000   0.000000
     6  O    0.000000   0.000000   0.000000   0.000000   0.000000   0.000000
     7  N    0.000000   0.000000   0.000000   0.000000   0.000000   0.000000
     8  H    0.000000   0.000000   0.000000   0.000000   0.000000   0.000000
     9  C    0.000000  -0.000002   0.000000   0.000000   0.000000   0.000000
    10  H    0.000000   0.000000   0.000000   0.000000   0.000000   0.000000
    11  C   -0.000012   0.000013   0.000000  -0.000001   0.000000   0.000000
    12  H   -0.000001   0.000021   0.000000  -0.000001   0.000000   0.000000
    13  H    0.000040   0.000039   0.000000   0.000043   0.000000   0.000000
    14  H    0.000000   0.000000   0.000000   0.000000   0.000000   0.000000
    15  C    0.000003   0.000003   0.000000   0.000001   0.000000  -0.000001
    16  O    0.000000   0.000000   0.000000   0.000000   0.000000   0.000000
    17  N    0.000135  -0.000003  -0.000001  -0.000013  -0.000002   0.000000
    18  H    0.000007  -0.000001   0.000000   0.000004   0.000000   0.000000
    19  C   -0.000501  -0.000005   0.000005   0.000097  -0.000035  -0.000050
    20  H    0.000013  -0.000001   0.000000  -0.000004  -0.000032  -0.000015
    21  C    0.000000   0.000000   0.000000  -0.000001   0.000000   0.000000
    22  H    0.000000   0.000000   0.000000  -0.000001   0.000000   0.000000
    23  H    0.000000   0.000000   0.000000   0.000000   0.000000   0.000000
    24  H    0.000000   0.000000   0.000000   0.000000   0.000000   0.000000
    25  C   -0.001817   0.000106   0.000026   0.002042   0.003515   0.000430
    26  O   -0.003704  -0.000004  -0.000010   0.004266   0.000418  -0.000004
    27  N   -0.064772  -0.000067   0.004689  -0.005362  -0.041610  -0.007629
    28  H    0.002344   0.000637  -0.000057  -0.000192  -0.006812   0.021455
    29  C    0.337849  -0.038220  -0.037338  -0.030108   0.373990  -0.077579
    30  H   -0.040348   0.003938   0.000063  -0.003659  -0.043193   0.001859
    31  C    5.147108   0.389159   0.382093   0.391774  -0.053038  -0.000929
    32  H    0.389159   0.511883  -0.024154  -0.023415  -0.004042   0.001773
    33  H    0.382093  -0.024154   0.534900  -0.023206  -0.002786   0.000021
    34  H    0.391774  -0.023415  -0.023206   0.478719   0.004206  -0.000072
    35  C   -0.053038  -0.004042  -0.002786   0.004206   4.165452   0.598694
    36  O   -0.000929   0.001773   0.000021  -0.000072   0.598694   8.175571
    37  N    0.001051   0.000418   0.002402  -0.000061   0.281908  -0.103701
    38  H    0.000328   0.000005   0.000373  -0.000033  -0.021934   0.002509
    39  C   -0.000269  -0.000007  -0.000019   0.000003  -0.029058   0.008186
    40  H    0.000008   0.000003  -0.000013   0.000000  -0.002932   0.003296
    41  H   -0.000006   0.000000   0.000003   0.000000  -0.003722   0.001151
    42  H    0.000005   0.000000  -0.000007   0.000000   0.004546   0.000349
             37         38         39         40         41         42
     1  H    0.000000   0.000000   0.000000   0.000000   0.000000   0.000000
     2  C    0.000000   0.000000   0.000000   0.000000   0.000000   0.000000
     3  H    0.000000   0.000000   0.000000   0.000000   0.000000   0.000000
     4  H    0.000000   0.000000   0.000000   0.000000   0.000000   0.000000
     5  C    0.000000   0.000000   0.000000   0.000000   0.000000   0.000000
     6  O    0.000000   0.000000   0.000000   0.000000   0.000000   0.000000
     7  N    0.000000   0.000000   0.000000   0.000000   0.000000   0.000000
     8  H    0.000000   0.000000   0.000000   0.000000   0.000000   0.000000
     9  C    0.000000   0.000000   0.000000   0.000000   0.000000   0.000000
    10  H    0.000000   0.000000   0.000000   0.000000   0.000000   0.000000
    11  C    0.000000   0.000000   0.000000   0.000000   0.000000   0.000000
    12  H    0.000000   0.000000   0.000000   0.000000   0.000000   0.000000
    13  H    0.000000   0.000000   0.000000   0.000000   0.000000   0.000000
    14  H    0.000000   0.000000   0.000000   0.000000   0.000000   0.000000
    15  C    0.000000   0.000000   0.000000   0.000000   0.000000   0.000000
    16  O    0.000000   0.000000   0.000000   0.000000   0.000000   0.000000
    17  N    0.000000   0.000000   0.000000   0.000000   0.000000   0.000000
    18  H    0.000000   0.000000   0.000000   0.000000   0.000000   0.000000
    19  C    0.000000   0.000000   0.000000   0.000000   0.000000   0.000000
    20  H    0.000000   0.000000   0.000000   0.000000   0.000000   0.000000
    21  C    0.000000   0.000000   0.000000   0.000000   0.000000   0.000000
    22  H    0.000000   0.000000   0.000000   0.000000   0.000000   0.000000
    23  H    0.000000   0.000000   0.000000   0.000000   0.000000   0.000000
    24  H    0.000000   0.000000   0.000000   0.000000   0.000000   0.000000
    25  C   -0.000112  -0.000006   0.000001   0.000000   0.000000   0.000000
    26  O   -0.000001  -0.000002   0.000000   0.000000   0.000000   0.000000
    27  N    0.002380  -0.000015  -0.000084  -0.000005   0.000009   0.000000
    28  H    0.000951  -0.000029  -0.000027  -0.000003   0.000001   0.000000
    29  C   -0.115288   0.000657   0.004466   0.000151  -0.000175   0.000001
    30  H    0.004251   0.001483  -0.000087  -0.000001  -0.000004  -0.000012
    31  C    0.001051   0.000328  -0.000269   0.000008  -0.000006   0.000005
    32  H    0.000418   0.000005  -0.000007   0.000003   0.000000   0.000000
    33  H    0.002402   0.000373  -0.000019  -0.000013   0.000003  -0.000007
    34  H   -0.000061  -0.000033   0.000003   0.000000   0.000000   0.000000
    35  C    0.281908  -0.021934  -0.029058  -0.002932  -0.003722   0.004546
    36  O   -0.103701   0.002509   0.008186   0.003296   0.001151   0.000349
    37  N    7.326160   0.328303   0.194402  -0.040251  -0.045581  -0.037354
    38  H    0.328303   0.321766  -0.022220   0.002527   0.001304  -0.004535
    39  C    0.194402  -0.022220   4.910258   0.404223   0.406367   0.397423
    40  H   -0.040251   0.002527   0.404223   0.485260  -0.032467  -0.024612
    41  H   -0.045581   0.001304   0.406367  -0.032467   0.519633  -0.031188
    42  H   -0.037354  -0.004535   0.397423  -0.024612  -0.031188   0.523087
 Mulliken atomic charges:
              1
     1  H    0.202959
     2  C   -0.575824
     3  H    0.208140
     4  H    0.173807
     5  C    0.756087
     6  O   -0.622208
     7  N   -0.823702
     8  H    0.419230
     9  C   -0.031826
    10  H    0.217870
    11  C   -0.488123
    12  H    0.178621
    13  H    0.161050
    14  H    0.213007
    15  C    0.787130
    16  O   -0.633476
    17  N   -0.819324
    18  H    0.400261
    19  C   -0.067448
    20  H    0.243780
    21  C   -0.477178
    22  H    0.189476
    23  H    0.176259
    24  H    0.178093
    25  C    0.798345
    26  O   -0.633692
    27  N   -0.834361
    28  H    0.431114
    29  C   -0.033667
    30  H    0.213191
    31  C   -0.486520
    32  H    0.181922
    33  H    0.163014
    34  H    0.204972
    35  C    0.776468
    36  O   -0.625314
    37  N   -0.799879
    38  H    0.389517
    39  C   -0.273557
    40  H    0.204817
    41  H    0.184674
    42  H    0.172296
 Sum of Mulliken atomic charges =   0.00000
 Mulliken charges with hydrogens summed into heavy atoms:
              1
     2  C    0.009081
     5  C    0.756087
     6  O   -0.622208
     7  N   -0.404473
     9  C    0.186044
    11  C    0.064556
    15  C    0.787130
    16  O   -0.633476
    17  N   -0.419063
    19  C    0.176332
    21  C    0.066650
    25  C    0.798345
    26  O   -0.633692
    27  N   -0.403248
    29  C    0.179524
    31  C    0.063388
    35  C    0.776468
    36  O   -0.625314
    37  N   -0.410362
    39  C    0.288230
 Sum of Mulliken charges with hydrogens summed into heavy atoms =   0.00000
 Electronic spatial extent (au):  <R**2>=           9206.5940
 Charge=              0.0000 electrons
 Dipole moment (field-independent basis, Debye):
    X=              4.4689    Y=             -0.4455    Z=             -0.0562  Tot=              4.4914
 Quadrupole moment (field-independent basis, Debye-Ang):
   XX=           -103.9543   YY=           -122.4731   ZZ=           -126.3958
   XY=             -1.8666   XZ=             16.4758   YZ=             -6.1998
 Traceless Quadrupole moment (field-independent basis, Debye-Ang):
   XX=             13.6534   YY=             -4.8653   ZZ=             -8.7881
   XY=             -1.8666   XZ=             16.4758   YZ=             -6.1998
 Octapole moment (field-independent basis, Debye-Ang**2):
  XXX=            302.6014  YYY=            -17.3422  ZZZ=              1.2270  XYY=            -34.0922
  XXY=            -55.6260  XXZ=            -72.7155  XZZ=             11.5243  YZZ=              2.3640
  YYZ=            -14.3150  XYZ=            -28.0588
 Hexadecapole moment (field-independent basis, Debye-Ang**3):
 XXXX=          -8533.4143 YYYY=          -1736.6019 ZZZZ=           -828.9475 XXXY=            -66.6176
 XXXZ=            647.5305 YYYX=            -35.7946 YYYZ=            -26.3686 ZZZX=              4.3810
 ZZZY=              8.1410 XXYY=          -1764.0810 XXZZ=          -1789.6205 YYZZ=           -434.2586
 XXYZ=             55.9715 YYXZ=            -29.4071 ZZXY=             -1.8514
 N-N= 1.612149737241D+03 E-N=-5.532136536408D+03  KE= 9.831019291071D+02
 1\1\GINC-NODE005\FOpt\RHF\6-31G(d)\C12H22N4O4\MANAGER\27-Dec-2016\0\\#
  HF/6-31G* Opt=(ModRedundant, maxcycles=1000, calcfc) geom=nocrowd\\Ph
 i Psi fixed scan\\0,1\H,3.8670970381,1.2529507156,-3.1513929997\C,3.31
 70108223,2.0195790214,-2.6163629714\H,2.4816391318,1.5432475041,-2.120
 8389973\H,2.9497200439,2.7469247275,-3.3300681606\C,4.225541371,2.6195
 562921,-1.5654891402\O,4.5073053289,2.0233512336,-0.5585794492\N,4.711
 5335789,3.8470835021,-1.8408141111\H,4.4511160851,4.3332635879,-2.6691
 418981\C,5.5944841568,4.5430628133,-0.9381003886\H,5.2588420525,4.3580
 686162,0.0744752197\C,7.0502299903,4.0750107677,-1.074185819\H,7.41320
 47933,4.2614297759,-2.0791235521\H,7.6989557332,4.5884629361,-0.371921
 7613\H,7.1000976752,3.0131663602,-0.873320398\C,5.4885751338,6.0324504
 801,-1.2514909141\O,5.1174058915,6.422942992,-2.328289181\N,5.87973497
 19,6.8572461082,-0.258930518\H,6.1287388671,6.468266141,0.6235921062\C
 ,5.8623599295,8.3076436541,-0.3658992886\H,5.5293578926,8.5300252063,-
 1.3676325789\C,4.9172750209,8.9360813209,0.6503944122\H,5.2305319397,8
 .7073303889,1.6610839467\H,4.9070621857,10.0152284614,0.5427023197\H,3
 .9114479501,8.5634592833,0.4947254809\C,7.2989008295,8.7966550067,-0.1
 691618034\O,7.7389651573,9.0244406111,0.929089228\N,8.0316921782,8.894
 6098855,-1.2903518336\H,7.6405091817,8.6813639206,-2.1823701492\C,9.42
 61723784,9.2686105492,-1.2697764794\H,9.5534643896,10.0468206109,-0.52
 80245614\C,10.3386221463,8.086584843,-0.9161079012\H,10.2312956373,7.2
 961808971,-1.6508083707\H,11.3799935564,8.3897374155,-0.8861609979\H,1
 0.0656858548,7.7022809734,0.0580600584\C,9.7748473419,9.8066565525,-2.
 6543969531\O,9.1568703958,9.469727419,-3.630123966\N,10.837000278,10.6
 300854868,-2.7087524033\H,11.2377849367,10.956524731,-1.8603751534\C,1
 1.2917673626,11.203785023,-3.9589471052\H,11.3796413822,10.4305547135,
 -4.7082187469\H,10.6062600976,11.9598382701,-4.3242007877\H,12.2623593
 116,11.6539112012,-3.8003634323\\Version=EM64L-G09RevA.02\State=1-A\HF
 =-984.5647198\RMSD=4.355e-09\RMSF=2.816e-04\Dipole=1.1676151,1.2877314
 ,-0.3176726\Quadrupole=13.8426888,-3.4481579,-10.3945308,7.9820939,0.3
 723083,5.7442326\PG=C01 [X(C12H22N4O4)]\\@


 THE VALUE OF PHILOSOPHY IS, IN FACT, TO BE SOUGHT LARGELY IN ITS
 VERY UNCERTAINTY.  THE MAN WHO HAS NO TINCTURE OF PHILOSOPHY GOES
 THROUGH LIFE IMPRISONED IN THE PREJUDICES DERIVED FROM COMMON SENSE,
 FROM THE HABITUAL BELIEFS OF HIS AGE OR HIS NATION, AND FROM
 CONVICTIONS WHICH HAVE GROWN UP IN HIS MIND WITHOUT THE CO-OPERATION
 OR CONSENT OF HIS DELIBERATE REASON.  TO SUCH A MAN THE WORLD TENDS
 TO BE DEFINITE, FINITE, OBVIOUS; COMMON OBJECTS ROUSE NO QUESTIONS,
 AND UNFAMILIAR POSSIBILITIES ARE CONTEMPTUOUSLY REJECTED.

                             -- BERTRAND RUSSELL
 Job cpu time:  0 days  3 hours 13 minutes 20.5 seconds.
 File lengths (MBytes):  RWF=    553 Int=      0 D2E=      0 Chk=     11 Scr=      1
 Normal termination of Gaussian 09 at Tue Dec 27 03:54:29 2016.
