 Entering Gaussian System, Link 0=g09
 Initial command:
 /home/steboss/Software/g09/l1.exe /tmp/Gau-25339.inp -scrdir=/tmp/
 Entering Link 1 = /home/steboss/Software/g09/l1.exe PID=     25341.
  
 Copyright (c) 1988,1990,1992,1993,1995,1998,2003,2009, Gaussian, Inc.
                  All Rights Reserved.
  
 This is part of the Gaussian(R) 09 program.  It is based on
 the Gaussian(R) 03 system (copyright 2003, Gaussian, Inc.),
 the Gaussian(R) 98 system (copyright 1998, Gaussian, Inc.),
 the Gaussian(R) 94 system (copyright 1995, Gaussian, Inc.),
 the Gaussian 92(TM) system (copyright 1992, Gaussian, Inc.),
 the Gaussian 90(TM) system (copyright 1990, Gaussian, Inc.),
 the Gaussian 88(TM) system (copyright 1988, Gaussian, Inc.),
 the Gaussian 86(TM) system (copyright 1986, Carnegie Mellon
 University), and the Gaussian 82(TM) system (copyright 1983,
 Carnegie Mellon University). Gaussian is a federally registered
 trademark of Gaussian, Inc.
  
 This software contains proprietary and confidential information,
 including trade secrets, belonging to Gaussian, Inc.
  
 This software is provided under written license and may be
 used, copied, transmitted, or stored only in accord with that
 written license.
  
 The following legend is applicable only to US Government
 contracts under FAR:
  
                    RESTRICTED RIGHTS LEGEND
  
 Use, reproduction and disclosure by the US Government is
 subject to restrictions as set forth in subparagraphs (a)
 and (c) of the Commercial Computer Software - Restricted
 Rights clause in FAR 52.227-19.
  
 Gaussian, Inc.
 340 Quinnipiac St., Bldg. 40, Wallingford CT 06492
  
  
 ---------------------------------------------------------------
 Warning -- This program may not be used in any manner that
 competes with the business of Gaussian, Inc. or will provide
 assistance to any competitor of Gaussian, Inc.  The licensee
 of this program is prohibited from giving any competitor of
 Gaussian, Inc. access to this program.  By using this program,
 the user acknowledges that Gaussian, Inc. is engaged in the
 business of creating and licensing software in the field of
 computational chemistry and represents and warrants to the
 licensee that it is not a competitor of Gaussian, Inc. and that
 it will not use this program in any manner prohibited above.
 ---------------------------------------------------------------
  

 Cite this work as:
 Gaussian 09, Revision A.02,
 M. J. Frisch, G. W. Trucks, H. B. Schlegel, G. E. Scuseria, 
 M. A. Robb, J. R. Cheeseman, G. Scalmani, V. Barone, B. Mennucci, 
 G. A. Petersson, H. Nakatsuji, M. Caricato, X. Li, H. P. Hratchian, 
 A. F. Izmaylov, J. Bloino, G. Zheng, J. L. Sonnenberg, M. Hada, 
 M. Ehara, K. Toyota, R. Fukuda, J. Hasegawa, M. Ishida, T. Nakajima, 
 Y. Honda, O. Kitao, H. Nakai, T. Vreven, J. A. Montgomery, Jr., 
 J. E. Peralta, F. Ogliaro, M. Bearpark, J. J. Heyd, E. Brothers, 
 K. N. Kudin, V. N. Staroverov, R. Kobayashi, J. Normand, 
 K. Raghavachari, A. Rendell, J. C. Burant, S. S. Iyengar, J. Tomasi, 
 M. Cossi, N. Rega, J. M. Millam, M. Klene, J. E. Knox, J. B. Cross, 
 V. Bakken, C. Adamo, J. Jaramillo, R. Gomperts, R. E. Stratmann, 
 O. Yazyev, A. J. Austin, R. Cammi, C. Pomelli, J. W. Ochterski, 
 R. L. Martin, K. Morokuma, V. G. Zakrzewski, G. A. Voth, 
 P. Salvador, J. J. Dannenberg, S. Dapprich, A. D. Daniels, 
 O. Farkas, J. B. Foresman, J. V. Ortiz, J. Cioslowski, 
 and D. J. Fox, Gaussian, Inc., Wallingford CT, 2009.
 
 ******************************************
 Gaussian 09:  EM64L-G09RevA.02 11-Jun-2009
                27-Dec-2016 
 ******************************************
 %chk=structure_120.chk
 -------------------------------------------------------------------
 # HF/6-31G* Opt=(ModRedundant, maxcycles=1000, calcfc) geom=nocrowd
 -------------------------------------------------------------------
 1/6=1000,10=4,18=120,19=15,38=1/1,3;
 2/9=110,12=1,17=6,18=5,40=1/2;
 3/5=1,6=6,7=1,11=9,16=1,25=1,30=1,71=2/1,2,3;
 4//1;
 5/5=2,38=5/2;
 8/6=4,10=90,11=11/1;
 11/6=1,8=1,9=11,15=111,16=1/1,2,10;
 10/6=1,7=6,13=1/2;
 6/7=2,8=2,9=2,10=2,28=1/1;
 7/10=1,18=20,25=1/1,2,3,16;
 1/6=1000,10=4,18=20,19=15/3(2);
 2/9=110,12=1/2;
 99//99;
 2/9=110,12=1/2;
 3/5=1,6=6,7=1,11=9,16=1,25=1,30=1,71=1/1,2,3;
 4/5=5,16=3/1;
 5/5=2,38=5/2;
 7//1,2,3,16;
 1/6=1000,18=20,19=15/3(-5);
 2/9=110,12=1/2;
 6/7=2,8=2,9=2,10=2,19=2,28=1/1;
 99/9=1/99;
 ------------------
 Phi Psi fixed scan
 ------------------
 Symbolic Z-matrix:
 Charge =  0 Multiplicity = 1
 H                     5.846     1.       -3.8461 
 C                     5.846     2.09     -3.8461 
 H                     4.9562    2.4539   -4.3598 
 H                     6.7359    2.4539   -4.3598 
 C                     5.846     2.6408   -2.4186 
 O                     5.846     1.8774   -1.4555 
 N                     5.846     3.9697   -2.2907 
 H                     5.846     4.5562   -3.1129 
 C                     5.846     4.6139   -0.9928 
 H                     4.9562    4.3155   -0.4385 
 C                     7.0782    4.2208   -0.1847 
 H                     7.9772    4.5214   -0.7228 
 H                     7.0518    4.7189    0.7844 
 H                     7.0874    3.1409   -0.0375 
 C                     5.846     6.1294   -1.1334 
 O                     5.846     6.6527   -2.2454 
 N                     5.846     6.8349    0. 
 H                     5.846     6.3592    0.891 
 C                     5.8461    8.2839    0. 
 H                     5.3323    8.6477   -0.8898 
 C                     5.1347    8.8329    1.2322 
 H                     5.6431    8.4846    2.1312 
 H                     5.1499    9.9224    1.2058 
 H                     4.1019    8.4846    1.2414 
 C                     7.266     8.8318    0. 
 O                     8.0386    8.5624    0.9171 
 N                     7.6088    9.6038   -1.0338 
 H                     6.9383    9.797    -1.764 
 C                     8.9308    10.1857  -1.1497 
 H                     9.1217    10.8292  -0.2909 
 C                     10.0046   9.1038   -1.1963 
 H                     9.8322    8.4568   -2.0563 
 H                     10.9864   9.5692   -1.2833 
 H                     9.9638    8.5111   -0.2824 
 C                     9.0538    11.018   -2.418 
 O                     8.1017    11.1268  -3.1875 
 N                     10.2322   11.6068  -2.6346 
 H                     10.9855   11.4877  -1.9725 
 C                     10.4755   12.4252  -3.8053 
 H                     9.5757    12.4581  -4.4197 
 H                     10.7397   13.4359  -3.4943 
 H                     11.2945   11.998   -4.3841 
 
 The following ModRedundant input section has been read:
 D   15   17   19   25 F                                                       
 D   17   19   25   27 F                                                       

 GradGradGradGradGradGradGradGradGradGradGradGradGradGradGradGradGradGrad
 Berny optimization.
 Initialization pass.
                           ----------------------------
                           !    Initial Parameters    !
                           ! (Angstroms and Degrees)  !
 --------------------------                            --------------------------
 ! Name  Definition              Value          Derivative Info.                !
 --------------------------------------------------------------------------------
 ! R1    R(1,2)                  1.09           calculate D2E/DX2 analytically  !
 ! R2    R(2,3)                  1.09           calculate D2E/DX2 analytically  !
 ! R3    R(2,4)                  1.0901         calculate D2E/DX2 analytically  !
 ! R4    R(2,5)                  1.5301         calculate D2E/DX2 analytically  !
 ! R5    R(5,6)                  1.229          calculate D2E/DX2 analytically  !
 ! R6    R(5,7)                  1.335          calculate D2E/DX2 analytically  !
 ! R7    R(7,8)                  1.0099         calculate D2E/DX2 analytically  !
 ! R8    R(7,9)                  1.449          calculate D2E/DX2 analytically  !
 ! R9    R(9,10)                 1.09           calculate D2E/DX2 analytically  !
 ! R10   R(9,11)                 1.5251         calculate D2E/DX2 analytically  !
 ! R11   R(9,15)                 1.522          calculate D2E/DX2 analytically  !
 ! R12   R(11,12)                1.09           calculate D2E/DX2 analytically  !
 ! R13   R(11,13)                1.0899         calculate D2E/DX2 analytically  !
 ! R14   R(11,14)                1.0899         calculate D2E/DX2 analytically  !
 ! R15   R(15,16)                1.229          calculate D2E/DX2 analytically  !
 ! R16   R(15,17)                1.335          calculate D2E/DX2 analytically  !
 ! R17   R(17,18)                1.01           calculate D2E/DX2 analytically  !
 ! R18   R(17,19)                1.449          calculate D2E/DX2 analytically  !
 ! R19   R(19,20)                1.09           calculate D2E/DX2 analytically  !
 ! R20   R(19,21)                1.5251         calculate D2E/DX2 analytically  !
 ! R21   R(19,25)                1.5219         calculate D2E/DX2 analytically  !
 ! R22   R(21,22)                1.0899         calculate D2E/DX2 analytically  !
 ! R23   R(21,23)                1.0899         calculate D2E/DX2 analytically  !
 ! R24   R(21,24)                1.09           calculate D2E/DX2 analytically  !
 ! R25   R(25,26)                1.229          calculate D2E/DX2 analytically  !
 ! R26   R(25,27)                1.335          calculate D2E/DX2 analytically  !
 ! R27   R(27,28)                1.01           calculate D2E/DX2 analytically  !
 ! R28   R(27,29)                1.449          calculate D2E/DX2 analytically  !
 ! R29   R(29,30)                1.09           calculate D2E/DX2 analytically  !
 ! R30   R(29,31)                1.525          calculate D2E/DX2 analytically  !
 ! R31   R(29,35)                1.522          calculate D2E/DX2 analytically  !
 ! R32   R(31,32)                1.0899         calculate D2E/DX2 analytically  !
 ! R33   R(31,33)                1.09           calculate D2E/DX2 analytically  !
 ! R34   R(31,34)                1.09           calculate D2E/DX2 analytically  !
 ! R35   R(35,36)                1.229          calculate D2E/DX2 analytically  !
 ! R36   R(35,37)                1.335          calculate D2E/DX2 analytically  !
 ! R37   R(37,38)                1.01           calculate D2E/DX2 analytically  !
 ! R38   R(37,39)                1.449          calculate D2E/DX2 analytically  !
 ! R39   R(39,40)                1.0901         calculate D2E/DX2 analytically  !
 ! R40   R(39,41)                1.09           calculate D2E/DX2 analytically  !
 ! R41   R(39,42)                1.0901         calculate D2E/DX2 analytically  !
 ! A1    A(1,2,3)              109.5032         calculate D2E/DX2 analytically  !
 ! A2    A(1,2,4)              109.5017         calculate D2E/DX2 analytically  !
 ! A3    A(1,2,5)              111.0991         calculate D2E/DX2 analytically  !
 ! A4    A(3,2,4)              109.4443         calculate D2E/DX2 analytically  !
 ! A5    A(3,2,5)              108.6335         calculate D2E/DX2 analytically  !
 ! A6    A(4,2,5)              108.6321         calculate D2E/DX2 analytically  !
 ! A7    A(2,5,6)              120.4989         calculate D2E/DX2 analytically  !
 ! A8    A(2,5,7)              116.5966         calculate D2E/DX2 analytically  !
 ! A9    A(6,5,7)              122.9046         calculate D2E/DX2 analytically  !
 ! A10   A(5,7,8)              120.0039         calculate D2E/DX2 analytically  !
 ! A11   A(5,7,9)              121.8946         calculate D2E/DX2 analytically  !
 ! A12   A(8,7,9)              118.1015         calculate D2E/DX2 analytically  !
 ! A13   A(7,9,10)             109.5            calculate D2E/DX2 analytically  !
 ! A14   A(7,9,11)             111.1021         calculate D2E/DX2 analytically  !
 ! A15   A(7,9,15)             111.0966         calculate D2E/DX2 analytically  !
 ! A16   A(10,9,11)            108.6355         calculate D2E/DX2 analytically  !
 ! A17   A(10,9,15)            108.6373         calculate D2E/DX2 analytically  !
 ! A18   A(11,9,15)            107.7945         calculate D2E/DX2 analytically  !
 ! A19   A(9,11,12)            109.4942         calculate D2E/DX2 analytically  !
 ! A20   A(9,11,13)            109.4975         calculate D2E/DX2 analytically  !
 ! A21   A(9,11,14)            109.4977         calculate D2E/DX2 analytically  !
 ! A22   A(12,11,13)           109.4439         calculate D2E/DX2 analytically  !
 ! A23   A(12,11,14)           109.4481         calculate D2E/DX2 analytically  !
 ! A24   A(13,11,14)           109.446          calculate D2E/DX2 analytically  !
 ! A25   A(9,15,16)            120.5018         calculate D2E/DX2 analytically  !
 ! A26   A(9,15,17)            116.6003         calculate D2E/DX2 analytically  !
 ! A27   A(16,15,17)           122.8979         calculate D2E/DX2 analytically  !
 ! A28   A(15,17,18)           120.0017         calculate D2E/DX2 analytically  !
 ! A29   A(15,17,19)           121.9008         calculate D2E/DX2 analytically  !
 ! A30   A(18,17,19)           118.0975         calculate D2E/DX2 analytically  !
 ! A31   A(17,19,20)           109.4954         calculate D2E/DX2 analytically  !
 ! A32   A(17,19,21)           111.0974         calculate D2E/DX2 analytically  !
 ! A33   A(17,19,25)           111.1042         calculate D2E/DX2 analytically  !
 ! A34   A(20,19,21)           108.6349         calculate D2E/DX2 analytically  !
 ! A35   A(20,19,25)           108.6399         calculate D2E/DX2 analytically  !
 ! A36   A(21,19,25)           107.7944         calculate D2E/DX2 analytically  !
 ! A37   A(19,21,22)           109.4996         calculate D2E/DX2 analytically  !
 ! A38   A(19,21,23)           109.4977         calculate D2E/DX2 analytically  !
 ! A39   A(19,21,24)           109.4988         calculate D2E/DX2 analytically  !
 ! A40   A(22,21,23)           109.4452         calculate D2E/DX2 analytically  !
 ! A41   A(22,21,24)           109.4447         calculate D2E/DX2 analytically  !
 ! A42   A(23,21,24)           109.4412         calculate D2E/DX2 analytically  !
 ! A43   A(19,25,26)           120.5014         calculate D2E/DX2 analytically  !
 ! A44   A(19,25,27)           116.5988         calculate D2E/DX2 analytically  !
 ! A45   A(26,25,27)           122.8998         calculate D2E/DX2 analytically  !
 ! A46   A(25,27,28)           120.0005         calculate D2E/DX2 analytically  !
 ! A47   A(25,27,29)           121.8991         calculate D2E/DX2 analytically  !
 ! A48   A(28,27,29)           118.1005         calculate D2E/DX2 analytically  !
 ! A49   A(27,29,30)           109.5023         calculate D2E/DX2 analytically  !
 ! A50   A(27,29,31)           111.0965         calculate D2E/DX2 analytically  !
 ! A51   A(27,29,35)           111.0992         calculate D2E/DX2 analytically  !
 ! A52   A(30,29,31)           108.6378         calculate D2E/DX2 analytically  !
 ! A53   A(30,29,35)           108.637          calculate D2E/DX2 analytically  !
 ! A54   A(31,29,35)           107.7933         calculate D2E/DX2 analytically  !
 ! A55   A(29,31,32)           109.5036         calculate D2E/DX2 analytically  !
 ! A56   A(29,31,33)           109.4968         calculate D2E/DX2 analytically  !
 ! A57   A(29,31,34)           109.498          calculate D2E/DX2 analytically  !
 ! A58   A(32,31,33)           109.4483         calculate D2E/DX2 analytically  !
 ! A59   A(32,31,34)           109.4419         calculate D2E/DX2 analytically  !
 ! A60   A(33,31,34)           109.4387         calculate D2E/DX2 analytically  !
 ! A61   A(29,35,36)           120.5013         calculate D2E/DX2 analytically  !
 ! A62   A(29,35,37)           116.598          calculate D2E/DX2 analytically  !
 ! A63   A(36,35,37)           122.9008         calculate D2E/DX2 analytically  !
 ! A64   A(35,37,38)           120.0001         calculate D2E/DX2 analytically  !
 ! A65   A(35,37,39)           121.8984         calculate D2E/DX2 analytically  !
 ! A66   A(38,37,39)           118.1015         calculate D2E/DX2 analytically  !
 ! A67   A(37,39,40)           109.502          calculate D2E/DX2 analytically  !
 ! A68   A(37,39,41)           109.506          calculate D2E/DX2 analytically  !
 ! A69   A(37,39,42)           109.5            calculate D2E/DX2 analytically  !
 ! A70   A(40,39,41)           109.4463         calculate D2E/DX2 analytically  !
 ! A71   A(40,39,42)           109.4352         calculate D2E/DX2 analytically  !
 ! A72   A(41,39,42)           109.4378         calculate D2E/DX2 analytically  !
 ! D1    D(1,2,5,6)              0.0            calculate D2E/DX2 analytically  !
 ! D2    D(1,2,5,7)            180.0            calculate D2E/DX2 analytically  !
 ! D3    D(3,2,5,6)            120.5141         calculate D2E/DX2 analytically  !
 ! D4    D(3,2,5,7)            -59.4859         calculate D2E/DX2 analytically  !
 ! D5    D(4,2,5,6)           -120.5112         calculate D2E/DX2 analytically  !
 ! D6    D(4,2,5,7)             59.4888         calculate D2E/DX2 analytically  !
 ! D7    D(2,5,7,8)              0.0            calculate D2E/DX2 analytically  !
 ! D8    D(2,5,7,9)            180.0            calculate D2E/DX2 analytically  !
 ! D9    D(6,5,7,8)            180.0            calculate D2E/DX2 analytically  !
 ! D10   D(6,5,7,9)              0.0            calculate D2E/DX2 analytically  !
 ! D11   D(5,7,9,10)           -60.0002         calculate D2E/DX2 analytically  !
 ! D12   D(5,7,9,11)            60.0009         calculate D2E/DX2 analytically  !
 ! D13   D(5,7,9,15)           180.0            calculate D2E/DX2 analytically  !
 ! D14   D(8,7,9,10)           119.9998         calculate D2E/DX2 analytically  !
 ! D15   D(8,7,9,11)          -119.9991         calculate D2E/DX2 analytically  !
 ! D16   D(8,7,9,15)             0.0            calculate D2E/DX2 analytically  !
 ! D17   D(7,9,11,12)           59.9998         calculate D2E/DX2 analytically  !
 ! D18   D(7,9,11,13)          179.9965         calculate D2E/DX2 analytically  !
 ! D19   D(7,9,11,14)          -60.0021         calculate D2E/DX2 analytically  !
 ! D20   D(10,9,11,12)        -179.4869         calculate D2E/DX2 analytically  !
 ! D21   D(10,9,11,13)         -59.4902         calculate D2E/DX2 analytically  !
 ! D22   D(10,9,11,14)          60.5112         calculate D2E/DX2 analytically  !
 ! D23   D(15,9,11,12)         -61.9422         calculate D2E/DX2 analytically  !
 ! D24   D(15,9,11,13)          58.0545         calculate D2E/DX2 analytically  !
 ! D25   D(15,9,11,14)         178.0559         calculate D2E/DX2 analytically  !
 ! D26   D(7,9,15,16)            0.0            calculate D2E/DX2 analytically  !
 ! D27   D(7,9,15,17)          180.0            calculate D2E/DX2 analytically  !
 ! D28   D(10,9,15,16)        -120.5111         calculate D2E/DX2 analytically  !
 ! D29   D(10,9,15,17)          59.4889         calculate D2E/DX2 analytically  !
 ! D30   D(11,9,15,16)         121.9454         calculate D2E/DX2 analytically  !
 ! D31   D(11,9,15,17)         -58.0546         calculate D2E/DX2 analytically  !
 ! D32   D(9,15,17,18)           0.0            calculate D2E/DX2 analytically  !
 ! D33   D(9,15,17,19)         179.9953         calculate D2E/DX2 analytically  !
 ! D34   D(16,15,17,18)        180.0            calculate D2E/DX2 analytically  !
 ! D35   D(16,15,17,19)         -0.0047         calculate D2E/DX2 analytically  !
 ! D36   D(15,17,19,20)         30.0072         calculate D2E/DX2 analytically  !
 ! D37   D(15,17,19,21)        150.0015         calculate D2E/DX2 analytically  !
 ! D38   D(15,17,19,25)        -89.9975         frozen, calculate D2E/DX2 analyt!
 ! D39   D(18,17,19,20)       -149.9973         calculate D2E/DX2 analytically  !
 ! D40   D(18,17,19,21)        -30.003          calculate D2E/DX2 analytically  !
 ! D41   D(18,17,19,25)         89.9979         calculate D2E/DX2 analytically  !
 ! D42   D(17,19,21,22)         60.0039         calculate D2E/DX2 analytically  !
 ! D43   D(17,19,21,23)       -179.9943         calculate D2E/DX2 analytically  !
 ! D44   D(17,19,21,24)        -59.998          calculate D2E/DX2 analytically  !
 ! D45   D(20,19,21,22)       -179.4919         calculate D2E/DX2 analytically  !
 ! D46   D(20,19,21,23)        -59.4901         calculate D2E/DX2 analytically  !
 ! D47   D(20,19,21,24)         60.5062         calculate D2E/DX2 analytically  !
 ! D48   D(25,19,21,22)        -61.9445         calculate D2E/DX2 analytically  !
 ! D49   D(25,19,21,23)         58.0573         calculate D2E/DX2 analytically  !
 ! D50   D(25,19,21,24)        178.0536         calculate D2E/DX2 analytically  !
 ! D51   D(17,19,25,26)        -60.0007         calculate D2E/DX2 analytically  !
 ! D52   D(17,19,25,27)        119.9986         frozen, calculate D2E/DX2 analyt!
 ! D53   D(20,19,25,26)        179.4877         calculate D2E/DX2 analytically  !
 ! D54   D(20,19,25,27)         -0.5131         calculate D2E/DX2 analytically  !
 ! D55   D(21,19,25,26)         61.9435         calculate D2E/DX2 analytically  !
 ! D56   D(21,19,25,27)       -118.0573         calculate D2E/DX2 analytically  !
 ! D57   D(19,25,27,28)          0.0039         calculate D2E/DX2 analytically  !
 ! D58   D(19,25,27,29)        179.9979         calculate D2E/DX2 analytically  !
 ! D59   D(26,25,27,28)       -179.9968         calculate D2E/DX2 analytically  !
 ! D60   D(26,25,27,29)         -0.0029         calculate D2E/DX2 analytically  !
 ! D61   D(25,27,29,30)        -59.9969         calculate D2E/DX2 analytically  !
 ! D62   D(25,27,29,31)         60.0049         calculate D2E/DX2 analytically  !
 ! D63   D(25,27,29,35)       -179.9994         calculate D2E/DX2 analytically  !
 ! D64   D(28,27,29,30)        119.9971         calculate D2E/DX2 analytically  !
 ! D65   D(28,27,29,31)       -120.0011         calculate D2E/DX2 analytically  !
 ! D66   D(28,27,29,35)         -0.0054         calculate D2E/DX2 analytically  !
 ! D67   D(27,29,31,32)         59.9976         calculate D2E/DX2 analytically  !
 ! D68   D(27,29,31,33)       -179.9949         calculate D2E/DX2 analytically  !
 ! D69   D(27,29,31,34)        -60.0027         calculate D2E/DX2 analytically  !
 ! D70   D(30,29,31,32)       -179.4883         calculate D2E/DX2 analytically  !
 ! D71   D(30,29,31,33)        -59.4808         calculate D2E/DX2 analytically  !
 ! D72   D(30,29,31,34)         60.5114         calculate D2E/DX2 analytically  !
 ! D73   D(35,29,31,32)        -61.9434         calculate D2E/DX2 analytically  !
 ! D74   D(35,29,31,33)         58.0641         calculate D2E/DX2 analytically  !
 ! D75   D(35,29,31,34)        178.0563         calculate D2E/DX2 analytically  !
 ! D76   D(27,29,35,36)          0.0026         calculate D2E/DX2 analytically  !
 ! D77   D(27,29,35,37)        179.9999         calculate D2E/DX2 analytically  !
 ! D78   D(30,29,35,36)       -120.5127         calculate D2E/DX2 analytically  !
 ! D79   D(30,29,35,37)         59.4846         calculate D2E/DX2 analytically  !
 ! D80   D(31,29,35,36)        121.9418         calculate D2E/DX2 analytically  !
 ! D81   D(31,29,35,37)        -58.0608         calculate D2E/DX2 analytically  !
 ! D82   D(29,35,37,38)          0.0053         calculate D2E/DX2 analytically  !
 ! D83   D(29,35,37,39)       -179.9974         calculate D2E/DX2 analytically  !
 ! D84   D(36,35,37,38)       -179.9974         calculate D2E/DX2 analytically  !
 ! D85   D(36,35,37,39)         -0.0002         calculate D2E/DX2 analytically  !
 ! D86   D(35,37,39,40)         -0.0042         calculate D2E/DX2 analytically  !
 ! D87   D(35,37,39,41)        120.0054         calculate D2E/DX2 analytically  !
 ! D88   D(35,37,39,42)       -119.9966         calculate D2E/DX2 analytically  !
 ! D89   D(38,37,39,40)        179.9931         calculate D2E/DX2 analytically  !
 ! D90   D(38,37,39,41)        -59.9973         calculate D2E/DX2 analytically  !
 ! D91   D(38,37,39,42)         60.0008         calculate D2E/DX2 analytically  !
 --------------------------------------------------------------------------------
 Trust Radius=3.00D-01 FncErr=1.00D-07 GrdErr=1.00D-07
 Number of steps in this run= 252 maximum allowed number of steps= 252.
 GradGradGradGradGradGradGradGradGradGradGradGradGradGradGradGradGradGrad

                          Input orientation:                          
 ---------------------------------------------------------------------
 Center     Atomic      Atomic             Coordinates (Angstroms)
 Number     Number       Type             X           Y           Z
 ---------------------------------------------------------------------
      1          1           0        5.846000    1.000000   -3.846100
      2          6           0        5.846000    2.090000   -3.846100
      3          1           0        4.956200    2.453900   -4.359800
      4          1           0        6.735900    2.453900   -4.359800
      5          6           0        5.846000    2.640800   -2.418600
      6          8           0        5.846000    1.877400   -1.455500
      7          7           0        5.846000    3.969700   -2.290700
      8          1           0        5.846000    4.556200   -3.112900
      9          6           0        5.846000    4.613900   -0.992800
     10          1           0        4.956200    4.315500   -0.438500
     11          6           0        7.078200    4.220800   -0.184700
     12          1           0        7.977200    4.521400   -0.722800
     13          1           0        7.051800    4.718900    0.784400
     14          1           0        7.087400    3.140900   -0.037500
     15          6           0        5.846000    6.129400   -1.133400
     16          8           0        5.846000    6.652700   -2.245400
     17          7           0        5.846000    6.834900    0.000000
     18          1           0        5.846000    6.359200    0.891000
     19          6           0        5.846100    8.283900    0.000000
     20          1           0        5.332300    8.647700   -0.889800
     21          6           0        5.134700    8.832900    1.232200
     22          1           0        5.643100    8.484600    2.131200
     23          1           0        5.149900    9.922400    1.205800
     24          1           0        4.101900    8.484600    1.241400
     25          6           0        7.266000    8.831800    0.000000
     26          8           0        8.038600    8.562400    0.917100
     27          7           0        7.608800    9.603800   -1.033800
     28          1           0        6.938300    9.797000   -1.764000
     29          6           0        8.930800   10.185700   -1.149700
     30          1           0        9.121700   10.829200   -0.290900
     31          6           0       10.004600    9.103800   -1.196300
     32          1           0        9.832200    8.456800   -2.056300
     33          1           0       10.986400    9.569200   -1.283300
     34          1           0        9.963800    8.511100   -0.282400
     35          6           0        9.053800   11.018000   -2.418000
     36          8           0        8.101700   11.126800   -3.187500
     37          7           0       10.232200   11.606800   -2.634600
     38          1           0       10.985500   11.487700   -1.972500
     39          6           0       10.475500   12.425200   -3.805300
     40          1           0        9.575700   12.458100   -4.419700
     41          1           0       10.739700   13.435900   -3.494300
     42          1           0       11.294500   11.998000   -4.384100
 ---------------------------------------------------------------------
                    Distance matrix (angstroms):
                    1          2          3          4          5
     1  H    0.000000
     2  C    1.090000   0.000000
     3  H    1.780297   1.089979   0.000000
     4  H    1.780347   1.090061   1.779700   0.000000
     5  C    2.174852   1.530077   2.143580   2.143621   0.000000
     6  O    2.546527   2.400035   3.091772   3.091801   1.228959
     7  N    3.352370   2.439783   2.714879   2.714912   1.335041
     8  H    3.630997   2.572883   2.601186   2.601220   2.037354
     9  C    4.604519   3.809382   4.098052   4.098074   2.434344
    10  H    4.836943   4.166093   4.340754   4.691426   2.741744
    11  C    5.029684   4.411856   5.005625   4.546489   3.000838
    12  H    5.166941   4.495411   5.160307   4.363846   3.309744
    13  H    6.060173   5.459542   5.998713   5.629637   4.003956
    14  H    4.542022   4.141364   4.867880   4.390649   2.731449
    15  C    5.802541   4.865747   4.970986   4.971004   3.717804
    16  O    5.874969   4.835336   4.784595   4.784614   4.015637
    17  N    6.988458   6.107910   6.244418   6.244433   4.841498
    18  H    7.152702   6.377004   6.604091   6.604104   4.977946
    19  C    8.236971   7.290877   7.334076   7.334064   6.139561
    20  H    8.215285   7.211590   7.109537   7.236999   6.219643
    21  C    9.362126   8.471232   8.484926   8.632841   7.223323
    22  H    9.580633   8.755581   8.886746   8.927297   7.408903
    23  H   10.276939   9.346269   9.316218   9.448269   8.163488
    24  H    9.216495   8.355564   8.274818   8.641802   7.112488
    25  C    8.840021   7.890548   8.063538   7.743802   6.796654
    26  O    9.202470   8.329918   8.640639   8.176581   7.141410
    27  N    9.221815   8.214237   8.319834   7.933807   7.314951
    28  H    9.105793   8.057674   8.036667   7.791037   7.268619
    29  C   10.058014   9.073418   9.267304   8.654655   8.249340
    30  H   10.953667   9.987155  10.200637   9.612161   9.072332
    31  C    9.486146   8.573726   8.928339   8.056879   7.781924
    32  H    8.642745   7.722002   8.069467   7.136385   7.060234
    33  H   10.316145   9.430275   9.821184   8.840763   8.701456
    34  H    9.277546   8.419428   8.853865   7.983370   7.481982
    35  C   10.615544   9.593677   9.690445   9.082239   8.970366
    36  O   10.395865   9.337328   9.299874   8.857702   8.814283
    37  N   11.541694  10.548742  10.704582   9.948669   9.983715
    38  H   11.828638  10.873895  11.120306  10.264884  10.241148
    39  C   12.327576  11.324765  11.410389  10.663907  10.912822
    40  H   12.063488  11.033457  11.019410  10.399619  10.690858
    41  H   13.368757  12.361291  12.441957  11.721085  11.901244
    42  H   12.285422  11.320073  11.457071  10.576922  11.004841
                    6          7          8          9         10
     6  O    0.000000
     7  N    2.252838   0.000000
     8  H    3.150071   1.009948   0.000000
     9  C    2.775342   1.448978   2.120885   0.000000
    10  H    2.787537   2.083739   2.828798   1.089970   0.000000
    11  C    2.936796   2.452877   3.194552   1.525080   2.139221
    12  H    3.474133   2.702720   3.202468   2.150225   3.041326
    13  H    3.813821   3.386959   4.082814   2.150214   2.459625
    14  H    2.268971   2.702757   3.605861   2.150210   2.466272
    15  C    4.264183   2.450234   2.528513   1.522008   2.136554
    16  O    4.840189   2.683382   2.268891   2.392846   3.085310
    17  N    5.166748   3.668334   3.857800   2.432795   2.707656
    18  H    5.058912   3.979061   4.391130   2.568029   2.595385
    19  C    6.569758   4.884632   4.856531   3.801914   4.090526
    20  H    6.813286   4.910203   4.684702   4.067682   4.371851
    21  C    7.490571   6.047106   6.138078   4.822503   4.819751
    22  H    7.520683   6.322870   6.555462   4.978239   4.945360
    23  H    8.502300   6.938639   6.923282   5.787795   5.846244
    24  H    7.346444   5.991823   6.118345   4.797484   4.575291
    25  C    7.245589   5.559112   5.476066   4.559905   5.091603
    26  O    7.424685   6.015843   6.090815   4.903658   5.419871
    27  N    7.936155   6.035755   5.736583   5.292282   5.946157
    28  H    8.000522   5.952139   5.520746   5.352793   5.977668
    29  C    8.867770   7.032534   6.712780   6.370680   7.124781
    30  H    9.603188   7.860162   7.618689   7.060654   7.733141
    31  C    8.341582   6.697063   6.453524   6.123281   6.999173
    32  H    7.716168   6.006563   5.676343   5.638147   6.598713
    33  H    9.252954   7.667657   7.409542   7.145845   8.042286
    34  H    7.895468   6.450881   6.372538   5.713940   6.534790
    35  C    9.734832   7.744980   7.247601   7.302991   8.101373
    36  O    9.676746   7.557547   6.947412   7.233447   7.990305
    37  N   10.737330   8.813757   8.317360   8.416348   9.264021
    38  H   10.910528   9.112411   8.704060   8.638484   9.494528
    39  C   11.756271   9.758164   9.156028   9.505726  10.371367
    40  H   11.603808   9.512951   8.835067   9.337333  10.173085
    41  H   12.716286  10.724080  10.146075  10.393916  11.223568
    42  H   11.861256   9.925829   9.310343   9.783251  10.712731
                   11         12         13         14         15
    11  C    0.000000
    12  H    1.090006   0.000000
    13  H    1.089934   1.779613   0.000000
    14  H    1.089925   1.779652   1.779570   0.000000
    15  C    2.461931   2.701161   2.668599   3.416607   0.000000
    16  O    3.417446   3.376798   3.791204   4.329969   1.228978
    17  N    2.895850   3.227497   2.558651   3.897193   1.335038
    18  H    2.692248   3.244052   2.038603   3.572204   2.037401
    19  C    4.249820   4.384111   3.844245   5.290811   2.434433
    20  H    4.810694   4.904053   4.603813   5.842229   2.581678
    21  C    5.201564   5.521853   4.560789   6.150125   3.662093
    22  H    5.059930   5.412975   4.240142   5.945115   4.030602
    23  H    6.177384   6.394054   5.556187   7.161595   4.510350
    24  H    5.391856   5.880730   4.805336   6.253313   3.772072
    25  C    4.618518   4.428069   4.192507   5.693825   3.256372
    26  O    4.581028   4.361505   3.970375   5.586475   3.864134
    27  N    5.475326   5.105216   5.241979   6.559996   3.897286
    28  H    5.797221   5.476803   5.682810   6.877987   3.878410
    29  C    6.320078   5.759852   6.095678   7.366432   5.096060
    30  H    6.917956   6.425322   6.540376   7.956918   5.790349
    31  C    5.781941   5.033184   5.645312   6.738624   5.113215
    32  H    5.388051   4.550453   5.456381   6.314133   4.707263
    33  H    6.714636   5.903366   6.578896   7.620844   6.186955
    34  H    5.171354   4.478642   4.898835   6.096942   4.832491
    35  C    7.422436   6.799896   7.344524   8.460627   5.986534
    36  O    7.599816   7.051351   7.611798   8.644415   5.855042
    37  N    8.396590   7.677428   8.321519   9.397136   7.175950
    38  H    8.442219   7.690316   8.300069   9.413208   7.471943
    39  C    9.589712   8.843832   9.600736  10.577040   8.258839
    40  H    9.593010   8.900195   9.661674  10.592711   8.047538
    41  H   10.453617   9.735550  10.387202  11.457565   9.105333
    42  H    9.792701   8.961537   9.884290  10.725709   8.642550
                   16         17         18         19         20
    16  O    0.000000
    17  N    2.252780   0.000000
    18  H    3.150103   1.010035   0.000000
    19  C    2.775362   1.449000   2.120932   0.000000
    20  H    2.466083   2.083717   2.944889   1.089993   0.000000
    21  C    4.165684   2.452808   2.596451   1.525060   2.139212
    22  H    4.748858   2.702719   2.469127   2.150233   3.041322
    23  H    4.804818   3.386911   3.644180   2.150193   2.459608
    24  H    4.307611   2.702678   2.771640   2.150253   2.466272
    25  C    3.436088   2.450308   2.987312   1.521943   2.136547
    26  O    4.296028   2.938167   3.108419   2.392842   3.255184
    27  N    3.644781   3.441368   4.164102   2.432692   2.473321
    28  H    3.363256   3.616470   4.478908   2.567892   2.159711
    29  C    4.816496   4.697410   5.321893   3.801845   3.922014
    30  H    5.656274   5.173902   5.666392   4.158453   4.413295
    31  C    4.939884   4.886000   5.402185   4.404145   4.704504
    32  H    4.379535   4.769562   5.382963   4.488570   4.652555
    33  H    5.987931   5.962128   6.438586   5.451746   5.742199
    34  H    4.925779   4.454848   4.792058   4.133621   4.673156
    35  C    5.419928   5.799572   6.553158   4.859153   4.669398
    36  O    5.098363   5.802477   6.667260   4.830111   4.369776
    37  N    6.628223   6.996492   7.694538   6.100873   5.984114
    38  H    7.061598   7.207896   7.804845   6.369342   6.418451
    39  C    7.562229   8.195367   8.960126   7.284368   7.015850
    40  H    7.234702   8.066275   8.905660   7.132153   6.707144
    41  H    8.456941   8.929257   9.657062   7.918368   7.677907
    42  H    7.926690   8.692761   9.450338   7.918329   7.680005
                   21         22         23         24         25
    21  C    0.000000
    22  H    1.089947   0.000000
    23  H    1.089926   1.779573   0.000000
    24  H    1.089988   1.779618   1.779562   0.000000
    25  C    2.461861   2.701179   2.668565   3.416599   0.000000
    26  O    2.933444   2.686729   3.205860   3.950801   1.229048
    27  N    3.442414   3.890220   3.341183   4.327527   1.335005
    28  H    3.627627   4.309585   3.468978   4.335895   2.037325
    29  C    4.681227   4.946415   4.462389   5.650608   2.434423
    30  H    4.711817   4.844004   4.340230   5.748346   2.741870
    31  C    5.448571   5.520720   5.477983   6.416203   3.000841
    32  H    5.746494   5.923216   5.891792   6.611500   3.309740
    33  H    6.411885   6.433197   6.354927   7.412611   4.003997
    34  H    5.071270   4.949204   5.232604   6.056776   2.731432
    35  C    5.784286   6.224645   5.438079   6.658126   3.717852
    36  O    5.796448   6.427636   5.428148   6.526467   4.015666
    37  N    6.973605   7.315793   6.589055   7.896334   4.841496
    38  H    7.179828   7.375649   6.826857   8.168948   4.977875
    39  C    8.173443   8.609440   7.728981   9.034395   6.139521
    40  H    8.050375   8.612104   7.593664   8.820388   6.165915
    41  H    8.656988   9.062944   8.104412   9.539529   6.743475
    42  H    8.916491   9.312971   8.562196   9.783850   6.743439
                   26         27         28         29         30
    26  O    0.000000
    27  N    2.252832   0.000000
    28  H    3.150110   1.009994   0.000000
    29  C    2.775389   1.449043   2.120969   0.000000
    30  H    2.787607   2.083836   2.828904   1.089987   0.000000
    31  C    2.936789   2.452807   3.194527   1.525033   2.139221
    32  H    3.474084   2.702707   3.202535   2.150242   3.041337
    33  H    3.813782   3.386979   4.082901   2.150212   2.459586
    34  H    2.268882   2.702706   3.605874   2.150252   2.466332
    35  C    4.264211   2.450305   2.528616   1.521985   2.136542
    36  O    4.840235   2.683450   2.268969   2.392845   3.085329
    37  N    5.166704   3.668351   3.857862   2.432714   2.707545
    38  H    5.058793   3.978987   4.391101   2.567878   2.595217
    39  C    6.569685   4.884617   4.856555   3.801798   4.090354
    40  H    6.783848   4.845621   4.592393   4.033931   4.461661
    41  H    7.106855   5.526444   5.539510   4.396939   4.435604
    42  H    7.106824   5.526399   5.539477   4.396914   4.779272
                   31         32         33         34         35
    31  C    0.000000
    32  H    1.089922   0.000000
    33  H    1.089999   1.779646   0.000000
    34  H    1.090033   1.779603   1.779631   0.000000
    35  C    2.461856   2.701200   2.668615   3.416641   0.000000
    36  O    3.417373   3.376854   3.791252   4.330001   1.229009
    37  N    2.895776   3.227527   2.558641   3.897210   1.335001
    38  H    2.692142   3.243991   2.038539   3.572178   2.037291
    39  C    4.249744   4.384180   3.844247   5.290826   2.434347
    40  H    4.671787   4.654230   4.491417   5.731202   2.520530
    41  H    4.958656   5.261448   4.461026   5.930597   3.137980
    42  H    4.494697   4.482976   3.950817   5.545555   3.137943
                   36         37         38         39         40
    36  O    0.000000
    37  N    2.252805   0.000000
    38  H    3.150044   1.009961   0.000000
    39  C    2.775328   1.448969   2.120887   0.000000
    40  H    2.337382   2.083815   2.986302   1.090050   0.000000
    41  H    3.519249   2.083806   2.484306   1.089971   1.779706
    42  H    3.519206   2.083811   2.484291   1.090078   1.779672
                   41         42
    41  H    0.000000
    42  H    1.779636   0.000000
 Stoichiometry    C12H22N4O4
 Framework group  C1[X(C12H22N4O4)]
 Deg. of freedom   120
 Full point group                 C1      NOp   1
 Largest Abelian subgroup         C1      NOp   1
 Largest concise Abelian subgroup C1      NOp   1
                         Standard orientation:                         
 ---------------------------------------------------------------------
 Center     Atomic      Atomic             Coordinates (Angstroms)
 Number     Number       Type             X           Y           Z
 ---------------------------------------------------------------------
      1          1           0       -6.365652   -2.983638   -0.099961
      2          6           0       -5.370323   -2.742095   -0.472891
      3          1           0       -5.380369   -2.741343   -1.562824
      4          1           0       -4.657865   -3.486433   -0.117085
      5          6           0       -4.919860   -1.362852    0.012812
      6          8           0       -5.652375   -0.683826    0.728834
      7          7           0       -3.711083   -0.955729   -0.381452
      8          1           0       -3.145286   -1.549866   -0.970408
      9          6           0       -3.170566    0.330074    0.011091
     10          1           0       -3.824666    1.124641   -0.347870
     11          6           0       -3.059007    0.438777    1.528196
     12          1           0       -2.399760   -0.344887    1.901528
     13          1           0       -2.650527    1.413686    1.793999
     14          1           0       -4.046793    0.325259    1.974660
     15          6           0       -1.781522    0.542082   -0.573818
     16          8           0       -1.262778   -0.321285   -1.278012
     17          7           0       -1.178980    1.696595   -0.279936
     18          1           0       -1.646131    2.375877    0.303603
     19          6           0        0.144210    2.017650   -0.775611
     20          1           0        0.300549    1.529736   -1.737684
     21          6           0        0.311405    3.522330   -0.959431
     22          1           0        0.166689    4.024042   -0.002703
     23          1           0        1.313419    3.734148   -1.332309
     24          1           0       -0.426268    3.885643   -1.674914
     25          6           0        1.220959    1.544607    0.190387
     26          8           0        1.254882    1.969134    1.343290
     27          7           0        2.103093    0.661706   -0.283492
     28          1           0        2.034165    0.342150   -1.239118
     29          6           0        3.175407    0.135113    0.536609
     30          1           0        3.808933    0.954127    0.877099
     31          6           0        2.625118   -0.595233    1.757061
     32          1           0        1.995951   -1.423825    1.432231
     33          1           0        3.451877   -0.979762    2.354309
     34          1           0        2.033723    0.095371    2.358301
     35          6           0        4.031997   -0.848927   -0.247201
     36          8           0        3.773123   -1.103902   -1.421268
     37          7           0        5.056017   -1.402557    0.406330
     38          1           0        5.228729   -1.161221    1.371706
     39          6           0        5.945163   -2.354087   -0.228906
     40          1           0        5.632509   -2.511182   -1.261271
     41          1           0        6.963900   -1.966832   -0.213208
     42          1           0        5.908842   -3.301381    0.309225
 ---------------------------------------------------------------------
 Rotational constants (GHZ):      0.5281554      0.1350028      0.1196759
 Standard basis: 6-31G(d) (6D, 7F)
 There are   344 symmetry adapted basis functions of A   symmetry.
 Integral buffers will be    131072 words long.
 Raffenetti 1 integral format.
 Two-electron integral symmetry is turned on.
   344 basis functions,   648 primitive gaussians,   344 cartesian basis functions
    77 alpha electrons       77 beta electrons
       nuclear repulsion energy      1616.5448534204 Hartrees.
 NAtoms=   42 NActive=   42 NUniq=   42 SFac= 7.50D-01 NAtFMM=   80 NAOKFM=F Big=F
 One-electron integrals computed using PRISM.
 NBasis=   344 RedAO= T  NBF=   344
 NBsUse=   344 1.00D-06 NBFU=   344
 Harris functional with IExCor=  205 diagonalized for initial guess.
 ExpMin= 1.61D-01 ExpMax= 5.48D+03 ExpMxC= 8.25D+02 IAcc=1 IRadAn=         1 AccDes= 0.00D+00
 HarFok:  IExCor=  205 AccDes= 0.00D+00 IRadAn=         1 IDoV= 1
 ScaDFX=  1.000000  1.000000  1.000000  1.000000
 FoFCou: FMM=F IPFlag=           0 FMFlag=      100000 FMFlg1=           0
         NFxFlg=           0 DoJE=T BraDBF=F KetDBF=T FulRan=T
         Omega=  0.000000  0.000000  1.000000  0.000000  0.000000 ICntrl=     500 IOpCl=  0
         NMat0=    1 NMatS0=    1 NMatT0=    0 NMatD0=    1 NMtDS0=    0 NMtDT0=    0
         I1Cent=           4 NGrid=           0.
 Petite list used in FoFCou.
 Initial guess orbital symmetries:
       Occupied  (A) (A) (A) (A) (A) (A) (A) (A) (A) (A) (A) (A)
                 (A) (A) (A) (A) (A) (A) (A) (A) (A) (A) (A) (A)
                 (A) (A) (A) (A) (A) (A) (A) (A) (A) (A) (A) (A)
                 (A) (A) (A) (A) (A) (A) (A) (A) (A) (A) (A) (A)
                 (A) (A) (A) (A) (A) (A) (A) (A) (A) (A) (A) (A)
                 (A) (A) (A) (A) (A) (A) (A) (A) (A) (A) (A) (A)
                 (A) (A) (A) (A) (A)
       Virtual   (A) (A) (A) (A) (A) (A) (A) (A) (A) (A) (A) (A)
                 (A) (A) (A) (A) (A) (A) (A) (A) (A) (A) (A) (A)
                 (A) (A) (A) (A) (A) (A) (A) (A) (A) (A) (A) (A)
                 (A) (A) (A) (A) (A) (A) (A) (A) (A) (A) (A) (A)
                 (A) (A) (A) (A) (A) (A) (A) (A) (A) (A) (A) (A)
                 (A) (A) (A) (A) (A) (A) (A) (A) (A) (A) (A) (A)
                 (A) (A) (A) (A) (A) (A) (A) (A) (A) (A) (A) (A)
                 (A) (A) (A) (A) (A) (A) (A) (A) (A) (A) (A) (A)
                 (A) (A) (A) (A) (A) (A) (A) (A) (A) (A) (A) (A)
                 (A) (A) (A) (A) (A) (A) (A) (A) (A) (A) (A) (A)
                 (A) (A) (A) (A) (A) (A) (A) (A) (A) (A) (A) (A)
                 (A) (A) (A) (A) (A) (A) (A) (A) (A) (A) (A) (A)
                 (A) (A) (A) (A) (A) (A) (A) (A) (A) (A) (A) (A)
                 (A) (A) (A) (A) (A) (A) (A) (A) (A) (A) (A) (A)
                 (A) (A) (A) (A) (A) (A) (A) (A) (A) (A) (A) (A)
                 (A) (A) (A) (A) (A) (A) (A) (A) (A) (A) (A) (A)
                 (A) (A) (A) (A) (A) (A) (A) (A) (A) (A) (A) (A)
                 (A) (A) (A) (A) (A) (A) (A) (A) (A) (A) (A) (A)
                 (A) (A) (A) (A) (A) (A) (A) (A) (A) (A) (A) (A)
                 (A) (A) (A) (A) (A) (A) (A) (A) (A) (A) (A) (A)
                 (A) (A) (A) (A) (A) (A) (A) (A) (A) (A) (A) (A)
                 (A) (A) (A) (A) (A) (A) (A) (A) (A) (A) (A) (A)
                 (A) (A) (A)
 The electronic state of the initial guess is 1-A.
 Requested convergence on RMS density matrix=1.00D-08 within 128 cycles.
 Requested convergence on MAX density matrix=1.00D-06.
 Requested convergence on             energy=1.00D-06.
 No special actions if energy rises.
 Integral accuracy reduced to 1.0D-05 until final iterations.
 Initial convergence to 1.0D-05 achieved.  Increase integral accuracy.
 SCF Done:  E(RHF) =  -984.545250166     A.U. after   15 cycles
             Convg  =    0.3385D-08             -V/T =  2.0020
 Range of M.O.s used for correlation:     1   344
 NBasis=   344 NAE=    77 NBE=    77 NFC=     0 NFV=     0
 NROrb=    344 NOA=    77 NOB=    77 NVA=   267 NVB=   267
 Symmetrizing basis deriv contribution to polar:
 IMax=3 JMax=2 DiffMx= 0.00D+00
 G2DrvN: will do    43 centers at a time, making    1 passes doing MaxLOS=2.
 Calling FoFCou, ICntrl=  3107 FMM=F I1Cent=   0 AccDes= 0.00D+00.
 FoFDir/FoFCou used for L=0 through L=2.
 End of G2Drv Frequency-dependent properties file   721 does not exist.
 End of G2Drv Frequency-dependent properties file   722 does not exist.
          IDoAtm=111111111111111111111111111111111111111111
          Differentiating once with respect to nuclear coordinates.
          There are   129 degrees of freedom in the 1st order CPHF.  IDoFFX=5.
    123 vectors produced by pass  0 Test12= 2.06D-10 1.00D-07 XBig12= 9.00D-02 5.49D-02.
 AX will form   123 AO Fock derivatives at one time.
    123 vectors produced by pass  1 Test12= 2.06D-10 1.00D-07 XBig12= 9.25D-03 2.33D-02.
    123 vectors produced by pass  2 Test12= 2.06D-10 1.00D-07 XBig12= 1.17D-04 1.79D-03.
    123 vectors produced by pass  3 Test12= 2.06D-10 1.00D-07 XBig12= 1.21D-06 1.30D-04.
    123 vectors produced by pass  4 Test12= 2.06D-10 1.00D-07 XBig12= 7.76D-09 8.55D-06.
     33 vectors produced by pass  5 Test12= 2.06D-10 1.00D-07 XBig12= 4.71D-11 6.28D-07.
 Inverted reduced A of dimension   648 with in-core refinement.
 End of Minotr Frequency-dependent properties file   721 does not exist.
 End of Minotr Frequency-dependent properties file   722 does not exist.

 **********************************************************************

            Population analysis using the SCF density.

 **********************************************************************

 Orbital symmetries:
       Occupied  (A) (A) (A) (A) (A) (A) (A) (A) (A) (A) (A) (A)
                 (A) (A) (A) (A) (A) (A) (A) (A) (A) (A) (A) (A)
                 (A) (A) (A) (A) (A) (A) (A) (A) (A) (A) (A) (A)
                 (A) (A) (A) (A) (A) (A) (A) (A) (A) (A) (A) (A)
                 (A) (A) (A) (A) (A) (A) (A) (A) (A) (A) (A) (A)
                 (A) (A) (A) (A) (A) (A) (A) (A) (A) (A) (A) (A)
                 (A) (A) (A) (A) (A)
       Virtual   (A) (A) (A) (A) (A) (A) (A) (A) (A) (A) (A) (A)
                 (A) (A) (A) (A) (A) (A) (A) (A) (A) (A) (A) (A)
                 (A) (A) (A) (A) (A) (A) (A) (A) (A) (A) (A) (A)
                 (A) (A) (A) (A) (A) (A) (A) (A) (A) (A) (A) (A)
                 (A) (A) (A) (A) (A) (A) (A) (A) (A) (A) (A) (A)
                 (A) (A) (A) (A) (A) (A) (A) (A) (A) (A) (A) (A)
                 (A) (A) (A) (A) (A) (A) (A) (A) (A) (A) (A) (A)
                 (A) (A) (A) (A) (A) (A) (A) (A) (A) (A) (A) (A)
                 (A) (A) (A) (A) (A) (A) (A) (A) (A) (A) (A) (A)
                 (A) (A) (A) (A) (A) (A) (A) (A) (A) (A) (A) (A)
                 (A) (A) (A) (A) (A) (A) (A) (A) (A) (A) (A) (A)
                 (A) (A) (A) (A) (A) (A) (A) (A) (A) (A) (A) (A)
                 (A) (A) (A) (A) (A) (A) (A) (A) (A) (A) (A) (A)
                 (A) (A) (A) (A) (A) (A) (A) (A) (A) (A) (A) (A)
                 (A) (A) (A) (A) (A) (A) (A) (A) (A) (A) (A) (A)
                 (A) (A) (A) (A) (A) (A) (A) (A) (A) (A) (A) (A)
                 (A) (A) (A) (A) (A) (A) (A) (A) (A) (A) (A) (A)
                 (A) (A) (A) (A) (A) (A) (A) (A) (A) (A) (A) (A)
                 (A) (A) (A) (A) (A) (A) (A) (A) (A) (A) (A) (A)
                 (A) (A) (A) (A) (A) (A) (A) (A) (A) (A) (A) (A)
                 (A) (A) (A) (A) (A) (A) (A) (A) (A) (A) (A) (A)
                 (A) (A) (A) (A) (A) (A) (A) (A) (A) (A) (A) (A)
                 (A) (A) (A)
 The electronic state is 1-A.
 Alpha  occ. eigenvalues --  -20.53619 -20.53138 -20.52172 -20.51192 -15.60681
 Alpha  occ. eigenvalues --  -15.60361 -15.59371 -15.58558 -11.36305 -11.36047
 Alpha  occ. eigenvalues --  -11.34945 -11.34524 -11.29029 -11.28836 -11.28545
 Alpha  occ. eigenvalues --  -11.26841 -11.23734 -11.23175 -11.22368 -11.21827
 Alpha  occ. eigenvalues --   -1.39616  -1.39076  -1.37848  -1.36844  -1.25535
 Alpha  occ. eigenvalues --   -1.24674  -1.24095  -1.23455  -1.08293  -1.05681
 Alpha  occ. eigenvalues --   -1.03277  -0.98242  -0.96314  -0.91665  -0.89796
 Alpha  occ. eigenvalues --   -0.86884  -0.82030  -0.80496  -0.78406  -0.77886
 Alpha  occ. eigenvalues --   -0.75811  -0.71831  -0.69452  -0.68303  -0.67547
 Alpha  occ. eigenvalues --   -0.65609  -0.64859  -0.64456  -0.63030  -0.62514
 Alpha  occ. eigenvalues --   -0.61734  -0.60784  -0.60356  -0.58673  -0.58268
 Alpha  occ. eigenvalues --   -0.57377  -0.56499  -0.56258  -0.55807  -0.55494
 Alpha  occ. eigenvalues --   -0.54935  -0.54664  -0.53390  -0.53030  -0.52398
 Alpha  occ. eigenvalues --   -0.52198  -0.51847  -0.49771  -0.49107  -0.43433
 Alpha  occ. eigenvalues --   -0.42839  -0.42589  -0.40653  -0.40304  -0.39824
 Alpha  occ. eigenvalues --   -0.38762  -0.38229
 Alpha virt. eigenvalues --    0.17748   0.18575   0.19717   0.20443   0.21062
 Alpha virt. eigenvalues --    0.21778   0.23711   0.24116   0.25995   0.26980
 Alpha virt. eigenvalues --    0.28467   0.28724   0.29057   0.29659   0.30197
 Alpha virt. eigenvalues --    0.30811   0.31015   0.31433   0.31667   0.31931
 Alpha virt. eigenvalues --    0.32693   0.33326   0.34504   0.35193   0.35225
 Alpha virt. eigenvalues --    0.35671   0.36096   0.36874   0.39382   0.40169
 Alpha virt. eigenvalues --    0.40780   0.42078   0.42302   0.43569   0.44736
 Alpha virt. eigenvalues --    0.46291   0.49088   0.52116   0.52887   0.53537
 Alpha virt. eigenvalues --    0.55118   0.59417   0.59468   0.61456   0.65201
 Alpha virt. eigenvalues --    0.69876   0.71448   0.72322   0.72660   0.73191
 Alpha virt. eigenvalues --    0.74095   0.74783   0.76000   0.76041   0.76873
 Alpha virt. eigenvalues --    0.77547   0.77831   0.78401   0.79252   0.81826
 Alpha virt. eigenvalues --    0.82592   0.83283   0.83967   0.86627   0.87237
 Alpha virt. eigenvalues --    0.88504   0.90550   0.91670   0.92577   0.92985
 Alpha virt. eigenvalues --    0.93403   0.93936   0.94802   0.96656   0.98200
 Alpha virt. eigenvalues --    0.98645   0.99520   0.99689   1.00290   1.01543
 Alpha virt. eigenvalues --    1.03381   1.03907   1.05710   1.06245   1.07234
 Alpha virt. eigenvalues --    1.07721   1.09390   1.10269   1.10949   1.12040
 Alpha virt. eigenvalues --    1.12452   1.13030   1.14349   1.14642   1.14788
 Alpha virt. eigenvalues --    1.15229   1.15422   1.15678   1.16572   1.16781
 Alpha virt. eigenvalues --    1.17006   1.18543   1.19382   1.19427   1.20008
 Alpha virt. eigenvalues --    1.20471   1.20963   1.21578   1.22130   1.22466
 Alpha virt. eigenvalues --    1.23011   1.25002   1.25425   1.26218   1.27684
 Alpha virt. eigenvalues --    1.28745   1.31334   1.33900   1.34739   1.35447
 Alpha virt. eigenvalues --    1.37081   1.37698   1.39291   1.40134   1.43502
 Alpha virt. eigenvalues --    1.44792   1.47504   1.49714   1.50547   1.51708
 Alpha virt. eigenvalues --    1.53689   1.55903   1.56097   1.58891   1.61045
 Alpha virt. eigenvalues --    1.61968   1.62299   1.64290   1.65254   1.67286
 Alpha virt. eigenvalues --    1.68808   1.71000   1.72083   1.74009   1.75288
 Alpha virt. eigenvalues --    1.76441   1.77055   1.79825   1.81102   1.85567
 Alpha virt. eigenvalues --    1.90682   1.92523   1.93499   1.94055   1.95979
 Alpha virt. eigenvalues --    1.99825   2.00543   2.02151   2.02519   2.05841
 Alpha virt. eigenvalues --    2.07592   2.08634   2.09368   2.10060   2.11993
 Alpha virt. eigenvalues --    2.13300   2.13813   2.14258   2.14502   2.15065
 Alpha virt. eigenvalues --    2.15643   2.16724   2.17748   2.18893   2.20660
 Alpha virt. eigenvalues --    2.21571   2.22377   2.23002   2.24277   2.25355
 Alpha virt. eigenvalues --    2.27360   2.28326   2.30725   2.31940   2.33937
 Alpha virt. eigenvalues --    2.34684   2.35658   2.36919   2.37103   2.39254
 Alpha virt. eigenvalues --    2.40895   2.41703   2.43728   2.46430   2.47366
 Alpha virt. eigenvalues --    2.49300   2.50430   2.52146   2.53782   2.57218
 Alpha virt. eigenvalues --    2.58782   2.60041   2.60636   2.61569   2.61653
 Alpha virt. eigenvalues --    2.63260   2.63483   2.64687   2.65648   2.66565
 Alpha virt. eigenvalues --    2.68809   2.69597   2.72061   2.74279   2.77232
 Alpha virt. eigenvalues --    2.77820   2.78415   2.79724   2.82108   2.84909
 Alpha virt. eigenvalues --    2.86401   2.90239   2.91985   2.95101   2.95860
 Alpha virt. eigenvalues --    2.98105   3.00531   3.02008   3.04176   3.06538
 Alpha virt. eigenvalues --    3.08278   3.09319   3.10772   3.16195   3.18660
 Alpha virt. eigenvalues --    3.24641   3.26284   3.30964   3.31443   3.34646
 Alpha virt. eigenvalues --    3.35878   3.39647   3.40671   3.52709   3.53999
 Alpha virt. eigenvalues --    3.60629   3.61963   4.39805   4.43677   4.43918
 Alpha virt. eigenvalues --    4.46156   4.49688   4.51122   4.52520   4.63113
 Alpha virt. eigenvalues --    4.64551   4.65739   4.69160   4.71552   4.75336
 Alpha virt. eigenvalues --    4.80695   4.85697   4.87806   4.89090   5.03783
 Alpha virt. eigenvalues --    5.05649   5.10981
          Condensed to atoms (all electrons):
              1          2          3          4          5          6
     1  H    0.459021   0.385625  -0.018818  -0.018799  -0.030792   0.003540
     2  C    0.385625   5.245153   0.374629   0.374830   0.377962  -0.067331
     3  H   -0.018818   0.374629   0.510923  -0.023634  -0.034482   0.001268
     4  H   -0.018799   0.374830  -0.023634   0.512201  -0.035391   0.001181
     5  C   -0.030792   0.377962  -0.034482  -0.035391   4.186468   0.587371
     6  O    0.003540  -0.067331   0.001268   0.001181   0.587371   8.210865
     7  N    0.003864  -0.120028   0.003489   0.003713   0.247154  -0.107595
     8  H   -0.000018  -0.001217   0.000639   0.000479  -0.017304   0.002014
     9  C   -0.000076   0.004553  -0.000242  -0.000091  -0.030003   0.014379
    10  H    0.000002  -0.000013  -0.000004  -0.000002  -0.001758   0.002954
    11  C    0.000006  -0.000507   0.000008   0.000030  -0.003886  -0.015788
    12  H    0.000000  -0.000042   0.000000   0.000002   0.000020  -0.000020
    13  H    0.000000   0.000007   0.000000  -0.000001   0.000277   0.000266
    14  H    0.000001   0.000299  -0.000005  -0.000025   0.000480   0.010883
    15  C    0.000000   0.000007  -0.000010  -0.000006   0.004023   0.000527
    16  O    0.000000  -0.000041  -0.000001  -0.000001   0.000301  -0.000003
    17  N    0.000000   0.000000   0.000000   0.000000  -0.000081  -0.000002
    18  H    0.000000   0.000000   0.000000   0.000000   0.000001   0.000001
    19  C    0.000000   0.000000   0.000000   0.000000   0.000001   0.000000
    20  H    0.000000   0.000000   0.000000   0.000000   0.000000   0.000000
    21  C    0.000000   0.000000   0.000000   0.000000   0.000000   0.000000
    22  H    0.000000   0.000000   0.000000   0.000000   0.000000   0.000000
    23  H    0.000000   0.000000   0.000000   0.000000   0.000000   0.000000
    24  H    0.000000   0.000000   0.000000   0.000000   0.000000   0.000000
    25  C    0.000000   0.000000   0.000000   0.000000   0.000000   0.000000
    26  O    0.000000   0.000000   0.000000   0.000000   0.000000   0.000000
    27  N    0.000000   0.000000   0.000000   0.000000   0.000000   0.000000
    28  H    0.000000   0.000000   0.000000   0.000000   0.000000   0.000000
    29  C    0.000000   0.000000   0.000000   0.000000   0.000000   0.000000
    30  H    0.000000   0.000000   0.000000   0.000000   0.000000   0.000000
    31  C    0.000000   0.000000   0.000000   0.000000   0.000000   0.000000
    32  H    0.000000   0.000000   0.000000   0.000000   0.000000   0.000000
    33  H    0.000000   0.000000   0.000000   0.000000   0.000000   0.000000
    34  H    0.000000   0.000000   0.000000   0.000000   0.000000   0.000000
    35  C    0.000000   0.000000   0.000000   0.000000   0.000000   0.000000
    36  O    0.000000   0.000000   0.000000   0.000000   0.000000   0.000000
    37  N    0.000000   0.000000   0.000000   0.000000   0.000000   0.000000
    38  H    0.000000   0.000000   0.000000   0.000000   0.000000   0.000000
    39  C    0.000000   0.000000   0.000000   0.000000   0.000000   0.000000
    40  H    0.000000   0.000000   0.000000   0.000000   0.000000   0.000000
    41  H    0.000000   0.000000   0.000000   0.000000   0.000000   0.000000
    42  H    0.000000   0.000000   0.000000   0.000000   0.000000   0.000000
              7          8          9         10         11         12
     1  H    0.003864  -0.000018  -0.000076   0.000002   0.000006   0.000000
     2  C   -0.120028  -0.001217   0.004553  -0.000013  -0.000507  -0.000042
     3  H    0.003489   0.000639  -0.000242  -0.000004   0.000008   0.000000
     4  H    0.003713   0.000479  -0.000091  -0.000002   0.000030   0.000002
     5  C    0.247154  -0.017304  -0.030003  -0.001758  -0.003886   0.000020
     6  O   -0.107595   0.002014   0.014379   0.002954  -0.015788  -0.000020
     7  N    7.419442   0.311445   0.196623  -0.041393  -0.063439   0.001666
     8  H    0.311445   0.287959  -0.026805   0.002370   0.002989   0.000239
     9  C    0.196623  -0.026805   5.026018   0.404490   0.335836  -0.042622
    10  H   -0.041393   0.002370   0.404490   0.501131  -0.045546   0.004499
    11  C   -0.063439   0.002989   0.335836  -0.045546   5.209045   0.385881
    12  H    0.001666   0.000239  -0.042622   0.004499   0.385881   0.521393
    13  H    0.004815  -0.000076  -0.041587   0.000315   0.379687  -0.023064
    14  H   -0.005623  -0.000195  -0.026575  -0.004040   0.387147  -0.020429
    15  C   -0.037597  -0.005754   0.382905  -0.038057  -0.065334  -0.002763
    16  O   -0.006133   0.020345  -0.076219   0.001040  -0.000061   0.000617
    17  N    0.002720   0.000715  -0.113402   0.001914   0.002506   0.000132
    18  H    0.000028  -0.000018  -0.000098   0.000602   0.000440  -0.000003
    19  C   -0.000052  -0.000022   0.004573  -0.000311  -0.000066  -0.000115
    20  H   -0.000004  -0.000006   0.000234  -0.000020  -0.000019  -0.000001
    21  C    0.000000   0.000000  -0.000050   0.000005  -0.000012   0.000001
    22  H    0.000000   0.000000  -0.000010   0.000001  -0.000003   0.000000
    23  H    0.000000   0.000000   0.000002   0.000000   0.000000   0.000000
    24  H    0.000000   0.000000  -0.000008   0.000001   0.000000   0.000000
    25  C    0.000001   0.000000  -0.000116   0.000004   0.000029   0.000061
    26  O    0.000000   0.000000  -0.000009   0.000000  -0.000020   0.000007
    27  N    0.000000   0.000000  -0.000010   0.000000   0.000002   0.000000
    28  H    0.000000   0.000000   0.000005   0.000000   0.000000   0.000000
    29  C    0.000000   0.000000   0.000000   0.000000   0.000000   0.000000
    30  H    0.000000   0.000000   0.000000   0.000000   0.000000   0.000000
    31  C    0.000000   0.000000   0.000000   0.000000  -0.000001   0.000002
    32  H    0.000000   0.000000   0.000000   0.000000   0.000000   0.000005
    33  H    0.000000   0.000000   0.000000   0.000000   0.000000   0.000000
    34  H    0.000000   0.000000   0.000000   0.000000   0.000000   0.000004
    35  C    0.000000   0.000000   0.000000   0.000000   0.000000   0.000000
    36  O    0.000000   0.000000   0.000000   0.000000   0.000000   0.000000
    37  N    0.000000   0.000000   0.000000   0.000000   0.000000   0.000000
    38  H    0.000000   0.000000   0.000000   0.000000   0.000000   0.000000
    39  C    0.000000   0.000000   0.000000   0.000000   0.000000   0.000000
    40  H    0.000000   0.000000   0.000000   0.000000   0.000000   0.000000
    41  H    0.000000   0.000000   0.000000   0.000000   0.000000   0.000000
    42  H    0.000000   0.000000   0.000000   0.000000   0.000000   0.000000
             13         14         15         16         17         18
     1  H    0.000000   0.000001   0.000000   0.000000   0.000000   0.000000
     2  C    0.000007   0.000299   0.000007  -0.000041   0.000000   0.000000
     3  H    0.000000  -0.000005  -0.000010  -0.000001   0.000000   0.000000
     4  H   -0.000001  -0.000025  -0.000006  -0.000001   0.000000   0.000000
     5  C    0.000277   0.000480   0.004023   0.000301  -0.000081   0.000001
     6  O    0.000266   0.010883   0.000527  -0.000003  -0.000002   0.000001
     7  N    0.004815  -0.005623  -0.037597  -0.006133   0.002720   0.000028
     8  H   -0.000076  -0.000195  -0.005754   0.020345   0.000715  -0.000018
     9  C   -0.041587  -0.026575   0.382905  -0.076219  -0.113402  -0.000098
    10  H    0.000315  -0.004040  -0.038057   0.001040   0.001914   0.000602
    11  C    0.379687   0.387147  -0.065334  -0.000061   0.002506   0.000440
    12  H   -0.023064  -0.020429  -0.002763   0.000617   0.000132  -0.000003
    13  H    0.554124  -0.019992  -0.007132   0.000025   0.000185   0.002886
    14  H   -0.019992   0.427505   0.004102  -0.000061   0.000062  -0.000087
    15  C   -0.007132   0.004102   4.156306   0.587562   0.269109  -0.018220
    16  O    0.000025  -0.000061   0.587562   8.218291  -0.102583   0.002252
    17  N    0.000185   0.000062   0.269109  -0.102583   7.371682   0.319664
    18  H    0.002886  -0.000087  -0.018220   0.002252   0.319664   0.303087
    19  C    0.000254   0.000006  -0.028008   0.002643   0.207435  -0.022703
    20  H   -0.000003   0.000000  -0.000001   0.006646  -0.037487   0.002208
    21  C   -0.000017   0.000000   0.002889   0.000370  -0.058884  -0.002899
    22  H   -0.000006   0.000000  -0.000059  -0.000009  -0.002365   0.002778
    23  H    0.000000   0.000000  -0.000029   0.000000   0.003999   0.000033
    24  H   -0.000001   0.000000  -0.000156   0.000002   0.000148   0.000275
    25  C   -0.000008  -0.000002  -0.002385   0.002173  -0.067970   0.001271
    26  O    0.000066   0.000000   0.000563   0.000009   0.004200   0.000777
    27  N    0.000000   0.000000   0.001093  -0.000933   0.001396  -0.000048
    28  H    0.000000   0.000000   0.000007   0.000678  -0.000035  -0.000001
    29  C    0.000000   0.000000  -0.000033  -0.000004  -0.000101   0.000002
    30  H    0.000000   0.000000   0.000000   0.000000  -0.000007   0.000000
    31  C    0.000000   0.000000   0.000007  -0.000002   0.000028   0.000000
    32  H    0.000000   0.000000   0.000025   0.000014  -0.000010   0.000000
    33  H    0.000000   0.000000   0.000000   0.000000   0.000000   0.000000
    34  H    0.000000   0.000000  -0.000001   0.000001  -0.000016   0.000000
    35  C    0.000000   0.000000   0.000000  -0.000001  -0.000001   0.000000
    36  O    0.000000   0.000000   0.000000   0.000000   0.000000   0.000000
    37  N    0.000000   0.000000   0.000000   0.000000   0.000000   0.000000
    38  H    0.000000   0.000000   0.000000   0.000000   0.000000   0.000000
    39  C    0.000000   0.000000   0.000000   0.000000   0.000000   0.000000
    40  H    0.000000   0.000000   0.000000   0.000000   0.000000   0.000000
    41  H    0.000000   0.000000   0.000000   0.000000   0.000000   0.000000
    42  H    0.000000   0.000000   0.000000   0.000000   0.000000   0.000000
             19         20         21         22         23         24
     1  H    0.000000   0.000000   0.000000   0.000000   0.000000   0.000000
     2  C    0.000000   0.000000   0.000000   0.000000   0.000000   0.000000
     3  H    0.000000   0.000000   0.000000   0.000000   0.000000   0.000000
     4  H    0.000000   0.000000   0.000000   0.000000   0.000000   0.000000
     5  C    0.000001   0.000000   0.000000   0.000000   0.000000   0.000000
     6  O    0.000000   0.000000   0.000000   0.000000   0.000000   0.000000
     7  N   -0.000052  -0.000004   0.000000   0.000000   0.000000   0.000000
     8  H   -0.000022  -0.000006   0.000000   0.000000   0.000000   0.000000
     9  C    0.004573   0.000234  -0.000050  -0.000010   0.000002  -0.000008
    10  H   -0.000311  -0.000020   0.000005   0.000001   0.000000   0.000001
    11  C   -0.000066  -0.000019  -0.000012  -0.000003   0.000000   0.000000
    12  H   -0.000115  -0.000001   0.000001   0.000000   0.000000   0.000000
    13  H    0.000254  -0.000003  -0.000017  -0.000006   0.000000  -0.000001
    14  H    0.000006   0.000000   0.000000   0.000000   0.000000   0.000000
    15  C   -0.028008  -0.000001   0.002889  -0.000059  -0.000029  -0.000156
    16  O    0.002643   0.006646   0.000370  -0.000009   0.000000   0.000002
    17  N    0.207435  -0.037487  -0.058884  -0.002365   0.003999   0.000148
    18  H   -0.022703   0.002208  -0.002899   0.002778   0.000033   0.000275
    19  C    5.066166   0.411878   0.347314  -0.035276  -0.037262  -0.041918
    20  H    0.411878   0.469970  -0.031239   0.003762  -0.001268  -0.004343
    21  C    0.347314  -0.031239   5.139163   0.386440   0.390823   0.391615
    22  H   -0.035276   0.003762   0.386440   0.495809  -0.019999  -0.025963
    23  H   -0.037262  -0.001268   0.390823  -0.019999   0.501030  -0.021056
    24  H   -0.041918  -0.004343   0.391615  -0.025963  -0.021056   0.513878
    25  C    0.340385  -0.062125  -0.059555  -0.007005  -0.001708   0.006011
    26  O   -0.076608   0.002355   0.000636   0.006048  -0.000269   0.000049
    27  N   -0.090675   0.009250  -0.000848   0.000553   0.001011  -0.000102
    28  H   -0.001694   0.002351   0.000101  -0.000012   0.000021  -0.000009
    29  C    0.005128   0.000112  -0.000243  -0.000008  -0.000033   0.000004
    30  H   -0.000112  -0.000011   0.000053   0.000000  -0.000013   0.000000
    31  C   -0.000622   0.000011  -0.000006   0.000001   0.000002   0.000000
    32  H   -0.000011  -0.000003   0.000001   0.000000   0.000000   0.000000
    33  H    0.000009   0.000000   0.000000   0.000000   0.000000   0.000000
    34  H    0.000258  -0.000013  -0.000003  -0.000002   0.000000   0.000000
    35  C    0.000001  -0.000048  -0.000001   0.000000  -0.000001   0.000000
    36  O   -0.000040  -0.000035   0.000000   0.000000   0.000000   0.000000
    37  N    0.000000   0.000000   0.000000   0.000000   0.000000   0.000000
    38  H    0.000000   0.000000   0.000000   0.000000   0.000000   0.000000
    39  C    0.000000   0.000000   0.000000   0.000000   0.000000   0.000000
    40  H    0.000000   0.000000   0.000000   0.000000   0.000000   0.000000
    41  H    0.000000   0.000000   0.000000   0.000000   0.000000   0.000000
    42  H    0.000000   0.000000   0.000000   0.000000   0.000000   0.000000
             25         26         27         28         29         30
     1  H    0.000000   0.000000   0.000000   0.000000   0.000000   0.000000
     2  C    0.000000   0.000000   0.000000   0.000000   0.000000   0.000000
     3  H    0.000000   0.000000   0.000000   0.000000   0.000000   0.000000
     4  H    0.000000   0.000000   0.000000   0.000000   0.000000   0.000000
     5  C    0.000000   0.000000   0.000000   0.000000   0.000000   0.000000
     6  O    0.000000   0.000000   0.000000   0.000000   0.000000   0.000000
     7  N    0.000001   0.000000   0.000000   0.000000   0.000000   0.000000
     8  H    0.000000   0.000000   0.000000   0.000000   0.000000   0.000000
     9  C   -0.000116  -0.000009  -0.000010   0.000005   0.000000   0.000000
    10  H    0.000004   0.000000   0.000000   0.000000   0.000000   0.000000
    11  C    0.000029  -0.000020   0.000002   0.000000   0.000000   0.000000
    12  H    0.000061   0.000007   0.000000   0.000000   0.000000   0.000000
    13  H   -0.000008   0.000066   0.000000   0.000000   0.000000   0.000000
    14  H   -0.000002   0.000000   0.000000   0.000000   0.000000   0.000000
    15  C   -0.002385   0.000563   0.001093   0.000007  -0.000033   0.000000
    16  O    0.002173   0.000009  -0.000933   0.000678  -0.000004   0.000000
    17  N   -0.067970   0.004200   0.001396  -0.000035  -0.000101  -0.000007
    18  H    0.001271   0.000777  -0.000048  -0.000001   0.000002   0.000000
    19  C    0.340385  -0.076608  -0.090675  -0.001694   0.005128  -0.000112
    20  H   -0.062125   0.002355   0.009250   0.002351   0.000112  -0.000011
    21  C   -0.059555   0.000636  -0.000848   0.000101  -0.000243   0.000053
    22  H   -0.007005   0.006048   0.000553  -0.000012  -0.000008   0.000000
    23  H   -0.001708  -0.000269   0.001011   0.000021  -0.000033  -0.000013
    24  H    0.006011   0.000049  -0.000102  -0.000009   0.000004   0.000000
    25  C    4.248755   0.564498   0.271101  -0.012502  -0.036712  -0.001439
    26  O    0.564498   8.259775  -0.106896   0.001885   0.012921   0.002902
    27  N    0.271101  -0.106896   7.385977   0.303959   0.195908  -0.041372
    28  H   -0.012502   0.001885   0.303959   0.274596  -0.026923   0.002241
    29  C   -0.036712   0.012921   0.195908  -0.026923   5.051722   0.404027
    30  H   -0.001439   0.002902  -0.041372   0.002241   0.404027   0.502393
    31  C   -0.003571  -0.015013  -0.062221   0.002954   0.333909  -0.045583
    32  H   -0.000029  -0.000012   0.001340   0.000226  -0.041739   0.004410
    33  H    0.000252   0.000253   0.004883  -0.000073  -0.042251   0.000175
    34  H    0.000430   0.009962  -0.005378  -0.000189  -0.027254  -0.003990
    35  C    0.003802   0.000449  -0.035949  -0.005207   0.375380  -0.037234
    36  O    0.000293  -0.000003  -0.005848   0.021545  -0.079270   0.001013
    37  N   -0.000102  -0.000002   0.002780   0.000731  -0.117176   0.002193
    38  H    0.000002   0.000001   0.000017  -0.000022   0.001189   0.000478
    39  C    0.000001   0.000000  -0.000049  -0.000010   0.003669  -0.000216
    40  H    0.000000   0.000000  -0.000004  -0.000010   0.000589  -0.000017
    41  H    0.000000   0.000000   0.000000   0.000000  -0.000109   0.000010
    42  H    0.000000   0.000000   0.000001   0.000000  -0.000005  -0.000002
             31         32         33         34         35         36
     1  H    0.000000   0.000000   0.000000   0.000000   0.000000   0.000000
     2  C    0.000000   0.000000   0.000000   0.000000   0.000000   0.000000
     3  H    0.000000   0.000000   0.000000   0.000000   0.000000   0.000000
     4  H    0.000000   0.000000   0.000000   0.000000   0.000000   0.000000
     5  C    0.000000   0.000000   0.000000   0.000000   0.000000   0.000000
     6  O    0.000000   0.000000   0.000000   0.000000   0.000000   0.000000
     7  N    0.000000   0.000000   0.000000   0.000000   0.000000   0.000000
     8  H    0.000000   0.000000   0.000000   0.000000   0.000000   0.000000
     9  C    0.000000   0.000000   0.000000   0.000000   0.000000   0.000000
    10  H    0.000000   0.000000   0.000000   0.000000   0.000000   0.000000
    11  C   -0.000001   0.000000   0.000000   0.000000   0.000000   0.000000
    12  H    0.000002   0.000005   0.000000   0.000004   0.000000   0.000000
    13  H    0.000000   0.000000   0.000000   0.000000   0.000000   0.000000
    14  H    0.000000   0.000000   0.000000   0.000000   0.000000   0.000000
    15  C    0.000007   0.000025   0.000000  -0.000001   0.000000   0.000000
    16  O   -0.000002   0.000014   0.000000   0.000001  -0.000001   0.000000
    17  N    0.000028  -0.000010   0.000000  -0.000016  -0.000001   0.000000
    18  H    0.000000   0.000000   0.000000   0.000000   0.000000   0.000000
    19  C   -0.000622  -0.000011   0.000009   0.000258   0.000001  -0.000040
    20  H    0.000011  -0.000003   0.000000  -0.000013  -0.000048  -0.000035
    21  C   -0.000006   0.000001   0.000000  -0.000003  -0.000001   0.000000
    22  H    0.000001   0.000000   0.000000  -0.000002   0.000000   0.000000
    23  H    0.000002   0.000000   0.000000   0.000000  -0.000001   0.000000
    24  H    0.000000   0.000000   0.000000   0.000000   0.000000   0.000000
    25  C   -0.003571  -0.000029   0.000252   0.000430   0.003802   0.000293
    26  O   -0.015013  -0.000012   0.000253   0.009962   0.000449  -0.000003
    27  N   -0.062221   0.001340   0.004883  -0.005378  -0.035949  -0.005848
    28  H    0.002954   0.000226  -0.000073  -0.000189  -0.005207   0.021545
    29  C    0.333909  -0.041739  -0.042251  -0.027254   0.375380  -0.079270
    30  H   -0.045583   0.004410   0.000175  -0.003990  -0.037234   0.001013
    31  C    5.205504   0.386671   0.378759   0.388262  -0.062157  -0.000017
    32  H    0.386671   0.513008  -0.023741  -0.020110  -0.002653   0.000625
    33  H    0.378759  -0.023741   0.567674  -0.020644  -0.007011   0.000024
    34  H    0.388262  -0.020110  -0.020644   0.430476   0.003931  -0.000064
    35  C   -0.062157  -0.002653  -0.007011   0.003931   4.144245   0.596106
    36  O   -0.000017   0.000625   0.000024  -0.000064   0.596106   8.210058
    37  N    0.002448   0.000154   0.000382   0.000087   0.286591  -0.099074
    38  H   -0.000028  -0.000001   0.002595  -0.000082  -0.020606   0.002374
    39  C   -0.000080  -0.000041   0.000164   0.000003  -0.025553  -0.004865
    40  H   -0.000049  -0.000001  -0.000008   0.000000  -0.001934   0.009957
    41  H   -0.000004   0.000001   0.000002   0.000000   0.000785   0.000366
    42  H    0.000012   0.000002  -0.000002  -0.000001   0.000944   0.000375
             37         38         39         40         41         42
     1  H    0.000000   0.000000   0.000000   0.000000   0.000000   0.000000
     2  C    0.000000   0.000000   0.000000   0.000000   0.000000   0.000000
     3  H    0.000000   0.000000   0.000000   0.000000   0.000000   0.000000
     4  H    0.000000   0.000000   0.000000   0.000000   0.000000   0.000000
     5  C    0.000000   0.000000   0.000000   0.000000   0.000000   0.000000
     6  O    0.000000   0.000000   0.000000   0.000000   0.000000   0.000000
     7  N    0.000000   0.000000   0.000000   0.000000   0.000000   0.000000
     8  H    0.000000   0.000000   0.000000   0.000000   0.000000   0.000000
     9  C    0.000000   0.000000   0.000000   0.000000   0.000000   0.000000
    10  H    0.000000   0.000000   0.000000   0.000000   0.000000   0.000000
    11  C    0.000000   0.000000   0.000000   0.000000   0.000000   0.000000
    12  H    0.000000   0.000000   0.000000   0.000000   0.000000   0.000000
    13  H    0.000000   0.000000   0.000000   0.000000   0.000000   0.000000
    14  H    0.000000   0.000000   0.000000   0.000000   0.000000   0.000000
    15  C    0.000000   0.000000   0.000000   0.000000   0.000000   0.000000
    16  O    0.000000   0.000000   0.000000   0.000000   0.000000   0.000000
    17  N    0.000000   0.000000   0.000000   0.000000   0.000000   0.000000
    18  H    0.000000   0.000000   0.000000   0.000000   0.000000   0.000000
    19  C    0.000000   0.000000   0.000000   0.000000   0.000000   0.000000
    20  H    0.000000   0.000000   0.000000   0.000000   0.000000   0.000000
    21  C    0.000000   0.000000   0.000000   0.000000   0.000000   0.000000
    22  H    0.000000   0.000000   0.000000   0.000000   0.000000   0.000000
    23  H    0.000000   0.000000   0.000000   0.000000   0.000000   0.000000
    24  H    0.000000   0.000000   0.000000   0.000000   0.000000   0.000000
    25  C   -0.000102   0.000002   0.000001   0.000000   0.000000   0.000000
    26  O   -0.000002   0.000001   0.000000   0.000000   0.000000   0.000000
    27  N    0.002780   0.000017  -0.000049  -0.000004   0.000000   0.000001
    28  H    0.000731  -0.000022  -0.000010  -0.000010   0.000000   0.000000
    29  C   -0.117176   0.001189   0.003669   0.000589  -0.000109  -0.000005
    30  H    0.002193   0.000478  -0.000216  -0.000017   0.000010  -0.000002
    31  C    0.002448  -0.000028  -0.000080  -0.000049  -0.000004   0.000012
    32  H    0.000154  -0.000001  -0.000041  -0.000001   0.000001   0.000002
    33  H    0.000382   0.002595   0.000164  -0.000008   0.000002  -0.000002
    34  H    0.000087  -0.000082   0.000003   0.000000   0.000000  -0.000001
    35  C    0.286591  -0.020606  -0.025553  -0.001934   0.000785   0.000944
    36  O   -0.099074   0.002374  -0.004865   0.009957   0.000366   0.000375
    37  N    7.335564   0.322484   0.185865  -0.031684  -0.047171  -0.048049
[...]
    29  C    0.000000   0.000000  -0.000044  -0.000003  -0.000176  -0.000001
    30  H    0.000000   0.000000   0.000000   0.000000  -0.000011  -0.000002
    31  C   -0.000002   0.000000   0.000015  -0.000001   0.000035   0.000001
    32  H    0.000000   0.000000   0.000010   0.000004  -0.000004   0.000000
    33  H    0.000000   0.000000   0.000000   0.000000   0.000000   0.000000
    34  H    0.000037   0.000000   0.000004   0.000001  -0.000012  -0.000002
    35  C    0.000000   0.000000   0.000000   0.000000  -0.000001   0.000000
    36  O    0.000000   0.000000   0.000000   0.000000   0.000000   0.000000
    37  N    0.000000   0.000000   0.000000   0.000000   0.000000   0.000000
    38  H    0.000000   0.000000   0.000000   0.000000   0.000000   0.000000
    39  C    0.000000   0.000000   0.000000   0.000000   0.000000   0.000000
    40  H    0.000000   0.000000   0.000000   0.000000   0.000000   0.000000
    41  H    0.000000   0.000000   0.000000   0.000000   0.000000   0.000000
    42  H    0.000000   0.000000   0.000000   0.000000   0.000000   0.000000
             19         20         21         22         23         24
     1  H    0.000000   0.000000   0.000000   0.000000   0.000000   0.000000
     2  C    0.000000   0.000000   0.000000   0.000000   0.000000   0.000000
     3  H    0.000000   0.000000   0.000000   0.000000   0.000000   0.000000
     4  H    0.000000   0.000000   0.000000   0.000000   0.000000   0.000000
     5  C    0.000001   0.000000   0.000000   0.000000   0.000000   0.000000
     6  O    0.000000   0.000000   0.000000   0.000000   0.000000   0.000000
     7  N   -0.000089  -0.000001   0.000001   0.000000   0.000000   0.000000
     8  H   -0.000023  -0.000008   0.000000   0.000000   0.000000   0.000000
     9  C    0.005256   0.000350  -0.000099  -0.000008   0.000002  -0.000007
    10  H   -0.000029  -0.000023  -0.000012   0.000001   0.000000   0.000001
    11  C   -0.000507  -0.000029   0.000002  -0.000001   0.000000   0.000001
    12  H   -0.000002  -0.000002   0.000000   0.000000   0.000000   0.000000
    13  H   -0.000147   0.000000   0.000003  -0.000001   0.000000   0.000000
    14  H    0.000006   0.000000   0.000000   0.000000   0.000000   0.000000
    15  C   -0.027399  -0.001415   0.002304  -0.000096  -0.000024  -0.000044
    16  O    0.001096   0.008433   0.000201  -0.000008   0.000001   0.000008
    17  N    0.202450  -0.037764  -0.063916  -0.002644   0.004167   0.000181
    18  H   -0.024148   0.003094  -0.001989   0.002696  -0.000028  -0.000068
    19  C    5.073436   0.407668   0.352182  -0.033900  -0.037640  -0.038532
    20  H    0.407668   0.457162  -0.028859   0.003409  -0.001338  -0.003692
    21  C    0.352182  -0.028859   5.118977   0.388972   0.389925   0.392546
    22  H   -0.033900   0.003409   0.388972   0.499697  -0.023114  -0.025355
    23  H   -0.037640  -0.001338   0.389925  -0.023114   0.511724  -0.022285
    24  H   -0.038532  -0.003692   0.392546  -0.025355  -0.022285   0.505856
    25  C    0.356458  -0.051765  -0.057977  -0.005914  -0.000969   0.005186
    26  O   -0.079463   0.002407   0.000758   0.005319  -0.000094   0.000008
    27  N   -0.094021   0.007814   0.000250   0.000441   0.000690  -0.000100
    28  H   -0.001119   0.001892   0.000087  -0.000007   0.000001  -0.000006
    29  C    0.005341  -0.000017  -0.000208  -0.000005  -0.000022   0.000003
    30  H    0.000198  -0.000020   0.000022  -0.000002  -0.000006   0.000000
    31  C   -0.000434   0.000016  -0.000003   0.000000   0.000001   0.000000
    32  H    0.000000  -0.000002   0.000000   0.000000   0.000000   0.000000
    33  H    0.000005   0.000000   0.000000   0.000000   0.000000   0.000000
    34  H    0.000094  -0.000008   0.000000   0.000000   0.000000   0.000000
    35  C   -0.000017  -0.000032   0.000001   0.000000  -0.000002   0.000000
    36  O   -0.000041  -0.000028   0.000000   0.000000   0.000000   0.000000
    37  N    0.000000   0.000000   0.000000   0.000000   0.000000   0.000000
    38  H    0.000000   0.000000   0.000000   0.000000   0.000000   0.000000
    39  C    0.000000   0.000000   0.000000   0.000000   0.000000   0.000000
    40  H    0.000000   0.000000   0.000000   0.000000   0.000000   0.000000
    41  H    0.000000   0.000000   0.000000   0.000000   0.000000   0.000000
    42  H    0.000000   0.000000   0.000000   0.000000   0.000000   0.000000
             25         26         27         28         29         30
     1  H    0.000000   0.000000   0.000000   0.000000   0.000000   0.000000
     2  C    0.000000   0.000000   0.000000   0.000000   0.000000   0.000000
     3  H    0.000000   0.000000   0.000000   0.000000   0.000000   0.000000
     4  H    0.000000   0.000000   0.000000   0.000000   0.000000   0.000000
     5  C    0.000000   0.000000   0.000000   0.000000   0.000000   0.000000
     6  O    0.000000   0.000000   0.000000   0.000000   0.000000   0.000000
     7  N   -0.000001   0.000000   0.000000   0.000000   0.000000   0.000000
     8  H    0.000000   0.000000   0.000000   0.000000   0.000000   0.000000
     9  C   -0.000275  -0.000042  -0.000011   0.000006   0.000000   0.000000
    10  H    0.000004  -0.000001   0.000000   0.000000   0.000000   0.000000
    11  C    0.000141  -0.000058   0.000000  -0.000001   0.000000   0.000000
    12  H    0.000017  -0.000002   0.000001   0.000000  -0.000001   0.000000
    13  H    0.000148   0.000331  -0.000007   0.000000   0.000000   0.000000
    14  H   -0.000002   0.000000   0.000000   0.000000   0.000000   0.000000
    15  C   -0.001850   0.000406   0.001196   0.000066  -0.000044   0.000000
    16  O    0.001683   0.000013  -0.000759   0.000594  -0.000003   0.000000
    17  N   -0.068809   0.000866   0.001942  -0.000143  -0.000176  -0.000011
    18  H   -0.000496   0.004447   0.000160  -0.000006  -0.000001  -0.000002
    19  C    0.356458  -0.079463  -0.094021  -0.001119   0.005341   0.000198
    20  H   -0.051765   0.002407   0.007814   0.001892  -0.000017  -0.000020
    21  C   -0.057977   0.000758   0.000250   0.000087  -0.000208   0.000022
    22  H   -0.005914   0.005319   0.000441  -0.000007  -0.000005  -0.000002
    23  H   -0.000969  -0.000094   0.000690   0.000001  -0.000022  -0.000006
    24  H    0.005186   0.000008  -0.000100  -0.000006   0.000003   0.000000
    25  C    4.212709   0.579878   0.273797  -0.011955  -0.033634  -0.001095
    26  O    0.579878   8.222305  -0.106696   0.001845   0.009365   0.006090
    27  N    0.273797  -0.106696   7.392935   0.305647   0.196657  -0.042170
    28  H   -0.011955   0.001845   0.305647   0.277510  -0.025873   0.002801
    29  C   -0.033634   0.009365   0.196657  -0.025873   5.060135   0.410659
    30  H   -0.001095   0.006090  -0.042170   0.002801   0.410659   0.484975
    31  C   -0.002264  -0.003646  -0.064522   0.002313   0.337770  -0.039590
    32  H    0.000099  -0.000005  -0.000245   0.000729  -0.037860   0.003887
    33  H    0.000046  -0.000005   0.004672  -0.000061  -0.037688  -0.000070
    34  H    0.002069   0.004380  -0.005315  -0.000204  -0.030079  -0.003611
    35  C    0.003748   0.000415  -0.042691  -0.007034   0.373434  -0.043038
    36  O    0.000343  -0.000004  -0.007493   0.021342  -0.077626   0.001850
    37  N   -0.000127  -0.000002   0.002423   0.000937  -0.115658   0.004222
    38  H   -0.000006  -0.000001  -0.000011  -0.000028   0.000635   0.001430
    39  C    0.000002   0.000000  -0.000085  -0.000027   0.004478  -0.000088
    40  H    0.000000   0.000000   0.000008   0.000001  -0.000173  -0.000004
    41  H    0.000000   0.000000   0.000000   0.000000   0.000002  -0.000012
    42  H    0.000000   0.000000  -0.000005  -0.000003   0.000147  -0.000001
             31         32         33         34         35         36
     1  H    0.000000   0.000000   0.000000   0.000000   0.000000   0.000000
     2  C    0.000000   0.000000   0.000000   0.000000   0.000000   0.000000
     3  H    0.000000   0.000000   0.000000   0.000000   0.000000   0.000000
     4  H    0.000000   0.000000   0.000000   0.000000   0.000000   0.000000
     5  C    0.000000   0.000000   0.000000   0.000000   0.000000   0.000000
     6  O    0.000000   0.000000   0.000000   0.000000   0.000000   0.000000
     7  N    0.000000   0.000000   0.000000   0.000000   0.000000   0.000000
     8  H    0.000000   0.000000   0.000000   0.000000   0.000000   0.000000
     9  C    0.000000   0.000000   0.000000  -0.000002   0.000000   0.000000
    10  H    0.000000   0.000000   0.000000   0.000000   0.000000   0.000000
    11  C   -0.000007   0.000000   0.000000   0.000022   0.000000   0.000000
    12  H    0.000009   0.000007   0.000000   0.000031   0.000000   0.000000
    13  H   -0.000002   0.000000   0.000000   0.000037   0.000000   0.000000
    14  H    0.000000   0.000000   0.000000   0.000000   0.000000   0.000000
    15  C    0.000015   0.000010   0.000000   0.000004   0.000000   0.000000
    16  O   -0.000001   0.000004   0.000000   0.000001   0.000000   0.000000
    17  N    0.000035  -0.000004   0.000000  -0.000012  -0.000001   0.000000
    18  H    0.000001   0.000000   0.000000  -0.000002   0.000000   0.000000
    19  C   -0.000434   0.000000   0.000005   0.000094  -0.000017  -0.000041
    20  H    0.000016  -0.000002   0.000000  -0.000008  -0.000032  -0.000028
    21  C   -0.000003   0.000000   0.000000   0.000000   0.000001   0.000000
    22  H    0.000000   0.000000   0.000000   0.000000   0.000000   0.000000
    23  H    0.000001   0.000000   0.000000   0.000000  -0.000002   0.000000
    24  H    0.000000   0.000000   0.000000   0.000000   0.000000   0.000000
    25  C   -0.002264   0.000099   0.000046   0.002069   0.003748   0.000343
    26  O   -0.003646  -0.000005  -0.000005   0.004380   0.000415  -0.000004
    27  N   -0.064522  -0.000245   0.004672  -0.005315  -0.042691  -0.007493
    28  H    0.002313   0.000729  -0.000061  -0.000204  -0.007034   0.021342
    29  C    0.337770  -0.037860  -0.037688  -0.030079   0.373434  -0.077626
    30  H   -0.039590   0.003887  -0.000070  -0.003611  -0.043038   0.001850
    31  C    5.147112   0.389660   0.381818   0.391555  -0.053297  -0.000896
    32  H    0.389660   0.506578  -0.024102  -0.022923  -0.003936   0.001709
    33  H    0.381818  -0.024102   0.536700  -0.023126  -0.002745   0.000021
    34  H    0.391555  -0.022923  -0.023126   0.476162   0.004184  -0.000070
    35  C   -0.053297  -0.003936  -0.002745   0.004184   4.163927   0.599634
    36  O   -0.000896   0.001709   0.000021  -0.000070   0.599634   8.175764
    37  N    0.001069   0.000403   0.002381  -0.000061   0.281862  -0.103881
    38  H    0.000351   0.000004   0.000389  -0.000032  -0.021990   0.002509
    39  C   -0.000269  -0.000007  -0.000020   0.000003  -0.028982   0.008286
    40  H   -0.000006   0.000000   0.000003   0.000000  -0.003737   0.001161
    41  H    0.000005   0.000000  -0.000007   0.000000   0.004548   0.000350
    42  H    0.000008   0.000003  -0.000013   0.000000  -0.002928   0.003253
             37         38         39         40         41         42
     1  H    0.000000   0.000000   0.000000   0.000000   0.000000   0.000000
     2  C    0.000000   0.000000   0.000000   0.000000   0.000000   0.000000
     3  H    0.000000   0.000000   0.000000   0.000000   0.000000   0.000000
     4  H    0.000000   0.000000   0.000000   0.000000   0.000000   0.000000
     5  C    0.000000   0.000000   0.000000   0.000000   0.000000   0.000000
     6  O    0.000000   0.000000   0.000000   0.000000   0.000000   0.000000
     7  N    0.000000   0.000000   0.000000   0.000000   0.000000   0.000000
     8  H    0.000000   0.000000   0.000000   0.000000   0.000000   0.000000
     9  C    0.000000   0.000000   0.000000   0.000000   0.000000   0.000000
    10  H    0.000000   0.000000   0.000000   0.000000   0.000000   0.000000
    11  C    0.000000   0.000000   0.000000   0.000000   0.000000   0.000000
    12  H    0.000000   0.000000   0.000000   0.000000   0.000000   0.000000
    13  H    0.000000   0.000000   0.000000   0.000000   0.000000   0.000000
    14  H    0.000000   0.000000   0.000000   0.000000   0.000000   0.000000
    15  C    0.000000   0.000000   0.000000   0.000000   0.000000   0.000000
    16  O    0.000000   0.000000   0.000000   0.000000   0.000000   0.000000
    17  N    0.000000   0.000000   0.000000   0.000000   0.000000   0.000000
    18  H    0.000000   0.000000   0.000000   0.000000   0.000000   0.000000
    19  C    0.000000   0.000000   0.000000   0.000000   0.000000   0.000000
    20  H    0.000000   0.000000   0.000000   0.000000   0.000000   0.000000
    21  C    0.000000   0.000000   0.000000   0.000000   0.000000   0.000000
    22  H    0.000000   0.000000   0.000000   0.000000   0.000000   0.000000
    23  H    0.000000   0.000000   0.000000   0.000000   0.000000   0.000000
    24  H    0.000000   0.000000   0.000000   0.000000   0.000000   0.000000
    25  C   -0.000127  -0.000006   0.000002   0.000000   0.000000   0.000000
    26  O   -0.000002  -0.000001   0.000000   0.000000   0.000000   0.000000
    27  N    0.002423  -0.000011  -0.000085   0.000008   0.000000  -0.000005
    28  H    0.000937  -0.000028  -0.000027   0.000001   0.000000  -0.000003
    29  C   -0.115658   0.000635   0.004478  -0.000173   0.000002   0.000147
    30  H    0.004222   0.001430  -0.000088  -0.000004  -0.000012  -0.000001
    31  C    0.001069   0.000351  -0.000269  -0.000006   0.000005   0.000008
    32  H    0.000403   0.000004  -0.000007   0.000000   0.000000   0.000003
    33  H    0.002381   0.000389  -0.000020   0.000003  -0.000007  -0.000013
    34  H   -0.000061  -0.000032   0.000003   0.000000   0.000000   0.000000
    35  C    0.281862  -0.021990  -0.028982  -0.003737   0.004548  -0.002928
    36  O   -0.103881   0.002509   0.008286   0.001161   0.000350   0.003253
    37  N    7.326960   0.328463   0.194331  -0.045543  -0.037272  -0.040415
    38  H    0.328463   0.321540  -0.022207   0.001342  -0.004560   0.002507
    39  C    0.194331  -0.022207   4.909759   0.406324   0.397399   0.404312
    40  H   -0.045543   0.001342   0.406324   0.519853  -0.031108  -0.032591
    41  H   -0.037272  -0.004560   0.397399  -0.031108   0.523041  -0.024667
    42  H   -0.040415   0.002507   0.404312  -0.032591  -0.024667   0.485771
 Mulliken atomic charges:
              1
     1  H    0.207661
     2  C   -0.575527
     3  H    0.173008
     4  H    0.202597
     5  C    0.756815
     6  O   -0.622285
     7  N   -0.824015
     8  H    0.418170
     9  C   -0.033134
    10  H    0.222009
    11  C   -0.494494
    12  H    0.176127
    13  H    0.169048
    14  H    0.213096
    15  C    0.785972
    16  O   -0.633709
    17  N   -0.800764
    18  H    0.400362
    19  C   -0.066681
    20  H    0.232756
    21  C   -0.493169
    22  H    0.190519
    23  H    0.179010
    24  H    0.186299
    25  C    0.800808
    26  O   -0.648816
    27  N   -0.824503
    28  H    0.430693
    29  C   -0.039555
    30  H    0.213583
    31  C   -0.486803
    32  H    0.185991
    33  H    0.161801
    34  H    0.206904
    35  C    0.778675
    36  O   -0.626183
    37  N   -0.800093
    38  H    0.389665
    39  C   -0.273210
    40  H    0.184468
    41  H    0.172279
    42  H    0.204621
 Sum of Mulliken atomic charges =   0.00000
 Mulliken charges with hydrogens summed into heavy atoms:
              1
     2  C    0.007740
     5  C    0.756815
     6  O   -0.622285
     7  N   -0.405845
     9  C    0.188876
    11  C    0.063777
    15  C    0.785972
    16  O   -0.633709
    17  N   -0.400402
    19  C    0.166075
    21  C    0.062660
    25  C    0.800808
    26  O   -0.648816
    27  N   -0.393810
    29  C    0.174028
    31  C    0.067894
    35  C    0.778675
    36  O   -0.626183
    37  N   -0.410428
    39  C    0.288159
 Sum of Mulliken charges with hydrogens summed into heavy atoms =   0.00000
 Electronic spatial extent (au):  <R**2>=           9353.6587
 Charge=              0.0000 electrons
 Dipole moment (field-independent basis, Debye):
    X=              4.9275    Y=             -0.3737    Z=              0.3800  Tot=              4.9562
 Quadrupole moment (field-independent basis, Debye-Ang):
   XX=           -111.4767   YY=           -115.0207   ZZ=           -126.4489
   XY=              3.4291   XZ=             18.7022   YZ=             -7.1428
 Traceless Quadrupole moment (field-independent basis, Debye-Ang):
   XX=              6.1720   YY=              2.6281   ZZ=             -8.8001
   XY=              3.4291   XZ=             18.7022   YZ=             -7.1428
 Octapole moment (field-independent basis, Debye-Ang**2):
  XXX=            343.2788  YYY=              0.3075  ZZZ=              0.4860  XYY=            -25.6266
  XXY=            -68.2080  XXZ=            -23.2821  XZZ=             -6.1178  YZZ=             -2.6313
  YYZ=            -10.2600  XYZ=            -25.8944
 Hexadecapole moment (field-independent basis, Debye-Ang**3):
 XXXX=          -9434.1423 YYYY=          -1470.2979 ZZZZ=           -813.1211 XXXY=             85.5815
 XXXZ=            689.0291 YYYX=              7.2125 YYYZ=              5.3406 ZZZX=             18.8463
 ZZZY=             -9.5998 XXYY=          -1766.0125 XXZZ=          -1787.0913 YYZZ=           -394.8691
 XXYZ=             14.3556 YYXZ=            -15.6320 ZZXY=              5.7282
 N-N= 1.613546325073D+03 E-N=-5.535059858270D+03  KE= 9.831099031606D+02
 1\1\GINC-NODE003\FOpt\RHF\6-31G(d)\C12H22N4O4\MANAGER\27-Dec-2016\0\\#
  HF/6-31G* Opt=(ModRedundant, maxcycles=1000, calcfc) geom=nocrowd\\Ph
 i Psi fixed scan\\0,1\H,4.2639437798,1.1391550412,-3.0911639253\C,5.14
 85422551,1.7398418794,-3.256346463\H,4.9765146742,2.4194716036,-4.0820
 554431\H,5.9601604553,1.0697521152,-3.5181867514\C,5.5032852076,2.4441
 44655,-1.9646824975\O,5.4956995759,1.8667737818,-0.9086158684\N,5.8445
 331722,3.7436454853,-2.0785514355\H,5.8260713594,4.2079289735,-2.95849
 58248\C,6.2092114054,4.5456489546,-0.9368773998\H,5.5622233378,4.27834
 13977,-0.1113743333\C,7.6708953359,4.3294191232,-0.5186883665\H,8.3371
 158769,4.5910530299,-1.3337024084\H,7.9319911703,4.9316659055,0.345732
 6111\H,7.8159456887,3.2873146142,-0.2669896009\C,5.9852958365,6.006347
 5574,-1.3116058501\O,5.9905396459,6.3699906139,-2.4594013561\N,5.79611
 58623,6.8462854162,-0.2707983226\H,5.9656119646,6.5029736244,0.6490149
 3\C,5.8046350811,8.2882343541,-0.4287417043\H,5.457095462,8.4931495277
 ,-1.4293540437\C,4.8763192875,8.9420076303,0.5907911268\H,5.2086109516
 ,8.7312824512,1.600343044\H,4.8667827933,10.0187545545,0.4587545476\H,
 3.8667005692,8.5696671859,0.4640718505\C,7.2338155996,8.7983708007,-0.
 2382361514\O,7.8120914526,8.6120163824,0.8042091957\N,7.7754486073,9.4
 460760205,-1.2788918261\H,7.291353893,9.5182008156,-2.1469710264\C,9.1
 179865549,9.9770012939,-1.2461647066\H,9.2874195389,10.3948375063,-0.2
 620974255\C,10.1739137256,8.8981958188,-1.5221553834\H,10.0218321539,8
 .4665615542,-2.5051627614\H,11.1766221423,9.3104353833,-1.4774831695\H
 ,10.0902655167,8.1171428316,-0.7779190546\C,9.1982056666,11.0766402954
 ,-2.3011629155\O,8.4654512429,11.0828037488,-3.2554405062\N,10.1644199
 604,11.993416949,-2.1145475744\H,10.6695066735,11.9950426372,-1.259120
 0957\C,10.3704496066,13.0827982609,-3.0470801499\H,9.5725334683,13.814
 0972061,-2.9888536948\H,11.3096169556,13.5655275214,-2.8131671165\H,10
 .4119264927,12.7008854984,-4.0568321529\\Version=EM64L-G09RevA.02\Stat
 e=1-A\HF=-984.5662706\RMSD=9.127e-09\RMSF=1.738e-04\Dipole=0.9915699,1
 .6765559,-0.0901365\Quadrupole=9.3830574,-1.8274348,-7.5556225,7.03195
 36,-0.6747676,11.7363526\PG=C01 [X(C12H22N4O4)]\\@


 I LOVE MANKIND - IT'S PEOPLE I CAN'T STAND.
     -- LINUS OF PEANUTS
 Job cpu time:  0 days  5 hours  7 minutes  7.1 seconds.
 File lengths (MBytes):  RWF=    553 Int=      0 D2E=      0 Chk=     11 Scr=      1
 Normal termination of Gaussian 09 at Tue Dec 27 06:00:44 2016.
