 Entering Gaussian System, Link 0=g09
 Initial command:
 /home/steboss/Software/g09/l1.exe /home/steboss/projects/phi_psi_scan/alanine/MP2/30/5538/Gau-16152.inp -scrdir=/home/steboss/projects/phi_psi_scan/alanine/MP2/30/5538/
 Entering Link 1 = /home/steboss/Software/g09/l1.exe PID=     16154.
  
 Copyright (c) 1988,1990,1992,1993,1995,1998,2003,2009, Gaussian, Inc.
                  All Rights Reserved.
  
 This is part of the Gaussian(R) 09 program.  It is based on
 the Gaussian(R) 03 system (copyright 2003, Gaussian, Inc.),
 the Gaussian(R) 98 system (copyright 1998, Gaussian, Inc.),
 the Gaussian(R) 94 system (copyright 1995, Gaussian, Inc.),
 the Gaussian 92(TM) system (copyright 1992, Gaussian, Inc.),
 the Gaussian 90(TM) system (copyright 1990, Gaussian, Inc.),
 the Gaussian 88(TM) system (copyright 1988, Gaussian, Inc.),
 the Gaussian 86(TM) system (copyright 1986, Carnegie Mellon
 University), and the Gaussian 82(TM) system (copyright 1983,
 Carnegie Mellon University). Gaussian is a federally registered
 trademark of Gaussian, Inc.
  
 This software contains proprietary and confidential information,
 including trade secrets, belonging to Gaussian, Inc.
  
 This software is provided under written license and may be
 used, copied, transmitted, or stored only in accord with that
 written license.
  
 The following legend is applicable only to US Government
 contracts under FAR:
  
                    RESTRICTED RIGHTS LEGEND
  
 Use, reproduction and disclosure by the US Government is
 subject to restrictions as set forth in subparagraphs (a)
 and (c) of the Commercial Computer Software - Restricted
 Rights clause in FAR 52.227-19.
  
 Gaussian, Inc.
 340 Quinnipiac St., Bldg. 40, Wallingford CT 06492
  
  
 ---------------------------------------------------------------
 Warning -- This program may not be used in any manner that
 competes with the business of Gaussian, Inc. or will provide
 assistance to any competitor of Gaussian, Inc.  The licensee
 of this program is prohibited from giving any competitor of
 Gaussian, Inc. access to this program.  By using this program,
 the user acknowledges that Gaussian, Inc. is engaged in the
 business of creating and licensing software in the field of
 computational chemistry and represents and warrants to the
 licensee that it is not a competitor of Gaussian, Inc. and that
 it will not use this program in any manner prohibited above.
 ---------------------------------------------------------------
  

 Cite this work as:
 Gaussian 09, Revision A.02,
 M. J. Frisch, G. W. Trucks, H. B. Schlegel, G. E. Scuseria, 
 M. A. Robb, J. R. Cheeseman, G. Scalmani, V. Barone, B. Mennucci, 
 G. A. Petersson, H. Nakatsuji, M. Caricato, X. Li, H. P. Hratchian, 
 A. F. Izmaylov, J. Bloino, G. Zheng, J. L. Sonnenberg, M. Hada, 
 M. Ehara, K. Toyota, R. Fukuda, J. Hasegawa, M. Ishida, T. Nakajima, 
 Y. Honda, O. Kitao, H. Nakai, T. Vreven, J. A. Montgomery, Jr., 
 J. E. Peralta, F. Ogliaro, M. Bearpark, J. J. Heyd, E. Brothers, 
 K. N. Kudin, V. N. Staroverov, R. Kobayashi, J. Normand, 
 K. Raghavachari, A. Rendell, J. C. Burant, S. S. Iyengar, J. Tomasi, 
 M. Cossi, N. Rega, J. M. Millam, M. Klene, J. E. Knox, J. B. Cross, 
 V. Bakken, C. Adamo, J. Jaramillo, R. Gomperts, R. E. Stratmann, 
 O. Yazyev, A. J. Austin, R. Cammi, C. Pomelli, J. W. Ochterski, 
 R. L. Martin, K. Morokuma, V. G. Zakrzewski, G. A. Voth, 
 P. Salvador, J. J. Dannenberg, S. Dapprich, A. D. Daniels, 
 O. Farkas, J. B. Foresman, J. V. Ortiz, J. Cioslowski, 
 and D. J. Fox, Gaussian, Inc., Wallingford CT, 2009.
 
 ******************************************
 Gaussian 09:  EM64L-G09RevA.02 11-Jun-2009
                13-Feb-2017 
 ******************************************
 %chk=structure_90.chk
 %NProcShared=8
 Will use up to    8 processors via shared memory.
 -------------------
 #SP MP2/aug-cc-pVDZ
 -------------------
 1/38=1/1;
 2/12=2,17=6,18=5,40=1/2;
 3/5=16,7=10,11=9,16=1,25=1,30=1/1,2,3;
 4//1;
 5/5=2,38=5/2;
 8/10=1/1;
 9/16=-3/6;
 6/7=2,8=2,9=2,10=2/1;
 99/5=1,9=1/99;
 -------------------------------
 Single Point calculation at MP2
 -------------------------------
 Symbolic Z-matrix:
 Charge =  0 Multiplicity = 1
 H                    -3.3677   -2.0141    0.1263 
 C                    -3.1942   -0.9568   -0.0821 
 H                    -3.7507   -0.3696    0.6583 
 H                    -3.5849   -0.7128   -1.076 
 C                    -1.7035   -0.6703    0.0629 
 O                    -0.987    -1.3172    0.8098 
 N                    -1.241     0.3495   -0.7397 
 H                    -1.9524    0.8623   -1.2462 
 C                     0.0055    1.1122   -0.5564 
 H                     0.3551    1.374    -1.5633 
 C                    -0.2428    2.3961    0.2416 
 H                    -0.5046    2.146     1.2723 
 H                     0.6592    3.0162    0.2634 
 H                    -1.0522    2.9807   -0.2113 
 C                     1.1337    0.2931    0.1273 
 O                     1.4004    0.4172    1.3108 
 N                     1.9384   -0.3853   -0.7523 
 H                     1.5334   -0.6131   -1.6519 
 C                     2.9644   -1.2891   -0.2503 
 H                     3.4583   -0.8076    0.5947 
 H                     2.5437   -2.2424    0.0953 
 H                     3.6964   -1.4799   -1.04 
 
                          Input orientation:                          
 ---------------------------------------------------------------------
 Center     Atomic      Atomic             Coordinates (Angstroms)
 Number     Number       Type             X           Y           Z
 ---------------------------------------------------------------------
      1          1           0       -3.367700   -2.014100    0.126300
      2          6           0       -3.194200   -0.956800   -0.082100
      3          1           0       -3.750700   -0.369600    0.658300
      4          1           0       -3.584900   -0.712800   -1.076000
      5          6           0       -1.703500   -0.670300    0.062900
      6          8           0       -0.987000   -1.317200    0.809800
      7          7           0       -1.241000    0.349500   -0.739700
      8          1           0       -1.952400    0.862300   -1.246200
      9          6           0        0.005500    1.112200   -0.556400
     10          1           0        0.355100    1.374000   -1.563300
     11          6           0       -0.242800    2.396100    0.241600
     12          1           0       -0.504600    2.146000    1.272300
     13          1           0        0.659200    3.016200    0.263400
     14          1           0       -1.052200    2.980700   -0.211300
     15          6           0        1.133700    0.293100    0.127300
     16          8           0        1.400400    0.417200    1.310800
     17          7           0        1.938400   -0.385300   -0.752300
     18          1           0        1.533400   -0.613100   -1.651900
     19          6           0        2.964400   -1.289100   -0.250300
     20          1           0        3.458300   -0.807600    0.594700
     21          1           0        2.543700   -2.242400    0.095300
     22          1           0        3.696400   -1.479900   -1.040000
 ---------------------------------------------------------------------
                    Distance matrix (angstroms):
                    1          2          3          4          5
     1  H    0.000000
     2  C    1.091520   0.000000
     3  H    1.770337   1.096671   0.000000
     4  H    1.784960   1.095454   1.775689   0.000000
     5  C    2.139949   1.524891   2.153126   2.199674   0.000000
     6  O    2.573048   2.407718   2.925566   3.266592   1.220537
     7  N    3.295362   2.440051   2.961436   2.595274   1.377703
     8  H    3.487192   2.491249   2.894578   2.274855   2.030900
     9  C    4.649549   3.839766   4.216665   4.060983   2.545883
    10  H    5.309728   4.497123   4.983296   4.485064   3.325887
    11  C    5.406307   4.478558   4.486435   4.750891   3.401233
    12  H    5.178522   4.323854   4.152397   4.814094   3.291133
    13  H    6.445048   5.545520   5.573760   5.806188   4.383245
    14  H    5.515754   4.484280   4.388920   4.561164   3.718760
    15  C    5.058238   4.509636   4.957670   4.972419   2.996997
    16  O    5.481700   4.993836   5.251537   5.641536   3.517685
    17  N    5.619575   5.207625   5.861390   5.542462   3.742888
    18  H    5.398664   4.993256   5.772177   5.151562   3.663514
    19  C    6.384586   6.169852   6.838392   6.626253   4.719142
    20  H    6.947612   6.688503   7.222574   7.239260   5.190938
    21  H    5.915888   5.882834   6.591193   6.424279   4.528935
    22  H    7.179633   6.976502   7.718568   7.321685   5.570526
                    6          7          8          9         10
     6  O    0.000000
     7  N    2.289837   0.000000
     8  H    3.147913   1.012717   0.000000
     9  C    2.958639   1.472777   2.090848   0.000000
    10  H    3.830848   2.067717   2.384732   1.097546   0.000000
    11  C    3.829528   2.479501   2.736571   1.531945   2.158666
    12  H    3.527091   2.796040   3.175981   2.161733   3.061976
    13  H    4.667642   3.424655   3.706566   2.173617   2.475102
    14  H    4.418013   2.690365   2.523687   2.174653   2.527822
    15  C    2.748862   2.528650   3.425566   1.552806   2.152369
    16  O    2.993129   3.344567   4.240004   2.432120   3.204461
    17  N    3.444787   3.263231   4.115673   2.452954   2.501939
    18  H    3.592790   3.075061   3.806862   2.551717   2.311884
    19  C    4.091230   4.539814   5.458504   3.822961   3.952786
    20  H    4.479582   5.020251   5.954255   4.114911   4.364194
    21  H    3.719186   4.662523   5.626162   4.256820   4.540845
    22  H    5.038102   5.273974   6.118608   4.536033   4.425254
                   11         12         13         14         15
    11  C    0.000000
    12  H    1.092443   0.000000
    13  H    1.094807   1.769056   0.000000
    14  H    1.096359   1.788200   1.776370   0.000000
    15  C    2.516034   2.725489   2.767480   3.480805   0.000000
    16  O    2.785559   2.572792   2.898487   3.860514   1.219509
    17  N    3.671738   4.058908   3.773354   4.535011   1.371665
    18  H    3.974357   4.507441   4.195762   4.655755   2.036298
    19  C    4.910071   5.113921   4.910544   5.862234   2.448959
    20  H    4.907801   4.988734   4.750386   5.945205   2.614148
    21  H    5.413102   5.471336   5.588602   6.348643   2.901359
    22  H    5.673021   6.011845   5.580175   6.567564   3.327694
                   16         17         18         19         20
    16  O    0.000000
    17  N    2.278120   0.000000
    18  H    3.139554   1.012521   0.000000
    19  C    2.791879   1.456549   2.114053   0.000000
    20  H    2.499577   2.074329   2.964841   1.090782   0.000000
    21  H    3.139753   2.129233   2.593845   1.097820   1.773286
    22  H    3.794320   2.090810   2.409218   1.093551   1.783514
                   21         22
    21  H    0.000000
    22  H    1.788583   0.000000
 Stoichiometry    C6H12N2O2
 Framework group  C1[X(C6H12N2O2)]
 Deg. of freedom    60
 Full point group                 C1      NOp   1
 Largest Abelian subgroup         C1      NOp   1
 Largest concise Abelian subgroup C1      NOp   1
                         Standard orientation:                         
 ---------------------------------------------------------------------
 Center     Atomic      Atomic             Coordinates (Angstroms)
 Number     Number       Type             X           Y           Z
 ---------------------------------------------------------------------
      1          1           0       -3.367725   -2.014088    0.126295
      2          6           0       -3.194220   -0.956789   -0.082105
      3          1           0       -3.750717   -0.369587    0.658295
      4          1           0       -3.584919   -0.712787   -1.076005
      5          6           0       -1.703518   -0.670296    0.062895
      6          8           0       -0.987021   -1.317199    0.809795
      7          7           0       -1.241014    0.349502   -0.739705
      8          1           0       -1.952411    0.862305   -1.246205
      9          6           0        0.005490    1.112196   -0.556405
     10          1           0        0.355091    1.373995   -1.563305
     11          6           0       -0.242804    2.396097    0.241595
     12          1           0       -0.504606    2.145998    1.272295
     13          1           0        0.659198    3.016193    0.263395
     14          1           0       -1.052202    2.980701   -0.211305
     15          6           0        1.133686    0.293091    0.127295
     16          8           0        1.400387    0.417190    1.310795
     17          7           0        1.938383   -0.385313   -0.752305
     18          1           0        1.533382   -0.613111   -1.651905
     19          6           0        2.964379   -1.289117   -0.250305
     20          1           0        3.458281   -0.807620    0.594695
     21          1           0        2.543674   -2.242415    0.095295
     22          1           0        3.696378   -1.479921   -1.040005
 ---------------------------------------------------------------------
 Rotational constants (GHZ):      1.9129067      0.9193292      0.7510724
 Standard basis: Aug-CC-pVDZ (5D, 7F)
 There are   338 symmetry adapted basis functions of A   symmetry.
 Integral buffers will be    131072 words long.
 Raffenetti 1 integral format.
 Two-electron integral symmetry is turned on.
   338 basis functions,   562 primitive gaussians,   358 cartesian basis functions
    39 alpha electrons       39 beta electrons
       nuclear repulsion energy       562.7261337384 Hartrees.
 NAtoms=   22 NActive=   22 NUniq=   22 SFac= 7.50D-01 NAtFMM=   80 NAOKFM=F Big=F
 One-electron integrals computed using PRISM.
 NBasis=   338 RedAO= T  NBF=   338
 NBsUse=   338 1.00D-06 NBFU=   338
 Harris functional with IExCor=  205 diagonalized for initial guess.
 ExpMin= 2.97D-02 ExpMax= 1.17D+04 ExpMxC= 4.01D+02 IAcc=3 IRadAn=         0 AccDes= 0.00D+00
 HarFok:  IExCor=  205 AccDes= 0.00D+00 IRadAn=         0 IDoV= 1
 ScaDFX=  1.000000  1.000000  1.000000  1.000000
 FoFCou: FMM=F IPFlag=           0 FMFlag=      100000 FMFlg1=           0
         NFxFlg=           0 DoJE=T BraDBF=F KetDBF=T FulRan=T
         Omega=  0.000000  0.000000  1.000000  0.000000  0.000000 ICntrl=     500 IOpCl=  0
         NMat0=    1 NMatS0=    1 NMatT0=    0 NMatD0=    1 NMtDS0=    0 NMtDT0=    0
         I1Cent=           4 NGrid=           0.
 Petite list used in FoFCou.
 Initial guess orbital symmetries:
       Occupied  (A) (A) (A) (A) (A) (A) (A) (A) (A) (A) (A) (A)
                 (A) (A) (A) (A) (A) (A) (A) (A) (A) (A) (A) (A)
                 (A) (A) (A) (A) (A) (A) (A) (A) (A) (A) (A) (A)
                 (A) (A) (A)
       Virtual   (A) (A) (A) (A) (A) (A) (A) (A) (A) (A) (A) (A)
                 (A) (A) (A) (A) (A) (A) (A) (A) (A) (A) (A) (A)
                 (A) (A) (A) (A) (A) (A) (A) (A) (A) (A) (A) (A)
                 (A) (A) (A) (A) (A) (A) (A) (A) (A) (A) (A) (A)
                 (A) (A) (A) (A) (A) (A) (A) (A) (A) (A) (A) (A)
                 (A) (A) (A) (A) (A) (A) (A) (A) (A) (A) (A) (A)
                 (A) (A) (A) (A) (A) (A) (A) (A) (A) (A) (A) (A)
                 (A) (A) (A) (A) (A) (A) (A) (A) (A) (A) (A) (A)
                 (A) (A) (A) (A) (A) (A) (A) (A) (A) (A) (A) (A)
                 (A) (A) (A) (A) (A) (A) (A) (A) (A) (A) (A) (A)
                 (A) (A) (A) (A) (A) (A) (A) (A) (A) (A) (A) (A)
                 (A) (A) (A) (A) (A) (A) (A) (A) (A) (A) (A) (A)
                 (A) (A) (A) (A) (A) (A) (A) (A) (A) (A) (A) (A)
                 (A) (A) (A) (A) (A) (A) (A) (A) (A) (A) (A) (A)
                 (A) (A) (A) (A) (A) (A) (A) (A) (A) (A) (A) (A)
                 (A) (A) (A) (A) (A) (A) (A) (A) (A) (A) (A) (A)
                 (A) (A) (A) (A) (A) (A) (A) (A) (A) (A) (A) (A)
                 (A) (A) (A) (A) (A) (A) (A) (A) (A) (A) (A) (A)
                 (A) (A) (A) (A) (A) (A) (A) (A) (A) (A) (A) (A)
                 (A) (A) (A) (A) (A) (A) (A) (A) (A) (A) (A) (A)
                 (A) (A) (A) (A) (A) (A) (A) (A) (A) (A) (A) (A)
                 (A) (A) (A) (A) (A) (A) (A) (A) (A) (A) (A) (A)
                 (A) (A) (A) (A) (A) (A) (A) (A) (A) (A) (A) (A)
                 (A) (A) (A) (A) (A) (A) (A) (A) (A) (A) (A) (A)
                 (A) (A) (A) (A) (A) (A) (A) (A) (A) (A) (A)
 The electronic state of the initial guess is 1-A.
 Requested convergence on RMS density matrix=1.00D-08 within 128 cycles.
 Requested convergence on MAX density matrix=1.00D-06.
 Requested convergence on             energy=1.00D-06.
 No special actions if energy rises.
 Initial convergence to 1.0D-05 achieved.  Increase integral accuracy.
 SCF Done:  E(RHF) =  -492.910994517     A.U. after   14 cycles
             Convg  =    0.9990D-08             -V/T =  2.0018
 ExpMin= 2.97D-02 ExpMax= 1.17D+04 ExpMxC= 4.01D+02 IAcc=3 IRadAn=         5 AccDes= 0.00D+00
 HarFok:  IExCor=  205 AccDes= 0.00D+00 IRadAn=         5 IDoV=-2
 ScaDFX=  1.000000  1.000000  1.000000  1.000000
 Range of M.O.s used for correlation:    11   338
 NBasis=   338 NAE=    39 NBE=    39 NFC=    10 NFV=     0
 NROrb=    328 NOA=    29 NOB=    29 NVA=   299 NVB=   299

 **** Warning!!: The largest alpha MO coefficient is  0.67247353D+02

 Disk-based method using OVN memory for 29 occupieds at a time.
 Estimated scratch disk usage=  1389350798 words.
 Actual    scratch disk usage=  1376284622 words.
 JobTyp=1 Pass  1:  I=   1 to  29 NPSUse=  8 ParTrn=T ParDer=T DoDerP=F.
 Spin components of T(2) and E(2):
     alpha-alpha T2 =       0.6803364492D-01 E2=     -0.2057961981D+00
     alpha-beta  T2 =       0.3779098292D+00 E2=     -0.1191825451D+01
     beta-beta   T2 =       0.6803364492D-01 E2=     -0.2057961981D+00
 ANorm=    0.1230437775D+01
 E2 =    -0.1603417847D+01 EUMP2 =    -0.49451441236360D+03

 **********************************************************************

            Population analysis using the SCF density.

 **********************************************************************

 Orbital symmetries:
       Occupied  (A) (A) (A) (A) (A) (A) (A) (A) (A) (A) (A) (A)
                 (A) (A) (A) (A) (A) (A) (A) (A) (A) (A) (A) (A)
                 (A) (A) (A) (A) (A) (A) (A) (A) (A) (A) (A) (A)
                 (A) (A) (A)
       Virtual   (A) (A) (A) (A) (A) (A) (A) (A) (A) (A) (A) (A)
                 (A) (A) (A) (A) (A) (A) (A) (A) (A) (A) (A) (A)
                 (A) (A) (A) (A) (A) (A) (A) (A) (A) (A) (A) (A)
                 (A) (A) (A) (A) (A) (A) (A) (A) (A) (A) (A) (A)
                 (A) (A) (A) (A) (A) (A) (A) (A) (A) (A) (A) (A)
                 (A) (A) (A) (A) (A) (A) (A) (A) (A) (A) (A) (A)
                 (A) (A) (A) (A) (A) (A) (A) (A) (A) (A) (A) (A)
                 (A) (A) (A) (A) (A) (A) (A) (A) (A) (A) (A) (A)
                 (A) (A) (A) (A) (A) (A) (A) (A) (A) (A) (A) (A)
                 (A) (A) (A) (A) (A) (A) (A) (A) (A) (A) (A) (A)
                 (A) (A) (A) (A) (A) (A) (A) (A) (A) (A) (A) (A)
                 (A) (A) (A) (A) (A) (A) (A) (A) (A) (A) (A) (A)
                 (A) (A) (A) (A) (A) (A) (A) (A) (A) (A) (A) (A)
                 (A) (A) (A) (A) (A) (A) (A) (A) (A) (A) (A) (A)
                 (A) (A) (A) (A) (A) (A) (A) (A) (A) (A) (A) (A)
                 (A) (A) (A) (A) (A) (A) (A) (A) (A) (A) (A) (A)
                 (A) (A) (A) (A) (A) (A) (A) (A) (A) (A) (A) (A)
                 (A) (A) (A) (A) (A) (A) (A) (A) (A) (A) (A) (A)
                 (A) (A) (A) (A) (A) (A) (A) (A) (A) (A) (A) (A)
                 (A) (A) (A) (A) (A) (A) (A) (A) (A) (A) (A) (A)
                 (A) (A) (A) (A) (A) (A) (A) (A) (A) (A) (A) (A)
                 (A) (A) (A) (A) (A) (A) (A) (A) (A) (A) (A) (A)
                 (A) (A) (A) (A) (A) (A) (A) (A) (A) (A) (A) (A)
                 (A) (A) (A) (A) (A) (A) (A) (A) (A) (A) (A) (A)
                 (A) (A) (A) (A) (A) (A) (A) (A) (A) (A) (A)
 The electronic state is 1-A.
 Alpha  occ. eigenvalues --  -20.53267 -20.52215 -15.60322 -15.58737 -11.36631
 Alpha  occ. eigenvalues --  -11.35459 -11.29839 -11.25811 -11.25060 -11.23135
 Alpha  occ. eigenvalues --   -1.38966  -1.37518  -1.24322  -1.22142  -1.05411
 Alpha  occ. eigenvalues --   -0.99252  -0.95178  -0.87182  -0.80901  -0.76758
 Alpha  occ. eigenvalues --   -0.70250  -0.69108  -0.65620  -0.63672  -0.62103
 Alpha  occ. eigenvalues --   -0.60955  -0.59959  -0.58278  -0.57657  -0.55730
 Alpha  occ. eigenvalues --   -0.53878  -0.53210  -0.52387  -0.51097  -0.50657
 Alpha  occ. eigenvalues --   -0.42609  -0.41427  -0.39895  -0.38619
 Alpha virt. eigenvalues --    0.02331   0.03589   0.04040   0.04634   0.05710
 Alpha virt. eigenvalues --    0.05965   0.06448   0.06864   0.07108   0.08380
 Alpha virt. eigenvalues --    0.08837   0.09057   0.11001   0.11576   0.12899
 Alpha virt. eigenvalues --    0.13253   0.14218   0.14377   0.14536   0.14832
 Alpha virt. eigenvalues --    0.15999   0.16216   0.16691   0.16735   0.17073
 Alpha virt. eigenvalues --    0.17491   0.18027   0.18445   0.18716   0.19175
 Alpha virt. eigenvalues --    0.20079   0.20635   0.21047   0.21470   0.21674
 Alpha virt. eigenvalues --    0.24406   0.24677   0.25041   0.26013   0.26988
 Alpha virt. eigenvalues --    0.27631   0.27976   0.29146   0.29684   0.30761
 Alpha virt. eigenvalues --    0.31537   0.31951   0.32263   0.33815   0.34325
 Alpha virt. eigenvalues --    0.34705   0.35187   0.35815   0.36593   0.36769
 Alpha virt. eigenvalues --    0.37972   0.38105   0.39341   0.39690   0.40222
 Alpha virt. eigenvalues --    0.41206   0.41524   0.42478   0.42645   0.43530
 Alpha virt. eigenvalues --    0.43690   0.43892   0.45097   0.45480   0.45570
 Alpha virt. eigenvalues --    0.47107   0.47791   0.48412   0.48800   0.49364
 Alpha virt. eigenvalues --    0.49919   0.50841   0.51476   0.52186   0.52227
 Alpha virt. eigenvalues --    0.53233   0.54528   0.54973   0.55134   0.55952
 Alpha virt. eigenvalues --    0.56599   0.57254   0.58232   0.58317   0.59165
 Alpha virt. eigenvalues --    0.59793   0.59869   0.61467   0.61797   0.62292
 Alpha virt. eigenvalues --    0.62493   0.63366   0.63898   0.64552   0.65441
 Alpha virt. eigenvalues --    0.65750   0.66361   0.66867   0.67873   0.68269
 Alpha virt. eigenvalues --    0.68956   0.69525   0.69905   0.70722   0.71319
 Alpha virt. eigenvalues --    0.71974   0.73296   0.73653   0.73828   0.74594
 Alpha virt. eigenvalues --    0.75908   0.76545   0.77189   0.78559   0.79033
 Alpha virt. eigenvalues --    0.79726   0.80713   0.81273   0.82205   0.83213
 Alpha virt. eigenvalues --    0.84110   0.84185   0.85577   0.87235   0.87796
 Alpha virt. eigenvalues --    0.88702   0.90529   0.91175   0.92385   0.92962
 Alpha virt. eigenvalues --    0.94279   0.96120   0.97781   0.98187   0.98741
 Alpha virt. eigenvalues --    0.99760   1.01213   1.02432   1.04033   1.05291
 Alpha virt. eigenvalues --    1.06806   1.06904   1.09073   1.10513   1.11081
 Alpha virt. eigenvalues --    1.12211   1.12883   1.13164   1.14708   1.15885
 Alpha virt. eigenvalues --    1.16191   1.17284   1.19545   1.21007   1.22386
 Alpha virt. eigenvalues --    1.23537   1.24354   1.25984   1.26842   1.29648
 Alpha virt. eigenvalues --    1.32876   1.33851   1.35140   1.35732   1.37243
 Alpha virt. eigenvalues --    1.40944   1.42688   1.44045   1.47852   1.47988
 Alpha virt. eigenvalues --    1.48698   1.50541   1.53008   1.55084   1.55695
 Alpha virt. eigenvalues --    1.57200   1.58505   1.61553   1.63142   1.65257
 Alpha virt. eigenvalues --    1.67600   1.68094   1.69314   1.72350   1.73536
 Alpha virt. eigenvalues --    1.73929   1.75515   1.76909   1.78115   1.80590
 Alpha virt. eigenvalues --    1.83402   1.83636   1.86629   1.87323   1.89479
 Alpha virt. eigenvalues --    1.90890   1.91267   1.91706   1.92553   1.93121
 Alpha virt. eigenvalues --    1.95774   1.96206   1.97593   1.99683   2.01910
 Alpha virt. eigenvalues --    2.03923   2.04941   2.06518   2.06987   2.08496
 Alpha virt. eigenvalues --    2.11397   2.13206   2.13581   2.14750   2.17774
 Alpha virt. eigenvalues --    2.18700   2.19458   2.21659   2.22476   2.25427
 Alpha virt. eigenvalues --    2.25546   2.26626   2.27998   2.29277   2.30181
 Alpha virt. eigenvalues --    2.32827   2.33798   2.33940   2.36495   2.37719
 Alpha virt. eigenvalues --    2.38208   2.41969   2.42890   2.45548   2.45657
 Alpha virt. eigenvalues --    2.46873   2.47962   2.49838   2.50634   2.52701
 Alpha virt. eigenvalues --    2.53239   2.56001   2.56393   2.59992   2.61665
 Alpha virt. eigenvalues --    2.62946   2.64483   2.67673   2.68678   2.69988
 Alpha virt. eigenvalues --    2.70995   2.71857   2.75113   2.75442   2.81060
 Alpha virt. eigenvalues --    2.82655   2.85396   2.86348   2.87562   2.89128
 Alpha virt. eigenvalues --    2.91174   2.92131   2.93211   2.95187   2.97192
 Alpha virt. eigenvalues --    3.00863   3.01762   3.02863   3.05402   3.08343
 Alpha virt. eigenvalues --    3.10504   3.14379   3.17747   3.22176   3.24737
 Alpha virt. eigenvalues --    3.27016   3.33567   3.40506   3.43123   3.51704
 Alpha virt. eigenvalues --    3.61536   3.66062   3.72178   3.84483   3.86733
 Alpha virt. eigenvalues --    3.89102   3.92587   3.97985   3.99073   4.04778
 Alpha virt. eigenvalues --    4.09763   4.13277   4.22790   4.34149
          Condensed to atoms (all electrons):
              1          2          3          4          5          6
     1  H    0.793381   0.391297  -0.055785  -0.096833  -0.067972   0.024366
     2  C    0.391297   4.597041   0.347380   0.285836   0.143782  -0.056457
     3  H   -0.055785   0.347380   0.740901  -0.076936  -0.047591   0.012004
     4  H   -0.096833   0.285836  -0.076936   0.994196   0.105304  -0.001129
     5  C   -0.067972   0.143782  -0.047591   0.105304   5.314169   0.233626
     6  O    0.024366  -0.056457   0.012004  -0.001129   0.233626   8.640883
     7  N    0.032851   0.028356   0.031376  -0.118389   0.159344  -0.166690
     8  H   -0.004760  -0.062999  -0.004648   0.014915  -0.132844   0.003067
     9  C    0.001373  -0.068049  -0.001797  -0.051631  -0.544551   0.204266
    10  H   -0.000749  -0.008569  -0.000765   0.000662   0.014291   0.007900
    11  C   -0.000430   0.007010   0.003668   0.001377   0.034694  -0.018695
    12  H   -0.001158  -0.001114  -0.000053   0.001420  -0.039743   0.003357
    13  H   -0.000335   0.001030   0.000658   0.000452  -0.012562   0.000570
    14  H    0.001096  -0.002665  -0.000251  -0.002061   0.045402  -0.003086
    15  C    0.001659   0.006655  -0.002063   0.009237   0.054932  -0.065709
    16  O    0.000335   0.003521   0.000482   0.000036   0.035100  -0.014814
    17  N   -0.000286  -0.003313  -0.000421  -0.000292   0.036086  -0.005154
    18  H   -0.000505  -0.000171   0.000335  -0.000045  -0.020698   0.000959
    19  C   -0.000227  -0.000848  -0.000298   0.000120  -0.000951  -0.003774
    20  H   -0.000046  -0.000851  -0.000098  -0.000020  -0.011617   0.000473
    21  H   -0.000005  -0.000206  -0.000016   0.000031   0.005912   0.000408
    22  H    0.000016   0.000666   0.000022   0.000055   0.003034  -0.001024
              7          8          9         10         11         12
     1  H    0.032851  -0.004760   0.001373  -0.000749  -0.000430  -0.001158
     2  C    0.028356  -0.062999  -0.068049  -0.008569   0.007010  -0.001114
     3  H    0.031376  -0.004648  -0.001797  -0.000765   0.003668  -0.000053
     4  H   -0.118389   0.014915  -0.051631   0.000662   0.001377   0.001420
     5  C    0.159344  -0.132844  -0.544551   0.014291   0.034694  -0.039743
     6  O   -0.166690   0.003067   0.204266   0.007900  -0.018695   0.003357
     7  N    7.296811   0.368941   0.033523  -0.209244  -0.066474  -0.018972
     8  H    0.368941   0.995949  -0.105051   0.015326  -0.001551   0.008157
     9  C    0.033523  -0.105051   7.613454  -0.293096   0.097373  -0.088953
    10  H   -0.209244   0.015326  -0.293096   1.651692   0.078309   0.069945
    11  C   -0.066474  -0.001551   0.097373   0.078309   4.278653   0.400698
    12  H   -0.018972   0.008157  -0.088953   0.069945   0.400698   0.944328
    13  H    0.006651  -0.000454   0.088919  -0.064100   0.195722  -0.090707
    14  H   -0.004650   0.005242  -0.017278  -0.032577   0.296973  -0.208960
    15  C    0.037062   0.030301  -0.679141   0.121254   0.006131   0.063496
    16  O   -0.001287  -0.000912  -0.067660  -0.026509  -0.012743  -0.017407
    17  N    0.018865  -0.010808   0.101351  -0.100820  -0.008477  -0.021643
    18  H   -0.016199  -0.000913  -0.012882   0.026621   0.004498  -0.000669
    19  C   -0.002938  -0.002372  -0.006444   0.001975  -0.000386  -0.000115
    20  H   -0.001751   0.000141   0.035155   0.003862  -0.003608  -0.000183
    21  H    0.001446   0.000851   0.012005  -0.000572   0.000859   0.000150
    22  H   -0.001212  -0.000650  -0.025755  -0.000006   0.003024   0.000513
             13         14         15         16         17         18
     1  H   -0.000335   0.001096   0.001659   0.000335  -0.000286  -0.000505
     2  C    0.001030  -0.002665   0.006655   0.003521  -0.003313  -0.000171
     3  H    0.000658  -0.000251  -0.002063   0.000482  -0.000421   0.000335
     4  H    0.000452  -0.002061   0.009237   0.000036  -0.000292  -0.000045
     5  C   -0.012562   0.045402   0.054932   0.035100   0.036086  -0.020698
     6  O    0.000570  -0.003086  -0.065709  -0.014814  -0.005154   0.000959
     7  N    0.006651  -0.004650   0.037062  -0.001287   0.018865  -0.016199
     8  H   -0.000454   0.005242   0.030301  -0.000912  -0.010808  -0.000913
     9  C    0.088919  -0.017278  -0.679141  -0.067660   0.101351  -0.012882
    10  H   -0.064100  -0.032577   0.121254  -0.026509  -0.100820   0.026621
    11  C    0.195722   0.296973   0.006131  -0.012743  -0.008477   0.004498
    12  H   -0.090707  -0.208960   0.063496  -0.017407  -0.021643  -0.000669
    13  H    1.074232  -0.169506   0.000165   0.009844  -0.011207   0.001061
    14  H   -0.169506   1.147252  -0.045044   0.011845   0.022053  -0.000194
    15  C    0.000165  -0.045044   5.261364   0.206799   0.013586  -0.042807
    16  O    0.009844   0.011845   0.206799   8.787781  -0.125609   0.001887
    17  N   -0.011207   0.022053   0.013586  -0.125609   7.190110   0.293613
    18  H    0.001061  -0.000194  -0.042807   0.001887   0.293613   0.926390
    19  C   -0.001975   0.001546  -0.116622   0.033529   0.234319  -0.087592
    20  H   -0.000491   0.000248   0.022863  -0.009938  -0.057120   0.010154
    21  H    0.000320  -0.000077  -0.032223   0.002397   0.108785  -0.015874
    22  H   -0.000326   0.000023   0.017261   0.010935  -0.165872   0.017147
             19         20         21         22
     1  H   -0.000227  -0.000046  -0.000005   0.000016
     2  C   -0.000848  -0.000851  -0.000206   0.000666
     3  H   -0.000298  -0.000098  -0.000016   0.000022
     4  H    0.000120  -0.000020   0.000031   0.000055
     5  C   -0.000951  -0.011617   0.005912   0.003034
     6  O   -0.003774   0.000473   0.000408  -0.001024
     7  N   -0.002938  -0.001751   0.001446  -0.001212
     8  H   -0.002372   0.000141   0.000851  -0.000650
     9  C   -0.006444   0.035155   0.012005  -0.025755
    10  H    0.001975   0.003862  -0.000572  -0.000006
    11  C   -0.000386  -0.003608   0.000859   0.003024
    12  H   -0.000115  -0.000183   0.000150   0.000513
    13  H   -0.001975  -0.000491   0.000320  -0.000326
    14  H    0.001546   0.000248  -0.000077   0.000023
    15  C   -0.116622   0.022863  -0.032223   0.017261
    16  O    0.033529  -0.009938   0.002397   0.010935
    17  N    0.234319  -0.057120   0.108785  -0.165872
    18  H   -0.087592   0.010154  -0.015874   0.017147
    19  C    4.084464   0.411357   0.283691   0.430792
    20  H    0.411357   0.957156  -0.074924  -0.174440
    21  H    0.283691  -0.074924   0.944194  -0.182550
    22  H    0.430792  -0.174440  -0.182550   1.247405
 Mulliken atomic charges:
              1
     1  H   -0.017282
     2  C    0.392667
     3  H    0.053895
     4  H   -0.066307
     5  C    0.692854
     6  O   -0.795348
     7  N   -0.407418
     8  H   -0.114929
     9  C   -0.225131
    10  H   -0.254830
    11  C    0.703375
    12  H   -0.002387
    13  H   -0.027963
    14  H   -0.045332
    15  C    1.130842
    16  O   -0.827613
    17  N   -0.507747
    18  H   -0.084118
    19  C    0.742751
    20  H   -0.106320
    21  H   -0.054601
    22  H   -0.179059
 Sum of Mulliken atomic charges =   0.00000
 Mulliken charges with hydrogens summed into heavy atoms:
              1
     2  C    0.362972
     5  C    0.692854
     6  O   -0.795348
     7  N   -0.522346
     9  C   -0.479960
    11  C    0.627693
    15  C    1.130842
    16  O   -0.827613
    17  N   -0.591865
    19  C    0.402771
 Sum of Mulliken charges with hydrogens summed into heavy atoms =   0.00000
 Electronic spatial extent (au):  <R**2>=           1685.2449
 Charge=              0.0000 electrons
 Dipole moment (field-independent basis, Debye):
    X=             -2.4756    Y=              1.4010    Z=             -5.3459  Tot=              6.0556
 Quadrupole moment (field-independent basis, Debye-Ang):
   XX=            -50.9870   YY=            -60.6115   ZZ=            -64.0799
   XY=             -4.7405   XZ=             -2.0735   YZ=              1.1967
 Traceless Quadrupole moment (field-independent basis, Debye-Ang):
   XX=              7.5725   YY=             -2.0520   ZZ=             -5.5205
   XY=             -4.7405   XZ=             -2.0735   YZ=              1.1967
 Octapole moment (field-independent basis, Debye-Ang**2):
  XXX=            -17.1528  YYY=              1.6388  ZZZ=            -10.8834  XYY=              3.0694
  XXY=            -13.6458  XXZ=             -7.7270  XZZ=             -4.0031  YZZ=              0.2507
  YYZ=             -5.2069  XYZ=              0.2117
 Hexadecapole moment (field-independent basis, Debye-Ang**3):
 XXXX=          -1279.7953 YYYY=           -615.5051 ZZZZ=           -236.8269 XXXY=            -12.2572
 XXXZ=              1.3312 YYYX=              3.6021 YYYZ=              0.9326 ZZZX=             -9.6221
 ZZZY=              0.3237 XXYY=           -314.2772 XXZZ=           -265.5715 YYZZ=           -144.3222
 XXYZ=             -0.0678 YYXZ=              5.4321 ZZXY=            -14.4926
 N-N= 5.627261337384D+02 E-N=-2.281016485851D+03  KE= 4.920465724060D+02
 1\1\GINC-NODE012\SP\RMP2-FC\Aug-CC-pVDZ\C6H12N2O2\MANAGER\13-Feb-2017\
 0\\#SP MP2/aug-cc-pVDZ\\Single Point calculation at MP2\\0,1\H,0,-3.36
 77,-2.0141,0.1263\C,0,-3.1942,-0.9568,-0.0821\H,0,-3.7507,-0.3696,0.65
 83\H,0,-3.5849,-0.7128,-1.076\C,0,-1.7035,-0.6703,0.0629\O,0,-0.987,-1
 .3172,0.8098\N,0,-1.241,0.3495,-0.7397\H,0,-1.9524,0.8623,-1.2462\C,0,
 0.0055,1.1122,-0.5564\H,0,0.3551,1.374,-1.5633\C,0,-0.2428,2.3961,0.24
 16\H,0,-0.5046,2.146,1.2723\H,0,0.6592,3.0162,0.2634\H,0,-1.0522,2.980
 7,-0.2113\C,0,1.1337,0.2931,0.1273\O,0,1.4004,0.4172,1.3108\N,0,1.9384
 ,-0.3853,-0.7523\H,0,1.5334,-0.6131,-1.6519\C,0,2.9644,-1.2891,-0.2503
 \H,0,3.4583,-0.8076,0.5947\H,0,2.5437,-2.2424,0.0953\H,0,3.6964,-1.479
 9,-1.04\\Version=EM64L-G09RevA.02\State=1-A\HF=-492.9109945\MP2=-494.5
 144124\RMSD=9.990e-09\PG=C01 [X(C6H12N2O2)]\\@


 Once you get people laughing, they're
 listening and you can tell them almost anything.
                                 -- Herb Gardner
 Job cpu time:  0 days  9 hours 29 minutes 51.2 seconds.
 File lengths (MBytes):  RWF=  10617 Int=      0 D2E=      0 Chk=      7 Scr=      2
 Normal termination of Gaussian 09 at Mon Feb 13 15:41:16 2017.
