 Entering Gaussian System, Link 0=/home/steboss/Software/g09/g09
 Initial command:
 /home/steboss/Software/g09/l1.exe /tmp/18537/Gau-15558.inp -scrdir=/tmp/18537/
 Entering Link 1 = /home/steboss/Software/g09/l1.exe PID=     15560.
  
 Copyright (c) 1988,1990,1992,1993,1995,1998,2003,2009, Gaussian, Inc.
                  All Rights Reserved.
  
 This is part of the Gaussian(R) 09 program.  It is based on
 the Gaussian(R) 03 system (copyright 2003, Gaussian, Inc.),
 the Gaussian(R) 98 system (copyright 1998, Gaussian, Inc.),
 the Gaussian(R) 94 system (copyright 1995, Gaussian, Inc.),
 the Gaussian 92(TM) system (copyright 1992, Gaussian, Inc.),
 the Gaussian 90(TM) system (copyright 1990, Gaussian, Inc.),
 the Gaussian 88(TM) system (copyright 1988, Gaussian, Inc.),
 the Gaussian 86(TM) system (copyright 1986, Carnegie Mellon
 University), and the Gaussian 82(TM) system (copyright 1983,
 Carnegie Mellon University). Gaussian is a federally registered
 trademark of Gaussian, Inc.
  
 This software contains proprietary and confidential information,
 including trade secrets, belonging to Gaussian, Inc.
  
 This software is provided under written license and may be
 used, copied, transmitted, or stored only in accord with that
 written license.
  
 The following legend is applicable only to US Government
 contracts under FAR:
  
                    RESTRICTED RIGHTS LEGEND
  
 Use, reproduction and disclosure by the US Government is
 subject to restrictions as set forth in subparagraphs (a)
 and (c) of the Commercial Computer Software - Restricted
 Rights clause in FAR 52.227-19.
  
 Gaussian, Inc.
 340 Quinnipiac St., Bldg. 40, Wallingford CT 06492
  
  
 ---------------------------------------------------------------
 Warning -- This program may not be used in any manner that
 competes with the business of Gaussian, Inc. or will provide
 assistance to any competitor of Gaussian, Inc.  The licensee
 of this program is prohibited from giving any competitor of
 Gaussian, Inc. access to this program.  By using this program,
 the user acknowledges that Gaussian, Inc. is engaged in the
 business of creating and licensing software in the field of
 computational chemistry and represents and warrants to the
 licensee that it is not a competitor of Gaussian, Inc. and that
 it will not use this program in any manner prohibited above.
 ---------------------------------------------------------------
  

 Cite this work as:
 Gaussian 09, Revision A.02,
 M. J. Frisch, G. W. Trucks, H. B. Schlegel, G. E. Scuseria, 
 M. A. Robb, J. R. Cheeseman, G. Scalmani, V. Barone, B. Mennucci, 
 G. A. Petersson, H. Nakatsuji, M. Caricato, X. Li, H. P. Hratchian, 
 A. F. Izmaylov, J. Bloino, G. Zheng, J. L. Sonnenberg, M. Hada, 
 M. Ehara, K. Toyota, R. Fukuda, J. Hasegawa, M. Ishida, T. Nakajima, 
 Y. Honda, O. Kitao, H. Nakai, T. Vreven, J. A. Montgomery, Jr., 
 J. E. Peralta, F. Ogliaro, M. Bearpark, J. J. Heyd, E. Brothers, 
 K. N. Kudin, V. N. Staroverov, R. Kobayashi, J. Normand, 
 K. Raghavachari, A. Rendell, J. C. Burant, S. S. Iyengar, J. Tomasi, 
 M. Cossi, N. Rega, J. M. Millam, M. Klene, J. E. Knox, J. B. Cross, 
 V. Bakken, C. Adamo, J. Jaramillo, R. Gomperts, R. E. Stratmann, 
 O. Yazyev, A. J. Austin, R. Cammi, C. Pomelli, J. W. Ochterski, 
 R. L. Martin, K. Morokuma, V. G. Zakrzewski, G. A. Voth, 
 P. Salvador, J. J. Dannenberg, S. Dapprich, A. D. Daniels, 
 O. Farkas, J. B. Foresman, J. V. Ortiz, J. Cioslowski, 
 and D. J. Fox, Gaussian, Inc., Wallingford CT, 2009.
 
 ******************************************
 Gaussian 09:  EM64L-G09RevA.02 11-Jun-2009
                18-Mar-2017 
 ******************************************
 %nproc=8
 Will use up to    8 processors via shared memory.
 %mem=4096MB
 %chk=IPolQout.vacu.chk
 ----------------------------------------------------------------------
 #MP2/cc-pvTZ density=MP2, maxdisk=16GB, pop=(minimal, MK), 5d, punch=m
 o
 ----------------------------------------------------------------------
 1/30=1,38=1/1;
 2/12=2,17=6,18=5,40=1/2;
 3/5=16,6=1,8=1,11=9,16=1,25=1,30=1,71=1/1,2,3;
 4//1;
 5/5=2,38=5/2;
 8/6=4,10=1/1;
 9/15=1,16=-3/6;
 10/5=1,13=10/2;
 6/7=2,8=2,9=2,10=2,15=8,20=1,22=2/1,2;
 99/5=1,9=1,10=32/99;
 -----------------
 Generated by mdgx
 -----------------
 Symbolic Z-matrix:
 Charge =  0 Multiplicity = 1
 H                     16.40348   17.32921   12.53026 
 C                     16.91783   16.56166   13.10854 
 H                     17.9906   16.47515   12.93598 
 H                     16.43806   15.60266   12.91299 
 C                     16.69672   16.85055   14.52635 
 O                     16.41474   17.97171   14.84603 
 N                     16.93788   15.85396   15.3745 
 H                     17.16017   14.96538   14.94893 
 C                     16.94491   15.93228   16.86879 
 H                     16.86659   14.94263   17.31887 
 C                     18.30557   16.59125   17.32051 
 H                     19.15208   16.10314   16.83753 
 H                     18.38059   17.62644   16.98757 
 H                     18.36125   16.58209   18.40905 
 C                     15.68354   16.67359   17.45268 
 O                     14.55466   16.46543   16.96347 
 N                     15.9636   17.47949   18.46591 
 H                     16.93066   17.57075   18.74261 
 C                     14.93126   18.18195   19.26541 
 H                     15.10187   17.90386   20.30544 
 H                     15.03646   19.22841   18.97912 
 H                     13.92959   17.8449   18.99866 
 
                          Input orientation:                          
 ---------------------------------------------------------------------
 Center     Atomic      Atomic             Coordinates (Angstroms)
 Number     Number       Type             X           Y           Z
 ---------------------------------------------------------------------
      1          1           0       16.403481   17.329214   12.530257
      2          6           0       16.917829   16.561663   13.108542
      3          1           0       17.990600   16.475146   12.935984
      4          1           0       16.438065   15.602661   12.912988
      5          6           0       16.696720   16.850552   14.526346
      6          8           0       16.414742   17.971711   14.846029
      7          7           0       16.937877   15.853961   15.374496
      8          1           0       17.160171   14.965377   14.948933
      9          6           0       16.944908   15.932276   16.868785
     10          1           0       16.866595   14.942632   17.318866
     11          6           0       18.305573   16.591248   17.320515
     12          1           0       19.152083   16.103142   16.837532
     13          1           0       18.380593   17.626437   16.987565
     14          1           0       18.361255   16.582086   18.409053
     15          6           0       15.683535   16.673589   17.452683
     16          8           0       14.554658   16.465433   16.963474
     17          7           0       15.963597   17.479487   18.465906
     18          1           0       16.930656   17.570755   18.742614
     19          6           0       14.931257   18.181951   19.265407
     20          1           0       15.101866   17.903860   20.305435
     21          1           0       15.036461   19.228407   18.979116
     22          1           0       13.929587   17.844898   18.998665
 ---------------------------------------------------------------------
                    Distance matrix (angstroms):
                    1          2          3          4          5
     1  H    0.000000
     2  C    1.090000   0.000000
     3  H    1.847429   1.090000   0.000000
     4  H    1.768803   1.090000   1.781046   0.000000
     5  C    2.073518   1.463733   2.084301   2.055981   0.000000
     6  O    2.403274   2.293511   2.893321   3.057709   1.199461
     7  N    3.248329   2.373982   2.727717   2.524279   1.330680
     8  H    3.465587   2.448244   2.649713   2.252252   1.986769
     9  C    4.589924   3.812649   4.105497   4.001733   2.528211
    10  H    5.370383   4.511176   4.777200   4.475604   3.386323
    11  C    5.206641   4.434797   4.397363   4.887860   3.234660
    12  H    5.254587   4.371213   4.087726   4.797752   3.453840
    13  H    4.885172   4.280215   4.229997   4.946843   3.081400
    14  H    6.241099   5.493570   5.486648   5.904631   4.232985
    15  C    5.017812   4.517474   5.075677   4.724936   3.101823
    16  O    4.880335   4.522647   5.294003   4.549508   3.267466
    17  N    5.953823   5.518542   5.974737   5.880688   4.056249
    18  H    6.239362   5.723740   6.003399   6.172566   4.283729
    19  C    6.946715   6.669242   7.234249   7.019717   5.229549
    20  H    7.904291   7.542843   8.043309   7.856794   6.086944
    21  H    6.860281   6.716748   7.268207   7.204750   5.313926
    22  H    6.944521   6.728286   7.424564   6.953815   5.352325
                    6          7          8          9         10
     6  O    0.000000
     7  N    2.244507   0.000000
     8  H    3.099080   1.010000   0.000000
     9  C    2.920944   1.496357   2.160339   0.000000
    10  H    3.936294   2.148529   2.388155   1.090000   0.000000
    11  C    3.406465   2.490215   3.095126   1.577882   2.188286
    12  H    3.866610   2.665572   2.971368   2.214000   2.608050
    13  H    2.927450   2.797336   3.567449   2.223844   3.099155
    14  H    4.291283   3.429972   4.003597   2.191054   2.471908
    15  C    3.002404   2.562035   3.371529   1.575291   2.100892
    16  O    3.195678   2.928905   3.619011   2.450819   2.791107
    17  N    3.680941   3.626069   4.485715   2.430561   2.926899
    18  H    3.950988   3.780430   4.607894   2.489187   2.989681
    19  C    4.666458   4.958352   5.826351   3.854818   4.245909
    20  H    5.615457   5.646874   6.446970   4.369727   4.561002
    21  H    4.534463   5.291083   6.239066   4.354325   4.947089
    22  H    4.841122   5.113535   5.926943   4.157724   4.457678
                   11         12         13         14         15
    11  C    0.000000
    12  H    1.090000   0.000000
    13  H    1.090000   1.714099   0.000000
    14  H    1.090000   1.823315   1.763993   0.000000
    15  C    2.626657   3.568563   2.897994   2.844855   0.000000
    16  O    3.769969   4.613397   3.998285   4.073510   1.247805
    17  N    2.754222   3.835671   2.837068   2.560727   1.324586
    18  H    2.207305   3.273830   2.277194   1.770689   2.006026
    19  C    4.207012   5.294468   4.170740   3.880437   2.475288
    20  H    4.571262   5.627894   4.672823   3.995868   3.160713
    21  H    4.515823   5.593926   4.209014   4.287451   3.045620
    22  H    4.851503   5.914278   4.889141   4.645645   2.615026
                   16         17         18         19         20
    16  O    0.000000
    17  N    2.295804   0.000000
    18  H    3.167403   1.010000   0.000000
    19  C    2.896059   1.482695   2.155103   0.000000
    20  H    3.679296   2.075221   2.428547   1.090000   0.000000
    21  H    3.453835   2.044917   2.528184   1.090000   1.875586
    22  H    2.536856   2.134140   3.024423   1.090000   1.756521
                   21         22
    21  H    0.000000
    22  H    1.771906   0.000000
 Stoichiometry    C6H12N2O2
 Framework group  C1[X(C6H12N2O2)]
 Deg. of freedom    60
 Full point group                 C1      NOp   1
 Largest Abelian subgroup         C1      NOp   1
 Largest concise Abelian subgroup C1      NOp   1
                         Standard orientation:                         
 ---------------------------------------------------------------------
 Center     Atomic      Atomic             Coordinates (Angstroms)
 Number     Number       Type             X           Y           Z
 ---------------------------------------------------------------------
      1          1           0        3.585201   -1.480052   -0.689404
      2          6           0        3.341439   -0.573292   -0.135809
      3          1           0        3.840625    0.336381   -0.469584
      4          1           0        3.559351   -0.743493    0.918538
      5          6           0        1.894781   -0.370897   -0.229259
      6          8           0        1.302136   -0.879520   -1.139632
      7          7           0        1.359328    0.466020    0.655936
      8          1           0        1.989786    0.808305    1.366896
      9          6           0       -0.051239    0.964983    0.676436
     10          1           0       -0.311324    1.381201    1.649687
     11          6           0       -0.188811    2.096336   -0.414815
     12          1           0        0.607847    2.833153   -0.312171
     13          1           0       -0.047793    1.702771   -1.421453
     14          1           0       -1.188860    2.526143   -0.357641
     15          6           0       -1.113891   -0.184729    0.501864
     16          8           0       -0.955806   -1.275515    1.086854
     17          7           0       -2.128152    0.145056   -0.283657
     18          1           0       -2.114140    1.058959   -0.713406
     19          6           0       -3.316621   -0.716031   -0.494504
     20          1           0       -4.186693   -0.112966   -0.234913
     21          1           0       -3.212308   -1.070665   -1.519908
     22          1           0       -3.304513   -1.575211    0.176141
 ---------------------------------------------------------------------
 Rotational constants (GHZ):      2.3217292      0.8177372      0.7314673
 Standard basis: CC-pVTZ (5D, 7F)
 There are   468 symmetry adapted basis functions of A   symmetry.
 Integral buffers will be    131072 words long.
 Raffenetti 1 integral format.
 Two-electron integral symmetry is turned on.
   468 basis functions,   724 primitive gaussians,   530 cartesian basis functions
    39 alpha electrons       39 beta electrons
       nuclear repulsion energy       562.7774737479 Hartrees.
 NAtoms=   22 NActive=   22 NUniq=   22 SFac= 7.50D-01 NAtFMM=   80 NAOKFM=F Big=F
 One-electron integrals computed using PRISM.
 NBasis=   468 RedAO= T  NBF=   468
 NBsUse=   468 1.00D-06 NBFU=   468
 Harris functional with IExCor=  205 diagonalized for initial guess.
 ExpMin= 1.03D-01 ExpMax= 1.53D+04 ExpMxC= 5.22D+02 IAcc=1 IRadAn=         1 AccDes= 0.00D+00
 HarFok:  IExCor=  205 AccDes= 0.00D+00 IRadAn=         1 IDoV= 1
 ScaDFX=  1.000000  1.000000  1.000000  1.000000
 FoFCou: FMM=F IPFlag=           0 FMFlag=      100000 FMFlg1=           0
         NFxFlg=           0 DoJE=T BraDBF=F KetDBF=T FulRan=T
         Omega=  0.000000  0.000000  1.000000  0.000000  0.000000 ICntrl=     500 IOpCl=  0
         NMat0=    1 NMatS0=    1 NMatT0=    0 NMatD0=    1 NMtDS0=    0 NMtDT0=    0
         I1Cent=           4 NGrid=           0.
 Petite list used in FoFCou.
 Initial guess orbital symmetries:
       Occupied  (A) (A) (A) (A) (A) (A) (A) (A) (A) (A) (A) (A)
                 (A) (A) (A) (A) (A) (A) (A) (A) (A) (A) (A) (A)
                 (A) (A) (A) (A) (A) (A) (A) (A) (A) (A) (A) (A)
                 (A) (A) (A)
       Virtual   (A) (A) (A) (A) (A) (A) (A) (A) (A) (A) (A) (A)
                 (A) (A) (A) (A) (A) (A) (A) (A) (A) (A) (A) (A)
                 (A) (A) (A) (A) (A) (A) (A) (A) (A) (A) (A) (A)
                 (A) (A) (A) (A) (A) (A) (A) (A) (A) (A) (A) (A)
                 (A) (A) (A) (A) (A) (A) (A) (A) (A) (A) (A) (A)
                 (A) (A) (A) (A) (A) (A) (A) (A) (A) (A) (A) (A)
                 (A) (A) (A) (A) (A) (A) (A) (A) (A) (A) (A) (A)
                 (A) (A) (A) (A) (A) (A) (A) (A) (A) (A) (A) (A)
                 (A) (A) (A) (A) (A) (A) (A) (A) (A) (A) (A) (A)
                 (A) (A) (A) (A) (A) (A) (A) (A) (A) (A) (A) (A)
                 (A) (A) (A) (A) (A) (A) (A) (A) (A) (A) (A) (A)
                 (A) (A) (A) (A) (A) (A) (A) (A) (A) (A) (A) (A)
                 (A) (A) (A) (A) (A) (A) (A) (A) (A) (A) (A) (A)
                 (A) (A) (A) (A) (A) (A) (A) (A) (A) (A) (A) (A)
                 (A) (A) (A) (A) (A) (A) (A) (A) (A) (A) (A) (A)
                 (A) (A) (A) (A) (A) (A) (A) (A) (A) (A) (A) (A)
                 (A) (A) (A) (A) (A) (A) (A) (A) (A) (A) (A) (A)
                 (A) (A) (A) (A) (A) (A) (A) (A) (A) (A) (A) (A)
                 (A) (A) (A) (A) (A) (A) (A) (A) (A) (A) (A) (A)
                 (A) (A) (A) (A) (A) (A) (A) (A) (A) (A) (A) (A)
                 (A) (A) (A) (A) (A) (A) (A) (A) (A) (A) (A) (A)
                 (A) (A) (A) (A) (A) (A) (A) (A) (A) (A) (A) (A)
                 (A) (A) (A) (A) (A) (A) (A) (A) (A) (A) (A) (A)
                 (A) (A) (A) (A) (A) (A) (A) (A) (A) (A) (A) (A)
                 (A) (A) (A) (A) (A) (A) (A) (A) (A) (A) (A) (A)
                 (A) (A) (A) (A) (A) (A) (A) (A) (A) (A) (A) (A)
                 (A) (A) (A) (A) (A) (A) (A) (A) (A) (A) (A) (A)
                 (A) (A) (A) (A) (A) (A) (A) (A) (A) (A) (A) (A)
                 (A) (A) (A) (A) (A) (A) (A) (A) (A) (A) (A) (A)
                 (A) (A) (A) (A) (A) (A) (A) (A) (A) (A) (A) (A)
                 (A) (A) (A) (A) (A) (A) (A) (A) (A) (A) (A) (A)
                 (A) (A) (A) (A) (A) (A) (A) (A) (A) (A) (A) (A)
                 (A) (A) (A) (A) (A) (A) (A) (A) (A) (A) (A) (A)
                 (A) (A) (A) (A) (A) (A) (A) (A) (A) (A) (A) (A)
                 (A) (A) (A) (A) (A) (A) (A) (A) (A) (A) (A) (A)
                 (A) (A) (A) (A) (A) (A) (A) (A) (A)
 The electronic state of the initial guess is 1-A.
 Requested convergence on RMS density matrix=1.00D-08 within 128 cycles.
 Requested convergence on MAX density matrix=1.00D-06.
 Requested convergence on             energy=1.00D-06.
 No special actions if energy rises.
 Integral accuracy reduced to 1.0D-05 until final iterations.
 Initial convergence to 1.0D-05 achieved.  Increase integral accuracy.
 SCF Done:  E(RHF) =  -493.003805306     A.U. after   13 cycles
             Convg  =    0.9491D-08             -V/T =  2.0014
 ExpMin= 1.03D-01 ExpMax= 1.53D+04 ExpMxC= 5.22D+02 IAcc=1 IRadAn=         1 AccDes= 0.00D+00
 HarFok:  IExCor=  205 AccDes= 0.00D+00 IRadAn=         1 IDoV=-2
 ScaDFX=  1.000000  1.000000  1.000000  1.000000
 Range of M.O.s used for correlation:    11   468
 NBasis=   468 NAE=    39 NBE=    39 NFC=    10 NFV=     0
 NROrb=    458 NOA=    29 NOB=    29 NVA=   429 NVB=   429

 **** Warning!!: The largest alpha MO coefficient is  0.11205851D+02

 Disk-based method using ON**2 memory for  8 occupieds at a time.
 Estimated scratch disk usage=  1884617068 words.
 Actual    scratch disk usage=  1724307308 words.
 JobTyp=1 Pass  1:  I=  11 to  18 NPSUse=  8 ParTrn=T ParDer=T DoDerP=T.
Erroneous read. Read 383632 instead of 5647680.
fd = 4
g_read
